                         Program Version 5.0.3 -  RELEASE  -
|  1> !ri-mp2 aug-cc-pvdz aug-cc-pvdz/c tightscf
|  2> %pal nprocs 16 end
|  3>
|  4> * xyz 0 1
|  5> C     -1.897971   -0.000097    0.008691
|  6> C     -1.196697    1.200136    0.001975
|  7> C     -1.196435   -1.200271    0.001973
|  8> C      0.193419    1.197285   -0.008982
|  9> C      0.193595   -1.197195   -0.008976
| 10> C      0.910843    0.000147   -0.011486
| 11> C      2.417290    0.000075    0.009328
| 12> H     -2.979553   -0.000212    0.014466
| 13> H     -1.731919    2.140543    0.001706
| 14> H     -1.731521   -2.140756    0.001687
| 15> H      0.729597    2.138337   -0.018405
| 16> H      0.729920   -2.138174   -0.018405
| 17> H      2.822376   -0.877771   -0.494005
| 18> H      2.822189    0.887290   -0.477332
| 19> H      2.794646   -0.009730    1.035147
| 20> *
| 21>
| 22>                          ****END OF INPUT****

CARTESIAN COORDINATES (ANGSTROEM)
---------------------------------
  C     -1.897971   -0.000097    0.008691
  C     -1.196697    1.200136    0.001975
  C     -1.196435   -1.200271    0.001973
  C      0.193419    1.197285   -0.008982
  C      0.193595   -1.197195   -0.008976
  C      0.910843    0.000147   -0.011486
  C      2.417290    0.000075    0.009328
  H     -2.979553   -0.000212    0.014466
  H     -1.731919    2.140543    0.001706
  H     -1.731521   -2.140756    0.001687
  H      0.729597    2.138337   -0.018405
  H      0.729920   -2.138174   -0.018405
  H      2.822376   -0.877771   -0.494005
  H      2.822189    0.887290   -0.477332
  H      2.794646   -0.009730    1.035147

 Total Charge           Charge          ....    0
 Multiplicity           Mult            ....    1
 Number of Electrons    NEL             ....   50
 Basis Dimension        Dim             ....  233

ORBITAL ENERGIES
----------------

  NO   OCC          E(Eh)            E(eV)
   0   2.0000     -11.245148      -305.9960
   1   2.0000     -11.237912      -305.7991
   2   2.0000     -11.237752      -305.7948
   3   2.0000     -11.233645      -305.6830
   4   2.0000     -11.233006      -305.6656
   5   2.0000     -11.232926      -305.6635
   6   2.0000     -11.230056      -305.5854
   7   2.0000      -1.156054       -31.4578
   8   2.0000      -1.046862       -28.4866
   9   2.0000      -1.014299       -27.6005
  10   2.0000      -0.934790       -25.4369
  11   2.0000      -0.826512       -22.4905
  12   2.0000      -0.799396       -21.7527
  13   2.0000      -0.694253       -18.8916
  14   2.0000      -0.634127       -17.2555
  15   2.0000      -0.631531       -17.1848
  16   2.0000      -0.583684       -15.8829
  17   2.0000      -0.575342       -15.6558
  18   2.0000      -0.567456       -15.4413
  19   2.0000      -0.539273       -14.6744
  20   2.0000      -0.488538       -13.2938
  21   2.0000      -0.487163       -13.2564
  22   2.0000      -0.485178       -13.2024
  23   2.0000      -0.334344        -9.0980
  24   2.0000      -0.323853        -8.8125
  25   0.0000       0.035982         0.9791
  26   0.0000       0.040866         1.1120
  27   0.0000       0.042579         1.1586
  28   0.0000       0.055630         1.5138
  29   0.0000       0.058062         1.5799

MULLIKEN ATOMIC CHARGES
-----------------------
   0 C :    0.395925
   1 C :    0.253385
   2 C :    0.253821
   3 C :    0.600180
   4 C :    0.595043
   5 C :    0.108468
   6 C :    0.345042
   7 H :   -0.435695
   8 H :   -0.457061
   9 H :   -0.457347
  10 H :   -0.562891
  11 H :   -0.563308
  12 H :   -0.079501
  13 H :   -0.085782
  14 H :    0.089722
Sum of atomic charges:    0.0000000

LOEWDIN ATOMIC CHARGES
----------------------
   0 C :   -0.000025
   1 C :    0.005781
   2 C :    0.005771
   3 C :    0.035496
   4 C :    0.035548
   5 C :   -0.219110
   6 C :    0.171843
   7 H :   -0.003402
   8 H :   -0.000817
   9 H :   -0.000814
  10 H :    0.003056
  11 H :    0.003190
  12 H :   -0.014813
  13 H :   -0.015000
  14 H :   -0.006704

  Mayer bond orders larger than 0.100000
B(  0-C ,  1-C ) :   1.8308 B(  0-C ,  2-C ) :   1.8318 B(  0-C ,  5-C ) :   0.2635
B(  0-C ,  6-C ) :  -0.1042 B(  0-C ,  7-H ) :   0.3268 B(  0-C ,  8-H ) :   0.1927
B(  0-C ,  9-H ) :   0.1934 B(  1-C ,  2-C ) :  -0.1036 B(  1-C ,  3-C ) :   1.7740
B(  1-C ,  4-C ) :   0.1531 B(  1-C ,  5-C ) :  -0.4138 B(  1-C ,  6-C ) :   0.3927
B(  1-C ,  7-H ) :   0.2064 B(  1-C ,  8-H ) :   0.2858 B(  1-C , 10-H ) :   0.1824
B(  2-C ,  3-C ) :   0.1479 B(  2-C ,  4-C ) :   1.7881 B(  2-C ,  5-C ) :  -0.4164
B(  2-C ,  6-C ) :   0.3878 B(  2-C ,  7-H ) :   0.2068 B(  2-C ,  9-H ) :   0.2840
B(  2-C , 11-H ) :   0.1840 B(  3-C ,  4-C ) :  -0.6235 B(  3-C ,  5-C ) :   1.8994
B(  3-C ,  6-C ) :  -0.5681 B(  3-C ,  8-H ) :   0.2937 B(  3-C , 13-H ) :  -0.1056
B(  4-C ,  5-C ) :   1.8875 B(  4-C ,  6-C ) :  -0.5737 B(  4-C ,  9-H ) :   0.2962
B(  4-C , 12-H ) :  -0.1026 B(  5-C ,  6-C ) :   1.7185 B(  5-C , 10-H ) :   0.4252
B(  5-C , 11-H ) :   0.4243 B(  5-C , 12-H ) :   0.2689 B(  5-C , 13-H ) :   0.2748
B(  5-C , 14-H ) :   0.2245 B(  6-C , 12-H ) :   0.7906 B(  6-C , 13-H ) :   0.7853
B(  6-C , 14-H ) :   0.8726

MP2 TOTAL ENERGY:     -270.730250167 Eh
FINAL SINGLE POINT ENERGY      -270.730250166939

DIPOLE MOMENT
-------------
                                X             Y             Z
Electronic contribution:     -3.36328       0.00011      -0.03395
Nuclear contribution   :      3.52184      -0.00048       0.04572
                        -----------------------------------------
Total Dipole Moment    :      0.15857      -0.00037       0.01176
                        -----------------------------------------
Magnitude (a.u.)       :      0.15900
Magnitude (Debye)      :      0.40416

Rotational constants in cm-1:     0.186017     0.084228     0.058606
Rotational constants in MHz :  5576.652657  2525.105337  1756.975433

                             ****ORCA TERMINATED NORMALLY****
TOTAL RUN TIME: 0 days 0 hours 0 minutes 55 seconds 75 msec
