                         Program Version 5.0.3 -  RELEASE  -
|  1> !ri-mp2 aug-cc-pvdz aug-cc-pvdz/c tightscf
|  2> %pal nprocs 16 end
|  3>
|  4> * xyz 0 1
|  5> C      0.244705    0.078242    1.082742
|  6> C      0.244705    0.078242   -1.082742
|  7> C      0.834997   -0.869296    0.000000
|  8> C     -0.656207    0.731128    0.000000
|  9> C      0.244705   -2.272702    0.000000
| 10> C     -0.820584    2.239722    0.000000
| 11> H     -0.252168   -0.391852    1.932537
| 12> H      0.988396    0.780747    1.462896
| 13> H     -0.252168   -0.391852   -1.932537
| 14> H      0.988396    0.780747   -1.462896
| 15> H      1.923688   -0.935418    0.000000
| 16> H     -1.640735    0.259122    0.000000
| 17> H     -0.847355   -2.246577    0.000000
| 18> H      0.151583    2.738338    0.000000
| 19> H      0.561618   -2.832501   -0.882519
| 20> H      0.561618   -2.832501    0.882519
| 21> H     -1.368402    2.579864   -0.881781
| 22> H     -1.368402    2.579864    0.881781
| 23> *
| 24>
| 25>                          ****END OF INPUT****

CARTESIAN COORDINATES (ANGSTROEM)
---------------------------------
  C      0.244705    0.078242    1.082742
  C      0.244705    0.078242   -1.082742
  C      0.834997   -0.869296    0.000000
  C     -0.656207    0.731128    0.000000
  C      0.244705   -2.272702    0.000000
  C     -0.820584    2.239722    0.000000
  H     -0.252168   -0.391852    1.932537
  H      0.988396    0.780747    1.462896
  H     -0.252168   -0.391852   -1.932537
  H      0.988396    0.780747   -1.462896
  H      1.923688   -0.935418    0.000000
  H     -1.640735    0.259122    0.000000
  H     -0.847355   -2.246577    0.000000
  H      0.151583    2.738338    0.000000
  H      0.561618   -2.832501   -0.882519
  H      0.561618   -2.832501    0.882519
  H     -1.368402    2.579864   -0.881781
  H     -1.368402    2.579864    0.881781

 Total Charge           Charge          ....    0
 Multiplicity           Mult            ....    1
 Number of Electrons    NEL             ....   48
 Basis Dimension        Dim             ....  246

ORBITAL ENERGIES
----------------

  NO   OCC          E(Eh)            E(eV)
   0   2.0000     -11.224639      -305.4380
   1   2.0000     -11.224229      -305.4268
   2   2.0000     -11.215592      -305.1918
   3   2.0000     -11.215071      -305.1776
   4   2.0000     -11.215039      -305.1767
   5   2.0000     -11.214619      -305.1653
   6   2.0000      -1.133764       -30.8513
   7   2.0000      -1.003918       -27.3180
   8   2.0000      -0.932332       -25.3700
   9   2.0000      -0.894028       -24.3278
  10   2.0000      -0.808847       -22.0098
  11   2.0000      -0.721354       -19.6291
  12   2.0000      -0.640448       -17.4275
  13   2.0000      -0.632595       -17.2138
  14   2.0000      -0.581888       -15.8340
  15   2.0000      -0.553946       -15.0736
  16   2.0000      -0.548768       -14.9327
  17   2.0000      -0.532068       -14.4783
  18   2.0000      -0.525664       -14.3041
  19   2.0000      -0.495306       -13.4780
  20   2.0000      -0.445539       -12.1237
  21   2.0000      -0.442215       -12.0333
  22   2.0000      -0.419046       -11.4028
  23   2.0000      -0.411676       -11.2023
  24   0.0000       0.037027         1.0076
  25   0.0000       0.043450         1.1823
  26   0.0000       0.046613         1.2684
  27   0.0000       0.047171         1.2836
  28   0.0000       0.063100         1.7171

MULLIKEN ATOMIC CHARGES
-----------------------
   0 C :    0.993176
   1 C :    0.993176
   2 C :   -0.460922
   3 C :   -0.640187
   4 C :    0.512166
   5 C :    0.500053
   6 H :   -0.257216
   7 H :   -0.242338
   8 H :   -0.257216
   9 H :   -0.242338
  10 H :   -0.369826
  11 H :   -0.298961
  12 H :   -0.073937
  13 H :   -0.051136
  14 H :   -0.046817
  15 H :   -0.046817
  16 H :   -0.005429
  17 H :   -0.005429
Sum of atomic charges:    0.0000000

LOEWDIN ATOMIC CHARGES
----------------------
   0 C :    0.059455
   1 C :    0.059455
   2 C :   -0.203217
   3 C :   -0.211052
   4 C :    0.149543
   5 C :    0.152337
   6 H :    0.005699
   7 H :    0.008993
   8 H :    0.005699
   9 H :    0.008993
  10 H :    0.023175
  11 H :    0.030199
  12 H :   -0.013037
  13 H :   -0.016400
  14 H :   -0.014476
  15 H :   -0.014476
  16 H :   -0.015445
  17 H :   -0.015445

  Mayer bond orders larger than 0.100000
B(  0-C ,  2-C ) :   1.1105 B(  0-C ,  3-C ) :   1.0079 B(  0-C ,  4-C ) :  -0.1471
B(  0-C ,  5-C ) :  -0.1615 B(  0-C ,  6-H ) :   0.7434 B(  0-C ,  7-H ) :   0.6873
B(  0-C , 10-H ) :   0.1146 B(  0-C , 12-H ) :  -0.1431 B(  0-C , 13-H ) :  -0.1237
B(  1-C ,  2-C ) :   1.1105 B(  1-C ,  3-C ) :   1.0079 B(  1-C ,  4-C ) :  -0.1471
B(  1-C ,  5-C ) :  -0.1615 B(  1-C ,  8-H ) :   0.7434 B(  1-C ,  9-H ) :   0.6873
B(  1-C , 10-H ) :   0.1146 B(  1-C , 12-H ) :  -0.1431 B(  1-C , 13-H ) :  -0.1237
B(  2-C ,  4-C ) :   1.4883 B(  2-C ,  7-H ) :   0.1086 B(  2-C ,  9-H ) :   0.1086
B(  2-C , 10-H ) :   0.4664 B(  2-C , 12-H ) :   0.3565 B(  3-C ,  5-C ) :   1.3775
B(  3-C , 11-H ) :   0.6398 B(  3-C , 13-H ) :   0.2606 B(  4-C , 12-H ) :   0.8806
B(  4-C , 14-H ) :   0.8503 B(  4-C , 15-H ) :   0.8503 B(  5-C , 13-H ) :   0.8718
B(  5-C , 16-H ) :   0.8584 B(  5-C , 17-H ) :   0.8584 B(  6-H ,  7-H ) :  -0.1828
B(  8-H ,  9-H ) :  -0.1828 B( 14-H , 15-H ) :  -0.1020

MP2 TOTAL ENERGY:     -235.083782350 Eh
FINAL SINGLE POINT ENERGY      -235.083782350427

DIPOLE MOMENT
-------------
                                X             Y             Z
Electronic contribution:      0.59226      -0.10198      -0.00000
Nuclear contribution   :     -0.59332       0.09424       0.00000
                        -----------------------------------------
Total Dipole Moment    :     -0.00106      -0.00774      -0.00000
                        -----------------------------------------
Magnitude (a.u.)       :      0.00781
Magnitude (Debye)      :      0.01986

Rotational constants in cm-1:     0.261922     0.076574     0.069639
Rotational constants in MHz :  7852.218461  2295.635257  2087.720191

                             ****ORCA TERMINATED NORMALLY****
TOTAL RUN TIME: 0 days 0 hours 0 minutes 54 seconds 132 msec
