                         Program Version 5.0.3 -  RELEASE  -
|  1> !ri-mp2 aug-cc-pvdz aug-cc-pvdz/c tightscf
|  2> %pal nprocs 16 end
|  3>
|  4> * xyz 0 1
|  5> C      1.834252    0.658103   -0.170078
|  6> C      1.649901   -0.833890    0.185441
|  7> C      0.498294    1.346797    0.118872
|  8> N      0.326076   -1.259222   -0.291458
|  9> O     -1.335449   -0.168992    1.339154
| 10> O     -1.629458    0.146059   -1.144584
| 11> S     -0.765053    0.008844    0.017322
| 12> H      2.646117    1.108508    0.400152
| 13> H      2.080033    0.749839   -1.228760
| 14> H      2.410975   -1.464557   -0.268110
| 15> H      1.690040   -0.982698    1.264866
| 16> H      0.427121    1.743751    1.127834
| 17> H      0.219725    2.107908   -0.603766
| 18> H      0.308880   -1.432296   -1.291141
| 19> *
| 20>
| 21>                          ****END OF INPUT****

CARTESIAN COORDINATES (ANGSTROEM)
---------------------------------
  C      1.834252    0.658103   -0.170078
  C      1.649901   -0.833890    0.185441
  C      0.498294    1.346797    0.118872
  N      0.326076   -1.259222   -0.291458
  O     -1.335449   -0.168992    1.339154
  O     -1.629458    0.146059   -1.144584
  S     -0.765053    0.008844    0.017322
  H      2.646117    1.108508    0.400152
  H      2.080033    0.749839   -1.228760
  H      2.410975   -1.464557   -0.268110
  H      1.690040   -0.982698    1.264866
  H      0.427121    1.743751    1.127834
  H      0.219725    2.107908   -0.603766
  H      0.308880   -1.432296   -1.291141

 Total Charge           Charge          ....    0
 Multiplicity           Mult            ....    1
 Number of Electrons    NEL             ....   64
 Basis Dimension        Dim             ....  228

ORBITAL ENERGIES
----------------

  NO   OCC          E(Eh)            E(eV)
   0   2.0000     -92.216993     -2509.3520
   1   2.0000     -20.561577      -559.5089
   2   2.0000     -20.556452      -559.3695
   3   2.0000     -15.612733      -424.8441
   4   2.0000     -11.301615      -307.5326
   5   2.0000     -11.291956      -307.2698
   6   2.0000     -11.275313      -306.8169
   7   2.0000      -9.187112      -249.9940
   8   2.0000      -6.872515      -187.0107
   9   2.0000      -6.871632      -186.9866
  10   2.0000      -6.870647      -186.9598
  11   2.0000      -1.465899       -39.8892
  12   2.0000      -1.345473       -36.6122
  13   2.0000      -1.257350       -34.2142
  14   2.0000      -1.090711       -29.6797
  15   2.0000      -0.996891       -27.1268
  16   2.0000      -0.863395       -23.4942
  17   2.0000      -0.832100       -22.6426
  18   2.0000      -0.727933       -19.8081
  19   2.0000      -0.701043       -19.0764
  20   2.0000      -0.664566       -18.0837
  21   2.0000      -0.657510       -17.8918
  22   2.0000      -0.630771       -17.1641
  23   2.0000      -0.613124       -16.6840
  24   2.0000      -0.585310       -15.9271
  25   2.0000      -0.547236       -14.8911
  26   2.0000      -0.532937       -14.5020
  27   2.0000      -0.503100       -13.6901
  28   2.0000      -0.494283       -13.4501
  29   2.0000      -0.472809       -12.8658
  30   2.0000      -0.447734       -12.1834
  31   2.0000      -0.432850       -11.7785
  32   0.0000       0.023839         0.6487
  33   0.0000       0.037477         1.0198
  34   0.0000       0.040330         1.0974
  35   0.0000       0.050827         1.3831
  36   0.0000       0.064856         1.7648

MULLIKEN ATOMIC CHARGES
-----------------------
   0 C :    0.202640
   1 C :    0.742793
   2 C :    0.016085
   3 N :   -0.889948
   4 O :   -1.132071
   5 O :   -1.140793
   6 S :    2.833625
   7 H :   -0.085544
   8 H :   -0.127730
   9 H :   -0.134623
  10 H :   -0.195606
  11 H :   -0.064674
  12 H :   -0.047041
  13 H :    0.022888
Sum of atomic charges:   -0.0000000

LOEWDIN ATOMIC CHARGES
----------------------
   0 C :   -0.037116
   1 C :   -0.047614
   2 C :   -0.033012
   3 N :   -0.071009
   4 O :   -0.387880
   5 O :   -0.392963
   6 S :    0.960055
   7 H :    0.015679
   8 H :    0.013646
   9 H :    0.016754
  10 H :    0.014938
  11 H :   -0.005759
  12 H :   -0.006206
  13 H :   -0.039512

  Mayer bond orders larger than 0.100000
B(  0-C ,  1-C ) :   1.1866 B(  0-C ,  2-C ) :   1.2957 B(  0-C ,  7-H ) :   0.8327
B(  0-C ,  8-H ) :   0.8157 B(  1-C ,  3-N ) :   0.8590 B(  1-C ,  9-H ) :   0.8767
B(  1-C , 10-H ) :   0.8795 B(  2-C ,  4-O ) :   0.1430 B(  2-C ,  5-O ) :   0.1243
B(  2-C ,  6-S ) :   0.8575 B(  2-C , 11-H ) :   0.8371 B(  2-C , 12-H ) :   0.8422
B(  3-N ,  4-O ) :   0.1138 B(  3-N ,  6-S ) :   0.9643 B(  3-N , 13-H ) :   1.0662
B(  4-O ,  5-O ) :   0.1402 B(  4-O ,  6-S ) :   0.7383 B(  5-O ,  6-S ) :   0.7458
B(  9-H , 10-H ) :  -0.1417

MP2 TOTAL ENERGY:     -720.505159111 Eh
FINAL SINGLE POINT ENERGY      -720.505159110870

DIPOLE MOMENT
-------------
                                X             Y             Z
Electronic contribution:     -7.22090      -1.27230       0.15240
Nuclear contribution   :      9.68454       1.80803      -0.59338
                        -----------------------------------------
Total Dipole Moment    :      2.46363       0.53573      -0.44098
                        -----------------------------------------
Magnitude (a.u.)       :      2.55948
Magnitude (Debye)      :      6.50569

Rotational constants in cm-1:     0.128339     0.068682     0.064827
Rotational constants in MHz :  3847.495399  2059.043944  1943.465787

                             ****ORCA TERMINATED NORMALLY****
TOTAL RUN TIME: 0 days 0 hours 1 minutes 2 seconds 671 msec
