                         Program Version 5.0.3 -  RELEASE  -
|  1> !ri-mp2 aug-cc-pvdz aug-cc-pvdz/c tightscf
|  2> %pal nprocs 16 end
|  3>
|  4> * xyz 0 1
|  5> C      0.000000    1.388631   -0.059542
|  6> C      1.202590   -0.694316   -0.059542
|  7> C     -1.202590   -0.694316   -0.059542
|  8> N      0.000000    0.000000    0.366212
|  9> H     -0.882915    1.895599    0.330609
| 10> H      0.000000    1.499929   -1.158458
| 11> H      0.882915    1.895599    0.330609
| 12> H      2.083094   -0.183172    0.330609
| 13> H      1.298977   -0.749964   -1.158458
| 14> H      1.200179   -1.712426    0.330609
| 15> H     -1.200179   -1.712426    0.330609
| 16> H     -1.298977   -0.749964   -1.158458
| 17> H     -2.083094   -0.183172    0.330609
| 18> *
| 19>
| 20>                          ****END OF INPUT****

CARTESIAN COORDINATES (ANGSTROEM)
---------------------------------
  C      0.000000    1.388631   -0.059542
  C      1.202590   -0.694316   -0.059542
  C     -1.202590   -0.694316   -0.059542
  N      0.000000    0.000000    0.366212
  H     -0.882915    1.895599    0.330609
  H      0.000000    1.499929   -1.158458
  H      0.882915    1.895599    0.330609
  H      2.083094   -0.183172    0.330609
  H      1.298977   -0.749964   -1.158458
  H      1.200179   -1.712426    0.330609
  H     -1.200179   -1.712426    0.330609
  H     -1.298977   -0.749964   -1.158458
  H     -2.083094   -0.183172    0.330609

 Total Charge           Charge          ....    0
 Multiplicity           Mult            ....    1
 Number of Electrons    NEL             ....   34
 Basis Dimension        Dim             ....  173

ORBITAL ENERGIES
----------------

  NO   OCC          E(Eh)            E(eV)
   0   2.0000     -15.551677      -423.1826
   1   2.0000     -11.246155      -306.0234
   2   2.0000     -11.246155      -306.0234
   3   2.0000     -11.246127      -306.0227
   4   2.0000      -1.225019       -33.3345
   5   2.0000      -0.950683       -25.8694
   6   2.0000      -0.950683       -25.8694
   7   2.0000      -0.805621       -21.9221
   8   2.0000      -0.639596       -17.4043
   9   2.0000      -0.628709       -17.1080
  10   2.0000      -0.628709       -17.1080
  11   2.0000      -0.541713       -14.7408
  12   2.0000      -0.541713       -14.7408
  13   2.0000      -0.516270       -14.0484
  14   2.0000      -0.500868       -13.6293
  15   2.0000      -0.500868       -13.6293
  16   2.0000      -0.349972        -9.5232
  17   0.0000       0.036868         1.0032
  18   0.0000       0.049402         1.3443
  19   0.0000       0.049402         1.3443
  20   0.0000       0.056621         1.5407
  21   0.0000       0.070842         1.9277

MULLIKEN ATOMIC CHARGES
-----------------------
   0 C :    0.699669
   1 C :    0.699669
   2 C :    0.699669
   3 N :   -1.044512
   4 H :   -0.169556
   5 H :   -0.012387
   6 H :   -0.169556
   7 H :   -0.169555
   8 H :   -0.012386
   9 H :   -0.169557
  10 H :   -0.169557
  11 H :   -0.012386
  12 H :   -0.169555
Sum of atomic charges:    0.0000000

LOEWDIN ATOMIC CHARGES
----------------------
   0 C :    0.120969
   1 C :    0.120970
   2 C :    0.120970
   3 N :   -0.235508
   4 H :   -0.016465
   5 H :   -0.009538
   6 H :   -0.016465
   7 H :   -0.016464
   8 H :   -0.009538
   9 H :   -0.016465
  10 H :   -0.016465
  11 H :   -0.009538
  12 H :   -0.016464

  Mayer bond orders larger than 0.100000
B(  0-C ,  3-N ) :   0.9785 B(  0-C ,  4-H ) :   0.9831 B(  0-C ,  5-H ) :   0.8545
B(  0-C ,  6-H ) :   0.9831 B(  1-C ,  3-N ) :   0.9785 B(  1-C ,  7-H ) :   0.9831
B(  1-C ,  8-H ) :   0.8545 B(  1-C ,  9-H ) :   0.9831 B(  2-C ,  3-N ) :   0.9785
B(  2-C , 10-H ) :   0.9831 B(  2-C , 11-H ) :   0.8545 B(  2-C , 12-H ) :   0.9831
B(  3-N ,  5-H ) :   0.1329 B(  3-N ,  8-H ) :   0.1329 B(  3-N , 11-H ) :   0.1329
B(  4-H ,  6-H ) :  -0.1182 B(  7-H ,  9-H ) :  -0.1182 B( 10-H , 12-H ) :  -0.1182

MP2 TOTAL ENERGY:     -173.930472035 Eh
FINAL SINGLE POINT ENERGY      -173.930472034511

DIPOLE MOMENT
-------------
                                X             Y             Z
Electronic contribution:     -0.00000      -0.00000       1.33835
Nuclear contribution   :      0.00000       0.00000      -1.60908
                        -----------------------------------------
Total Dipole Moment    :     -0.00000      -0.00000      -0.27073
                        -----------------------------------------
Magnitude (a.u.)       :      0.27073
Magnitude (Debye)      :      0.68813

Rotational constants in cm-1:     0.290375     0.290375     0.164092
Rotational constants in MHz :  8705.214634  8705.214571  4919.369301

                             ****ORCA TERMINATED NORMALLY****
TOTAL RUN TIME: 0 days 0 hours 0 minutes 46 seconds 897 msec
