                         Program Version 5.0.3 -  RELEASE  -
|  1> !ri-mp2 aug-cc-pvdz aug-cc-pvdz/c tightscf
|  2> %pal nprocs 16 end
|  3>
|  4> * xyz 0 1
|  5> C     -2.830605   -0.004894    0.011148
|  6> C     -2.141181    1.201669    0.001644
|  7> C     -2.130097   -1.206446    0.001574
|  8> C     -0.751864    1.211198   -0.016805
|  9> C     -0.742127   -1.203364   -0.017162
| 10> C     -0.054399    0.007588   -0.027137
| 11> C      1.449778    0.003678   -0.003578
| 12> F      1.974663    1.157149   -0.464769
| 13> F      1.932309   -0.167372    1.251571
| 14> F      1.967606   -0.995256   -0.750684
| 15> H     -3.912035   -0.009776    0.023540
| 16> H     -2.683315    2.137140    0.005948
| 17> H     -2.664442   -2.146382    0.005924
| 18> H     -0.213065    2.147199   -0.028956
| 19> H     -0.195372   -2.135445   -0.029626
| 20> *
| 21>
| 22>                          ****END OF INPUT****

CARTESIAN COORDINATES (ANGSTROEM)
---------------------------------
  C     -2.830605   -0.004894    0.011148
  C     -2.141181    1.201669    0.001644
  C     -2.130097   -1.206446    0.001574
  C     -0.751864    1.211198   -0.016805
  C     -0.742127   -1.203364   -0.017162
  C     -0.054399    0.007588   -0.027137
  C      1.449778    0.003678   -0.003578
  F      1.974663    1.157149   -0.464769
  F      1.932309   -0.167372    1.251571
  F      1.967606   -0.995256   -0.750684
  H     -3.912035   -0.009776    0.023540
  H     -2.683315    2.137140    0.005948
  H     -2.664442   -2.146382    0.005924
  H     -0.213065    2.147199   -0.028956
  H     -0.195372   -2.135445   -0.029626

 Total Charge           Charge          ....    0
 Multiplicity           Mult            ....    1
 Number of Electrons    NEL             ....   74
 Basis Dimension        Dim             ....  275

ORBITAL ENERGIES
----------------

  NO   OCC          E(Eh)            E(eV)
   0   2.0000     -26.350040      -717.0210
   1   2.0000     -26.348246      -716.9722
   2   2.0000     -26.343739      -716.8496
   3   2.0000     -11.519516      -313.4620
   4   2.0000     -11.275383      -306.8188
   5   2.0000     -11.267042      -306.5918
   6   2.0000     -11.266899      -306.5879
   7   2.0000     -11.263822      -306.5042
   8   2.0000     -11.260208      -306.4058
   9   2.0000     -11.259915      -306.3979
  10   2.0000      -1.727621       -47.0109
  11   2.0000      -1.635655       -44.5084
  12   2.0000      -1.629884       -44.3514
  13   2.0000      -1.187409       -32.3110
  14   2.0000      -1.075838       -29.2750
  15   2.0000      -1.043564       -28.3968
  16   2.0000      -0.967564       -26.3287
  17   2.0000      -0.868188       -23.6246
  18   2.0000      -0.861250       -23.4358
  19   2.0000      -0.816431       -22.2162
  20   2.0000      -0.810662       -22.0592
  21   2.0000      -0.790509       -21.5108
  22   2.0000      -0.713487       -19.4150
  23   2.0000      -0.706812       -19.2333
  24   2.0000      -0.702103       -19.1052
  25   2.0000      -0.663425       -18.0527
  26   2.0000      -0.656771       -17.8717
  27   2.0000      -0.653597       -17.7853
  28   2.0000      -0.643513       -17.5109
  29   2.0000      -0.640930       -17.4406
  30   2.0000      -0.609662       -16.5897
  31   2.0000      -0.592258       -16.1161
  32   2.0000      -0.527490       -14.3537
  33   2.0000      -0.522777       -14.2255
  34   2.0000      -0.518705       -14.1147
  35   2.0000      -0.365155        -9.9364
  36   2.0000      -0.358835        -9.7644
  37   0.0000       0.029674         0.8075
  38   0.0000       0.038434         1.0458
  39   0.0000       0.045253         1.2314
  40   0.0000       0.059145         1.6094
  41   0.0000       0.062970         1.7135

MULLIKEN ATOMIC CHARGES
-----------------------
   0 C :    0.214678
   1 C :    0.640967
   2 C :    0.632471
   3 C :    0.021741
   4 C :   -0.228733
   5 C :    0.885539
   6 C :    2.220513
   7 F :   -0.691978
   8 F :   -0.638752
   9 F :   -0.671319
  10 H :   -0.434679
  11 H :   -0.438543
  12 H :   -0.438507
  13 H :   -0.532381
  14 H :   -0.541019
Sum of atomic charges:    0.0000000

LOEWDIN ATOMIC CHARGES
----------------------
   0 C :    0.022345
   1 C :    0.022961
   2 C :    0.023202
   3 C :    0.061817
   4 C :    0.062283
   5 C :   -0.143873
   6 C :   -0.322992
   7 F :    0.083518
   8 F :    0.075967
   9 F :    0.080621
  10 H :    0.004837
  11 H :    0.003577
  12 H :    0.003720
  13 H :    0.008937
  14 H :    0.013080

  Mayer bond orders larger than 0.100000
B(  0-C ,  1-C ) :   1.6505 B(  0-C ,  2-C ) :   1.6482 B(  0-C ,  3-C ) :   0.2735
B(  0-C ,  4-C ) :   0.2590 B(  0-C , 10-H ) :   0.4092 B(  0-C , 11-H ) :   0.1891
B(  0-C , 12-H ) :   0.1943 B(  1-C ,  2-C ) :  -0.1623 B(  1-C ,  3-C ) :   1.8263
B(  1-C ,  5-C ) :  -0.3231 B(  1-C ,  6-C ) :   0.1567 B(  1-C , 10-H ) :   0.1578
B(  1-C , 11-H ) :   0.2493 B(  1-C , 12-H ) :  -0.1044 B(  1-C , 13-H ) :   0.1729
B(  2-C ,  4-C ) :   1.9296 B(  2-C ,  5-C ) :  -0.3473 B(  2-C ,  6-C ) :   0.1295
B(  2-C , 10-H ) :   0.1722 B(  2-C , 11-H ) :  -0.1058 B(  2-C , 12-H ) :   0.2570
B(  2-C , 14-H ) :   0.1585 B(  3-C ,  4-C ) :  -0.2680 B(  3-C ,  5-C ) :   1.3155
B(  3-C ,  6-C ) :  -0.3301 B(  3-C , 11-H ) :   0.3365 B(  3-C , 13-H ) :   0.2431
B(  4-C ,  5-C ) :   1.2226 B(  4-C ,  6-C ) :  -0.3271 B(  4-C , 12-H ) :   0.3369
B(  4-C , 14-H ) :   0.2418 B(  5-C ,  6-C ) :   1.2239 B(  5-C ,  7-F ) :   0.4682
B(  5-C ,  8-F ) :   0.2596 B(  5-C ,  9-F ) :   0.3557 B(  5-C , 13-H ) :   0.2754
B(  5-C , 14-H ) :   0.3105 B(  6-C ,  8-F ) :   0.2991

MP2 TOTAL ENERGY:     -567.932058068 Eh
FINAL SINGLE POINT ENERGY      -567.932058067571

DIPOLE MOMENT
-------------
                                X             Y             Z
Electronic contribution:     13.45354       0.01142       0.03045
Nuclear contribution   :    -14.71461      -0.00176      -0.05597
                        -----------------------------------------
Total Dipole Moment    :     -1.26107       0.00965      -0.02552
                        -----------------------------------------
Magnitude (a.u.)       :      1.26136
Magnitude (Debye)      :      3.20613

Rotational constants in cm-1:     0.094861     0.031454     0.026995
Rotational constants in MHz :  2843.857015   942.968602   809.283804

                             ****ORCA TERMINATED NORMALLY****
TOTAL RUN TIME: 0 days 0 hours 1 minutes 17 seconds 278 msec
