                         Program Version 5.0.3 -  RELEASE  -
|  1> !ri-mp2 aug-cc-pvdz aug-cc-pvdz/c tightscf
|  2> %pal nprocs 16 end
|  3>
|  4> * xyz 0 1
|  5> C     -0.299347    2.755142    0.647638
|  6> C      2.535697   -1.118329    0.647638
|  7> C     -2.236350   -1.636813    0.647638
|  8> C      0.000000    0.000000    0.150368
|  9> S      0.610957    1.615429   -0.447444
| 10> S      1.093524   -1.336819   -0.447444
| 11> S     -1.704481   -0.278610   -0.447444
| 12> H      0.000000    3.759716    0.355248
| 13> H     -0.029337    2.594355    1.690157
| 14> H     -1.372452    2.645233    0.513627
| 15> H      2.261446   -1.271771    1.690157
| 16> H      2.977065   -0.134038    0.513627
| 17> H      3.256010   -1.879858    0.355248
| 18> H     -3.256010   -1.879858    0.355248
| 19> H     -2.232109   -1.322585    1.690157
| 20> H     -1.604613   -2.511195    0.513627
| 21> H      0.000000    0.000000    1.240520
| 22> *
| 23>
| 24>                          ****END OF INPUT****

CARTESIAN COORDINATES (ANGSTROEM)
---------------------------------
  C     -0.299347    2.755142    0.647638
  C      2.535697   -1.118329    0.647638
  C     -2.236350   -1.636813    0.647638
  C      0.000000    0.000000    0.150368
  S      0.610957    1.615429   -0.447444
  S      1.093524   -1.336819   -0.447444
  S     -1.704481   -0.278610   -0.447444
  H      0.000000    3.759716    0.355248
  H     -0.029337    2.594355    1.690157
  H     -1.372452    2.645233    0.513627
  H      2.261446   -1.271771    1.690157
  H      2.977065   -0.134038    0.513627
  H      3.256010   -1.879858    0.355248
  H     -3.256010   -1.879858    0.355248
  H     -2.232109   -1.322585    1.690157
  H     -1.604613   -2.511195    0.513627
  H      0.000000    0.000000    1.240520

 Total Charge           Charge          ....    0
 Multiplicity           Mult            ....    1
 Number of Electrons    NEL             ....   82
 Basis Dimension        Dim             ....  263

ORBITAL ENERGIES
----------------

  NO   OCC          E(Eh)            E(eV)
   0   2.0000     -91.959452     -2502.3439
   1   2.0000     -91.959452     -2502.3439
   2   2.0000     -91.959451     -2502.3439
   3   2.0000     -11.326946      -308.2219
   4   2.0000     -11.262627      -306.4717
   5   2.0000     -11.262627      -306.4717
   6   2.0000     -11.262627      -306.4717
   7   2.0000      -8.960547      -243.8289
   8   2.0000      -8.960547      -243.8289
   9   2.0000      -8.960529      -243.8284
  10   2.0000      -6.642423      -180.7495
  11   2.0000      -6.642423      -180.7495
  12   2.0000      -6.642423      -180.7495
  13   2.0000      -6.640922      -180.7087
  14   2.0000      -6.640922      -180.7087
  15   2.0000      -6.640919      -180.7086
  16   2.0000      -6.638868      -180.6528
  17   2.0000      -6.638868      -180.6528
  18   2.0000      -6.638868      -180.6528
  19   2.0000      -1.117791       -30.4167
  20   2.0000      -1.032146       -28.0861
  21   2.0000      -1.032146       -28.0861
  22   2.0000      -0.954323       -25.9684
  23   2.0000      -0.855237       -23.2722
  24   2.0000      -0.855237       -23.2722
  25   2.0000      -0.762468       -20.7478
  26   2.0000      -0.614455       -16.7202
  27   2.0000      -0.606721       -16.5097
  28   2.0000      -0.606721       -16.5097
  29   2.0000      -0.591092       -16.0844
  30   2.0000      -0.591092       -16.0844
  31   2.0000      -0.579793       -15.7770
  32   2.0000      -0.574672       -15.6376
  33   2.0000      -0.517591       -14.0844
  34   2.0000      -0.517591       -14.0844
  35   2.0000      -0.441827       -12.0227
  36   2.0000      -0.441827       -12.0227
  37   2.0000      -0.437056       -11.8929
  38   2.0000      -0.350036        -9.5250
  39   2.0000      -0.350036        -9.5250
  40   2.0000      -0.340225        -9.2580
  41   0.0000       0.031257         0.8506
  42   0.0000       0.041726         1.1354
  43   0.0000       0.041726         1.1354
  44   0.0000       0.049009         1.3336
  45   0.0000       0.063839         1.7371

MULLIKEN ATOMIC CHARGES
-----------------------
   0 C :    0.089642
   1 C :    0.089642
   2 C :    0.089642
   3 C :   -0.776193
   4 S :    0.419307
   5 S :    0.419307
   6 S :    0.419308
   7 H :   -0.095005
   8 H :   -0.087256
   9 H :   -0.038795
  10 H :   -0.087256
  11 H :   -0.038795
  12 H :   -0.095006
  13 H :   -0.095005
  14 H :   -0.087257
  15 H :   -0.038794
  16 H :   -0.087486
Sum of atomic charges:   -0.0000000

LOEWDIN ATOMIC CHARGES
----------------------
   0 C :   -0.137959
   1 C :   -0.137959
   2 C :   -0.137959
   3 C :   -1.061617
   4 S :    0.748046
   5 S :    0.748046
   6 S :    0.748046
   7 H :   -0.071492
   8 H :   -0.070112
   9 H :   -0.081222
  10 H :   -0.070112
  11 H :   -0.081222
  12 H :   -0.071492
  13 H :   -0.071492
  14 H :   -0.070112
  15 H :   -0.081221
  16 H :   -0.100170

  Mayer bond orders larger than 0.100000
B(  0-C ,  4-S ) :   1.0042 B(  0-C ,  7-H ) :   1.0036 B(  0-C ,  8-H ) :   1.0177
B(  0-C ,  9-H ) :   1.0055 B(  1-C ,  5-S ) :   1.0042 B(  1-C , 10-H ) :   1.0177
B(  1-C , 11-H ) :   1.0055 B(  1-C , 12-H ) :   1.0036 B(  2-C ,  6-S ) :   1.0042
B(  2-C , 13-H ) :   1.0036 B(  2-C , 14-H ) :   1.0177 B(  2-C , 15-H ) :   1.0055
B(  3-C ,  4-S ) :   1.0150 B(  3-C ,  5-S ) :   1.0150 B(  3-C ,  6-S ) :   1.0150
B(  3-C , 16-H ) :   1.2480

MP2 TOTAL ENERGY:    -1350.931642286 Eh
FINAL SINGLE POINT ENERGY     -1350.931642285753

DIPOLE MOMENT
-------------
                                X             Y             Z
Electronic contribution:      0.00000       0.00000      -7.53510
Nuclear contribution   :     -0.00000      -0.00000       8.94150
                        -----------------------------------------
Total Dipole Moment    :      0.00000       0.00000       1.40640
                        -----------------------------------------
Magnitude (a.u.)       :      1.40640
Magnitude (Debye)      :      3.57478

Rotational constants in cm-1:     0.045280     0.045280     0.025792
Rotational constants in MHz :  1357.467309  1357.467107   773.225074

                             ****ORCA TERMINATED NORMALLY****
TOTAL RUN TIME: 0 days 0 hours 1 minutes 20 seconds 175 msec
