                         Program Version 5.0.3 -  RELEASE  -
|  1> !ri-mp2 aug-cc-pvdz aug-cc-pvdz/c tightscf
|  2> %pal nprocs 16 end
|  3>
|  4> * xyz 0 1
|  5> C      0.000000    0.000000    0.000000
|  6> F      0.765982    0.765982    0.765982
|  7> F     -0.765982   -0.765982    0.765982
|  8> F      0.765982   -0.765982   -0.765982
|  9> F     -0.765982    0.765982   -0.765982
| 10> *
| 11>
| 12>                          ****END OF INPUT****

CARTESIAN COORDINATES (ANGSTROEM)
---------------------------------
  C      0.000000    0.000000    0.000000
  F      0.765982    0.765982    0.765982
  F     -0.765982   -0.765982    0.765982
  F      0.765982   -0.765982   -0.765982
  F     -0.765982    0.765982   -0.765982

 Total Charge           Charge          ....    0
 Multiplicity           Mult            ....    1
 Number of Electrons    NEL             ....   42
 Basis Dimension        Dim             ....  115

ORBITAL ENERGIES
----------------

  NO   OCC          E(Eh)            E(eV)
   0   2.0000     -26.390890      -718.1326
   1   2.0000     -26.390890      -718.1326
   2   2.0000     -26.390890      -718.1326
   3   2.0000     -26.390848      -718.1315
   4   2.0000     -11.626925      -316.3847
   5   2.0000      -1.808516       -49.2122
   6   2.0000      -1.685393       -45.8619
   7   2.0000      -1.685393       -45.8619
   8   2.0000      -1.685393       -45.8619
   9   2.0000      -1.017023       -27.6746
  10   2.0000      -0.891250       -24.2521
  11   2.0000      -0.891250       -24.2521
  12   2.0000      -0.891250       -24.2521
  13   2.0000      -0.765466       -20.8294
  14   2.0000      -0.765466       -20.8294
  15   2.0000      -0.712720       -19.3941
  16   2.0000      -0.712720       -19.3941
  17   2.0000      -0.712720       -19.3941
  18   2.0000      -0.686193       -18.6723
  19   2.0000      -0.686193       -18.6723
  20   2.0000      -0.686193       -18.6723
  21   0.0000       0.079389         2.1603
  22   0.0000       0.090239         2.4555
  23   0.0000       0.090239         2.4555
  24   0.0000       0.090239         2.4555
  25   0.0000       0.234426         6.3790

MULLIKEN ATOMIC CHARGES
-----------------------
   0 C :    2.088027
   1 F :   -0.522007
   2 F :   -0.522007
   3 F :   -0.522007
   4 F :   -0.522007
Sum of atomic charges:   -0.0000000

LOEWDIN ATOMIC CHARGES
----------------------
   0 C :   -0.400884
   1 F :    0.100221
   2 F :    0.100221
   3 F :    0.100221
   4 F :    0.100221

  Mayer bond orders larger than 0.100000
B(  0-C ,  1-F ) :   0.6183 B(  0-C ,  2-F ) :   0.6183 B(  0-C ,  3-F ) :   0.6183
B(  0-C ,  4-F ) :   0.6183

MP2 TOTAL ENERGY:     -436.633467118 Eh
FINAL SINGLE POINT ENERGY      -436.633467117941

DIPOLE MOMENT
-------------
                                X             Y             Z
Electronic contribution:     -0.00000       0.00000       0.00000
Nuclear contribution   :      0.00000       0.00000       0.00000
                        -----------------------------------------
Total Dipole Moment    :     -0.00000       0.00000       0.00000
                        -----------------------------------------
Magnitude (a.u.)       :      0.00000
Magnitude (Debye)      :      0.00000

Rotational constants in cm-1:     0.189044     0.189044     0.189044
Rotational constants in MHz :  5667.383550  5667.383550  5667.383550

                             ****ORCA TERMINATED NORMALLY****
TOTAL RUN TIME: 0 days 0 hours 0 minutes 46 seconds 444 msec
