                         Program Version 5.0.3 -  RELEASE  -
|  1> !ri-mp2 aug-cc-pvdz aug-cc-pvdz/c tightscf
|  2> %pal nprocs 16 end
|  3>
|  4> * xyz 0 1
|  5> N     -0.726579    1.028726   -0.000001
|  6> C      0.669751    0.895487    0.000064
|  7> O      1.378069    1.884236    0.000131
|  8> C      1.153712   -0.486497    0.000042
|  9> C      2.632341   -0.716781    0.000106
| 10> C      0.240400   -1.474972   -0.000038
| 11> N     -1.115294   -1.239106   -0.000094
| 12> C     -1.675291    0.026086   -0.000082
| 13> O     -2.872270    0.222918   -0.000137
| 14> H     -1.085233    1.972913    0.000012
| 15> H      3.096734   -0.258658    0.874392
| 16> H      2.863608   -1.781203    0.000091
| 17> H      3.096819   -0.258616   -0.874114
| 18> H      0.522304   -2.518618   -0.000059
| 19> H     -1.773003   -2.000335   -0.000157
| 20> *
| 21>
| 22>                          ****END OF INPUT****

CARTESIAN COORDINATES (ANGSTROEM)
---------------------------------
  N     -0.726579    1.028726   -0.000001
  C      0.669751    0.895487    0.000064
  O      1.378069    1.884236    0.000131
  C      1.153712   -0.486497    0.000042
  C      2.632341   -0.716781    0.000106
  C      0.240400   -1.474972   -0.000038
  N     -1.115294   -1.239106   -0.000094
  C     -1.675291    0.026086   -0.000082
  O     -2.872270    0.222918   -0.000137
  H     -1.085233    1.972913    0.000012
  H      3.096734   -0.258658    0.874392
  H      2.863608   -1.781203    0.000091
  H      3.096819   -0.258616   -0.874114
  H      0.522304   -2.518618   -0.000059
  H     -1.773003   -2.000335   -0.000157

 Total Charge           Charge          ....    0
 Multiplicity           Mult            ....    1
 Number of Electrons    NEL             ....   66
 Basis Dimension        Dim             ....  261

ORBITAL ENERGIES
----------------

  NO   OCC          E(Eh)            E(eV)
   0   2.0000     -20.553645      -559.2931
   1   2.0000     -20.553272      -559.2830
   2   2.0000     -15.643881      -425.6916
   3   2.0000     -15.632005      -425.3685
   4   2.0000     -11.422929      -310.8337
   5   2.0000     -11.386075      -309.8308
   6   2.0000     -11.333815      -308.4088
   7   2.0000     -11.265060      -306.5379
   8   2.0000     -11.245151      -305.9961
   9   2.0000      -1.438090       -39.1324
  10   2.0000      -1.405801       -38.2538
  11   2.0000      -1.310375       -35.6571
  12   2.0000      -1.244422       -33.8624
  13   2.0000      -1.110953       -30.2306
  14   2.0000      -0.971906       -26.4469
  15   2.0000      -0.917484       -24.9660
  16   2.0000      -0.895700       -24.3732
  17   2.0000      -0.774029       -21.0624
  18   2.0000      -0.769022       -20.9262
  19   2.0000      -0.709812       -19.3150
  20   2.0000      -0.678199       -18.4547
  21   2.0000      -0.666731       -18.1427
  22   2.0000      -0.643550       -17.5119
  23   2.0000      -0.619400       -16.8547
  24   2.0000      -0.591922       -16.1070
  25   2.0000      -0.570263       -15.5177
  26   2.0000      -0.560429       -15.2500
  27   2.0000      -0.553330       -15.0569
  28   2.0000      -0.511977       -13.9316
  29   2.0000      -0.479169       -13.0388
  30   2.0000      -0.447360       -12.1733
  31   2.0000      -0.434341       -11.8190
  32   2.0000      -0.353271        -9.6130
  33   0.0000       0.021318         0.5801
  34   0.0000       0.038134         1.0377
  35   0.0000       0.047574         1.2946
  36   0.0000       0.054666         1.4875
  37   0.0000       0.059046         1.6067

MULLIKEN ATOMIC CHARGES
-----------------------
   0 N :   -0.624905
   1 C :    0.619094
   2 O :   -0.894468
   3 C :    0.006297
   4 C :    0.433606
   5 C :    1.287133
   6 N :   -0.677695
   7 C :    1.058987
   8 O :   -0.719608
   9 H :   -0.046258
  10 H :    0.088426
  11 H :   -0.138910
  12 H :    0.088430
  13 H :   -0.413115
  14 H :   -0.067016
Sum of atomic charges:    0.0000000

LOEWDIN ATOMIC CHARGES
----------------------
   0 N :    0.197093
   1 C :   -0.275830
   2 O :    0.043818
   3 C :   -0.169307
   4 C :    0.177471
   5 C :    0.091015
   6 N :    0.142558
   7 C :   -0.333156
   8 O :    0.036414
   9 H :    0.043092
  10 H :   -0.002589
  11 H :   -0.013041
  12 H :   -0.002588
  13 H :    0.029734
  14 H :    0.035315

  Mayer bond orders larger than 0.100000
B(  0-N ,  1-C ) :   0.8183 B(  0-N ,  7-C ) :   1.0334 B(  0-N ,  9-H ) :   1.1780
B(  1-C ,  2-O ) :   1.2856 B(  1-C ,  3-C ) :   0.4617 B(  1-C ,  4-C ) :  -0.1738
B(  1-C , 13-H ) :   0.1103 B(  3-C ,  4-C ) :   1.5197 B(  3-C ,  5-C ) :   1.5804
B(  3-C , 10-H ) :   0.1496 B(  3-C , 11-H ) :   0.3174 B(  3-C , 12-H ) :   0.1496
B(  3-C , 13-H ) :   0.2002 B(  4-C ,  5-C ) :  -0.2356 B(  4-C , 10-H ) :   0.8323
B(  4-C , 11-H ) :   0.6970 B(  4-C , 12-H ) :   0.8323 B(  5-C ,  6-N ) :   0.6790
B(  5-C , 13-H ) :   0.3314 B(  5-C , 14-H ) :  -0.1624 B(  6-N ,  7-C ) :   1.0528
B(  6-N , 14-H ) :   1.2056 B(  7-C ,  8-O ) :   1.5352

MP2 TOTAL ENERGY:     -452.971727333 Eh
FINAL SINGLE POINT ENERGY      -452.971727333243

DIPOLE MOMENT
-------------
                                X             Y             Z
Electronic contribution:     -6.10757       2.88144      -0.00020
Nuclear contribution   :      6.57222      -4.73003       0.00016
                        -----------------------------------------
Total Dipole Moment    :      0.46465      -1.84858      -0.00004
                        -----------------------------------------
Magnitude (a.u.)       :      1.90609
Magnitude (Debye)      :      4.84489

Rotational constants in cm-1:     0.107015     0.046847     0.032778
Rotational constants in MHz :  3208.235439  1404.430507   982.673164

                             ****ORCA TERMINATED NORMALLY****
TOTAL RUN TIME: 0 days 0 hours 1 minutes 3 seconds 939 msec
