                         Program Version 5.0.3 -  RELEASE  -
|  1> !ri-mp2 aug-cc-pvdz aug-cc-pvdz/c tightscf
|  2> %pal nprocs 16 end
|  3>
|  4> * xyz 0 1
|  5> C      0.000000    0.000000    0.000000
|  6> Cl     1.030607    1.030607    1.030607
|  7> Cl    -1.030607   -1.030607    1.030607
|  8> Cl     1.030607   -1.030607   -1.030607
|  9> Cl    -1.030607    1.030607   -1.030607
| 10> *
| 11>
| 12>                          ****END OF INPUT****

CARTESIAN COORDINATES (ANGSTROEM)
---------------------------------
  C      0.000000    0.000000    0.000000
  Cl     1.030607    1.030607    1.030607
  Cl    -1.030607   -1.030607    1.030607
  Cl     1.030607   -1.030607   -1.030607
  Cl    -1.030607    1.030607   -1.030607

 Total Charge           Charge          ....    0
 Multiplicity           Mult            ....    1
 Number of Electrons    NEL             ....   74
 Basis Dimension        Dim             ....  131

ORBITAL ENERGIES
----------------

  NO   OCC          E(Eh)            E(eV)
   0   2.0000    -104.878638     -2853.8928
   1   2.0000    -104.878638     -2853.8928
   2   2.0000    -104.878638     -2853.8928
   3   2.0000    -104.878636     -2853.8928
   4   2.0000     -11.506001      -313.0942
   5   2.0000     -10.604994      -288.5766
   6   2.0000     -10.604994      -288.5766
   7   2.0000     -10.604994      -288.5766
   8   2.0000     -10.604930      -288.5748
   9   2.0000      -8.072663      -219.6683
  10   2.0000      -8.072663      -219.6683
  11   2.0000      -8.072663      -219.6683
  12   2.0000      -8.072658      -219.6682
  13   2.0000      -8.068770      -219.5624
  14   2.0000      -8.068770      -219.5624
  15   2.0000      -8.068770      -219.5624
  16   2.0000      -8.068769      -219.5624
  17   2.0000      -8.068769      -219.5624
  18   2.0000      -8.068767      -219.5623
  19   2.0000      -8.068767      -219.5623
  20   2.0000      -8.068767      -219.5623
  21   2.0000      -1.279311       -34.8118
  22   2.0000      -1.129722       -30.7413
  23   2.0000      -1.129722       -30.7413
  24   2.0000      -1.129722       -30.7413
  25   2.0000      -0.837161       -22.7803
  26   2.0000      -0.656945       -17.8764
  27   2.0000      -0.656945       -17.8764
  28   2.0000      -0.656945       -17.8764
  29   2.0000      -0.532069       -14.4783
  30   2.0000      -0.532069       -14.4783
  31   2.0000      -0.490402       -13.3445
  32   2.0000      -0.490402       -13.3445
  33   2.0000      -0.490402       -13.3445
  34   2.0000      -0.462636       -12.5890
  35   2.0000      -0.462636       -12.5890
  36   2.0000      -0.462636       -12.5890
  37   0.0000       0.051857         1.4111
  38   0.0000       0.082906         2.2560
  39   0.0000       0.082906         2.2560
  40   0.0000       0.082906         2.2560
  41   0.0000       0.085514         2.3270

MULLIKEN ATOMIC CHARGES
-----------------------
   0 C :   -1.364048
   1 Cl:    0.341012
   2 Cl:    0.341012
   3 Cl:    0.341012
   4 Cl:    0.341012
Sum of atomic charges:   -0.0000000

LOEWDIN ATOMIC CHARGES
----------------------
   0 C :   -1.762340
   1 Cl:    0.440585
   2 Cl:    0.440585
   3 Cl:    0.440585
   4 Cl:    0.440585

  Mayer bond orders larger than 0.100000
B(  0-C ,  1-Cl) :   1.1768 B(  0-C ,  2-Cl) :   1.1768 B(  0-C ,  3-Cl) :   1.1768
B(  0-C ,  4-Cl) :   1.1768 B(  1-Cl,  2-Cl) :  -0.1110 B(  1-Cl,  3-Cl) :  -0.1110
B(  1-Cl,  4-Cl) :  -0.1110 B(  2-Cl,  3-Cl) :  -0.1110 B(  2-Cl,  4-Cl) :  -0.1110
B(  3-Cl,  4-Cl) :  -0.1110

MP2 TOTAL ENERGY:    -1876.592890438 Eh
FINAL SINGLE POINT ENERGY     -1876.592890437962

DIPOLE MOMENT
-------------
                                X             Y             Z
Electronic contribution:      0.00000       0.00000       0.00000
Nuclear contribution   :      0.00000       0.00000       0.00000
                        -----------------------------------------
Total Dipole Moment    :      0.00000       0.00000       0.00000
                        -----------------------------------------
Magnitude (a.u.)       :      0.00000
Magnitude (Debye)      :      0.00000

Rotational constants in cm-1:     0.055959     0.055959     0.055959
Rotational constants in MHz :  1677.600127  1677.600127  1677.600127

                             ****ORCA TERMINATED NORMALLY****
TOTAL RUN TIME: 0 days 0 hours 0 minutes 36 seconds 967 msec
