                         Program Version 5.0.3 -  RELEASE  -
|  1> !ri-mp2 aug-cc-pvdz aug-cc-pvdz/c tightscf
|  2> %pal nprocs 16 end
|  3>
|  4> * xyz 0 1
|  5> C      0.000000    0.770224   -1.780388
|  6> C      0.000000   -0.770224   -1.780388
|  7> C     -0.597986    1.220604   -0.448931
|  8> C      0.597986   -1.220604   -0.448931
|  9> O     -1.137264   -0.551302    1.517439
| 10> O      1.137264    0.551302    1.517439
| 11> S      0.000000    0.000000    0.784354
| 12> H      1.022518    1.140282   -1.873334
| 13> H     -0.569407    1.169658   -2.618789
| 14> H     -1.022518   -1.140282   -1.873334
| 15> H      0.569407   -1.169658   -2.618789
| 16> H     -0.277102    2.202041   -0.111847
| 17> H     -1.683808    1.153218   -0.434458
| 18> H      0.277102   -2.202041   -0.111847
| 19> H      1.683808   -1.153218   -0.434458
| 20> *
| 21>
| 22>                          ****END OF INPUT****

CARTESIAN COORDINATES (ANGSTROEM)
---------------------------------
  C      0.000000    0.770224   -1.780388
  C      0.000000   -0.770224   -1.780388
  C     -0.597986    1.220604   -0.448931
  C      0.597986   -1.220604   -0.448931
  O     -1.137264   -0.551302    1.517439
  O      1.137264    0.551302    1.517439
  S      0.000000    0.000000    0.784354
  H      1.022518    1.140282   -1.873334
  H     -0.569407    1.169658   -2.618789
  H     -1.022518   -1.140282   -1.873334
  H      0.569407   -1.169658   -2.618789
  H     -0.277102    2.202041   -0.111847
  H     -1.683808    1.153218   -0.434458
  H      0.277102   -2.202041   -0.111847
  H      1.683808   -1.153218   -0.434458

 Total Charge           Charge          ....    0
 Multiplicity           Mult            ....    1
 Number of Electrons    NEL             ....   64
 Basis Dimension        Dim             ....  237

ORBITAL ENERGIES
----------------

  NO   OCC          E(Eh)            E(eV)
   0   2.0000     -92.188970     -2508.5894
   1   2.0000     -20.548991      -559.1665
   2   2.0000     -20.548973      -559.1660
   3   2.0000     -11.283986      -307.0529
   4   2.0000     -11.283967      -307.0523
   5   2.0000     -11.270860      -306.6957
   6   2.0000     -11.270283      -306.6800
   7   2.0000      -9.162694      -249.3296
   8   2.0000      -6.847869      -186.3400
   9   2.0000      -6.846407      -186.3002
  10   2.0000      -6.846124      -186.2925
  11   2.0000      -1.443465       -39.2787
  12   2.0000      -1.330657       -36.2090
  13   2.0000      -1.151625       -31.3373
  14   2.0000      -1.029362       -28.0104
  15   2.0000      -0.973902       -26.5012
  16   2.0000      -0.839144       -22.8343
  17   2.0000      -0.804674       -21.8963
  18   2.0000      -0.700197       -19.0533
  19   2.0000      -0.691983       -18.8298
  20   2.0000      -0.639935       -17.4135
  21   2.0000      -0.638029       -17.3617
  22   2.0000      -0.619252       -16.8507
  23   2.0000      -0.615026       -16.7357
  24   2.0000      -0.560332       -15.2474
  25   2.0000      -0.542027       -14.7493
  26   2.0000      -0.527190       -14.3456
  27   2.0000      -0.520202       -14.1554
  28   2.0000      -0.480424       -13.0730
  29   2.0000      -0.473070       -12.8729
  30   2.0000      -0.459601       -12.5064
  31   2.0000      -0.414697       -11.2845
  32   0.0000       0.025607         0.6968
  33   0.0000       0.038431         1.0458
  34   0.0000       0.041794         1.1373
  35   0.0000       0.048604         1.3226
  36   0.0000       0.064386         1.7520

MULLIKEN ATOMIC CHARGES
-----------------------
   0 C :    0.264856
   1 C :    0.264856
   2 C :   -0.004976
   3 C :   -0.004976
   4 O :   -1.226457
   5 O :   -1.226457
   6 S :    2.680221
   7 H :   -0.160353
   8 H :   -0.091646
   9 H :   -0.160353
  10 H :   -0.091646
  11 H :   -0.044411
  12 H :   -0.077123
  13 H :   -0.044411
  14 H :   -0.077123
Sum of atomic charges:   -0.0000000

LOEWDIN ATOMIC CHARGES
----------------------
   0 C :   -0.049366
   1 C :   -0.049366
   2 C :   -0.045498
   3 C :   -0.045498
   4 O :   -0.413363
   5 O :   -0.413363
   6 S :    0.960531
   7 H :    0.018443
   8 H :    0.016452
   9 H :    0.018443
  10 H :    0.016452
  11 H :   -0.003826
  12 H :   -0.003108
  13 H :   -0.003826
  14 H :   -0.003108

  Mayer bond orders larger than 0.100000
B(  0-C ,  1-C ) :   1.1859 B(  0-C ,  2-C ) :   1.2375 B(  0-C ,  7-H ) :   0.8169
B(  0-C ,  8-H ) :   0.8264 B(  1-C ,  3-C ) :   1.2375 B(  1-C ,  9-H ) :   0.8169
B(  1-C , 10-H ) :   0.8264 B(  2-C ,  4-O ) :   0.1559 B(  2-C ,  5-O ) :   0.1221
B(  2-C ,  6-S ) :   0.8766 B(  2-C , 11-H ) :   0.8768 B(  2-C , 12-H ) :   0.8365
B(  3-C ,  4-O ) :   0.1221 B(  3-C ,  5-O ) :   0.1559 B(  3-C ,  6-S ) :   0.8766
B(  3-C , 13-H ) :   0.8768 B(  3-C , 14-H ) :   0.8365 B(  4-O ,  5-O ) :   0.1936
B(  4-O ,  6-S ) :   0.6034 B(  5-O ,  6-S ) :   0.6034 B(  7-H ,  8-H ) :  -0.1165
B(  9-H , 10-H ) :  -0.1165

MP2 TOTAL ENERGY:     -704.485549174 Eh
FINAL SINGLE POINT ENERGY      -704.485549173938

DIPOLE MOMENT
-------------
                                X             Y             Z
Electronic contribution:     -0.00000       0.00000       7.65945
Nuclear contribution   :      0.00000       0.00000     -10.05578
                        -----------------------------------------
Total Dipole Moment    :     -0.00000       0.00000      -2.39633
                        -----------------------------------------
Magnitude (a.u.)       :      2.39633
Magnitude (Debye)      :      6.09100

Rotational constants in cm-1:     0.123763     0.066542     0.061840
Rotational constants in MHz :  3710.317509  1994.893857  1853.910640

                             ****ORCA TERMINATED NORMALLY****
TOTAL RUN TIME: 0 days 0 hours 0 minutes 57 seconds 61 msec
