                         Program Version 5.0.3 -  RELEASE  -
|  1> !ri-mp2 aug-cc-pvdz aug-cc-pvdz/c tightscf
|  2> %pal nprocs 16 end
|  3> %maxcore 3800
|  4>
|  5> * xyz 0 1
|  6> C      0.000000    2.646312   -0.153625
|  7> C     -0.783823    1.911812   -1.237462
|  8> C     -0.502659    1.272733    0.068369
|  9> C      0.000000    0.000000    0.571930
| 10> C     -1.280621    0.550204    1.125888
| 11> C      0.502659   -1.272733    0.068369
| 12> C      1.280621   -0.550204    1.125888
| 13> C      0.783823   -1.911812   -1.237462
| 14> C      0.000000   -2.646312   -0.153625
| 15> H      1.061695    2.787753   -0.310710
| 16> H     -0.492162    3.465471    0.354450
| 17> H     -1.792102    2.247544   -1.442544
| 18> H     -0.237243    1.571736   -2.107218
| 19> H     -1.270911    0.951885    2.132470
| 20> H     -2.207587    0.066955    0.838743
| 21> H      1.270911   -0.951885    2.132470
| 22> H      2.207587   -0.066955    0.838743
| 23> H      0.237243   -1.571736   -2.107218
| 24> H      1.792102   -2.247544   -1.442544
| 25> H      0.492162   -3.465471    0.354450
| 26> H     -1.061695   -2.787753   -0.310710
| 27> *
| 28>
| 29>                          ****END OF INPUT****

CARTESIAN COORDINATES (ANGSTROEM)
---------------------------------
  C      0.000000    2.646312   -0.153625
  C     -0.783823    1.911812   -1.237462
  C     -0.502659    1.272733    0.068369
  C      0.000000    0.000000    0.571930
  C     -1.280621    0.550204    1.125888
  C      0.502659   -1.272733    0.068369
  C      1.280621   -0.550204    1.125888
  C      0.783823   -1.911812   -1.237462
  C      0.000000   -2.646312   -0.153625
  H      1.061695    2.787753   -0.310710
  H     -0.492162    3.465471    0.354450
  H     -1.792102    2.247544   -1.442544
  H     -0.237243    1.571736   -2.107218
  H     -1.270911    0.951885    2.132470
  H     -2.207587    0.066955    0.838743
  H      1.270911   -0.951885    2.132470
  H      2.207587   -0.066955    0.838743
  H      0.237243   -1.571736   -2.107218
  H      1.792102   -2.247544   -1.442544
  H      0.492162   -3.465471    0.354450
  H     -1.061695   -2.787753   -0.310710

 Total Charge           Charge          ....    0
 Multiplicity           Mult            ....    1
 Number of Electrons    NEL             ....   66
 Basis Dimension        Dim             ....  315

ORBITAL ENERGIES
----------------

  NO   OCC          E(Eh)            E(eV)
   0   2.0000     -11.241011      -305.8835
   1   2.0000     -11.239886      -305.8528
   2   2.0000     -11.239579      -305.8445
   3   2.0000     -11.229665      -305.5747
   4   2.0000     -11.229662      -305.5746
   5   2.0000     -11.229588      -305.5726
   6   2.0000     -11.229562      -305.5719
   7   2.0000     -11.229033      -305.5575
   8   2.0000     -11.229033      -305.5575
   9   2.0000      -1.198936       -32.6247
  10   2.0000      -1.147674       -31.2298
  11   2.0000      -1.076699       -29.2985
  12   2.0000      -1.011423       -27.5222
  13   2.0000      -0.825943       -22.4750
  14   2.0000      -0.824261       -22.4293
  15   2.0000      -0.791489       -21.5375
  16   2.0000      -0.764787       -20.8109
  17   2.0000      -0.705084       -19.1863
  18   2.0000      -0.671434       -18.2706
  19   2.0000      -0.640835       -17.4380
  20   2.0000      -0.638231       -17.3672
  21   2.0000      -0.607639       -16.5347
  22   2.0000      -0.601711       -16.3734
  23   2.0000      -0.526166       -14.3177
  24   2.0000      -0.512416       -13.9436
  25   2.0000      -0.512182       -13.9372
  26   2.0000      -0.479506       -13.0480
  27   2.0000      -0.455014       -12.3816
  28   2.0000      -0.427651       -11.6370
  29   2.0000      -0.426204       -11.5976
  30   2.0000      -0.381176       -10.3723
  31   2.0000      -0.374114       -10.1802
  32   2.0000      -0.369621       -10.0579
  33   0.0000       0.037652         1.0246
  34   0.0000       0.040776         1.1096
  35   0.0000       0.044207         1.2029
  36   0.0000       0.045131         1.2281
  37   0.0000       0.057717         1.5706

MULLIKEN ATOMIC CHARGES
-----------------------
   0 C :    0.753936
   1 C :    0.766393
   2 C :   -0.285478
   3 C :   -0.324062
   4 C :    0.574677
   5 C :   -0.285478
   6 C :    0.574677
   7 C :    0.766393
   8 C :    0.753936
   9 H :   -0.306154
  10 H :   -0.280483
  11 H :   -0.285559
  12 H :   -0.305566
  13 H :   -0.231709
  14 H :   -0.238026
  15 H :   -0.231709
  16 H :   -0.238026
  17 H :   -0.305566
  18 H :   -0.285559
  19 H :   -0.280483
  20 H :   -0.306154
Sum of atomic charges:   -0.0000000

LOEWDIN ATOMIC CHARGES
----------------------
   0 C :    0.107364
   1 C :    0.107668
   2 C :   -0.299451
   3 C :   -0.231216
   4 C :    0.173085
   5 C :   -0.299451
   6 C :    0.173085
   7 C :    0.107668
   8 C :    0.107364
   9 H :    0.001882
  10 H :    0.001766
  11 H :    0.001687
  12 H :    0.000753
  13 H :    0.010592
  14 H :    0.010263
  15 H :    0.010592
  16 H :    0.010263
  17 H :    0.000753
  18 H :    0.001687
  19 H :    0.001766
  20 H :    0.001882

  Mayer bond orders larger than 0.100000
B(  0-C ,  1-C ) :   1.2449 B(  0-C ,  2-C ) :   0.7578 B(  0-C ,  9-H ) :   0.6777
B(  0-C , 10-H ) :   0.5558 B(  1-C ,  2-C ) :   0.8179 B(  1-C ,  3-C ) :  -0.1514
B(  1-C ,  7-C ) :   0.1247 B(  1-C , 11-H ) :   0.5472 B(  1-C , 12-H ) :   0.6647
B(  2-C ,  3-C ) :   0.5051 B(  2-C ,  4-C ) :   1.0383 B(  2-C , 11-H ) :   0.1219
B(  3-C ,  4-C ) :   0.8324 B(  3-C ,  5-C ) :   0.5051 B(  3-C ,  6-C ) :   0.8324
B(  3-C ,  7-C ) :  -0.1514 B(  3-C , 10-H ) :   0.1746 B(  3-C , 11-H ) :   0.1788
B(  3-C , 13-H ) :   0.1166 B(  3-C , 15-H ) :   0.1166 B(  3-C , 18-H ) :   0.1788
B(  3-C , 19-H ) :   0.1746 B(  4-C , 13-H ) :   0.5968 B(  4-C , 14-H ) :   0.6738
B(  5-C ,  6-C ) :   1.0383 B(  5-C ,  7-C ) :   0.8179 B(  5-C ,  8-C ) :   0.7578
B(  5-C , 18-H ) :   0.1219 B(  6-C , 15-H ) :   0.5968 B(  6-C , 16-H ) :   0.6738
B(  7-C ,  8-C ) :   1.2449 B(  7-C , 17-H ) :   0.6647 B(  7-C , 18-H ) :   0.5472
B(  8-C , 19-H ) :   0.5558 B(  8-C , 20-H ) :   0.6777 B(  9-H , 10-H ) :  -0.1974
B( 11-H , 12-H ) :  -0.2014 B( 13-H , 14-H ) :  -0.2174 B( 15-H , 16-H ) :  -0.2174
B( 17-H , 18-H ) :  -0.2014 B( 19-H , 20-H ) :  -0.1974

MP2 TOTAL ENERGY:     -348.935760951 Eh
FINAL SINGLE POINT ENERGY      -348.935760951163

DIPOLE MOMENT
-------------
                                X             Y             Z
Electronic contribution:     -0.00000       0.00000       1.10278
Nuclear contribution   :      0.00000       0.00000      -1.10306
                        -----------------------------------------
Total Dipole Moment    :     -0.00000       0.00000      -0.00028
                        -----------------------------------------
Magnitude (a.u.)       :      0.00028
Magnitude (Debye)      :      0.00072

Rotational constants in cm-1:     0.106366     0.038162     0.035468
Rotational constants in MHz :  3188.773290  1144.058687  1063.315873

                             ****ORCA TERMINATED NORMALLY****
TOTAL RUN TIME: 0 days 0 hours 1 minutes 32 seconds 77 msec
