                         Program Version 5.0.3 -  RELEASE  -
|  1> !ri-mp2 aug-cc-pvdz aug-cc-pvdz/c tightscf
|  2> %pal nprocs 16 end
|  3>
|  4> * xyz 0 1
|  5> C      0.000000    0.000000    0.000000
|  6> N      0.447266   -1.152752    0.927023
|  7> O      1.211160   -0.804270    1.793232
|  8> N     -0.447266    1.152752    0.927023
|  9> O      0.000000    2.247297    0.698711
| 10> O     -1.211160    0.804270    1.793232
| 11> N     -1.152752   -0.447266   -0.927023
| 12> O     -2.247297    0.000000   -0.698711
| 13> O     -0.804270   -1.211160   -1.793232
| 14> N      1.152752    0.447266   -0.927023
| 15> O      0.804270    1.211160   -1.793232
| 16> O      2.247297    0.000000   -0.698711
| 17> O      0.000000   -2.247297    0.698711
| 18> *
| 19>
| 20>                          ****END OF INPUT****

CARTESIAN COORDINATES (ANGSTROEM)
---------------------------------
  C      0.000000    0.000000    0.000000
  N      0.447266   -1.152752    0.927023
  O      1.211160   -0.804270    1.793232
  N     -0.447266    1.152752    0.927023
  O      0.000000    2.247297    0.698711
  O     -1.211160    0.804270    1.793232
  N     -1.152752   -0.447266   -0.927023
  O     -2.247297    0.000000   -0.698711
  O     -0.804270   -1.211160   -1.793232
  N      1.152752    0.447266   -0.927023
  O      0.804270    1.211160   -1.793232
  O      2.247297    0.000000   -0.698711
  O      0.000000   -2.247297    0.698711

 Total Charge           Charge          ....    0
 Multiplicity           Mult            ....    1
 Number of Electrons    NEL             ....   98
 Basis Dimension        Dim             ....  299

ORBITAL ENERGIES
----------------

  NO   OCC          E(Eh)            E(eV)
   0   2.0000     -20.705431      -563.4234
   1   2.0000     -20.705430      -563.4234
   2   2.0000     -20.705430      -563.4234
   3   2.0000     -20.705428      -563.4234
   4   2.0000     -20.701191      -563.3081
   5   2.0000     -20.701191      -563.3081
   6   2.0000     -20.701190      -563.3080
   7   2.0000     -20.701188      -563.3080
   8   2.0000     -15.960432      -434.3054
   9   2.0000     -15.960432      -434.3054
  10   2.0000     -15.960430      -434.3054
  11   2.0000     -15.960410      -434.3048
  12   2.0000     -11.562559      -314.6332
  13   2.0000      -1.734568       -47.2000
  14   2.0000      -1.706882       -46.4466
  15   2.0000      -1.704586       -46.3841
  16   2.0000      -1.704586       -46.3841
  17   2.0000      -1.516043       -41.2536
  18   2.0000      -1.508741       -41.0549
  19   2.0000      -1.508741       -41.0549
  20   2.0000      -1.507443       -41.0196
  21   2.0000      -1.278772       -34.7972
  22   2.0000      -1.056772       -28.7562
  23   2.0000      -1.047800       -28.5121
  24   2.0000      -1.047800       -28.5121
  25   2.0000      -0.906165       -24.6580
  26   2.0000      -0.888789       -24.1852
  27   2.0000      -0.880586       -23.9620
  28   2.0000      -0.880586       -23.9620
  29   2.0000      -0.816371       -22.2146
  30   2.0000      -0.815798       -22.1990
  31   2.0000      -0.809331       -22.0230
  32   2.0000      -0.809331       -22.0230
  33   2.0000      -0.806591       -21.9485
  34   2.0000      -0.798016       -21.7151
  35   2.0000      -0.786176       -21.3929
  36   2.0000      -0.786176       -21.3929
  37   2.0000      -0.640512       -17.4292
  38   2.0000      -0.607854       -16.5405
  39   2.0000      -0.590079       -16.0569
  40   2.0000      -0.590079       -16.0569
  41   2.0000      -0.580701       -15.8017
  42   2.0000      -0.564256       -15.3542
  43   2.0000      -0.564256       -15.3542
  44   2.0000      -0.554064       -15.0769
  45   2.0000      -0.543778       -14.7969
  46   2.0000      -0.525835       -14.3087
  47   2.0000      -0.521854       -14.2004
  48   2.0000      -0.521854       -14.2004
  49   0.0000      -0.011561        -0.3146
  50   0.0000       0.001178         0.0321
  51   0.0000       0.001178         0.0321
  52   0.0000       0.011139         0.3031
  53   0.0000       0.070743         1.9250

MULLIKEN ATOMIC CHARGES
-----------------------
   0 C :    2.898881
   1 N :    0.791328
   2 O :   -0.806417
   3 N :    0.791328
   4 O :   -0.709631
   5 O :   -0.806417
   6 N :    0.791328
   7 O :   -0.709631
   8 O :   -0.806417
   9 N :    0.791328
  10 O :   -0.806417
  11 O :   -0.709631
  12 O :   -0.709631
Sum of atomic charges:    0.0000000

LOEWDIN ATOMIC CHARGES
----------------------
   0 C :    0.019009
   1 N :   -0.341244
   2 O :    0.167137
   3 N :   -0.341244
   4 O :    0.169354
   5 O :    0.167137
   6 N :   -0.341244
   7 O :    0.169354
   8 O :    0.167137
   9 N :   -0.341244
  10 O :    0.167137
  11 O :    0.169354
  12 O :    0.169354

  Mayer bond orders larger than 0.100000
B(  0-C ,  1-N ) :   0.2086 B(  0-C ,  3-N ) :   0.2086 B(  0-C ,  6-N ) :   0.2086
B(  0-C ,  9-N ) :   0.2086 B(  1-N ,  2-O ) :   1.1304 B(  1-N , 12-O ) :   1.1991
B(  2-O , 12-O ) :   0.2923 B(  3-N ,  4-O ) :   1.1991 B(  3-N ,  5-O ) :   1.1304
B(  4-O ,  5-O ) :   0.2923 B(  6-N ,  7-O ) :   1.1991 B(  6-N ,  8-O ) :   1.1304
B(  7-O ,  8-O ) :   0.2923 B(  9-N , 10-O ) :   1.1304 B(  9-N , 11-O ) :   1.1991
B( 10-O , 11-O ) :   0.2923

MP2 TOTAL ENERGY:     -856.594557962 Eh
FINAL SINGLE POINT ENERGY      -856.594557961621

DIPOLE MOMENT
-------------
                                X             Y             Z
Electronic contribution:      0.00000       0.00000       0.00000
Nuclear contribution   :      0.00000       0.00000       0.00000
                        -----------------------------------------
Total Dipole Moment    :      0.00000       0.00000       0.00000
                        -----------------------------------------
Magnitude (a.u.)       :      0.00000
Magnitude (Debye)      :      0.00000

Rotational constants in cm-1:     0.030981     0.030252     0.030252
Rotational constants in MHz :   928.777234   906.917996   906.917996

                             ****ORCA TERMINATED NORMALLY****
TOTAL RUN TIME: 0 days 0 hours 1 minutes 29 seconds 394 msec
