                         Program Version 5.0.3 -  RELEASE  -
|  1> !ri-mp2 aug-cc-pvdz aug-cc-pvdz/c tightscf
|  2> %pal nprocs 16 end
|  3>
|  4> * xyz 0 1
|  5> C      0.639432   -1.264100        0.000000
|  6> C      1.220264   -0.033712        0.000000
|  7> C     -1.203295   -0.069611        0.000000
|  8> N     -0.732370   -1.277174        0.000000
|  9> S      0.000000    1.184691        0.000000
| 10> H      1.176233   -2.200416        0.000000
| 11> H      2.266607    0.216808        0.000000
| 12> H     -2.254655    0.173318        0.000000
| 13> *
| 14>
| 15>                          ****END OF INPUT****

CARTESIAN COORDINATES (ANGSTROEM)
---------------------------------
  C      0.639432   -1.264100    0.000000
  C      1.220264   -0.033712    0.000000
  C     -1.203295   -0.069611    0.000000
  N     -0.732370   -1.277174    0.000000
  S      0.000000    1.184691    0.000000
  H      1.176233   -2.200416    0.000000
  H      2.266607    0.216808    0.000000
  H     -2.254655    0.173318    0.000000

 Total Charge           Charge          ....    0
 Multiplicity           Mult            ....    1
 Number of Electrons    NEL             ....   44
 Basis Dimension        Dim             ....  146

ORBITAL ENERGIES
----------------

  NO   OCC          E(Eh)            E(eV)
   0   2.0000     -92.001293     -2503.4825
   1   2.0000     -15.584766      -424.0830
   2   2.0000     -11.319800      -308.0274
   3   2.0000     -11.279452      -306.9295
   4   2.0000     -11.276594      -306.8517
   5   2.0000      -9.004226      -245.0174
   6   2.0000      -6.685703      -181.9272
   7   2.0000      -6.684901      -181.9054
   8   2.0000      -6.683086      -181.8560
   9   2.0000      -1.290983       -35.1294
  10   2.0000      -1.073036       -29.1988
  11   2.0000      -1.009892       -27.4806
  12   2.0000      -0.810776       -22.0623
  13   2.0000      -0.778543       -21.1852
  14   2.0000      -0.701705       -19.0944
  15   2.0000      -0.601945       -16.3798
  16   2.0000      -0.571516       -15.5517
  17   2.0000      -0.564566       -15.3626
  18   2.0000      -0.509492       -13.8640
  19   2.0000      -0.434747       -11.8301
  20   2.0000      -0.394120       -10.7246
  21   2.0000      -0.346335        -9.4243
  22   0.0000       0.035458         0.9649
  23   0.0000       0.041585         1.1316
  24   0.0000       0.050014         1.3610
  25   0.0000       0.080449         2.1891
  26   0.0000       0.092697         2.5224

MULLIKEN ATOMIC CHARGES
-----------------------
   0 C :    0.677591
   1 C :    0.122115
   2 C :    0.095900
   3 N :   -0.605493
   4 S :    0.476488
   5 H :   -0.208430
   6 H :   -0.355100
   7 H :   -0.203071
Sum of atomic charges:   -0.0000000

LOEWDIN ATOMIC CHARGES
----------------------
   0 C :   -0.148067
   1 C :   -0.293509
   2 C :   -0.312890
   3 N :   -0.062794
   4 S :    0.936965
   5 H :   -0.011785
   6 H :   -0.059079
   7 H :   -0.048841

  Mayer bond orders larger than 0.100000
B(  0-C ,  1-C ) :   1.8199 B(  0-C ,  2-C ) :  -0.1496 B(  0-C ,  3-N ) :   0.9403
B(  0-C ,  5-H ) :   0.9298 B(  1-C ,  4-S ) :   1.0376 B(  1-C ,  6-H ) :   0.9491
B(  2-C ,  3-N ) :   1.6669 B(  2-C ,  4-S ) :   1.0749 B(  2-C ,  7-H ) :   1.0906
B(  4-S ,  7-H ) :  -0.1011

MP2 TOTAL ENERGY:     -568.049561027 Eh
FINAL SINGLE POINT ENERGY      -568.049561026551

DIPOLE MOMENT
-------------
                                X             Y             Z
Electronic contribution:     -0.78572       2.25505       0.00000
Nuclear contribution   :      1.14927      -1.80013       0.00000
                        -----------------------------------------
Total Dipole Moment    :      0.36355       0.45493       0.00000
                        -----------------------------------------
Magnitude (a.u.)       :      0.58235
Magnitude (Debye)      :      1.48021

Rotational constants in cm-1:     0.284187     0.183058     0.111339
Rotational constants in MHz :  8519.707669  5487.953286  3337.870459

                             ****ORCA TERMINATED NORMALLY****
TOTAL RUN TIME: 0 days 0 hours 0 minutes 41 seconds 16 msec
