                         Program Version 5.0.3 -  RELEASE  -
|  1> !ri-mp2 aug-cc-pvdz aug-cc-pvdz/c tightscf
|  2> %pal nprocs 16 end
|  3>
|  4> * xyz 0 1
|  5> C      0.085896    0.594059    0.000000
|  6> C     -0.294386   -0.910548    0.000000
|  7> O      0.812941   -1.659252    0.000000
|  8> O     -1.420191   -1.307503    0.000000
|  9> F     -1.007987    1.348927    0.000000
| 10> F      0.812941    0.893583    1.087792
| 11> F      0.812941    0.893583   -1.087792
| 12> H      0.547878   -2.591865    0.000000
| 13> *
| 14>
| 15>                          ****END OF INPUT****

CARTESIAN COORDINATES (ANGSTROEM)
---------------------------------
  C      0.085896    0.594059    0.000000
  C     -0.294386   -0.910548    0.000000
  O      0.812941   -1.659252    0.000000
  O     -1.420191   -1.307503    0.000000
  F     -1.007987    1.348927    0.000000
  F      0.812941    0.893583    1.087792
  F      0.812941    0.893583   -1.087792
  H      0.547878   -2.591865    0.000000

 Total Charge           Charge          ....    0
 Multiplicity           Mult            ....    1
 Number of Electrons    NEL             ....   56
 Basis Dimension        Dim             ....  170

ORBITAL ENERGIES
----------------

  NO   OCC          E(Eh)            E(eV)
   0   2.0000     -26.377603      -717.7711
   1   2.0000     -26.377584      -717.7706
   2   2.0000     -26.375248      -717.7070
   3   2.0000     -20.667476      -562.3906
   4   2.0000     -20.614534      -560.9500
   5   2.0000     -11.553040      -314.3742
   6   2.0000     -11.450754      -311.5909
   7   2.0000      -1.761218       -47.9252
   8   2.0000      -1.665814       -45.3291
   9   2.0000      -1.665009       -45.3072
  10   2.0000      -1.519842       -41.3570
  11   2.0000      -1.422594       -38.7107
  12   2.0000      -1.050683       -28.5905
  13   2.0000      -0.924361       -25.1531
  14   2.0000      -0.853752       -23.2318
  15   2.0000      -0.850835       -23.1524
  16   2.0000      -0.822383       -22.3782
  17   2.0000      -0.749420       -20.3927
  18   2.0000      -0.735941       -20.0260
  19   2.0000      -0.732348       -19.9282
  20   2.0000      -0.696421       -18.9506
  21   2.0000      -0.691294       -18.8111
  22   2.0000      -0.686509       -18.6809
  23   2.0000      -0.671905       -18.2835
  24   2.0000      -0.663599       -18.0574
  25   2.0000      -0.618609       -16.8332
  26   2.0000      -0.529521       -14.4090
  27   2.0000      -0.505727       -13.7615
  28   0.0000       0.028330         0.7709
  29   0.0000       0.076134         2.0717
  30   0.0000       0.088722         2.4142
  31   0.0000       0.089625         2.4388
  32   0.0000       0.107972         2.9381

MULLIKEN ATOMIC CHARGES
-----------------------
   0 C :    2.107148
   1 C :    0.630296
   2 O :   -0.599738
   3 O :   -0.591192
   4 F :   -0.600679
   5 F :   -0.572323
   6 F :   -0.572323
   7 H :    0.198812
Sum of atomic charges:   -0.0000000

LOEWDIN ATOMIC CHARGES
----------------------
   0 C :   -0.314835
   1 C :   -0.287770
   2 O :    0.226891
   3 O :    0.084686
   4 F :    0.106598
   5 F :    0.093032
   6 F :    0.093032
   7 H :   -0.001634

  Mayer bond orders larger than 0.100000
B(  0-C ,  1-C ) :   0.8893 B(  0-C ,  4-F ) :   0.2479 B(  0-C ,  5-F ) :   0.3669
B(  0-C ,  6-F ) :   0.3669 B(  1-C ,  2-O ) :   0.7755 B(  1-C ,  3-O ) :   1.5775
B(  1-C ,  4-F ) :   0.2362 B(  1-C ,  5-F ) :   0.1077 B(  1-C ,  6-F ) :   0.1077
B(  2-O ,  7-H ) :   1.0079

MP2 TOTAL ENERGY:     -525.704777065 Eh
FINAL SINGLE POINT ENERGY      -525.704777065247

DIPOLE MOMENT
-------------
                                X             Y             Z
Electronic contribution:      0.52866       4.49950      -0.00000
Nuclear contribution   :     -0.06634      -5.29062       0.00000
                        -----------------------------------------
Total Dipole Moment    :      0.46232      -0.79112      -0.00000
                        -----------------------------------------
Magnitude (a.u.)       :      0.91630
Magnitude (Debye)      :      2.32905

Rotational constants in cm-1:     0.128193     0.082596     0.068617
Rotational constants in MHz :  3843.128777  2476.178764  2057.081273

                             ****ORCA TERMINATED NORMALLY****
TOTAL RUN TIME: 0 days 0 hours 0 minutes 39 seconds 436 msec
