                         Program Version 5.0.3 -  RELEASE  -
|  1> !ri-mp2 aug-cc-pvdz aug-cc-pvdz/c tightscf
|  2> %pal nprocs 16 end
|  3> %maxcore 3800
|  4>
|  5> * xyz 0 1
|  6> C      0.303046    2.442712   -0.429029
|  7> C     -2.266973   -0.958910   -0.429029
|  8> C      1.963927   -1.483802   -0.429029
|  9> C     -0.336477    1.361557    0.436145
| 10> C     -1.010905   -0.972176    0.436145
| 11> C      1.347381   -0.389381    0.436145
| 12> N      0.000000    0.000000    0.013396
| 13> H      1.392234    2.405845   -0.399061
| 14> H     -0.007763    2.331357   -1.467880
| 15> H      0.000000    3.431615   -0.080419
| 16> H     -2.779640    0.002788   -0.399061
| 17> H     -2.015133   -1.172401   -1.467880
| 18> H     -2.971866   -1.715807   -0.080419
| 19> H      1.387406   -2.408633   -0.399061
| 20> H      2.022896   -1.158955   -1.467880
| 21> H      2.971866   -1.715807   -0.080419
| 22> H     -1.418618    1.473387    0.378135
| 23> H     -0.069001    1.520307    1.495273
| 24> H     -0.566682   -1.965253    0.378135
| 25> H     -1.282124   -0.819910    1.495273
| 26> H      1.985300    0.491866    0.378135
| 27> H      1.351125   -0.700397    1.495273
| 28> *
| 29>
| 30>                          ****END OF INPUT****

CARTESIAN COORDINATES (ANGSTROEM)
---------------------------------
  C      0.303046    2.442712   -0.429029
  C     -2.266973   -0.958910   -0.429029
  C      1.963927   -1.483802   -0.429029
  C     -0.336477    1.361557    0.436145
  C     -1.010905   -0.972176    0.436145
  C      1.347381   -0.389381    0.436145
  N      0.000000    0.000000    0.013396
  H      1.392234    2.405845   -0.399061
  H     -0.007763    2.331357   -1.467880
  H      0.000000    3.431615   -0.080419
  H     -2.779640    0.002788   -0.399061
  H     -2.015133   -1.172401   -1.467880
  H     -2.971866   -1.715807   -0.080419
  H      1.387406   -2.408633   -0.399061
  H      2.022896   -1.158955   -1.467880
  H      2.971866   -1.715807   -0.080419
  H     -1.418618    1.473387    0.378135
  H     -0.069001    1.520307    1.495273
  H     -0.566682   -1.965253    0.378135
  H     -1.282124   -0.819910    1.495273
  H      1.985300    0.491866    0.378135
  H      1.351125   -0.700397    1.495273

 Total Charge           Charge          ....    0
 Multiplicity           Mult            ....    1
 Number of Electrons    NEL             ....   58
 Basis Dimension        Dim             ....  296

ORBITAL ENERGIES
----------------

  NO   OCC          E(Eh)            E(eV)
   0   2.0000     -15.544868      -422.9974
   1   2.0000     -11.248190      -306.0788
   2   2.0000     -11.248190      -306.0788
   3   2.0000     -11.248166      -306.0782
   4   2.0000     -11.214686      -305.1671
   5   2.0000     -11.214686      -305.1671
   6   2.0000     -11.214685      -305.1671
   7   2.0000      -1.223064       -33.2813
   8   2.0000      -1.023423       -27.8488
   9   2.0000      -1.023423       -27.8488
  10   2.0000      -0.956412       -26.0253
  11   2.0000      -0.845292       -23.0016
  12   2.0000      -0.845292       -23.0016
  13   2.0000      -0.769511       -20.9395
  14   2.0000      -0.642970       -17.4961
  15   2.0000      -0.642970       -17.4961
  16   2.0000      -0.621022       -16.8989
  17   2.0000      -0.590523       -16.0689
  18   2.0000      -0.590523       -16.0689
  19   2.0000      -0.547627       -14.9017
  20   2.0000      -0.530686       -14.4407
  21   2.0000      -0.517375       -14.0785
  22   2.0000      -0.517374       -14.0785
  23   2.0000      -0.492921       -13.4131
  24   2.0000      -0.491187       -13.3659
  25   2.0000      -0.491187       -13.3659
  26   2.0000      -0.459600       -12.5064
  27   2.0000      -0.459600       -12.5064
  28   2.0000      -0.345205        -9.3935
  29   0.0000       0.038348         1.0435
  30   0.0000       0.044125         1.2007
  31   0.0000       0.044125         1.2007
  32   0.0000       0.045533         1.2390
  33   0.0000       0.061860         1.6833

MULLIKEN ATOMIC CHARGES
-----------------------
   0 C :    0.327543
   1 C :    0.327542
   2 C :    0.327542
   3 C :    0.758899
   4 C :    0.758898
   5 C :    0.758897
   6 N :   -1.019793
   7 H :   -0.170148
   8 H :   -0.055211
   9 H :   -0.070913
  10 H :   -0.170147
  11 H :   -0.055212
  12 H :   -0.070912
  13 H :   -0.170148
  14 H :   -0.055210
  15 H :   -0.070912
  16 H :   -0.285657
  17 H :   -0.164582
  18 H :   -0.285656
  19 H :   -0.164583
  20 H :   -0.285655
  21 H :   -0.164583
Sum of atomic charges:    0.0000000

LOEWDIN ATOMIC CHARGES
----------------------
   0 C :    0.148784
   1 C :    0.148784
   2 C :    0.148784
   3 C :   -0.063800
   4 C :   -0.063801
   5 C :   -0.063801
   6 N :   -0.127023
   7 H :   -0.031440
   8 H :   -0.013365
   9 H :   -0.017514
  10 H :   -0.031440
  11 H :   -0.013365
  12 H :   -0.017514
  13 H :   -0.031441
  14 H :   -0.013365
  15 H :   -0.017514
  16 H :   -0.001423
  17 H :    0.021100
  18 H :   -0.001423
  19 H :    0.021100
  20 H :   -0.001422
  21 H :    0.021100

  Mayer bond orders larger than 0.100000
B(  0-C ,  3-C ) :   1.1496 B(  0-C ,  7-H ) :   0.9906 B(  0-C ,  8-H ) :   0.9581
B(  0-C ,  9-H ) :   0.8705 B(  1-C ,  4-C ) :   1.1496 B(  1-C , 10-H ) :   0.9906
B(  1-C , 11-H ) :   0.9581 B(  1-C , 12-H ) :   0.8705 B(  2-C ,  5-C ) :   1.1496
B(  2-C , 13-H ) :   0.9906 B(  2-C , 14-H ) :   0.9581 B(  2-C , 15-H ) :   0.8705
B(  3-C ,  6-N ) :   0.8700 B(  3-C , 16-H ) :   0.9089 B(  3-C , 17-H ) :   0.6822
B(  4-C ,  6-N ) :   0.8700 B(  4-C , 18-H ) :   0.9089 B(  4-C , 19-H ) :   0.6822
B(  5-C ,  6-N ) :   0.8700 B(  5-C , 20-H ) :   0.9089 B(  5-C , 21-H ) :   0.6822
B(  6-N , 17-H ) :   0.1603 B(  6-N , 19-H ) :   0.1603 B(  6-N , 21-H ) :   0.1603
B( 16-H , 17-H ) :  -0.1210 B( 18-H , 19-H ) :  -0.1210 B( 20-H , 21-H ) :  -0.1210

MP2 TOTAL ENERGY:     -291.496661501 Eh
FINAL SINGLE POINT ENERGY      -291.496661501215

DIPOLE MOMENT
-------------
                                X             Y             Z
Electronic contribution:     -0.00000      -0.00000       0.50220
Nuclear contribution   :      0.00000       0.00000      -0.23873
                        -----------------------------------------
Total Dipole Moment    :     -0.00000      -0.00000       0.26347
                        -----------------------------------------
Magnitude (a.u.)       :      0.26347
Magnitude (Debye)      :      0.66969

Rotational constants in cm-1:     0.076686     0.076686     0.043871
Rotational constants in MHz :  2298.980328  2298.979604  1315.212121

                             ****ORCA TERMINATED NORMALLY****
TOTAL RUN TIME: 0 days 0 hours 1 minutes 9 seconds 424 msec
