                         Program Version 5.0.3 -  RELEASE  -
|  1> !ri-mp2 aug-cc-pvdz aug-cc-pvdz/c tightscf
|  2> %pal nprocs 16 end
|  3>
|  4> * xyz 0 1
|  5> C     0.000000     0.000000   -0.320697
|  6> C     0.000000     0.000000    1.160968
|  7> N     0.000000     0.000000    2.307595
|  8> F     0.000000     1.253146   -0.784992
|  9> F     1.085256    -0.626573   -0.784992
| 10> F    -1.085256    -0.626573   -0.784992
| 11> *
| 12>
| 13>                          ****END OF INPUT****

CARTESIAN COORDINATES (ANGSTROEM)
---------------------------------
  C      0.000000    0.000000   -0.320697
  C      0.000000    0.000000    1.160968
  N      0.000000    0.000000    2.307595
  F      0.000000    1.253146   -0.784992
  F      1.085256   -0.626573   -0.784992
  F     -1.085256   -0.626573   -0.784992

 Total Charge           Charge          ....    0
 Multiplicity           Mult            ....    1
 Number of Electrons    NEL             ....   46
 Basis Dimension        Dim             ....  138

ORBITAL ENERGIES
----------------

  NO   OCC          E(Eh)            E(eV)
   0   2.0000     -26.400828      -718.4031
   1   2.0000     -26.400828      -718.4031
   2   2.0000     -26.400797      -718.4022
   3   2.0000     -15.650216      -425.8640
   4   2.0000     -11.599508      -315.6387
   5   2.0000     -11.337973      -308.5219
   6   2.0000      -1.787033       -48.6276
   7   2.0000      -1.690169       -45.9918
   8   2.0000      -1.690169       -45.9918
   9   2.0000      -1.284735       -34.9594
  10   2.0000      -1.071128       -29.1469
  11   2.0000      -0.921558       -25.0769
  12   2.0000      -0.876322       -23.8459
  13   2.0000      -0.876322       -23.8459
  14   2.0000      -0.756479       -20.5848
  15   2.0000      -0.756479       -20.5848
  16   2.0000      -0.710963       -19.3463
  17   2.0000      -0.710963       -19.3463
  18   2.0000      -0.695354       -18.9215
  19   2.0000      -0.694557       -18.8999
  20   2.0000      -0.611335       -16.6353
  21   2.0000      -0.532923       -14.5016
  22   2.0000      -0.532923       -14.5016
  23   0.0000       0.064331         1.7505
  24   0.0000       0.071815         1.9542
  25   0.0000       0.086492         2.3536
  26   0.0000       0.086492         2.3536
  27   0.0000       0.117559         3.1989

MULLIKEN ATOMIC CHARGES
-----------------------
   0 C :    2.331702
   1 C :   -0.479102
   2 N :   -0.193985
   3 F :   -0.552872
   4 F :   -0.552872
   5 F :   -0.552872
Sum of atomic charges:    0.0000000

LOEWDIN ATOMIC CHARGES
----------------------
   0 C :   -0.393192
   1 C :   -0.037237
   2 N :    0.108760
   3 F :    0.107223
   4 F :    0.107223
   5 F :    0.107223

  Mayer bond orders larger than 0.100000
B(  0-C ,  1-C ) :   0.5044 B(  0-C ,  3-F ) :   0.3625 B(  0-C ,  4-F ) :   0.3625
B(  0-C ,  5-F ) :   0.3625 B(  1-C ,  2-N ) :   2.6397 B(  1-C ,  3-F ) :   0.1917
B(  1-C ,  4-F ) :   0.1917 B(  1-C ,  5-F ) :   0.1917

MP2 TOTAL ENERGY:     -429.553589869 Eh
FINAL SINGLE POINT ENERGY      -429.553589869227

DIPOLE MOMENT
-------------
                                X             Y             Z
Electronic contribution:     -0.00000      -0.00000      -2.63663
Nuclear contribution   :      0.00000       0.00000       2.12680
                        -----------------------------------------
Total Dipole Moment    :     -0.00000      -0.00000      -0.50983
                        -----------------------------------------
Magnitude (a.u.)       :      0.50983
Magnitude (Debye)      :      1.29589

Rotational constants in cm-1:     0.188350     0.098109     0.098109
Rotational constants in MHz :  5646.576675  2941.228906  2941.228524

                             ****ORCA TERMINATED NORMALLY****
TOTAL RUN TIME: 0 days 0 hours 0 minutes 36 seconds 247 msec
