                         Program Version 5.0.3 -  RELEASE  -
|  1> !ri-mp2 aug-cc-pvdz aug-cc-pvdz/c tightscf
|  2> %pal nprocs 16 end
|  3>
|  4> * xyz 0 1
|  5> C     0.135333     0.760964    0.664678
|  6> C    -0.135333    -0.760964    0.664678
|  7> C    -0.135333    -0.760964   -0.664678
|  8> C     0.135333     0.760964   -0.664678
|  9> F    -0.135333     1.670444    1.579297
| 10> F     0.135333    -1.670444    1.579297
| 11> F     0.135333    -1.670444   -1.579297
| 12> F    -0.135333     1.670444   -1.579297
| 13> *
| 14>
| 15>                          ****END OF INPUT****

CARTESIAN COORDINATES (ANGSTROEM)
---------------------------------
  C      0.135333    0.760964    0.664678
  C     -0.135333   -0.760964    0.664678
  C     -0.135333   -0.760964   -0.664678
  C      0.135333    0.760964   -0.664678
  F     -0.135333    1.670444    1.579297
  F      0.135333   -1.670444    1.579297
  F      0.135333   -1.670444   -1.579297
  F     -0.135333    1.670444   -1.579297

 Total Charge           Charge          ....    0
 Multiplicity           Mult            ....    1
 Number of Electrons    NEL             ....   60
 Basis Dimension        Dim             ....  184

ORBITAL ENERGIES
----------------

  NO   OCC          E(Eh)            E(eV)
   0   2.0000     -26.377473      -717.7675
   1   2.0000     -26.377473      -717.7675
   2   2.0000     -26.377471      -717.7675
   3   2.0000     -26.377470      -717.7674
   4   2.0000     -11.393726      -310.0390
   5   2.0000     -11.393220      -310.0253
   6   2.0000     -11.392023      -309.9927
   7   2.0000     -11.391525      -309.9791
   8   2.0000      -1.694746       -46.1164
   9   2.0000      -1.690108       -45.9902
  10   2.0000      -1.687558       -45.9208
  11   2.0000      -1.684228       -45.8302
  12   2.0000      -1.253472       -34.1087
  13   2.0000      -0.993326       -27.0298
  14   2.0000      -0.922858       -25.1122
  15   2.0000      -0.852374       -23.1943
  16   2.0000      -0.840318       -22.8662
  17   2.0000      -0.806176       -21.9372
  18   2.0000      -0.782630       -21.2964
  19   2.0000      -0.767208       -20.8768
  20   2.0000      -0.753251       -20.4970
  21   2.0000      -0.743691       -20.2369
  22   2.0000      -0.734567       -19.9886
  23   2.0000      -0.728745       -19.8301
  24   2.0000      -0.724545       -19.7159
  25   2.0000      -0.695630       -18.9290
  26   2.0000      -0.609410       -16.5829
  27   2.0000      -0.548638       -14.9292
  28   2.0000      -0.503373       -13.6975
  29   2.0000      -0.334775        -9.1097
  30   0.0000       0.038615         1.0508
  31   0.0000       0.059641         1.6229
  32   0.0000       0.067677         1.8416
  33   0.0000       0.068492         1.8638
  34   0.0000       0.091755         2.4968

MULLIKEN ATOMIC CHARGES
-----------------------
   0 C :    0.605186
   1 C :    0.605186
   2 C :    0.605186
   3 C :    0.605186
   4 F :   -0.605186
   5 F :   -0.605186
   6 F :   -0.605186
   7 F :   -0.605186
Sum of atomic charges:   -0.0000000

LOEWDIN ATOMIC CHARGES
----------------------
   0 C :   -0.095895
   1 C :   -0.095895
   2 C :   -0.095895
   3 C :   -0.095895
   4 F :    0.095895
   5 F :    0.095895
   6 F :    0.095895
   7 F :    0.095895

  Mayer bond orders larger than 0.100000
B(  0-C ,  1-C ) :   1.0953 B(  0-C ,  3-C ) :   1.9120 B(  0-C ,  4-F ) :   0.1279
B(  0-C ,  5-F ) :   0.1038 B(  0-C ,  7-F ) :   0.2117 B(  1-C ,  2-C ) :   1.9120
B(  1-C ,  4-F ) :   0.1038 B(  1-C ,  5-F ) :   0.1279 B(  1-C ,  6-F ) :   0.2117
B(  2-C ,  3-C ) :   1.0953 B(  2-C ,  5-F ) :   0.2117 B(  2-C ,  6-F ) :   0.1279
B(  2-C ,  7-F ) :   0.1038 B(  3-C ,  4-F ) :   0.2117 B(  3-C ,  6-F ) :   0.1038
B(  3-C ,  7-F ) :   0.1279

MP2 TOTAL ENERGY:     -550.405958251 Eh
FINAL SINGLE POINT ENERGY      -550.405958250728

DIPOLE MOMENT
-------------
                                X             Y             Z
Electronic contribution:      0.00000      -0.00000      -0.00000
Nuclear contribution   :      0.00000       0.00000       0.00000
                        -----------------------------------------
Total Dipole Moment    :      0.00000      -0.00000      -0.00000
                        -----------------------------------------
Magnitude (a.u.)       :      0.00000
Magnitude (Debye)      :      0.00000

Rotational constants in cm-1:     0.079365     0.069620     0.037357
Rotational constants in MHz :  2379.297200  2087.144627  1119.932655

                             ****ORCA TERMINATED NORMALLY****
TOTAL RUN TIME: 0 days 0 hours 0 minutes 49 seconds 140 msec
