                         Program Version 5.0.3 -  RELEASE  -
|  1> !ri-mp2 aug-cc-pvdz aug-cc-pvdz/c tightscf
|  2> %pal nprocs 16 end
|  3>
|  4> * xyz 0 1
|  5> C     0.000000     0.830500       0.000000
|  6> C     0.719234    -0.415250       0.000000
|  7> C    -0.719234    -0.415250       0.000000
|  8> C     0.000000     2.159401       0.000000
|  9> C     1.870096    -1.079700       0.000000
| 10> C    -1.870096    -1.079700       0.000000
| 11> H    -0.925056     2.719957       0.000000
| 12> H     0.925056     2.719957       0.000000
| 13> H     2.818080    -0.558856       0.000000
| 14> H     1.893024    -2.161100       0.000000
| 15> H    -1.893024    -2.161100       0.000000
| 16> H    -2.818080    -0.558856       0.000000
| 17> *
| 18>
| 19>                          ****END OF INPUT****

CARTESIAN COORDINATES (ANGSTROEM)
---------------------------------
  C      0.000000    0.830500    0.000000
  C      0.719234   -0.415250    0.000000
  C     -0.719234   -0.415250    0.000000
  C      0.000000    2.159401    0.000000
  C      1.870096   -1.079700    0.000000
  C     -1.870096   -1.079700    0.000000
  H     -0.925056    2.719957    0.000000
  H      0.925056    2.719957    0.000000
  H      2.818080   -0.558856    0.000000
  H      1.893024   -2.161100    0.000000
  H     -1.893024   -2.161100    0.000000
  H     -2.818080   -0.558856    0.000000

 Total Charge           Charge          ....    0
 Multiplicity           Mult            ....    1
 Number of Electrons    NEL             ....   42
 Basis Dimension        Dim             ....  192

ORBITAL ENERGIES
----------------

  NO   OCC          E(Eh)            E(eV)
   0   2.0000     -11.264465      -306.5217
   1   2.0000     -11.263137      -306.4855
   2   2.0000     -11.263137      -306.4855
   3   2.0000     -11.249618      -306.1177
   4   2.0000     -11.249618      -306.1177
   5   2.0000     -11.249616      -306.1176
   6   2.0000      -1.193108       -32.4661
   7   2.0000      -1.009575       -27.4719
   8   2.0000      -1.009575       -27.4719
   9   2.0000      -0.943357       -25.6701
  10   2.0000      -0.711492       -19.3607
  11   2.0000      -0.711492       -19.3607
  12   2.0000      -0.655964       -17.8497
  13   2.0000      -0.620129       -16.8746
  14   2.0000      -0.620129       -16.8746
  15   2.0000      -0.591529       -16.0963
  16   2.0000      -0.519667       -14.1409
  17   2.0000      -0.451692       -12.2912
  18   2.0000      -0.451692       -12.2912
  19   2.0000      -0.337913        -9.1951
  20   2.0000      -0.337913        -9.1951
  21   0.0000       0.033035         0.8989
  22   0.0000       0.036537         0.9942
  23   0.0000       0.041903         1.1402
  24   0.0000       0.041903         1.1402
  25   0.0000       0.059779         1.6267

MULLIKEN ATOMIC CHARGES
-----------------------
   0 C :   -0.185716
   1 C :   -0.185711
   2 C :   -0.185711
   3 C :    0.728581
   4 C :    0.728579
   5 C :    0.728579
   6 H :   -0.271434
   7 H :   -0.271434
   8 H :   -0.271433
   9 H :   -0.271434
  10 H :   -0.271434
  11 H :   -0.271433
Sum of atomic charges:    0.0000000

LOEWDIN ATOMIC CHARGES
----------------------
   0 C :   -0.172093
   1 C :   -0.172094
   2 C :   -0.172094
   3 C :    0.246821
   4 C :    0.246821
   5 C :    0.246821
   6 H :   -0.037364
   7 H :   -0.037364
   8 H :   -0.037364
   9 H :   -0.037364
  10 H :   -0.037364
  11 H :   -0.037364

  Mayer bond orders larger than 0.100000
B(  0-C ,  1-C ) :   1.2224 B(  0-C ,  2-C ) :   1.2224 B(  0-C ,  3-C ) :   1.5814
B(  0-C ,  6-H ) :   0.1958 B(  0-C ,  7-H ) :   0.1958 B(  1-C ,  2-C ) :   1.2224
B(  1-C ,  4-C ) :   1.5814 B(  1-C ,  8-H ) :   0.1958 B(  1-C ,  9-H ) :   0.1958
B(  2-C ,  5-C ) :   1.5814 B(  2-C , 10-H ) :   0.1958 B(  2-C , 11-H ) :   0.1958
B(  3-C ,  4-C ) :   0.1527 B(  3-C ,  5-C ) :   0.1527 B(  3-C ,  6-H ) :   0.6635
B(  3-C ,  7-H ) :   0.6635 B(  4-C ,  5-C ) :   0.1527 B(  4-C ,  8-H ) :   0.6635
B(  4-C ,  9-H ) :   0.6635 B(  5-C , 10-H ) :   0.6635 B(  5-C , 11-H ) :   0.6635
B(  6-H ,  7-H ) :  -0.1523 B(  8-H ,  9-H ) :  -0.1523 B( 10-H , 11-H ) :  -0.1523

MP2 TOTAL ENERGY:     -231.385493302 Eh
FINAL SINGLE POINT ENERGY      -231.385493302382

DIPOLE MOMENT
-------------
                                X             Y             Z
Electronic contribution:     -0.00000      -0.00000      -0.00000
Nuclear contribution   :      0.00000       0.00000       0.00000
                        -----------------------------------------
Total Dipole Moment    :     -0.00000      -0.00000      -0.00000
                        -----------------------------------------
Magnitude (a.u.)       :      0.00000
Magnitude (Debye)      :      0.00000

Rotational constants in cm-1:     0.138863     0.138863     0.069432
Rotational constants in MHz :  4163.015986  4163.015313  2081.507825

                             ****ORCA TERMINATED NORMALLY****
TOTAL RUN TIME: 0 days 0 hours 0 minutes 45 seconds 995 msec
