                         Program Version 5.0.3 -  RELEASE  -
|  1> !ri-mp2 aug-cc-pvdz aug-cc-pvdz/c tightscf
|  2> %pal nprocs 16 end
|  3>
|  4> * xyz 0 1
|  5> C      1.612095   -0.729797    0.125254
|  6> C      1.612095    0.729797    0.125254
|  7> C      0.390198   -1.266356    0.004379
|  8> C      0.390198    1.266356    0.004379
|  9> O     -2.034840    0.000000    0.503621
| 10> S     -0.812350    0.000000   -0.367403
| 11> H      2.522887   -1.308036    0.196077
| 12> H      2.522887    1.308036    0.196077
| 13> H      0.101515   -2.302731   -0.049137
| 14> H      0.101515    2.302731   -0.049137
| 15> *
| 16>
| 17>                          ****END OF INPUT****

CARTESIAN COORDINATES (ANGSTROEM)
---------------------------------
  C      1.612095   -0.729797    0.125254
  C      1.612095    0.729797    0.125254
  C      0.390198   -1.266356    0.004379
  C      0.390198    1.266356    0.004379
  O     -2.034840    0.000000    0.503621
  S     -0.812350    0.000000   -0.367403
  H      2.522887   -1.308036    0.196077
  H      2.522887    1.308036    0.196077
  H      0.101515   -2.302731   -0.049137
  H      0.101515    2.302731   -0.049137

 Total Charge           Charge          ....    0
 Multiplicity           Mult            ....    1
 Number of Electrons    NEL             ....   52
 Basis Dimension        Dim             ....  178

ORBITAL ENERGIES
----------------

  NO   OCC          E(Eh)            E(eV)
   0   2.0000     -92.091111     -2505.9265
   1   2.0000     -20.527891      -558.5923
   2   2.0000     -11.287305      -307.1432
   3   2.0000     -11.287167      -307.1394
   4   2.0000     -11.285522      -307.0947
   5   2.0000     -11.284865      -307.0768
   6   2.0000      -9.079999      -247.0793
   7   2.0000      -6.762804      -184.0253
   8   2.0000      -6.761753      -183.9966
   9   2.0000      -6.759782      -183.9430
  10   2.0000      -1.347864       -36.6773
  11   2.0000      -1.182816       -32.1861
  12   2.0000      -1.024311       -27.8729
  13   2.0000      -0.974717       -26.5234
  14   2.0000      -0.795194       -21.6383
  15   2.0000      -0.780510       -21.2388
  16   2.0000      -0.725615       -19.7450
  17   2.0000      -0.615857       -16.7583
  18   2.0000      -0.600369       -16.3369
  19   2.0000      -0.586349       -15.9554
  20   2.0000      -0.580680       -15.8011
  21   2.0000      -0.566176       -15.4064
  22   2.0000      -0.475694       -12.9443
  23   2.0000      -0.435816       -11.8591
  24   2.0000      -0.367467        -9.9993
  25   2.0000      -0.360454        -9.8085
  26   0.0000       0.026694         0.7264
  27   0.0000       0.037262         1.0139
  28   0.0000       0.042953         1.1688
  29   0.0000       0.051418         1.3992
  30   0.0000       0.056484         1.5370

MULLIKEN ATOMIC CHARGES
-----------------------
   0 C :    0.334937
   1 C :    0.334937
   2 C :    0.029555
   3 C :    0.029555
   4 O :   -1.139391
   5 S :    1.616953
   6 H :   -0.298900
   7 H :   -0.298900
   8 H :   -0.304373
   9 H :   -0.304373
Sum of atomic charges:    0.0000000

LOEWDIN ATOMIC CHARGES
----------------------
   0 C :   -0.065367
   1 C :   -0.065367
   2 C :   -0.133165
   3 C :   -0.133165
   4 O :   -0.551332
   5 S :    1.033173
   6 H :   -0.001475
   7 H :   -0.001475
   8 H :   -0.040913
   9 H :   -0.040913

  Mayer bond orders larger than 0.100000
B(  0-C ,  1-C ) :   1.3372 B(  0-C ,  2-C ) :   2.2204 B(  0-C ,  6-H ) :   0.8550
B(  0-C ,  8-H ) :   0.1506 B(  1-C ,  3-C ) :   2.2204 B(  1-C ,  7-H ) :   0.8550
B(  1-C ,  9-H ) :   0.1506 B(  2-C ,  3-C ) :   0.1137 B(  2-C ,  4-O ) :   0.1133
B(  2-C ,  5-S ) :   0.9124 B(  2-C ,  8-H ) :   0.8986 B(  3-C ,  4-O ) :   0.1133
B(  3-C ,  5-S ) :   0.9124 B(  3-C ,  9-H ) :   0.8986 B(  4-O ,  5-S ) :   0.8841
B(  5-S ,  8-H ) :  -0.1407 B(  5-S ,  9-H ) :  -0.1407

MP2 TOTAL ENERGY:     -626.993720163 Eh
FINAL SINGLE POINT ENERGY      -626.993720163463

DIPOLE MOMENT
-------------
                                X             Y             Z
Electronic contribution:     -3.12786      -0.00000      -0.76873
Nuclear contribution   :      5.11222       0.00000       0.30542
                        -----------------------------------------
Total Dipole Moment    :      1.98436      -0.00000      -0.46331
                        -----------------------------------------
Magnitude (a.u.)       :      2.03773
Magnitude (Debye)      :      5.17951

Rotational constants in cm-1:     0.226902     0.096376     0.072809
Rotational constants in MHz :  6802.346580  2889.292111  2182.755058

                             ****ORCA TERMINATED NORMALLY****
TOTAL RUN TIME: 0 days 0 hours 0 minutes 56 seconds 990 msec
