                         Program Version 5.0.3 -  RELEASE  -
|  1> !ri-mp2 aug-cc-pvdz aug-cc-pvdz/c tightscf
|  2> %pal nprocs 16 end
|  3>
|  4> * xyz 0 1
|  5> S     -0.747974   -1.318207    0.000000
|  6> C      0.805831    1.524574    0.000000
|  7> C      0.139507    1.011430    1.280779
|  8> C      0.139507    1.011430   -1.280779
|  9> C      0.139507   -0.511309    1.383433
| 10> C      0.139507   -0.511309   -1.383433
| 11> H      0.797332    2.616416    0.000000
| 12> H      1.859810    1.225806    0.000000
| 13> H      1.161031   -0.896509    1.416773
| 14> H      1.161031   -0.896509   -1.416773
| 15> H      0.661931    1.421155    2.150299
| 16> H      0.661931    1.421155   -2.150299
| 17> H     -0.890910    1.371982    1.328857
| 18> H     -0.890910    1.371982   -1.328857
| 19> H     -0.368406   -0.846533   -2.286830
| 20> H     -0.368406   -0.846533    2.286830
| 21> *
| 22>
| 23>                          ****END OF INPUT****

CARTESIAN COORDINATES (ANGSTROEM)
---------------------------------
  S     -0.747974   -1.318207    0.000000
  C      0.805831    1.524574    0.000000
  C      0.139507    1.011430    1.280779
  C      0.139507    1.011430   -1.280779
  C      0.139507   -0.511309    1.383433
  C      0.139507   -0.511309   -1.383433
  H      0.797332    2.616416    0.000000
  H      1.859810    1.225806    0.000000
  H      1.161031   -0.896509    1.416773
  H      1.161031   -0.896509   -1.416773
  H      0.661931    1.421155    2.150299
  H      0.661931    1.421155   -2.150299
  H     -0.890910    1.371982    1.328857
  H     -0.890910    1.371982   -1.328857
  H     -0.368406   -0.846533   -2.286830
  H     -0.368406   -0.846533    2.286830

 Total Charge           Charge          ....    0
 Multiplicity           Mult            ....    1
 Number of Electrons    NEL             ....   56
 Basis Dimension        Dim             ....  232

ORBITAL ENERGIES
----------------

  NO   OCC          E(Eh)            E(eV)
   0   2.0000     -91.937832     -2501.7556
   1   2.0000     -11.257637      -306.3359
   2   2.0000     -11.257623      -306.3355
   3   2.0000     -11.232348      -305.6477
   4   2.0000     -11.232273      -305.6457
   5   2.0000     -11.230266      -305.5911
   6   2.0000      -8.939413      -243.2538
   7   2.0000      -6.621349      -180.1761
   8   2.0000      -6.620035      -180.1403
   9   2.0000      -6.618058      -180.0865
  10   2.0000      -1.117881       -30.4191
  11   2.0000      -1.021647       -27.8004
  12   2.0000      -1.005731       -27.3673
  13   2.0000      -0.844309       -22.9748
  14   2.0000      -0.838532       -22.8176
  15   2.0000      -0.755293       -20.5526
  16   2.0000      -0.646113       -17.5816
  17   2.0000      -0.615406       -16.7460
  18   2.0000      -0.611606       -16.6426
  19   2.0000      -0.578650       -15.7459
  20   2.0000      -0.547275       -14.8921
  21   2.0000      -0.526229       -14.3194
  22   2.0000      -0.498963       -13.5775
  23   2.0000      -0.495397       -13.4804
  24   2.0000      -0.472606       -12.8603
  25   2.0000      -0.435054       -11.8384
  26   2.0000      -0.411832       -11.2065
  27   2.0000      -0.330356        -8.9895
  28   0.0000       0.035324         0.9612
  29   0.0000       0.042236         1.1493
  30   0.0000       0.045752         1.2450
  31   0.0000       0.049058         1.3349
  32   0.0000       0.061958         1.6860

MULLIKEN ATOMIC CHARGES
-----------------------
   0 S :    0.412823
   1 C :    0.167223
   2 C :    0.284781
   3 C :    0.284781
   4 C :   -0.042121
   5 C :   -0.042121
   6 H :   -0.110410
   7 H :   -0.153580
   8 H :   -0.093414
   9 H :   -0.093414
  10 H :   -0.100929
  11 H :   -0.100929
  12 H :   -0.130182
  13 H :   -0.130182
  14 H :   -0.076164
  15 H :   -0.076164
Sum of atomic charges:    0.0000000

LOEWDIN ATOMIC CHARGES
----------------------
   0 S :    0.828628
   1 C :   -0.046380
   2 C :   -0.087464
   3 C :   -0.087464
   4 C :   -0.283062
   5 C :   -0.283062
   6 H :    0.014257
   7 H :    0.015546
   8 H :   -0.029112
   9 H :   -0.029112
  10 H :    0.013587
  11 H :    0.013587
  12 H :    0.012916
  13 H :    0.012916
  14 H :   -0.032891
  15 H :   -0.032891

  Mayer bond orders larger than 0.100000
B(  0-S ,  4-C ) :   1.0547 B(  0-S ,  5-C ) :   1.0547 B(  1-C ,  2-C ) :   1.2788
B(  1-C ,  3-C ) :   1.2788 B(  1-C ,  6-H ) :   0.7850 B(  1-C ,  7-H ) :   0.8219
B(  2-C ,  4-C ) :   1.2761 B(  2-C , 10-H ) :   0.7823 B(  2-C , 12-H ) :   0.8065
B(  2-C , 15-H ) :   0.1187 B(  3-C ,  5-C ) :   1.2761 B(  3-C , 11-H ) :   0.7823
B(  3-C , 13-H ) :   0.8065 B(  3-C , 14-H ) :   0.1187 B(  4-C ,  5-C ) :   0.1081
B(  4-C ,  8-H ) :   0.9129 B(  4-C , 15-H ) :   0.8519 B(  5-C ,  9-H ) :   0.9129
B(  5-C , 14-H ) :   0.8519 B(  6-H ,  7-H ) :  -0.1205 B(  8-H , 15-H ) :  -0.1047
B(  9-H , 14-H ) :  -0.1047 B( 10-H , 12-H ) :  -0.1238 B( 11-H , 13-H ) :  -0.1238

MP2 TOTAL ENERGY:     -593.603672374 Eh
FINAL SINGLE POINT ENERGY      -593.603672374479

DIPOLE MOMENT
-------------
                                X             Y             Z
Electronic contribution:     -3.37334      -5.53738       0.00000
Nuclear contribution   :      3.91843       6.15738       0.00000
                        -----------------------------------------
Total Dipole Moment    :      0.54509       0.62000       0.00000
                        -----------------------------------------
Magnitude (a.u.)       :      0.82554
Magnitude (Debye)      :      2.09836

Rotational constants in cm-1:     0.131962     0.099388     0.063002
Rotational constants in MHz :  3956.119964  2979.566327  1888.755346

                             ****ORCA TERMINATED NORMALLY****
TOTAL RUN TIME: 0 days 0 hours 0 minutes 52 seconds 761 msec
