                         Program Version 5.0.3 -  RELEASE  -
|  1> !ri-mp2 aug-cc-pvdz aug-cc-pvdz/c tightscf
|  2> %pal nprocs 16 end
|  3>
|  4> * xyz 0 1
|  5> C     -0.126624    0.767713   -0.173969
|  6> C      0.126624   -0.767713   -0.173969
|  7> C      0.126624    0.763654    1.356240
|  8> C     -0.126624   -0.763654    1.356240
|  9> C      0.714435    1.661716   -1.066390
| 10> C     -0.714435   -1.661716   -1.066390
| 11> H     -1.188759    0.949185   -0.364152
| 12> H      1.188759   -0.949185   -0.364152
| 13> H      1.167412    0.999661    1.584849
| 14> H     -0.514312    1.387012    1.978811
| 15> H     -1.167412   -0.999661    1.584849
| 16> H      0.514312   -1.387012    1.978811
| 17> H      1.780030    1.498868   -0.888391
| 18> H      0.519941    1.467661   -2.123812
| 19> H      0.505264    2.718063   -0.882589
| 20> H     -1.780030   -1.498868   -0.888391
| 21> H     -0.519941   -1.467661   -2.123812
| 22> H     -0.505264   -2.718063   -0.882589
| 23> *
| 24>
| 25>                          ****END OF INPUT****

CARTESIAN COORDINATES (ANGSTROEM)
---------------------------------
  C     -0.126624    0.767713   -0.173969
  C      0.126624   -0.767713   -0.173969
  C      0.126624    0.763654    1.356240
  C     -0.126624   -0.763654    1.356240
  C      0.714435    1.661716   -1.066390
  C     -0.714435   -1.661716   -1.066390
  H     -1.188759    0.949185   -0.364152
  H      1.188759   -0.949185   -0.364152
  H      1.167412    0.999661    1.584849
  H     -0.514312    1.387012    1.978811
  H     -1.167412   -0.999661    1.584849
  H      0.514312   -1.387012    1.978811
  H      1.780030    1.498868   -0.888391
  H      0.519941    1.467661   -2.123812
  H      0.505264    2.718063   -0.882589
  H     -1.780030   -1.498868   -0.888391
  H     -0.519941   -1.467661   -2.123812
  H     -0.505264   -2.718063   -0.882589

 Total Charge           Charge          ....    0
 Multiplicity           Mult            ....    1
 Number of Electrons    NEL             ....   48
 Basis Dimension        Dim             ....  246

ORBITAL ENERGIES
----------------

  NO   OCC          E(Eh)            E(eV)
   0   2.0000     -11.223363      -305.4032
   1   2.0000     -11.222826      -305.3886
   2   2.0000     -11.217395      -305.2408
   3   2.0000     -11.216847      -305.2259
   4   2.0000     -11.214746      -305.1687
   5   2.0000     -11.214744      -305.1687
   6   2.0000      -1.135394       -30.8956
   7   2.0000      -0.989068       -26.9139
   8   2.0000      -0.970415       -26.4063
   9   2.0000      -0.846797       -23.0425
  10   2.0000      -0.831706       -22.6319
  11   2.0000      -0.738653       -20.0998
  12   2.0000      -0.622294       -16.9335
  13   2.0000      -0.621648       -16.9159
  14   2.0000      -0.582021       -15.8376
  15   2.0000      -0.561637       -15.2829
  16   2.0000      -0.560292       -15.2463
  17   2.0000      -0.543338       -14.7850
  18   2.0000      -0.505605       -13.7582
  19   2.0000      -0.495192       -13.4749
  20   2.0000      -0.450661       -12.2631
  21   2.0000      -0.444657       -12.0997
  22   2.0000      -0.417114       -11.3503
  23   2.0000      -0.413447       -11.2505
  24   0.0000       0.038187         1.0391
  25   0.0000       0.043759         1.1907
  26   0.0000       0.046679         1.2702
  27   0.0000       0.047175         1.2837
  28   0.0000       0.065643         1.7862

MULLIKEN ATOMIC CHARGES
-----------------------
   0 C :   -0.450030
   1 C :   -0.450030
   2 C :    0.764567
   3 C :    0.764567
   4 C :    0.538416
   5 C :    0.538416
   6 H :   -0.298196
   7 H :   -0.298196
   8 H :   -0.258311
   9 H :   -0.211849
  10 H :   -0.258311
  11 H :   -0.211849
  12 H :   -0.043711
  13 H :   -0.018858
  14 H :   -0.022029
  15 H :   -0.043711
  16 H :   -0.018858
  17 H :   -0.022029
Sum of atomic charges:    0.0000000

LOEWDIN ATOMIC CHARGES
----------------------
   0 C :   -0.194569
   1 C :   -0.194569
   2 C :    0.041080
   3 C :    0.041080
   4 C :    0.157161
   5 C :    0.157161
   6 H :    0.037032
   7 H :    0.037032
   8 H :    0.006640
   9 H :   -0.000101
  10 H :    0.006640
  11 H :   -0.000101
  12 H :   -0.015544
  13 H :   -0.016283
  14 H :   -0.015416
  15 H :   -0.015544
  16 H :   -0.016283
  17 H :   -0.015416

  Mayer bond orders larger than 0.100000
B(  0-C ,  1-C ) :   0.9156 B(  0-C ,  2-C ) :   1.0396 B(  0-C ,  4-C ) :   1.3651
B(  0-C ,  5-C ) :  -0.1244 B(  0-C ,  6-H ) :   0.5198 B(  0-C ,  7-H ) :   0.1070
B(  0-C , 12-H ) :   0.2043 B(  1-C ,  3-C ) :   1.0396 B(  1-C ,  4-C ) :  -0.1244
B(  1-C ,  5-C ) :   1.3651 B(  1-C ,  6-H ) :   0.1070 B(  1-C ,  7-H ) :   0.5198
B(  1-C , 15-H ) :   0.2043 B(  2-C ,  3-C ) :   1.1640 B(  2-C ,  4-C ) :  -0.1360
B(  2-C ,  8-H ) :   0.7081 B(  2-C ,  9-H ) :   0.7796 B(  3-C ,  5-C ) :  -0.1360
B(  3-C , 10-H ) :   0.7081 B(  3-C , 11-H ) :   0.7796 B(  4-C , 12-H ) :   0.8700
B(  4-C , 13-H ) :   0.8445 B(  4-C , 14-H ) :   0.8518 B(  5-C , 15-H ) :   0.8700
B(  5-C , 16-H ) :   0.8445 B(  5-C , 17-H ) :   0.8518 B(  8-H ,  9-H ) :  -0.1631
B( 10-H , 11-H ) :  -0.1631

MP2 TOTAL ENERGY:     -235.085574648 Eh
FINAL SINGLE POINT ENERGY      -235.085574648210

DIPOLE MOMENT
-------------
                                X             Y             Z
Electronic contribution:     -0.00000      -0.00000       1.46172
Nuclear contribution   :     -0.00000       0.00000      -1.48946
                        -----------------------------------------
Total Dipole Moment    :     -0.00000      -0.00000      -0.02775
                        -----------------------------------------
Magnitude (a.u.)       :      0.02775
Magnitude (Debye)      :      0.07053

Rotational constants in cm-1:     0.150337     0.110482     0.071484
Rotational constants in MHz :  4506.983393  3312.171012  2143.027810

                             ****ORCA TERMINATED NORMALLY****
TOTAL RUN TIME: 0 days 0 hours 1 minutes 2 seconds 209 msec
