                         Program Version 5.0.3 -  RELEASE  -
|  1> !ri-mp2 aug-cc-pvdz aug-cc-pvdz/c tightscf
|  2> %pal nprocs 16 end
|  3>
|  4> * xyz 0 1
|  5> O      0.614839   -0.531311    0.412981
|  6> O     -0.558693   -0.562512   -0.398497
|  7> O      1.453969    0.529309   -0.061717
|  8> C     -1.474009    0.413749    0.097467
|  9> H      1.911049    0.100315   -0.801444
| 10> H     -1.737810    0.202807    1.133973
| 11> H     -2.351255    0.313601   -0.540435
| 12> H     -1.058850    1.416901    0.000969
| 13> *
| 14>
| 15>                          ****END OF INPUT****

CARTESIAN COORDINATES (ANGSTROEM)
---------------------------------
  O      0.614839   -0.531311    0.412981
  O     -0.558693   -0.562512   -0.398497
  O      1.453969    0.529309   -0.061717
  C     -1.474009    0.413749    0.097467
  H      1.911049    0.100315   -0.801444
  H     -1.737810    0.202807    1.133973
  H     -2.351255    0.313601   -0.540435
  H     -1.058850    1.416901    0.000969

 Total Charge           Charge          ....    0
 Multiplicity           Mult            ....    1
 Number of Electrons    NEL             ....   34
 Basis Dimension        Dim             ....  128

ORBITAL ENERGIES
----------------

  NO   OCC          E(Eh)            E(eV)
   0   2.0000     -20.701708      -563.3221
   1   2.0000     -20.651125      -561.9457
   2   2.0000     -20.647961      -561.8596
   3   2.0000     -11.292930      -307.2963
   4   2.0000      -1.546957       -42.0948
   5   2.0000      -1.374273       -37.3959
   6   2.0000      -1.159153       -31.5422
   7   2.0000      -0.929680       -25.2979
   8   2.0000      -0.744549       -20.2602
   9   2.0000      -0.700936       -19.0734
  10   2.0000      -0.693946       -18.8832
  11   2.0000      -0.632770       -17.2185
  12   2.0000      -0.599259       -16.3067
  13   2.0000      -0.567864       -15.4524
  14   2.0000      -0.502186       -13.6652
  15   2.0000      -0.490071       -13.3355
  16   2.0000      -0.471177       -12.8214
  17   0.0000       0.036977         1.0062
  18   0.0000       0.047586         1.2949
  19   0.0000       0.059349         1.6150
  20   0.0000       0.063567         1.7297
  21   0.0000       0.104790         2.8515

MULLIKEN ATOMIC CHARGES
-----------------------
   0 O :   -0.126652
   1 O :   -0.515785
   2 O :   -0.224258
   3 C :    0.909554
   4 H :    0.256843
   5 H :   -0.075853
   6 H :   -0.155969
   7 H :   -0.067880
Sum of atomic charges:    0.0000000

LOEWDIN ATOMIC CHARGES
----------------------
   0 O :   -0.010984
   1 O :   -0.041558
   2 O :    0.093943
   3 C :    0.123392
   4 H :   -0.073186
   5 H :   -0.028896
   6 H :   -0.029020
   7 H :   -0.033692

  Mayer bond orders larger than 0.100000
B(  0-O ,  1-O ) :   0.7950 B(  0-O ,  2-O ) :   0.8230 B(  1-O ,  3-C ) :   0.5835
B(  2-O ,  4-H ) :   0.9545 B(  3-C ,  5-H ) :   0.9737 B(  3-C ,  6-H ) :   0.9903
B(  3-C ,  7-H ) :   0.9861

MP2 TOTAL ENERGY:     -265.373047628 Eh
FINAL SINGLE POINT ENERGY      -265.373047628206

DIPOLE MOMENT
-------------
                                X             Y             Z
Electronic contribution:      2.94520      -1.72169      -0.14686
Nuclear contribution   :     -3.20375       2.01886      -0.20708
                        -----------------------------------------
Total Dipole Moment    :     -0.25856       0.29716      -0.35394
                        -----------------------------------------
Magnitude (a.u.)       :      0.52956
Magnitude (Debye)      :      1.34603

Rotational constants in cm-1:     0.654549     0.183228     0.164430
Rotational constants in MHz : 19622.898449  5493.047927  4929.492617

                             ****ORCA TERMINATED NORMALLY****
TOTAL RUN TIME: 0 days 0 hours 0 minutes 52 seconds 347 msec
