                         Program Version 5.0.3 -  RELEASE  -
|  1> !ri-mp2 aug-cc-pvdz aug-cc-pvdz/c tightscf
|  2> %pal nprocs 16 end
|  3>
|  4> * xyz 0 1
|  5> C      0.015025    0.360286    0.000000
|  6> C      0.501815   -1.106329    0.000000
|  7> O     -0.245494   -2.035813    0.000000
|  8> F     -1.307957    0.464386    0.000000
|  9> F      0.501815    0.987853    1.088479
| 10> F      0.501815    0.987853   -1.088479
| 11> H      1.601854   -1.198064    0.000000
| 12> *
| 13>
| 14>                          ****END OF INPUT****

CARTESIAN COORDINATES (ANGSTROEM)
---------------------------------
  C      0.015025    0.360286    0.000000
  C      0.501815   -1.106329    0.000000
  O     -0.245494   -2.035813    0.000000
  F     -1.307957    0.464386    0.000000
  F      0.501815    0.987853    1.088479
  F      0.501815    0.987853   -1.088479
  H      1.601854   -1.198064    0.000000

 Total Charge           Charge          ....    0
 Multiplicity           Mult            ....    1
 Number of Electrons    NEL             ....   48
 Basis Dimension        Dim             ....  147

ORBITAL ENERGIES
----------------

  NO   OCC          E(Eh)            E(eV)
   0   2.0000     -26.378914      -717.8067
   1   2.0000     -26.378895      -717.8062
   2   2.0000     -26.376639      -717.7448
   3   2.0000     -20.631192      -561.4033
   4   2.0000     -11.545624      -314.1724
   5   2.0000     -11.397323      -310.1369
   6   2.0000      -1.760181       -47.8970
   7   2.0000      -1.667002       -45.3614
   8   2.0000      -1.664935       -45.3052
   9   2.0000      -1.463348       -39.8197
  10   2.0000      -1.047979       -28.5170
  11   2.0000      -0.918382       -24.9904
  12   2.0000      -0.852385       -23.1946
  13   2.0000      -0.849748       -23.1228
  14   2.0000      -0.802137       -21.8272
  15   2.0000      -0.736651       -20.0453
  16   2.0000      -0.734000       -19.9731
  17   2.0000      -0.707876       -19.2623
  18   2.0000      -0.689029       -18.7494
  19   2.0000      -0.684438       -18.6245
  20   2.0000      -0.673381       -18.3236
  21   2.0000      -0.654525       -17.8105
  22   2.0000      -0.580146       -15.7866
  23   2.0000      -0.482646       -13.1335
  24   0.0000       0.033432         0.9097
  25   0.0000       0.065395         1.7795
  26   0.0000       0.074877         2.0375
  27   0.0000       0.086261         2.3473
  28   0.0000       0.109736         2.9861

MULLIKEN ATOMIC CHARGES
-----------------------
   0 C :    1.950142
   1 C :    0.406259
   2 O :   -0.552604
   3 F :   -0.601417
   4 F :   -0.589787
   5 F :   -0.589787
   6 H :   -0.022807
Sum of atomic charges:   -0.0000000

LOEWDIN ATOMIC CHARGES
----------------------
   0 C :   -0.353787
   1 C :   -0.009434
   2 O :    0.077475
   3 F :    0.103775
   4 F :    0.078758
   5 F :    0.078758
   6 H :    0.024455

  Mayer bond orders larger than 0.100000
B(  0-C ,  1-C ) :   1.0988 B(  0-C ,  3-F ) :   0.2947 B(  0-C ,  4-F ) :   0.3390
B(  0-C ,  5-F ) :   0.3390 B(  1-C ,  2-O ) :   1.6997 B(  1-C ,  3-F ) :   0.2023
B(  1-C ,  4-F ) :   0.1169 B(  1-C ,  5-F ) :   0.1169 B(  1-C ,  6-H ) :   0.8812

MP2 TOTAL ENERGY:     -450.603774102 Eh
FINAL SINGLE POINT ENERGY      -450.603774101748

DIPOLE MOMENT
-------------
                                X             Y             Z
Electronic contribution:     -0.94280       3.40106      -0.00000
Nuclear contribution   :      1.74600      -3.34752       0.00000
                        -----------------------------------------
Total Dipole Moment    :      0.80320       0.05354      -0.00000
                        -----------------------------------------
Magnitude (a.u.)       :      0.80498
Magnitude (Debye)      :      2.04611

Rotational constants in cm-1:     0.181219     0.098768     0.097068
Rotational constants in MHz :  5432.821521  2960.995265  2910.032000

                             ****ORCA TERMINATED NORMALLY****
TOTAL RUN TIME: 0 days 0 hours 0 minutes 39 seconds 956 msec
