                         Program Version 5.0.3 -  RELEASE  -
|  1> !ri-mp2 aug-cc-pvdz aug-cc-pvdz/c tightscf
|  2> %pal nprocs 16 end
|  3>
|  4> * xyz 0 1
|  5> C      1.198990    0.282455   -0.007474
|  6> C      0.320745    1.512346   -0.137212
|  7> C     -1.130694    1.395994    0.326233
|  8> C     -1.862920    0.229297   -0.332913
|  9> C     -1.354109   -1.115286    0.160621
| 10> O      2.401259    0.353705    0.028692
| 11> S      0.466431   -1.359194   -0.017043
| 12> H      0.844846    2.313553    0.384969
| 13> H      0.347720    1.769982   -1.201227
| 14> H     -1.165948    1.279754    1.413293
| 15> H     -1.641074    2.333623    0.100488
| 16> H     -2.931348    0.287651   -0.110885
| 17> H     -1.760809    0.292350   -1.419347
| 18> H     -1.596178   -1.250293    1.214503
| 19> H     -1.802248   -1.937986   -0.394177
| 20> *
| 21>
| 22>                          ****END OF INPUT****

CARTESIAN COORDINATES (ANGSTROEM)
---------------------------------
  C      1.198990    0.282455   -0.007474
  C      0.320745    1.512346   -0.137212
  C     -1.130694    1.395994    0.326233
  C     -1.862920    0.229297   -0.332913
  C     -1.354109   -1.115286    0.160621
  O      2.401259    0.353705    0.028692
  S      0.466431   -1.359194   -0.017043
  H      0.844846    2.313553    0.384969
  H      0.347720    1.769982   -1.201227
  H     -1.165948    1.279754    1.413293
  H     -1.641074    2.333623    0.100488
  H     -2.931348    0.287651   -0.110885
  H     -1.760809    0.292350   -1.419347
  H     -1.596178   -1.250293    1.214503
  H     -1.802248   -1.937986   -0.394177

 Total Charge           Charge          ....    0
 Multiplicity           Mult            ....    1
 Number of Electrons    NEL             ....   62
 Basis Dimension        Dim             ....  237

ORBITAL ENERGIES
----------------

  NO   OCC          E(Eh)            E(eV)
   0   2.0000     -91.967272     -2502.5567
   1   2.0000     -20.562447      -559.5326
   2   2.0000     -11.369550      -309.3812
   3   2.0000     -11.281232      -306.9779
   4   2.0000     -11.257805      -306.3404
   5   2.0000     -11.254979      -306.2635
   6   2.0000     -11.253308      -306.2181
   7   2.0000      -8.969894      -244.0832
   8   2.0000      -6.651668      -181.0011
   9   2.0000      -6.650093      -180.9582
  10   2.0000      -6.648407      -180.9124
  11   2.0000      -1.405879       -38.2559
  12   2.0000      -1.131354       -30.7857
  13   2.0000      -1.040759       -28.3205
  14   2.0000      -1.002897       -27.2902
  15   2.0000      -0.882618       -24.0173
  16   2.0000      -0.832780       -22.6611
  17   2.0000      -0.727551       -19.7977
  18   2.0000      -0.665710       -18.1149
  19   2.0000      -0.644477       -17.5371
  20   2.0000      -0.632310       -17.2060
  21   2.0000      -0.622457       -16.9379
  22   2.0000      -0.600373       -16.3370
  23   2.0000      -0.576011       -15.6741
  24   2.0000      -0.530042       -14.4232
  25   2.0000      -0.518479       -14.1085
  26   2.0000      -0.496658       -13.5147
  27   2.0000      -0.490853       -13.3568
  28   2.0000      -0.454709       -12.3733
  29   2.0000      -0.397656       -10.8208
  30   2.0000      -0.364642        -9.9224
  31   0.0000       0.028196         0.7673
  32   0.0000       0.039166         1.0657
  33   0.0000       0.041789         1.1371
  34   0.0000       0.049502         1.3470
  35   0.0000       0.062099         1.6898

MULLIKEN ATOMIC CHARGES
-----------------------
   0 C :    0.034753
   1 C :    0.119349
   2 C :    0.338672
   3 C :    0.362921
   4 C :   -0.104974
   5 O :   -0.772750
   6 S :    0.551943
   7 H :   -0.030970
   8 H :    0.047440
   9 H :   -0.166918
  10 H :   -0.073727
  11 H :   -0.078482
  12 H :   -0.156910
  13 H :   -0.034744
  14 H :   -0.035603
Sum of atomic charges:   -0.0000000

LOEWDIN ATOMIC CHARGES
----------------------
   0 C :   -0.561617
   1 C :   -0.015503
   2 C :   -0.035654
   3 C :   -0.082351
   4 C :   -0.260384
   5 O :   -0.017386
   6 S :    0.908433
   7 H :    0.023475
   8 H :    0.028381
   9 H :    0.019740
  10 H :    0.018850
  11 H :    0.018770
  12 H :    0.018254
  13 H :   -0.031846
  14 H :   -0.031163

  Mayer bond orders larger than 0.100000
B(  0-C ,  1-C ) :   1.1592 B(  0-C ,  3-C ) :  -0.1184 B(  0-C ,  5-O ) :   1.4179
B(  0-C ,  6-S ) :   0.9822 B(  0-C ,  7-H ) :   0.1014 B(  1-C ,  2-C ) :   1.3113
B(  1-C ,  7-H ) :   0.7525 B(  1-C ,  8-H ) :   0.9045 B(  2-C ,  3-C ) :   1.2260
B(  2-C ,  9-H ) :   0.8359 B(  2-C , 10-H ) :   0.7599 B(  3-C ,  4-C ) :   1.2818
B(  3-C , 11-H ) :   0.7798 B(  3-C , 12-H ) :   0.8345 B(  3-C , 14-H ) :   0.1074
B(  4-C ,  6-S ) :   1.0498 B(  4-C , 13-H ) :   0.8864 B(  4-C , 14-H ) :   0.8889
B(  9-H , 10-H ) :  -0.1129 B( 11-H , 12-H ) :  -0.1158

MP2 TOTAL ENERGY:     -667.484074649 Eh
FINAL SINGLE POINT ENERGY      -667.484074648657

DIPOLE MOMENT
-------------
                                X             Y             Z
Electronic contribution:      7.74002      -4.63721       0.00447
Nuclear contribution   :     -9.70346       5.14776      -0.01143
                        -----------------------------------------
Total Dipole Moment    :     -1.96343       0.51055      -0.00696
                        -----------------------------------------
Magnitude (a.u.)       :      2.02874
Magnitude (Debye)      :      5.15664

Rotational constants in cm-1:     0.105290     0.073600     0.045785
Rotational constants in MHz :  3156.524364  2206.462233  1372.607255

                             ****ORCA TERMINATED NORMALLY****
TOTAL RUN TIME: 0 days 0 hours 0 minutes 59 seconds 67 msec
