                         Program Version 5.0.3 -  RELEASE  -
|  1> !ri-mp2 aug-cc-pvdz aug-cc-pvdz/c tightscf
|  2> %pal nprocs 16 end
|  3>
|  4> * xyz 0 1
|  5> S     -1.756434   -0.365803   -0.000188
|  6> N      0.863151   -0.693485    0.000281
|  7> N      0.167197    1.487661   -0.000079
|  8> N      2.197899   -0.268846    0.000181
|  9> C     -0.173325    0.187895    0.000004
| 10> H      0.618610   -1.671311    0.000117
| 11> H      1.137120    1.757055    0.000069
| 12> H     -0.566962    2.169753   -0.000192
| 13> H      2.678241   -0.603657    0.827164
| 14> H      2.678150   -0.603667   -0.826856
| 15> *
| 16>
| 17>                          ****END OF INPUT****

CARTESIAN COORDINATES (ANGSTROEM)
---------------------------------
  S     -1.756434   -0.365803   -0.000188
  N      0.863151   -0.693485    0.000281
  N      0.167197    1.487661   -0.000079
  N      2.197899   -0.268846    0.000181
  C     -0.173325    0.187895    0.000004
  H      0.618610   -1.671311    0.000117
  H      1.137120    1.757055    0.000069
  H     -0.566962    2.169753   -0.000192
  H      2.678241   -0.603657    0.827164
  H      2.678150   -0.603667   -0.826856

 Total Charge           Charge          ....    0
 Multiplicity           Mult            ....    1
 Number of Electrons    NEL             ....   48
 Basis Dimension        Dim             ....  164

ORBITAL ENERGIES
----------------

  NO   OCC          E(Eh)            E(eV)
   0   2.0000     -91.883796     -2500.2852
   1   2.0000     -15.636764      -425.4980
   2   2.0000     -15.631250      -425.3479
   3   2.0000     -15.603778      -424.6004
   4   2.0000     -11.380445      -309.6777
   5   2.0000      -8.887309      -241.8360
   6   2.0000      -6.569950      -178.7774
   7   2.0000      -6.566602      -178.6863
   8   2.0000      -6.566066      -178.6717
   9   2.0000      -1.357759       -36.9465
  10   2.0000      -1.246347       -33.9148
  11   2.0000      -1.111718       -30.2514
  12   2.0000      -0.952055       -25.9067
  13   2.0000      -0.834244       -22.7009
  14   2.0000      -0.742499       -20.2044
  15   2.0000      -0.726399       -19.7663
  16   2.0000      -0.722948       -19.6724
  17   2.0000      -0.674442       -18.3525
  18   2.0000      -0.562883       -15.3168
  19   2.0000      -0.503806       -13.7093
  20   2.0000      -0.472964       -12.8700
  21   2.0000      -0.425217       -11.5708
  22   2.0000      -0.317693        -8.6449
  23   2.0000      -0.316072        -8.6008
  24   0.0000       0.021539         0.5861
  25   0.0000       0.039284         1.0690
  26   0.0000       0.047234         1.2853
  27   0.0000       0.054667         1.4876
  28   0.0000       0.072527         1.9736

MULLIKEN ATOMIC CHARGES
-----------------------
   0 S :   -0.053162
   1 N :   -0.203721
   2 N :   -0.260136
   3 N :   -0.359074
   4 C :    0.670306
   5 H :   -0.031178
   6 H :    0.008328
   7 H :   -0.004496
   8 H :    0.116582
   9 H :    0.116551
Sum of atomic charges:    0.0000000

LOEWDIN ATOMIC CHARGES
----------------------
   0 S :    0.434804
   1 N :   -0.017316
   2 N :    0.225164
   3 N :    0.226790
   4 C :   -0.744710
   5 H :   -0.002051
   6 H :   -0.042315
   7 H :   -0.016416
   8 H :   -0.031978
   9 H :   -0.031972

  Mayer bond orders larger than 0.100000
B(  0-S ,  4-C ) :   1.6550 B(  1-N ,  3-N ) :   1.1269 B(  1-N ,  4-C ) :   0.9139
B(  1-N ,  5-H ) :   1.0665 B(  2-N ,  4-C ) :   0.8801 B(  2-N ,  6-H ) :   1.1645
B(  2-N ,  7-H ) :   1.0998 B(  3-N ,  4-C ) :  -0.1876 B(  3-N ,  8-H ) :   1.0293
B(  3-N ,  9-H ) :   1.0293 B(  4-C ,  6-H ) :  -0.1465 B(  6-H ,  7-H ) :  -0.1043

MP2 TOTAL ENERGY:     -602.484935848 Eh
FINAL SINGLE POINT ENERGY      -602.484935847664

DIPOLE MOMENT
-------------
                                X             Y             Z
Electronic contribution:     -4.09123      -0.79695      -0.00022
Nuclear contribution   :      6.54681       1.05106       0.00031
                        -----------------------------------------
Total Dipole Moment    :      2.45558       0.25411       0.00009
                        -----------------------------------------
Magnitude (a.u.)       :      2.46870
Magnitude (Debye)      :      6.27492

Rotational constants in cm-1:     0.300215     0.086351     0.067806
Rotational constants in MHz :  9000.218965  2588.749330  2032.773616

                             ****ORCA TERMINATED NORMALLY****
TOTAL RUN TIME: 0 days 0 hours 0 minutes 37 seconds 837 msec
