                         Program Version 5.0.3 -  RELEASE  -
|  1> !ri-mp2 aug-cc-pvdz aug-cc-pvdz/c tightscf
|  2> %pal nprocs 16 end
|  3>
|  4> * xyz 0 1
|  5> C     -0.091009    0.344069    0.762763
|  6> C     -0.091009    0.344069   -0.762763
|  7> C     -1.274798    0.863593    0.000000
|  8> C      1.043254    1.383282    0.782434
|  9> C     -0.091009   -1.088216    1.246819
| 10> C      1.043254    1.383282   -0.782434
| 11> C     -0.091009   -1.088216   -1.246819
| 12> C     -0.542343   -1.905205    0.000000
| 13> H     -2.164538    0.249662    0.000000
| 14> H     -1.477867    1.927933    0.000000
| 15> H      1.969402    0.987255    1.196949
| 16> H      0.820737    2.329837    1.278331
| 17> H     -0.731511   -1.283950    2.109647
| 18> H      0.926511   -1.368063    1.532126
| 19> H      0.820737    2.329837   -1.278331
| 20> H      1.969402    0.987255   -1.196949
| 21> H      0.926511   -1.368063   -1.532126
| 22> H     -0.731511   -1.283950   -2.109647
| 23> H     -1.627719   -2.012526    0.000000
| 24> H     -0.132150   -2.915184    0.000000
| 25> *
| 26>
| 27>                          ****END OF INPUT****

CARTESIAN COORDINATES (ANGSTROEM)
---------------------------------
  C     -0.091009    0.344069    0.762763
  C     -0.091009    0.344069   -0.762763
  C     -1.274798    0.863593    0.000000
  C      1.043254    1.383282    0.782434
  C     -0.091009   -1.088216    1.246819
  C      1.043254    1.383282   -0.782434
  C     -0.091009   -1.088216   -1.246819
  C     -0.542343   -1.905205    0.000000
  H     -2.164538    0.249662    0.000000
  H     -1.477867    1.927933    0.000000
  H      1.969402    0.987255    1.196949
  H      0.820737    2.329837    1.278331
  H     -0.731511   -1.283950    2.109647
  H      0.926511   -1.368063    1.532126
  H      0.820737    2.329837   -1.278331
  H      1.969402    0.987255   -1.196949
  H      0.926511   -1.368063   -1.532126
  H     -0.731511   -1.283950   -2.109647
  H     -1.627719   -2.012526    0.000000
  H     -0.132150   -2.915184    0.000000

 Total Charge           Charge          ....    0
 Multiplicity           Mult            ....    1
 Number of Electrons    NEL             ....   60
 Basis Dimension        Dim             ....  292

ORBITAL ENERGIES
----------------

  NO   OCC          E(Eh)            E(eV)
   0   2.0000     -11.227564      -305.5176
   1   2.0000     -11.227173      -305.5069
   2   2.0000     -11.226658      -305.4929
   3   2.0000     -11.225011      -305.4481
   4   2.0000     -11.224905      -305.4452
   5   2.0000     -11.223682      -305.4119
   6   2.0000     -11.221262      -305.3461
   7   2.0000     -11.220642      -305.3292
   8   2.0000      -1.206891       -32.8412
   9   2.0000      -1.050730       -28.5918
  10   2.0000      -0.974316       -26.5125
  11   2.0000      -0.963578       -26.2203
  12   2.0000      -0.849798       -23.1242
  13   2.0000      -0.836685       -22.7674
  14   2.0000      -0.762888       -20.7592
  15   2.0000      -0.668416       -18.1885
  16   2.0000      -0.668248       -18.1839
  17   2.0000      -0.630781       -17.1644
  18   2.0000      -0.603346       -16.4179
  19   2.0000      -0.566280       -15.4093
  20   2.0000      -0.564496       -15.3607
  21   2.0000      -0.539866       -14.6905
  22   2.0000      -0.531830       -14.4718
  23   2.0000      -0.506038       -13.7700
  24   2.0000      -0.474287       -12.9060
  25   2.0000      -0.468941       -12.7605
  26   2.0000      -0.450076       -12.2472
  27   2.0000      -0.440727       -11.9928
  28   2.0000      -0.391344       -10.6490
  29   2.0000      -0.331761        -9.0277
  30   0.0000       0.037774         1.0279
  31   0.0000       0.044036         1.1983
  32   0.0000       0.045262         1.2316
  33   0.0000       0.047177         1.2837
  34   0.0000       0.061051         1.6613

MULLIKEN ATOMIC CHARGES
-----------------------
   0 C :   -1.120149
   1 C :   -1.120149
   2 C :    1.138940
   3 C :    0.861787
   4 C :    0.815004
   5 C :    0.861787
   6 C :    0.815004
   7 C :    0.426068
   8 H :   -0.421663
   9 H :   -0.522087
  10 H :   -0.221926
  11 H :   -0.232410
  12 H :   -0.093882
  13 H :   -0.113609
  14 H :   -0.232410
  15 H :   -0.221926
  16 H :   -0.113609
  17 H :   -0.093882
  18 H :   -0.203285
  19 H :   -0.207601
Sum of atomic charges:   -0.0000000

LOEWDIN ATOMIC CHARGES
----------------------
   0 C :   -0.272328
   1 C :   -0.272328
   2 C :    0.144185
   3 C :    0.082709
   4 C :    0.053020
   5 C :    0.082709
   6 C :    0.053020
   7 C :    0.018104
   8 H :    0.011367
   9 H :    0.012948
  10 H :    0.007927
  11 H :    0.002548
  12 H :    0.011884
  13 H :    0.017371
  14 H :    0.002548
  15 H :    0.007927
  16 H :    0.017371
  17 H :    0.011884
  18 H :    0.001571
  19 H :    0.005561

  Mayer bond orders larger than 0.100000
B(  0-C ,  1-C ) :   1.0140 B(  0-C ,  2-C ) :   1.2087 B(  0-C ,  3-C ) :   1.0929
B(  0-C ,  4-C ) :   1.0351 B(  0-C ,  6-C ) :   0.1253 B(  0-C ,  8-H ) :   0.1950
B(  0-C ,  9-H ) :   0.2336 B(  0-C , 10-H ) :   0.1654 B(  0-C , 11-H ) :   0.2669
B(  0-C , 12-H ) :   0.1819 B(  0-C , 13-H ) :   0.2507 B(  1-C ,  2-C ) :   1.2087
B(  1-C ,  4-C ) :   0.1253 B(  1-C ,  5-C ) :   1.0929 B(  1-C ,  6-C ) :   1.0351
B(  1-C ,  8-H ) :   0.1950 B(  1-C ,  9-H ) :   0.2336 B(  1-C , 14-H ) :   0.2669
B(  1-C , 15-H ) :   0.1654 B(  1-C , 16-H ) :   0.2507 B(  1-C , 17-H ) :   0.1819
B(  2-C ,  4-C ) :  -0.1209 B(  2-C ,  6-C ) :  -0.1209 B(  2-C ,  8-H ) :   0.3794
B(  2-C ,  9-H ) :   0.2244 B(  3-C ,  5-C ) :   1.1717 B(  3-C , 10-H ) :   0.6473
B(  3-C , 11-H ) :   0.5836 B(  4-C ,  6-C ) :  -0.1583 B(  4-C ,  7-C ) :   1.1949
B(  4-C , 12-H ) :   0.6434 B(  4-C , 13-H ) :   0.6521 B(  5-C , 14-H ) :   0.5836
B(  5-C , 15-H ) :   0.6473 B(  6-C ,  7-C ) :   1.1949 B(  6-C , 16-H ) :   0.6521
B(  6-C , 17-H ) :   0.6434 B(  7-C ,  8-H ) :   0.1323 B(  7-C , 18-H ) :   0.7279
B(  7-C , 19-H ) :   0.8538 B(  8-H ,  9-H ) :  -0.2322 B( 10-H , 11-H ) :  -0.1830
B( 12-H , 13-H ) :  -0.1529 B( 14-H , 15-H ) :  -0.1830 B( 16-H , 17-H ) :  -0.1529
B( 18-H , 19-H ) :  -0.1768

MP2 TOTAL ENERGY:     -311.039323225 Eh
FINAL SINGLE POINT ENERGY      -311.039323224888

DIPOLE MOMENT
-------------
                                X             Y             Z
Electronic contribution:     -0.49659       1.33453      -0.00000
Nuclear contribution   :      0.59163      -1.47902       0.00000
                        -----------------------------------------
Total Dipole Moment    :      0.09505      -0.14450      -0.00000
                        -----------------------------------------
Magnitude (a.u.)       :      0.17295
Magnitude (Debye)      :      0.43961

Rotational constants in cm-1:     0.119877     0.070995     0.062750
Rotational constants in MHz :  3593.813470  2128.384386  1881.182869

                             ****ORCA TERMINATED NORMALLY****
TOTAL RUN TIME: 0 days 0 hours 1 minutes 20 seconds 442 msec
