                         Program Version 5.0.3 -  RELEASE  -
|  1> !ri-mp2 aug-cc-pvdz aug-cc-pvdz/c tightscf
|  2> %pal nprocs 16 end
|  3>
|  4> * xyz 0 1
|  5> C     -1.136499   -0.015675   -0.013358
|  6> C     -0.351177    1.282015   -0.109345
|  7> C      1.121374    1.196395    0.288033
|  8> C      1.730375   -0.061094   -0.320692
|  9> C      0.967631   -1.274376    0.171548
| 10> O     -2.337675   -0.038845    0.011767
| 11> O     -0.460963   -1.190435   -0.035842
| 12> H     -0.435798    1.586810   -1.156969
| 13> H     -0.898296    2.025035    0.467869
| 14> H      1.649445    2.092882   -0.038416
| 15> H      1.214168    1.154900    1.376777
| 16> H      1.688686   -0.010986   -1.412045
| 17> H      2.779640   -0.174267   -0.041841
| 18> H      1.269887   -2.184408   -0.342725
| 19> H      1.131141   -1.419315    1.242831
| 20> *
| 21>
| 22>                          ****END OF INPUT****

CARTESIAN COORDINATES (ANGSTROEM)
---------------------------------
  C     -1.136499   -0.015675   -0.013358
  C     -0.351177    1.282015   -0.109345
  C      1.121374    1.196395    0.288033
  C      1.730375   -0.061094   -0.320692
  C      0.967631   -1.274376    0.171548
  O     -2.337675   -0.038845    0.011767
  O     -0.460963   -1.190435   -0.035842
  H     -0.435798    1.586810   -1.156969
  H     -0.898296    2.025035    0.467869
  H      1.649445    2.092882   -0.038416
  H      1.214168    1.154900    1.376777
  H      1.688686   -0.010986   -1.412045
  H      2.779640   -0.174267   -0.041841
  H      1.269887   -2.184408   -0.342725
  H      1.131141   -1.419315    1.242831

 Total Charge           Charge          ....    0
 Multiplicity           Mult            ....    1
 Number of Electrons    NEL             ....   54
 Basis Dimension        Dim             ....  233

ORBITAL ENERGIES
----------------

  NO   OCC          E(Eh)            E(eV)
   0   2.0000     -20.605069      -560.6924
   1   2.0000     -20.542109      -558.9792
   2   2.0000     -11.384471      -309.7872
   3   2.0000     -11.308341      -307.7156
   4   2.0000     -11.256608      -306.3079
   5   2.0000     -11.253827      -306.2322
   6   2.0000     -11.252680      -306.2010
   7   2.0000      -1.452504       -39.5247
   8   2.0000      -1.357728       -36.9457
   9   2.0000      -1.111608       -30.2484
  10   2.0000      -1.034170       -28.1412
  11   2.0000      -0.917335       -24.9620
  12   2.0000      -0.860995       -23.4289
  13   2.0000      -0.753513       -20.5041
  14   2.0000      -0.697194       -18.9716
  15   2.0000      -0.669528       -18.2188
  16   2.0000      -0.666467       -18.1355
  17   2.0000      -0.632213       -17.2034
  18   2.0000      -0.615729       -16.7548
  19   2.0000      -0.598206       -16.2780
  20   2.0000      -0.568612       -15.4727
  21   2.0000      -0.519202       -14.1282
  22   2.0000      -0.507525       -13.8105
  23   2.0000      -0.503431       -13.6991
  24   2.0000      -0.486354       -13.2344
  25   2.0000      -0.443369       -12.0647
  26   2.0000      -0.427654       -11.6370
  27   0.0000       0.027616         0.7515
  28   0.0000       0.039207         1.0669
  29   0.0000       0.040493         1.1019
  30   0.0000       0.048288         1.3140
  31   0.0000       0.062224         1.6932

MULLIKEN ATOMIC CHARGES
-----------------------
   0 C :    0.899512
   1 C :    0.098960
   2 C :    0.345199
   3 C :    0.197198
   4 C :    0.980433
   5 O :   -0.787447
   6 O :   -0.911669
   7 H :    0.033888
   8 H :   -0.056077
   9 H :   -0.076580
  10 H :   -0.133765
  11 H :   -0.159167
  12 H :   -0.046480
  13 H :   -0.213881
  14 H :   -0.170124
Sum of atomic charges:   -0.0000000

LOEWDIN ATOMIC CHARGES
----------------------
   0 C :   -0.309661
   1 C :    0.044048
   2 C :   -0.020465
   3 C :   -0.025978
   4 C :    0.024852
   5 O :    0.043503
   6 O :    0.072657
   7 H :    0.031251
   8 H :    0.025480
   9 H :    0.019277
  10 H :    0.020493
  11 H :    0.024393
  12 H :    0.024221
  13 H :    0.011286
  14 H :    0.014641

  Mayer bond orders larger than 0.100000
B(  0-C ,  1-C ) :   1.0022 B(  0-C ,  5-O ) :   1.4848 B(  0-C ,  6-O ) :   0.6268
B(  1-C ,  2-C ) :   1.3180 B(  1-C ,  6-O ) :   0.1184 B(  1-C ,  7-H ) :   0.8401
B(  1-C ,  8-H ) :   0.8051 B(  2-C ,  3-C ) :   1.2266 B(  2-C ,  9-H ) :   0.7976
B(  2-C , 10-H ) :   0.8019 B(  3-C ,  4-C ) :   1.2544 B(  3-C , 11-H ) :   0.8094
B(  3-C , 12-H ) :   0.8340 B(  4-C ,  6-O ) :   0.4965 B(  4-C , 13-H ) :   0.9251
B(  4-C , 14-H ) :   0.8371 B(  9-H , 10-H ) :  -0.1233 B( 11-H , 12-H ) :  -0.1159
B( 13-H , 14-H ) :  -0.1300

MP2 TOTAL ENERGY:     -344.876308056 Eh
FINAL SINGLE POINT ENERGY      -344.876308055882

DIPOLE MOMENT
-------------
                                X             Y             Z
Electronic contribution:     -6.39235      -2.53801      -0.06315
Nuclear contribution   :      8.46315       3.09086       0.09634
                        -----------------------------------------
Total Dipole Moment    :      2.07081       0.55285       0.03319
                        -----------------------------------------
Magnitude (a.u.)       :      2.14359
Magnitude (Debye)      :      5.44857

Rotational constants in cm-1:     0.155714     0.085037     0.058808
Rotational constants in MHz :  4668.195150  2549.354549  1763.015210

                             ****ORCA TERMINATED NORMALLY****
TOTAL RUN TIME: 0 days 0 hours 1 minutes 1 seconds 700 msec
