                         Program Version 5.0.3 -  RELEASE  -
|  1> !ri-mp2 aug-cc-pvdz aug-cc-pvdz/c tightscf
|  2> %pal nprocs 16 end
|  3>
|  4> * xyz 0 1
|  5> C      0.000000    0.000000   -0.316883
|  6> S      0.000000    0.000000    1.353097
|  7> N      0.000000    1.146987   -1.046835
|  8> N      0.000000   -1.146987   -1.046835
|  9> H      0.128543    2.000926   -0.533905
| 10> H      0.285536    1.143343   -2.012373
| 11> H     -0.128543   -2.000926   -0.533905
| 12> H     -0.285536   -1.143343   -2.012373
| 13> *
| 14>
| 15>                          ****END OF INPUT****

CARTESIAN COORDINATES (ANGSTROEM)
---------------------------------
  C      0.000000    0.000000   -0.316883
  S      0.000000    0.000000    1.353097
  N      0.000000    1.146987   -1.046835
  N      0.000000   -1.146987   -1.046835
  H      0.128543    2.000926   -0.533905
  H      0.285536    1.143343   -2.012373
  H     -0.128543   -2.000926   -0.533905
  H     -0.285536   -1.143343   -2.012373

 Total Charge           Charge          ....    0
 Multiplicity           Mult            ....    1
 Number of Electrons    NEL             ....   40
 Basis Dimension        Dim             ....  132

ORBITAL ENERGIES
----------------

  NO   OCC          E(Eh)            E(eV)
   0   2.0000     -91.892823     -2500.5308
   1   2.0000     -15.614099      -424.8812
   2   2.0000     -15.614071      -424.8805
   3   2.0000     -11.390427      -309.9493
   4   2.0000      -8.896473      -242.0853
   5   2.0000      -6.579027      -179.0244
   6   2.0000      -6.575851      -178.9380
   7   2.0000      -6.575120      -178.9181
   8   2.0000      -1.313819       -35.7508
   9   2.0000      -1.201198       -32.6863
  10   2.0000      -0.981670       -26.7126
  11   2.0000      -0.830507       -22.5992
  12   2.0000      -0.749797       -20.4030
  13   2.0000      -0.732127       -19.9222
  14   2.0000      -0.660981       -17.9862
  15   2.0000      -0.581821       -15.8322
  16   2.0000      -0.513044       -13.9606
  17   2.0000      -0.442444       -12.0395
  18   2.0000      -0.328215        -8.9312
  19   2.0000      -0.323599        -8.8056
  20   0.0000       0.020804         0.5661
  21   0.0000       0.038483         1.0472
  22   0.0000       0.056181         1.5288
  23   0.0000       0.069426         1.8892
  24   0.0000       0.099637         2.7112

MULLIKEN ATOMIC CHARGES
-----------------------
   0 C :    0.579635
   1 S :    0.013198
   2 N :   -0.270089
   3 N :   -0.270089
   4 H :    0.038482
   5 H :   -0.064810
   6 H :    0.038482
   7 H :   -0.064810
Sum of atomic charges:    0.0000000

LOEWDIN ATOMIC CHARGES
----------------------
   0 C :   -0.785749
   1 S :    0.455307
   2 N :    0.207349
   3 N :    0.207349
   4 H :   -0.022604
   5 H :   -0.019524
   6 H :   -0.022604
   7 H :   -0.019524

  Mayer bond orders larger than 0.100000
B(  0-C ,  1-S ) :   1.6999 B(  0-C ,  2-N ) :   0.8922 B(  0-C ,  3-N ) :   0.8922
B(  0-C ,  5-H ) :  -0.1096 B(  0-C ,  7-H ) :  -0.1096 B(  2-N ,  4-H ) :   1.0787
B(  2-N ,  5-H ) :   1.1747 B(  3-N ,  6-H ) :   1.0787 B(  3-N ,  7-H ) :   1.1747

MP2 TOTAL ENERGY:     -547.302849407 Eh
FINAL SINGLE POINT ENERGY      -547.302849407421

DIPOLE MOMENT
-------------
                                X             Y             Z
Electronic contribution:     -0.00000       0.00000       2.89045
Nuclear contribution   :      0.00000       0.00000      -5.07938
                        -----------------------------------------
Total Dipole Moment    :     -0.00000       0.00000      -2.18894
                        -----------------------------------------
Magnitude (a.u.)       :      2.18894
Magnitude (Debye)      :      5.56384

Rotational constants in cm-1:     0.352972     0.169993     0.114999
Rotational constants in MHz : 10581.832770  5096.254093  3447.592685

                             ****ORCA TERMINATED NORMALLY****
TOTAL RUN TIME: 0 days 0 hours 0 minutes 49 seconds 849 msec
