                         Program Version 5.0.3 -  RELEASE  -
|  1> !ri-mp2 aug-cc-pvdz aug-cc-pvdz/c tightscf
|  2> %pal nprocs 16 end
|  3>
|  4> * xyz 0 1
|  5> S    -1.101935    0.129883    0.766287
|  6> S     1.586860   -1.013699    0.024402
|  7> N    -3.556241    0.444182   -0.651748
|  8> C    -0.110750   -0.717112   -0.552454
|  9> C    -2.556688    0.312656   -0.085241
| 10> C     2.264315    0.527879   -0.112470
| 11> C     2.817305    1.593553   -0.189220
| 12> H    -0.109558   -0.111181   -1.451631
| 13> H    -0.538550   -1.696769   -0.745449
| 14> H     3.297908    2.537882   -0.255392
| 15> *
| 16>
| 17>                          ****END OF INPUT****

CARTESIAN COORDINATES (ANGSTROEM)
---------------------------------
  S     -1.101935    0.129883    0.766287
  S      1.586860   -1.013699    0.024402
  N     -3.556241    0.444182   -0.651748
  C     -0.110750   -0.717112   -0.552454
  C     -2.556688    0.312656   -0.085241
  C      2.264315    0.527879   -0.112470
  C      2.817305    1.593553   -0.189220
  H     -0.109558   -0.111181   -1.451631
  H     -0.538550   -1.696769   -0.745449
  H      3.297908    2.537882   -0.255392

 Total Charge           Charge          ....    0
 Multiplicity           Mult            ....    1
 Number of Electrons    NEL             ....   66
 Basis Dimension        Dim             ....  196

ORBITAL ENERGIES
----------------

  NO   OCC          E(Eh)            E(eV)
   0   2.0000     -92.031361     -2504.3007
   1   2.0000     -92.026525     -2504.1691
   2   2.0000     -15.601381      -424.5352
   3   2.0000     -11.347854      -308.7908
   4   2.0000     -11.313018      -307.8429
   5   2.0000     -11.286166      -307.1122
   6   2.0000     -11.269707      -306.6643
   7   2.0000      -9.031783      -245.7673
   8   2.0000      -9.026650      -245.6276
   9   2.0000      -6.713929      -182.6953
  10   2.0000      -6.711889      -182.6398
  11   2.0000      -6.709724      -182.5809
  12   2.0000      -6.708916      -182.5589
  13   2.0000      -6.707119      -182.5100
  14   2.0000      -6.705076      -182.4544
  15   2.0000      -1.242379       -33.8068
  16   2.0000      -1.147484       -31.2246
  17   2.0000      -1.080249       -29.3951
  18   2.0000      -1.015008       -27.6198
  19   2.0000      -0.909437       -24.7470
  20   2.0000      -0.747118       -20.3301
  21   2.0000      -0.700281       -19.0556
  22   2.0000      -0.682449       -18.5704
  23   2.0000      -0.625916       -17.0320
  24   2.0000      -0.580770       -15.8036
  25   2.0000      -0.552322       -15.0294
  26   2.0000      -0.534906       -14.5555
  27   2.0000      -0.526168       -14.3178
  28   2.0000      -0.495677       -13.4881
  29   2.0000      -0.464800       -12.6478
  30   2.0000      -0.419573       -11.4172
  31   2.0000      -0.394128       -10.7248
  32   2.0000      -0.364599        -9.9213
  33   0.0000       0.030652         0.8341
  34   0.0000       0.037258         1.0139
  35   0.0000       0.054608         1.4860
  36   0.0000       0.064452         1.7538
  37   0.0000       0.070802         1.9266

MULLIKEN ATOMIC CHARGES
-----------------------
   0 S :    0.714545
   1 S :    0.494168
   2 N :   -0.309290
   3 C :   -0.273280
   4 C :   -0.298007
   5 C :   -0.341161
   6 C :    0.554934
   7 H :   -0.059773
   8 H :   -0.082322
   9 H :   -0.399814
Sum of atomic charges:   -0.0000000

LOEWDIN ATOMIC CHARGES
----------------------
   0 S :    0.842747
   1 S :    0.842454
   2 N :   -0.011332
   3 C :   -0.505431
   4 C :   -0.551640
   5 C :   -0.501305
   6 C :    0.127350
   7 H :   -0.065183
   8 H :   -0.071122
   9 H :   -0.106536

  Mayer bond orders larger than 0.100000
B(  0-S ,  3-C ) :   1.0502 B(  0-S ,  4-C ) :   0.8820 B(  1-S ,  3-C ) :   1.0572
B(  1-S ,  5-C ) :   1.0424 B(  1-S ,  6-C ) :  -0.1178 B(  1-S ,  8-H ) :  -0.1115
B(  1-S ,  9-H ) :   0.1061 B(  2-N ,  4-C ) :   2.4808 B(  3-C ,  7-H ) :   1.0706
B(  3-C ,  8-H ) :   1.0136 B(  5-C ,  6-C ) :   2.7904 B(  5-C ,  9-H ) :   0.2879
B(  6-C ,  9-H ) :   0.2581

MP2 TOTAL ENERGY:    -1003.623312670 Eh
FINAL SINGLE POINT ENERGY     -1003.623312669936

DIPOLE MOMENT
-------------
                                X             Y             Z
Electronic contribution:     -1.18955      -0.87809       2.34863
Nuclear contribution   :      2.50790       0.72898      -2.38004
                        -----------------------------------------
Total Dipole Moment    :      1.31835      -0.14911      -0.03141
                        -----------------------------------------
Magnitude (a.u.)       :      1.32713
Magnitude (Debye)      :      3.37330

Rotational constants in cm-1:     0.142267     0.029287     0.026739
Rotational constants in MHz :  4265.062307   877.995107   801.610567

                             ****ORCA TERMINATED NORMALLY****
TOTAL RUN TIME: 0 days 0 hours 0 minutes 55 seconds 238 msec
