                         Program Version 5.0.3 -  RELEASE  -
|  1> !ri-mp2 aug-cc-pvdz aug-cc-pvdz/c tightscf
|  2> %pal nprocs 16 end
|  3>
|  4> * xyz 0 1
|  5> C     -1.034580   -0.395303    0.000000
|  6> C      0.000000    0.438157    0.000000
|  7> H     -2.045695   -0.022811    0.000000
|  8> Cl    -0.896263   -2.113950    0.000000
|  9> Cl    -0.268366    2.154033    0.000000
| 10> Cl     1.650109   -0.053866    0.000000
| 11> *
| 12>
| 13>                          ****END OF INPUT****

CARTESIAN COORDINATES (ANGSTROEM)
---------------------------------
  C     -1.034580   -0.395303    0.000000
  C      0.000000    0.438157    0.000000
  H     -2.045695   -0.022811    0.000000
  Cl    -0.896263   -2.113950    0.000000
  Cl    -0.268366    2.154033    0.000000
  Cl     1.650109   -0.053866    0.000000

 Total Charge           Charge          ....    0
 Multiplicity           Mult            ....    1
 Number of Electrons    NEL             ....   64
 Basis Dimension        Dim             ....  136

ORBITAL ENERGIES
----------------

  NO   OCC          E(Eh)            E(eV)
   0   2.0000    -104.872940     -2853.7378
   1   2.0000    -104.872137     -2853.7159
   2   2.0000    -104.864781     -2853.5157
   3   2.0000     -11.386003      -309.8289
   4   2.0000     -11.335828      -308.4636
   5   2.0000     -10.598850      -288.4094
   6   2.0000     -10.598299      -288.3944
   7   2.0000     -10.590765      -288.1894
   8   2.0000      -8.066717      -219.5065
   9   2.0000      -8.066193      -219.4923
  10   2.0000      -8.063049      -219.4067
  11   2.0000      -8.062891      -219.4024
  12   2.0000      -8.062409      -219.3893
  13   2.0000      -8.062365      -219.3881
  14   2.0000      -8.058651      -219.2870
  15   2.0000      -8.055002      -219.1878
  16   2.0000      -8.055000      -219.1877
  17   2.0000      -1.242075       -33.7986
  18   2.0000      -1.164004       -31.6742
  19   2.0000      -1.126198       -30.6454
  20   2.0000      -1.000405       -27.2224
  21   2.0000      -0.779105       -21.2005
  22   2.0000      -0.683979       -18.6120
  23   2.0000      -0.649943       -17.6859
  24   2.0000      -0.590150       -16.0588
  25   2.0000      -0.567384       -15.4393
  26   2.0000      -0.510716       -13.8973
  27   2.0000      -0.503554       -13.7024
  28   2.0000      -0.488157       -13.2834
  29   2.0000      -0.482030       -13.1167
  30   2.0000      -0.463350       -12.6084
  31   2.0000      -0.371424       -10.1070
  32   0.0000       0.039008         1.0615
  33   0.0000       0.071138         1.9358
  34   0.0000       0.072037         1.9602
  35   0.0000       0.089595         2.4380
  36   0.0000       0.093423         2.5422

MULLIKEN ATOMIC CHARGES
-----------------------
   0 C :    0.504407
   1 C :    0.129512
   2 H :   -0.155460
   3 Cl:   -0.159950
   4 Cl:   -0.201130
   5 Cl:   -0.117379
Sum of atomic charges:    0.0000000

LOEWDIN ATOMIC CHARGES
----------------------
   0 C :   -0.505623
   1 C :   -1.061274
   2 H :   -0.060257
   3 Cl:    0.539800
   4 Cl:    0.537527
   5 Cl:    0.549828

  Mayer bond orders larger than 0.100000
B(  0-C ,  1-C ) :   1.3127 B(  0-C ,  2-H ) :   0.8717 B(  0-C ,  3-Cl) :   1.1462
B(  0-C ,  4-Cl) :  -0.2711 B(  0-C ,  5-Cl) :  -0.1506 B(  1-C ,  3-Cl) :  -0.2640
B(  1-C ,  4-Cl) :   1.1607 B(  1-C ,  5-Cl) :   0.9804

MP2 TOTAL ENERGY:    -1455.513510248 Eh
FINAL SINGLE POINT ENERGY     -1455.513510248206

DIPOLE MOMENT
-------------
                                X             Y             Z
Electronic contribution:      2.10954       0.11750      -0.00000
Nuclear contribution   :     -2.50682      -0.00283       0.00000
                        -----------------------------------------
Total Dipole Moment    :     -0.39728       0.11467      -0.00000
                        -----------------------------------------
Magnitude (a.u.)       :      0.41350
Magnitude (Debye)      :      1.05103

Rotational constants in cm-1:     0.127218     0.049685     0.035731
Rotational constants in MHz :  3813.890880  1489.527508  1071.176166

                             ****ORCA TERMINATED NORMALLY****
TOTAL RUN TIME: 0 days 0 hours 0 minutes 38 seconds 746 msec
