                         Program Version 5.0.3 -  RELEASE  -
|  1> !ri-mp2 aug-cc-pvdz aug-cc-pvdz/c tightscf
|  2> %pal nprocs 16 end
|  3>
|  4> * xyz 0 1
|  5> C      0.000000    0.619383    0.000000
|  6> C     -1.485214    0.718099    0.000000
|  7> S      0.874031   -0.744703    0.000000
|  8> H      0.520354    1.577729    0.000000
|  9> H     -1.957612   -0.260850    0.000000
| 10> H     -1.817979    1.286739    0.874315
| 11> H     -1.817979    1.286739   -0.874315
| 12> *
| 13>
| 14>                          ****END OF INPUT****

CARTESIAN COORDINATES (ANGSTROEM)
---------------------------------
  C      0.000000    0.619383    0.000000
  C     -1.485214    0.718099    0.000000
  S      0.874031   -0.744703    0.000000
  H      0.520354    1.577729    0.000000
  H     -1.957612   -0.260850    0.000000
  H     -1.817979    1.286739    0.874315
  H     -1.817979    1.286739   -0.874315

 Total Charge           Charge          ....    0
 Multiplicity           Mult            ....    1
 Number of Electrons    NEL             ....   32
 Basis Dimension        Dim             ....  109

ORBITAL ENERGIES
----------------

  NO   OCC          E(Eh)            E(eV)
   0   2.0000     -91.942831     -2501.8916
   1   2.0000     -11.329141      -308.2816
   2   2.0000     -11.255170      -306.2687
   3   2.0000      -8.945815      -243.4280
   4   2.0000      -6.627500      -180.3434
   5   2.0000      -6.626178      -180.3075
   6   2.0000      -6.623743      -180.2412
   7   2.0000      -1.099677       -29.9237
   8   2.0000      -0.962499       -26.1909
   9   2.0000      -0.774053       -21.0630
  10   2.0000      -0.631058       -17.1720
  11   2.0000      -0.593861       -16.1598
  12   2.0000      -0.570546       -15.5253
  13   2.0000      -0.511165       -13.9095
  14   2.0000      -0.396856       -10.7990
  15   2.0000      -0.341817        -9.3013
  16   0.0000       0.031859         0.8669
  17   0.0000       0.048537         1.3207
  18   0.0000       0.050325         1.3694
  19   0.0000       0.057041         1.5522
  20   0.0000       0.062820         1.7094

MULLIKEN ATOMIC CHARGES
-----------------------
   0 C :   -0.032088
   1 C :    0.235367
   2 S :    0.051015
   3 H :   -0.259682
   4 H :   -0.041314
   5 H :    0.023350
   6 H :    0.023350
Sum of atomic charges:    0.0000000

LOEWDIN ATOMIC CHARGES
----------------------
   0 C :   -0.541605
   1 C :    0.064637
   2 S :    0.583102
   3 H :   -0.056926
   4 H :   -0.024514
   5 H :   -0.012348
   6 H :   -0.012348

  Mayer bond orders larger than 0.100000
B(  0-C ,  1-C ) :   1.2217 B(  0-C ,  2-S ) :   1.7976 B(  0-C ,  3-H ) :   1.0076
B(  1-C ,  4-H ) :   0.9819 B(  1-C ,  5-H ) :   0.9097 B(  1-C ,  6-H ) :   0.9097
B(  2-S ,  3-H ) :  -0.1003

MP2 TOTAL ENERGY:     -476.010299232 Eh
FINAL SINGLE POINT ENERGY      -476.010299231961

DIPOLE MOMENT
-------------
                                X             Y             Z
Electronic contribution:      4.33691      -3.01615      -0.00000
Nuclear contribution   :     -5.09886       3.91232       0.00000
                        -----------------------------------------
Total Dipole Moment    :     -0.76195       0.89616      -0.00000
                        -----------------------------------------
Magnitude (a.u.)       :      1.17630
Magnitude (Debye)      :      2.98991

Rotational constants in cm-1:     1.653206     0.190507     0.176330
Rotational constants in MHz : 49561.876320  5711.259594  5286.228064

                             ****ORCA TERMINATED NORMALLY****
TOTAL RUN TIME: 0 days 0 hours 0 minutes 44 seconds 950 msec
