                         Program Version 5.0.3 -  RELEASE  -
|  1> !ri-mp2 aug-cc-pvdz aug-cc-pvdz/c tightscf
|  2> %pal nprocs 16 end
|  3>
|  4> * xyz 0 1
|  5> C      1.387883   -0.811682    0.479852
|  6> C      1.678206    0.633319    0.061765
|  7> C      0.258572   -1.279223   -0.428050
|  8> C      0.330814    1.347067   -0.089120
|  9> O     -1.798582   -0.049523    0.835116
| 10> S     -1.000813    0.079000   -0.439396
| 11> H      2.269472   -1.447422    0.387147
| 12> H      1.059693   -0.849628    1.519688
| 13> H      2.312291    1.147645    0.784708
| 14> H      2.210285    0.636734   -0.891921
| 15> H      0.589747   -1.411400   -1.460234
| 16> H     -0.266524   -2.172907   -0.098828
| 17> H     -0.021163    1.794675    0.838932
| 18> H      0.315012    2.097602   -0.876757
| 19> *
| 20>
| 21>                          ****END OF INPUT****

CARTESIAN COORDINATES (ANGSTROEM)
---------------------------------
  C      1.387883   -0.811682    0.479852
  C      1.678206    0.633319    0.061765
  C      0.258572   -1.279223   -0.428050
  C      0.330814    1.347067   -0.089120
  O     -1.798582   -0.049523    0.835116
  S     -1.000813    0.079000   -0.439396
  H      2.269472   -1.447422    0.387147
  H      1.059693   -0.849628    1.519688
  H      2.312291    1.147645    0.784708
  H      2.210285    0.636734   -0.891921
  H      0.589747   -1.411400   -1.460234
  H     -0.266524   -2.172907   -0.098828
  H     -0.021163    1.794675    0.838932
  H      0.315012    2.097602   -0.876757

 Total Charge           Charge          ....    0
 Multiplicity           Mult            ....    1
 Number of Electrons    NEL             ....   56
 Basis Dimension        Dim             ....  214

ORBITAL ENERGIES
----------------

  NO   OCC          E(Eh)            E(eV)
   0   2.0000     -92.067249     -2505.2772
   1   2.0000     -20.507178      -558.0287
   2   2.0000     -11.270528      -306.6866
   3   2.0000     -11.269563      -306.6604
   4   2.0000     -11.254589      -306.2529
   5   2.0000     -11.250745      -306.1483
   6   2.0000      -9.056114      -246.4294
   7   2.0000      -6.738295      -183.3583
   8   2.0000      -6.737375      -183.3333
   9   2.0000      -6.735669      -183.2869
  10   2.0000      -1.326693       -36.1012
  11   2.0000      -1.131830       -30.7987
  12   2.0000      -1.003703       -27.3122
  13   2.0000      -0.969655       -26.3857
  14   2.0000      -0.815088       -22.1797
  15   2.0000      -0.795459       -21.6455
  16   2.0000      -0.674025       -18.3412
  17   2.0000      -0.662185       -18.0190
  18   2.0000      -0.620791       -16.8926
  19   2.0000      -0.578598       -15.7445
  20   2.0000      -0.550484       -14.9794
  21   2.0000      -0.541744       -14.7416
  22   2.0000      -0.521050       -14.1785
  23   2.0000      -0.509156       -13.8548
  24   2.0000      -0.501000       -13.6329
  25   2.0000      -0.491780       -13.3820
  26   2.0000      -0.397305       -10.8112
  27   2.0000      -0.358715        -9.7611
  28   0.0000       0.029104         0.7920
  29   0.0000       0.041470         1.1284
  30   0.0000       0.041900         1.1402
  31   0.0000       0.052206         1.4206
  32   0.0000       0.062736         1.7071

MULLIKEN ATOMIC CHARGES
-----------------------
   0 C :    0.290760
   1 C :    0.262699
   2 C :   -0.015596
   3 C :    0.006211
   4 O :   -1.182347
   5 S :    1.352819
   6 H :   -0.073558
   7 H :   -0.160076
   8 H :   -0.113592
   9 H :   -0.175880
  10 H :   -0.047480
  11 H :   -0.059009
  12 H :   -0.051741
  13 H :   -0.033210
Sum of atomic charges:   -0.0000000

LOEWDIN ATOMIC CHARGES
----------------------
   0 C :   -0.073878
   1 C :   -0.068660
   2 C :   -0.155176
   3 C :   -0.125820
   4 O :   -0.577905
   5 S :    1.024999
   6 H :    0.015102
   7 H :    0.018451
   8 H :    0.014565
   9 H :    0.010716
  10 H :   -0.018585
  11 H :   -0.015462
  12 H :   -0.018654
  13 H :   -0.029691

  Mayer bond orders larger than 0.100000
B(  0-C ,  1-C ) :   1.1869 B(  0-C ,  2-C ) :   1.1985 B(  0-C ,  6-H ) :   0.8201
B(  0-C ,  7-H ) :   0.8236 B(  1-C ,  3-C ) :   1.2744 B(  1-C ,  8-H ) :   0.8294
B(  1-C ,  9-H ) :   0.7849 B(  2-C ,  5-S ) :   1.0447 B(  2-C , 10-H ) :   0.8872
B(  2-C , 11-H ) :   0.8995 B(  3-C ,  5-S ) :   0.9313 B(  3-C , 12-H ) :   0.8710
B(  3-C , 13-H ) :   0.8975 B(  4-O ,  5-S ) :   0.8289 B(  5-S , 10-H ) :  -0.1038
B(  6-H ,  7-H ) :  -0.1103 B(  8-H ,  9-H ) :  -0.1253 B( 10-H , 11-H ) :  -0.1045

MP2 TOTAL ENERGY:     -629.433195577 Eh
FINAL SINGLE POINT ENERGY      -629.433195577057

DIPOLE MOMENT
-------------
                                X             Y             Z
Electronic contribution:     -6.78044       0.26255      -1.08438
Nuclear contribution   :      8.55308      -0.20993       0.23167
                        -----------------------------------------
Total Dipole Moment    :      1.77264       0.05262      -0.85271
                        -----------------------------------------
Magnitude (a.u.)       :      1.96777
Magnitude (Debye)      :      5.00168

Rotational constants in cm-1:     0.162981     0.088994     0.072386
Rotational constants in MHz :  4886.056560  2667.976522  2170.062834

                             ****ORCA TERMINATED NORMALLY****
TOTAL RUN TIME: 0 days 0 hours 0 minutes 48 seconds 131 msec
