                         Program Version 5.0.3 -  RELEASE  -
|  1> !ri-mp2 aug-cc-pvdz aug-cc-pvdz/c tightscf
|  2> %pal nprocs 16 end
|  3>
|  4> * xyz 0 1
|  5> C      0.542207   -0.688625    0.000000
|  6> C      0.081178    0.798349    0.000000
|  7> O      0.821365    1.714338    0.000000
|  8> F      1.870099   -0.749751    0.000000
|  9> F      0.081178   -1.316809    1.087399
| 10> F      0.081178   -1.316809   -1.087399
| 11> Cl    -1.682548    0.945722    0.000000
| 12> *
| 13>
| 14>                          ****END OF INPUT****

CARTESIAN COORDINATES (ANGSTROEM)
---------------------------------
  C      0.542207   -0.688625    0.000000
  C      0.081178    0.798349    0.000000
  O      0.821365    1.714338    0.000000
  F      1.870099   -0.749751    0.000000
  F      0.081178   -1.316809    1.087399
  F      0.081178   -1.316809   -1.087399
  Cl    -1.682548    0.945722    0.000000

 Total Charge           Charge          ....    0
 Multiplicity           Mult            ....    1
 Number of Electrons    NEL             ....   64
 Basis Dimension        Dim             ....  165

ORBITAL ENERGIES
----------------

  NO   OCC          E(Eh)            E(eV)
   0   2.0000    -104.888002     -2854.1476
   1   2.0000     -26.391213      -718.1414
   2   2.0000     -26.391194      -718.1409
   3   2.0000     -26.388454      -718.0663
   4   2.0000     -20.654158      -562.0282
   5   2.0000     -11.569780      -314.8297
   6   2.0000     -11.463390      -311.9347
   7   2.0000     -10.614478      -288.8346
   8   2.0000      -8.082089      -219.9248
   9   2.0000      -8.078617      -219.8304
  10   2.0000      -8.078451      -219.8258
  11   2.0000      -1.775854       -48.3234
  12   2.0000      -1.680134       -45.7188
  13   2.0000      -1.679467       -45.7006
  14   2.0000      -1.502699       -40.8905
  15   2.0000      -1.180256       -32.1164
  16   2.0000      -1.048885       -28.5416
  17   2.0000      -0.916600       -24.9420
  18   2.0000      -0.865229       -23.5441
  19   2.0000      -0.864254       -23.5175
  20   2.0000      -0.788862       -21.4660
  21   2.0000      -0.748972       -20.3806
  22   2.0000      -0.747288       -20.3348
  23   2.0000      -0.707906       -19.2631
  24   2.0000      -0.702729       -19.1222
  25   2.0000      -0.690779       -18.7971
  26   2.0000      -0.684770       -18.6335
  27   2.0000      -0.680582       -18.5196
  28   2.0000      -0.632051       -17.1990
  29   2.0000      -0.508649       -13.8410
  30   2.0000      -0.502023       -13.6607
  31   2.0000      -0.499919       -13.6035
  32   0.0000       0.063760         1.7350
  33   0.0000       0.069586         1.8935
  34   0.0000       0.075638         2.0582
  35   0.0000       0.084893         2.3101
  36   0.0000       0.096354         2.6219

MULLIKEN ATOMIC CHARGES
-----------------------
   0 C :    2.219606
   1 C :   -0.064438
   2 O :   -0.482395
   3 F :   -0.578097
   4 F :   -0.539907
   5 F :   -0.539907
   6 Cl:   -0.014862
Sum of atomic charges:   -0.0000000

LOEWDIN ATOMIC CHARGES
----------------------
   0 C :   -0.390728
   1 C :   -0.545010
   2 O :    0.074939
   3 F :    0.107023
   4 F :    0.088682
   5 F :    0.088682
   6 Cl:    0.576413

  Mayer bond orders larger than 0.100000
B(  0-C ,  1-C ) :   0.7890 B(  0-C ,  3-F ) :   0.3031 B(  0-C ,  4-F ) :   0.3997
B(  0-C ,  5-F ) :   0.3997 B(  1-C ,  2-O ) :   1.6768 B(  1-C ,  3-F ) :   0.2063
B(  1-C ,  6-Cl) :   1.1462

MP2 TOTAL ENERGY:     -909.679424454 Eh
FINAL SINGLE POINT ENERGY      -909.679424454454

DIPOLE MOMENT
-------------
                                X             Y             Z
Electronic contribution:     -0.71751      -1.98616       0.00000
Nuclear contribution   :      0.37462       1.82870       0.00000
                        -----------------------------------------
Total Dipole Moment    :     -0.34290      -0.15745       0.00000
                        -----------------------------------------
Magnitude (a.u.)       :      0.37732
Magnitude (Debye)      :      0.95907

Rotational constants in cm-1:     0.111370     0.058419     0.048155
Rotational constants in MHz :  3338.775221  1751.365828  1443.635876

                             ****ORCA TERMINATED NORMALLY****
TOTAL RUN TIME: 0 days 0 hours 0 minutes 56 seconds 957 msec
