                         Program Version 5.0.3 -  RELEASE  -
|  1> !ri-mp2 aug-cc-pvdz aug-cc-pvdz/c tightscf
|  2> %pal nprocs 16 end
|  3>
|  4> * xyz 0 1
|  5> N     -0.051147    1.703848    0.244380
|  6> C     -0.043314    0.431492   -0.483504
|  7> C     -1.376086   -0.303235   -0.228367
|  8> O     -1.530938   -1.479219   -0.435919
|  9> O     -2.351637    0.487074    0.227525
| 10> H     -1.928124    1.363089    0.369080
| 11> C      1.141533   -0.499575   -0.166921
| 12> O      1.167043   -0.778126    1.238261
| 13> C      2.485110    0.099679   -0.539476
| 14> H     -0.035888    0.649255   -1.555103
| 15> H      0.984216   -1.425674   -0.722324
| 16> H      0.509733   -1.457032    1.425652
| 17> H      3.279834   -0.613026   -0.325853
| 18> H      2.518013    0.345316   -1.601845
| 19> H      2.686599    1.005623    0.033605
| 20> H      0.347974    1.576034    1.168534
| 21> H      0.476463    2.421484   -0.231731
| 22> *
| 23>
| 24>                          ****END OF INPUT****

CARTESIAN COORDINATES (ANGSTROEM)
---------------------------------
  N     -0.051147    1.703848    0.244380
  C     -0.043314    0.431492   -0.483504
  C     -1.376086   -0.303235   -0.228367
  O     -1.530938   -1.479219   -0.435919
  O     -2.351637    0.487074    0.227525
  H     -1.928124    1.363089    0.369080
  C      1.141533   -0.499575   -0.166921
  O      1.167043   -0.778126    1.238261
  C      2.485110    0.099679   -0.539476
  H     -0.035888    0.649255   -1.555103
  H      0.984216   -1.425674   -0.722324
  H      0.509733   -1.457032    1.425652
  H      3.279834   -0.613026   -0.325853
  H      2.518013    0.345316   -1.601845
  H      2.686599    1.005623    0.033605
  H      0.347974    1.576034    1.168534
  H      0.476463    2.421484   -0.231731

 Total Charge           Charge          ....    0
 Multiplicity           Mult            ....    1
 Number of Electrons    NEL             ....   64
 Basis Dimension        Dim             ....  265

ORBITAL ENERGIES
----------------

  NO   OCC          E(Eh)            E(eV)
   0   2.0000     -20.610454      -560.8390
   1   2.0000     -20.582334      -560.0738
   2   2.0000     -20.554598      -559.3191
   3   2.0000     -15.590544      -424.2403
   4   2.0000     -11.390794      -309.9593
   5   2.0000     -11.305522      -307.6389
   6   2.0000     -11.299784      -307.4828
   7   2.0000     -11.238551      -305.8165
   8   2.0000      -1.462900       -39.8075
   9   2.0000      -1.380296       -37.5598
  10   2.0000      -1.366628       -37.1878
  11   2.0000      -1.223926       -33.3047
  12   2.0000      -1.051260       -28.6062
  13   2.0000      -0.971731       -26.4421
  14   2.0000      -0.844110       -22.9694
  15   2.0000      -0.806544       -21.9472
  16   2.0000      -0.746377       -20.3099
  17   2.0000      -0.723463       -19.6864
  18   2.0000      -0.702339       -19.1116
  19   2.0000      -0.673320       -18.3220
  20   2.0000      -0.634561       -17.2673
  21   2.0000      -0.625720       -17.0267
  22   2.0000      -0.602243       -16.3879
  23   2.0000      -0.590969       -16.0811
  24   2.0000      -0.560632       -15.2556
  25   2.0000      -0.546587       -14.8734
  26   2.0000      -0.539632       -14.6841
  27   2.0000      -0.499698       -13.5975
  28   2.0000      -0.486152       -13.2289
  29   2.0000      -0.473951       -12.8969
  30   2.0000      -0.459157       -12.4943
  31   2.0000      -0.417687       -11.3658
  32   0.0000       0.025890         0.7045
  33   0.0000       0.040562         1.1038
  34   0.0000       0.043609         1.1867
  35   0.0000       0.048816         1.3284
  36   0.0000       0.065974         1.7952

MULLIKEN ATOMIC CHARGES
-----------------------
   0 N :   -0.592334
   1 C :   -0.133283
   2 C :    1.357692
   3 O :   -0.769377
   4 O :   -0.705937
   5 H :    0.282373
   6 C :    0.724348
   7 O :   -0.809009
   8 C :    0.650716
   9 H :   -0.029892
  10 H :   -0.235932
  11 H :    0.150632
  12 H :   -0.015673
  13 H :   -0.000530
  14 H :   -0.039835
  15 H :    0.105502
  16 H :    0.060539
Sum of atomic charges:    0.0000000

LOEWDIN ATOMIC CHARGES
----------------------
   0 N :    0.227657
   1 C :   -0.140660
   2 C :   -0.313184
   3 O :    0.046434
   4 O :    0.218916
   5 H :   -0.087829
   6 C :   -0.229367
   7 O :    0.145847
   8 C :    0.171732
   9 H :    0.056151
  10 H :    0.035336
  11 H :   -0.049791
  12 H :   -0.006920
  13 H :   -0.007537
  14 H :   -0.013758
  15 H :   -0.023190
  16 H :   -0.029838

  Mayer bond orders larger than 0.100000
B(  0-N ,  1-C ) :   0.7460 B(  0-N , 15-H ) :   1.0417 B(  0-N , 16-H ) :   1.0242
B(  1-C ,  2-C ) :   1.0133 B(  1-C ,  4-O ) :   0.3142 B(  1-C ,  6-C ) :   1.1355
B(  1-C ,  7-O ) :   0.1464 B(  1-C ,  8-C ) :  -0.2020 B(  1-C ,  9-H ) :   0.8113
B(  1-C , 10-H ) :   0.1969 B(  2-C ,  3-O ) :   1.4778 B(  2-C ,  4-O ) :   0.3836
B(  4-O ,  5-H ) :   0.9427 B(  6-C ,  7-O ) :   0.2611 B(  6-C ,  8-C ) :   1.3779
B(  6-C , 10-H ) :   0.5665 B(  6-C , 12-H ) :   0.1811 B(  6-C , 14-H ) :   0.1457
B(  7-O , 11-H ) :   1.0464 B(  8-C , 12-H ) :   0.8352 B(  8-C , 13-H ) :   0.8431
B(  8-C , 14-H ) :   0.8614

MP2 TOTAL ENERGY:     -437.187935871 Eh
FINAL SINGLE POINT ENERGY      -437.187935870918

DIPOLE MOMENT
-------------
                                X             Y             Z
Electronic contribution:     -7.63111      -2.60893       1.08669
Nuclear contribution   :      8.87521       3.88194      -1.43517
                        -----------------------------------------
Total Dipole Moment    :      1.24410       1.27301      -0.34849
                        -----------------------------------------
Magnitude (a.u.)       :      1.81378
Magnitude (Debye)      :      4.61025

Rotational constants in cm-1:     0.107007     0.050266     0.041972
Rotational constants in MHz :  3207.986600  1506.946575  1258.297475

                             ****ORCA TERMINATED NORMALLY****
TOTAL RUN TIME: 0 days 0 hours 1 minutes 1 seconds 423 msec
