                         Program Version 5.0.3 -  RELEASE  -
|  1> !ri-mp2 aug-cc-pvdz aug-cc-pvdz/c tightscf
|  2> %pal nprocs 16 end
|  3>
|  4> * xyz 0 1
|  5> S      0.000000    0.000000    0.585088
|  6> C      0.000000    0.000000   -1.025466
|  7> H      0.000000    0.920769   -1.604308
|  8> H      0.000000   -0.920769   -1.604308
|  9> *
| 10>
| 11>                          ****END OF INPUT****

CARTESIAN COORDINATES (ANGSTROEM)
---------------------------------
  S      0.000000    0.000000    0.585088
  C      0.000000    0.000000   -1.025466
  H      0.000000    0.920769   -1.604308
  H      0.000000   -0.920769   -1.604308

 Total Charge           Charge          ....    0
 Multiplicity           Mult            ....    1
 Number of Electrons    NEL             ....   24
 Basis Dimension        Dim             ....   68

ORBITAL ENERGIES
----------------

  NO   OCC          E(Eh)            E(eV)
   0   2.0000     -91.959349     -2502.3411
   1   2.0000     -11.328553      -308.2656
   2   2.0000      -8.962042      -243.8696
   3   2.0000      -6.643584      -180.7811
   4   2.0000      -6.642529      -180.7524
   5   2.0000      -6.639757      -180.6770
   6   2.0000      -1.069415       -29.1003
   7   2.0000      -0.816055       -22.2060
   8   2.0000      -0.644243       -17.5308
   9   2.0000      -0.542496       -14.7621
  10   2.0000      -0.419524       -11.4158
  11   2.0000      -0.352104        -9.5812
  12   0.0000       0.035377         0.9626
  13   0.0000       0.035800         0.9742
  14   0.0000       0.051596         1.4040
  15   0.0000       0.073411         1.9976
  16   0.0000       0.114121         3.1054

MULLIKEN ATOMIC CHARGES
-----------------------
   0 S :    0.143223
   1 C :    0.053419
   2 H :   -0.098321
   3 H :   -0.098321
Sum of atomic charges:    0.0000000

LOEWDIN ATOMIC CHARGES
----------------------
   0 S :    0.539856
   1 C :   -0.340586
   2 H :   -0.099635
   3 H :   -0.099635

  Mayer bond orders larger than 0.100000
B(  0-S ,  1-C ) :   1.8472 B(  1-C ,  2-H ) :   1.0144 B(  1-C ,  3-H ) :   1.0144

MP2 TOTAL ENERGY:     -436.813211141 Eh
FINAL SINGLE POINT ENERGY      -436.813211141341

DIPOLE MOMENT
-------------
                                X             Y             Z
Electronic contribution:     -0.00000       0.00000       2.28306
Nuclear contribution   :      0.00000       0.00000      -3.15573
                        -----------------------------------------
Total Dipole Moment    :     -0.00000       0.00000      -0.87266
                        -----------------------------------------
Magnitude (a.u.)       :      0.87266
Magnitude (Debye)      :      2.21814

Rotational constants in cm-1:     9.862908     0.590022     0.556718
Rotational constants in MHz : 295682.551843 17688.405574 16689.973255

                             ****ORCA TERMINATED NORMALLY****
TOTAL RUN TIME: 0 days 0 hours 0 minutes 46 seconds 186 msec
