                         Program Version 5.0.3 -  RELEASE  -
|  1> !ri-mp2 aug-cc-pvdz aug-cc-pvdz/c tightscf
|  2> %pal nprocs 16 end
|  3>
|  4> * xyz 0 1
|  5> C      0.001401    0.023882    0.000000
|  6> O     -1.039480    0.879467    0.000000
|  7> F      1.127698    0.728595    0.000000
|  8> F      0.001401   -0.784388    1.081319
|  9> F      0.001401   -0.784388   -1.081319
| 10> H     -1.867070    0.382602    0.000000
| 11> *
| 12>
| 13>                          ****END OF INPUT****

CARTESIAN COORDINATES (ANGSTROEM)
---------------------------------
  C      0.001401    0.023882    0.000000
  O     -1.039480    0.879467    0.000000
  F      1.127698    0.728595    0.000000
  F      0.001401   -0.784388    1.081319
  F      0.001401   -0.784388   -1.081319
  H     -1.867070    0.382602    0.000000

 Total Charge           Charge          ....    0
 Multiplicity           Mult            ....    1
 Number of Electrons    NEL             ....   42
 Basis Dimension        Dim             ....  124

ORBITAL ENERGIES
----------------

  NO   OCC          E(Eh)            E(eV)
   0   2.0000     -26.368161      -717.5141
   1   2.0000     -26.364500      -717.4145
   2   2.0000     -26.364478      -717.4139
   3   2.0000     -20.650300      -561.9232
   4   2.0000     -11.583219      -315.1954
   5   2.0000      -1.757824       -47.8328
   6   2.0000      -1.659350       -45.1532
   7   2.0000      -1.651813       -44.9481
   8   2.0000      -1.464751       -39.8579
   9   2.0000      -0.984557       -26.7912
  10   2.0000      -0.873015       -23.7559
  11   2.0000      -0.850494       -23.1431
  12   2.0000      -0.841989       -22.9117
  13   2.0000      -0.737313       -20.0633
  14   2.0000      -0.727489       -19.7960
  15   2.0000      -0.698264       -19.0007
  16   2.0000      -0.675792       -18.3892
  17   2.0000      -0.675725       -18.3874
  18   2.0000      -0.662171       -18.0186
  19   2.0000      -0.627859       -17.0849
  20   2.0000      -0.575904       -15.6711
  21   0.0000       0.030198         0.8217
  22   0.0000       0.092326         2.5123
  23   0.0000       0.092982         2.5302
  24   0.0000       0.093523         2.5449
  25   0.0000       0.131268         3.5720

MULLIKEN ATOMIC CHARGES
-----------------------
   0 C :    2.147462
   1 O :   -0.597664
   2 F :   -0.544773
   3 F :   -0.581864
   4 F :   -0.581864
   5 H :    0.158703
Sum of atomic charges:   -0.0000000

LOEWDIN ATOMIC CHARGES
----------------------
   0 C :   -0.433650
   1 O :    0.201452
   2 F :    0.101602
   3 F :    0.071481
   4 F :    0.071481
   5 H :   -0.012367

  Mayer bond orders larger than 0.100000
B(  0-C ,  1-O ) :   0.7500 B(  0-C ,  2-F ) :   0.5271 B(  0-C ,  3-F ) :   0.4962
B(  0-C ,  4-F ) :   0.4962 B(  1-O ,  5-H ) :   1.0278

MP2 TOTAL ENERGY:     -412.644457652 Eh
FINAL SINGLE POINT ENERGY      -412.644457651950

DIPOLE MOMENT
-------------
                                X             Y             Z
Electronic contribution:      1.92253      -1.23298       0.00000
Nuclear contribution   :     -2.75114       1.12453       0.00000
                        -----------------------------------------
Total Dipole Moment    :     -0.82861      -0.10845       0.00000
                        -----------------------------------------
Magnitude (a.u.)       :      0.83568
Magnitude (Debye)      :      2.12413

Rotational constants in cm-1:     0.188934     0.186353     0.185591
Rotational constants in MHz :  5664.092526  5586.733866  5563.887995

                             ****ORCA TERMINATED NORMALLY****
TOTAL RUN TIME: 0 days 0 hours 0 minutes 53 seconds 341 msec
