                         Program Version 5.0.3 -  RELEASE  -
|  1> !ri-mp2 aug-cc-pvdz aug-cc-pvdz/c tightscf
|  2> %pal nprocs 16 end
|  3>
|  4> * xyz 0 1
|  5> C      0.000000    0.711523   -1.267123
|  6> C      0.000000   -0.711523   -1.267123
|  7> C      0.000000    1.238059   -0.009487
|  8> C      0.000000   -1.238059   -0.009487
|  9> S      0.000000    0.000000    1.192594
| 10> H      0.000000    1.314467   -2.162845
| 11> H      0.000000   -1.314467   -2.162845
| 12> H      0.000000    2.274447    0.281757
| 13> H      0.000000   -2.274447    0.281757
| 14> *
| 15>
| 16>                          ****END OF INPUT****

CARTESIAN COORDINATES (ANGSTROEM)
---------------------------------
  C      0.000000    0.711523   -1.267123
  C      0.000000   -0.711523   -1.267123
  C      0.000000    1.238059   -0.009487
  C      0.000000   -1.238059   -0.009487
  S      0.000000    0.000000    1.192594
  H      0.000000    1.314467   -2.162845
  H      0.000000   -1.314467   -2.162845
  H      0.000000    2.274447    0.281757
  H      0.000000   -2.274447    0.281757

 Total Charge           Charge          ....    0
 Multiplicity           Mult            ....    1
 Number of Electrons    NEL             ....   44
 Basis Dimension        Dim             ....  155

ORBITAL ENERGIES
----------------

  NO   OCC          E(Eh)            E(eV)
   0   2.0000     -91.985276     -2503.0466
   1   2.0000     -11.268913      -306.6427
   2   2.0000     -11.268882      -306.6419
   3   2.0000     -11.245394      -306.0027
   4   2.0000     -11.244388      -305.9753
   5   2.0000      -8.987899      -244.5732
   6   2.0000      -6.669520      -181.4869
   7   2.0000      -6.668650      -181.4632
   8   2.0000      -6.666838      -181.4139
   9   2.0000      -1.175431       -31.9851
  10   2.0000      -0.988594       -26.9010
  11   2.0000      -0.987926       -26.8828
  12   2.0000      -0.770961       -20.9789
  13   2.0000      -0.752797       -20.4846
  14   2.0000      -0.700236       -19.0544
  15   2.0000      -0.579149       -15.7595
  16   2.0000      -0.553576       -15.0636
  17   2.0000      -0.527944       -14.3661
  18   2.0000      -0.522995       -14.2314
  19   2.0000      -0.474920       -12.9232
  20   2.0000      -0.346921        -9.4402
  21   2.0000      -0.328809        -8.9473
  22   0.0000       0.036211         0.9854
  23   0.0000       0.041775         1.1368
  24   0.0000       0.047662         1.2969
  25   0.0000       0.059588         1.6215
  26   0.0000       0.084783         2.3071

MULLIKEN ATOMIC CHARGES
-----------------------
   0 C :    0.383688
   1 C :    0.383688
   2 C :   -0.107177
   3 C :   -0.107177
   4 S :    0.720809
   5 H :   -0.303526
   6 H :   -0.303526
   7 H :   -0.333388
   8 H :   -0.333388
Sum of atomic charges:   -0.0000000

LOEWDIN ATOMIC CHARGES
----------------------
   0 C :   -0.107373
   1 C :   -0.107373
   2 C :   -0.292431
   3 C :   -0.292431
   4 S :    0.939737
   5 H :   -0.011428
   6 H :   -0.011428
   7 H :   -0.058637
   8 H :   -0.058637

  Mayer bond orders larger than 0.100000
B(  0-C ,  1-C ) :   1.4064 B(  0-C ,  2-C ) :   2.0463 B(  0-C ,  5-H ) :   0.8360
B(  0-C ,  7-H ) :   0.1210 B(  1-C ,  3-C ) :   2.0463 B(  1-C ,  6-H ) :   0.8360
B(  1-C ,  8-H ) :   0.1210 B(  2-C ,  3-C ) :   0.2189 B(  2-C ,  4-S ) :   1.0016
B(  2-C ,  7-H ) :   0.9331 B(  3-C ,  4-S ) :   1.0016 B(  3-C ,  8-H ) :   0.9331
B(  4-S ,  7-H ) :  -0.1641 B(  4-S ,  8-H ) :  -0.1641

MP2 TOTAL ENERGY:     -552.016757068 Eh
FINAL SINGLE POINT ENERGY      -552.016757067602

DIPOLE MOMENT
-------------
                                X             Y             Z
Electronic contribution:     -0.00000       0.00000       3.41235
Nuclear contribution   :      0.00000       0.00000      -3.73121
                        -----------------------------------------
Total Dipole Moment    :     -0.00000       0.00000      -0.31886
                        -----------------------------------------
Magnitude (a.u.)       :      0.31886
Magnitude (Debye)      :      0.81047

Rotational constants in cm-1:     0.268031     0.180119     0.107726
Rotational constants in MHz :  8035.357507  5399.845286  3229.552097

                             ****ORCA TERMINATED NORMALLY****
TOTAL RUN TIME: 0 days 0 hours 0 minutes 48 seconds 547 msec
