                         Program Version 5.0.3 -  RELEASE  -
|  1> !ri-mp2 aug-cc-pvdz aug-cc-pvdz/c tightscf
|  2> %pal nprocs 16 end
|  3>
|  4> * xyz 0 1
|  5> S      2.050341    0.742508   -0.499891
|  6> S     -2.050342   -0.742503   -0.499907
|  7> N      3.923970   -0.715598    1.081612
|  8> N     -3.923966    0.715581    1.081626
|  9> C      0.603325   -0.276815   -0.332055
| 10> C     -0.603328    0.276827   -0.332072
| 11> C      3.140682   -0.141456    0.456341
| 12> C     -3.140681    0.141447    0.456343
| 13> H      0.769347   -1.345261   -0.318590
| 14> H     -0.769353    1.345273   -0.318638
| 15> *
| 16>
| 17>                          ****END OF INPUT****

CARTESIAN COORDINATES (ANGSTROEM)
---------------------------------
  S      2.050341    0.742508   -0.499891
  S     -2.050342   -0.742503   -0.499907
  N      3.923970   -0.715598    1.081612
  N     -3.923966    0.715581    1.081626
  C      0.603325   -0.276815   -0.332055
  C     -0.603328    0.276827   -0.332072
  C      3.140682   -0.141456    0.456341
  C     -3.140681    0.141447    0.456343
  H      0.769347   -1.345261   -0.318590
  H     -0.769353    1.345273   -0.318638

 Total Charge           Charge          ....    0
 Multiplicity           Mult            ....    1
 Number of Electrons    NEL             ....   72
 Basis Dimension        Dim             ....  210

ORBITAL ENERGIES
----------------

  NO   OCC          E(Eh)            E(eV)
   0   2.0000     -92.055363     -2504.9538
   1   2.0000     -92.055362     -2504.9538
   2   2.0000     -15.615792      -424.9273
   3   2.0000     -15.615792      -424.9273
   4   2.0000     -11.340952      -308.6030
   5   2.0000     -11.339224      -308.5560
   6   2.0000     -11.326288      -308.2040
   7   2.0000     -11.326288      -308.2040
   8   2.0000      -9.055863      -246.4226
   9   2.0000      -9.055860      -246.4225
  10   2.0000      -6.738093      -183.3528
  11   2.0000      -6.738092      -183.3528
  12   2.0000      -6.736215      -183.3017
  13   2.0000      -6.736214      -183.3017
  14   2.0000      -6.734029      -183.2423
  15   2.0000      -6.734029      -183.2422
  16   2.0000      -1.257281       -34.2124
  17   2.0000      -1.256230       -34.1838
  18   2.0000      -1.179421       -32.0937
  19   2.0000      -1.105310       -30.0770
  20   2.0000      -1.015302       -27.6278
  21   2.0000      -0.839049       -22.8317
  22   2.0000      -0.758107       -20.6291
  23   2.0000      -0.693509       -18.8714
  24   2.0000      -0.680151       -18.5078
  25   2.0000      -0.608103       -16.5473
  26   2.0000      -0.583784       -15.8856
  27   2.0000      -0.571460       -15.5502
  28   2.0000      -0.569946       -15.5090
  29   2.0000      -0.549154       -14.9433
  30   2.0000      -0.548955       -14.9378
  31   2.0000      -0.493760       -13.4359
  32   2.0000      -0.488676       -13.2975
  33   2.0000      -0.475807       -12.9474
  34   2.0000      -0.425963       -11.5910
  35   2.0000      -0.373435       -10.1617
  36   0.0000       0.029100         0.7919
  37   0.0000       0.038525         1.0483
  38   0.0000       0.052511         1.4289
  39   0.0000       0.062575         1.7028
  40   0.0000       0.068329         1.8593

MULLIKEN ATOMIC CHARGES
-----------------------
   0 S :    0.701511
   1 S :    0.701503
   2 N :   -0.292064
   3 N :   -0.292065
   4 C :    0.327559
   5 C :    0.327556
   6 C :   -0.333696
   7 C :   -0.333689
   8 H :   -0.403313
   9 H :   -0.403302
Sum of atomic charges:    0.0000000

LOEWDIN ATOMIC CHARGES
----------------------
   0 S :    0.919714
   1 S :    0.919711
   2 N :    0.000410
   3 N :    0.000409
   4 C :   -0.352900
   5 C :   -0.352900
   6 C :   -0.524816
   7 C :   -0.524815
   8 H :   -0.042407
   9 H :   -0.042407

  Mayer bond orders larger than 0.100000
B(  0-S ,  4-C ) :   0.9320 B(  0-S ,  6-C ) :   0.8783 B(  1-S ,  5-C ) :   0.9320
B(  1-S ,  7-C ) :   0.8783 B(  2-N ,  6-C ) :   2.4495 B(  3-N ,  7-C ) :   2.4495
B(  4-C ,  5-C ) :   1.7255 B(  4-C ,  8-H ) :   0.9354 B(  5-C ,  9-H ) :   0.9354

MP2 TOTAL ENERGY:    -1057.679824425 Eh
FINAL SINGLE POINT ENERGY     -1057.679824424535

DIPOLE MOMENT
-------------
                                X             Y             Z
Electronic contribution:      0.00002      -0.00000      -0.72168
Nuclear contribution   :     -0.00001       0.00001      -0.56457
                        -----------------------------------------
Total Dipole Moment    :      0.00001       0.00001      -1.28625
                        -----------------------------------------
Magnitude (a.u.)       :      1.28625
Magnitude (Debye)      :      3.26938

Rotational constants in cm-1:     0.150098     0.016800     0.016783
Rotational constants in MHz :  4499.839513   503.640370   503.143602

                             ****ORCA TERMINATED NORMALLY****
TOTAL RUN TIME: 0 days 0 hours 0 minutes 54 seconds 893 msec
