                         Program Version 5.0.3 -  RELEASE  -
|  1> !ri-mp2 aug-cc-pvdz aug-cc-pvdz/c tightscf
|  2> %pal nprocs 16 end
|  3>
|  4> * xyz 0 1
|  5> C     0.000000    0.000000     0.456698
|  6> Cl    0.000000    1.697300    -0.083852
|  7> Cl   -1.469905   -0.848650    -0.083852
|  8> Cl    1.469905   -0.848650    -0.083852
|  9> H     0.000000    0.000000     1.536281
| 10> *
| 11>
| 12>                          ****END OF INPUT****

CARTESIAN COORDINATES (ANGSTROEM)
---------------------------------
  C      0.000000    0.000000    0.456698
  Cl     0.000000    1.697300   -0.083852
  Cl    -1.469905   -0.848650   -0.083852
  Cl     1.469905   -0.848650   -0.083852
  H      0.000000    0.000000    1.536281

 Total Charge           Charge          ....    0
 Multiplicity           Mult            ....    1
 Number of Electrons    NEL             ....   58
 Basis Dimension        Dim             ....  113

ORBITAL ENERGIES
----------------

  NO   OCC          E(Eh)            E(eV)
   0   2.0000    -104.866966     -2853.5752
   1   2.0000    -104.866966     -2853.5752
   2   2.0000    -104.866965     -2853.5752
   3   2.0000     -11.443082      -311.3821
   4   2.0000     -10.593276      -288.2577
   5   2.0000     -10.593275      -288.2577
   6   2.0000     -10.593240      -288.2567
   7   2.0000      -8.060959      -219.3498
   8   2.0000      -8.060959      -219.3498
   9   2.0000      -8.060955      -219.3498
  10   2.0000      -8.057280      -219.2497
  11   2.0000      -8.057278      -219.2497
  12   2.0000      -8.057278      -219.2497
  13   2.0000      -8.057230      -219.2484
  14   2.0000      -8.057230      -219.2484
  15   2.0000      -8.057228      -219.2483
  16   2.0000      -1.241272       -33.7767
  17   2.0000      -1.117214       -30.4010
  18   2.0000      -1.117214       -30.4010
  19   2.0000      -0.879884       -23.9429
  20   2.0000      -0.681469       -18.5437
  21   2.0000      -0.626091       -17.0368
  22   2.0000      -0.626091       -17.0368
  23   2.0000      -0.505163       -13.7462
  24   2.0000      -0.505163       -13.7462
  25   2.0000      -0.470457       -12.8018
  26   2.0000      -0.470457       -12.8018
  27   2.0000      -0.467879       -12.7316
  28   2.0000      -0.453782       -12.3480
  29   0.0000       0.039291         1.0692
  30   0.0000       0.068367         1.8604
  31   0.0000       0.081086         2.2065
  32   0.0000       0.081086         2.2065
  33   0.0000       0.110851         3.0164

MULLIKEN ATOMIC CHARGES
-----------------------
   0 C :   -0.713639
   1 Cl:    0.128423
   2 Cl:    0.128423
   3 Cl:    0.128423
   4 H :    0.328369
Sum of atomic charges:   -0.0000000

LOEWDIN ATOMIC CHARGES
----------------------
   0 C :   -1.218939
   1 Cl:    0.443583
   2 Cl:    0.443583
   3 Cl:    0.443583
   4 H :   -0.111810

  Mayer bond orders larger than 0.100000
B(  0-C ,  1-Cl) :   1.1791 B(  0-C ,  2-Cl) :   1.1791 B(  0-C ,  3-Cl) :   1.1791
B(  0-C ,  4-H ) :   0.7882

MP2 TOTAL ENERGY:    -1417.540471392 Eh
FINAL SINGLE POINT ENERGY     -1417.540471391854

DIPOLE MOMENT
-------------
                                X             Y             Z
Electronic contribution:     -0.00000       0.00000      -1.24952
Nuclear contribution   :      0.00000       0.00000       1.73019
                        -----------------------------------------
Total Dipole Moment    :     -0.00000       0.00000       0.48067
                        -----------------------------------------
Magnitude (a.u.)       :      0.48067
Magnitude (Debye)      :      1.22176

Rotational constants in cm-1:     0.106154     0.106154     0.055018
Rotational constants in MHz :  3182.425365  3182.425021  1649.400462

                             ****ORCA TERMINATED NORMALLY****
TOTAL RUN TIME: 0 days 0 hours 0 minutes 34 seconds 806 msec
