                         Program Version 5.0.3 -  RELEASE  -
|  1> !ri-mp2 aug-cc-pvdz aug-cc-pvdz/c tightscf
|  2> %pal nprocs 16 end
|  3> %maxcore 3800
|  4>
|  5> * xyz 0 1
|  6> C      0.707742   -0.940168    1.191925
|  7> C      0.805573    0.571081    0.911672
|  8> C      0.286298   -1.294617   -0.248550
|  9> C      1.813009    0.594515   -0.256246
| 10> C     -0.630377    0.862567    0.409362
| 11> C     -0.961973   -0.400731   -0.457716
| 12> C      1.455724   -0.696655   -1.057146
| 13> H     -0.041153   -1.191218    1.943754
| 14> H      1.658013   -1.391146    1.482484
| 15> H      1.098896    1.197400    1.754117
| 16> H      0.105962   -2.349691   -0.452928
| 17> H      2.832978    0.547501    0.127018
| 18> C     -2.278499   -1.071176   -0.071401
| 19> H      2.300532   -1.386094   -1.086752
| 20> H     -1.280255    0.846643    1.290316
| 21> H      1.172461   -0.486382   -2.089154
| 22> C     -0.854203    2.196159   -0.296344
| 23> H      1.744295    1.498504   -0.859168
| 24> H     -1.027284   -0.113838   -1.511063
| 25> H     -3.112889   -0.370708   -0.150666
| 26> H     -2.254833   -1.436327    0.957417
| 27> H     -2.497120   -1.920640   -0.721600
| 28> H     -0.581866    3.037107    0.345146
| 29> H     -1.905142    2.317448   -0.566598
| 30> H     -0.272369    2.275590   -1.215659
| 31> *
| 32>
| 33>                          ****END OF INPUT****

CARTESIAN COORDINATES (ANGSTROEM)
---------------------------------
  C      0.707742   -0.940168    1.191925
  C      0.805573    0.571081    0.911672
  C      0.286298   -1.294617   -0.248550
  C      1.813009    0.594515   -0.256246
  C     -0.630377    0.862567    0.409362
  C     -0.961973   -0.400731   -0.457716
  C      1.455724   -0.696655   -1.057146
  H     -0.041153   -1.191218    1.943754
  H      1.658013   -1.391146    1.482484
  H      1.098896    1.197400    1.754117
  H      0.105962   -2.349691   -0.452928
  H      2.832978    0.547501    0.127018
  C     -2.278499   -1.071176   -0.071401
  H      2.300532   -1.386094   -1.086752
  H     -1.280255    0.846643    1.290316
  H      1.172461   -0.486382   -2.089154
  C     -0.854203    2.196159   -0.296344
  H      1.744295    1.498504   -0.859168
  H     -1.027284   -0.113838   -1.511063
  H     -3.112889   -0.370708   -0.150666
  H     -2.254833   -1.436327    0.957417
  H     -2.497120   -1.920640   -0.721600
  H     -0.581866    3.037107    0.345146
  H     -1.905142    2.317448   -0.566598
  H     -0.272369    2.275590   -1.215659

 Total Charge           Charge          ....    0
 Multiplicity           Mult            ....    1
 Number of Electrons    NEL             ....   70
 Basis Dimension        Dim             ....  351

ORBITAL ENERGIES
----------------

  NO   OCC          E(Eh)            E(eV)
   0   2.0000     -11.221340      -305.3482
   1   2.0000     -11.220473      -305.3246
   2   2.0000     -11.220146      -305.3157
   3   2.0000     -11.219641      -305.3020
   4   2.0000     -11.215983      -305.2024
   5   2.0000     -11.215174      -305.1804
   6   2.0000     -11.213827      -305.1438
   7   2.0000     -11.213820      -305.1436
   8   2.0000     -11.213797      -305.1429
   9   2.0000      -1.165092       -31.7038
  10   2.0000      -1.036357       -28.2007
  11   2.0000      -1.007770       -27.4228
  12   2.0000      -0.956152       -26.0182
  13   2.0000      -0.930457       -25.3190
  14   2.0000      -0.864499       -23.5242
  15   2.0000      -0.795961       -21.6592
  16   2.0000      -0.750376       -20.4188
  17   2.0000      -0.716126       -19.4868
  18   2.0000      -0.668536       -18.1918
  19   2.0000      -0.640101       -17.4180
  20   2.0000      -0.614700       -16.7268
  21   2.0000      -0.572783       -15.5862
  22   2.0000      -0.565255       -15.3814
  23   2.0000      -0.546206       -14.8630
  24   2.0000      -0.545301       -14.8384
  25   2.0000      -0.521065       -14.1789
  26   2.0000      -0.503265       -13.6945
  27   2.0000      -0.488176       -13.2839
  28   2.0000      -0.483413       -13.1543
  29   2.0000      -0.472209       -12.8495
  30   2.0000      -0.451527       -12.2867
  31   2.0000      -0.448962       -12.2169
  32   2.0000      -0.423303       -11.5187
  33   2.0000      -0.418560       -11.3896
  34   2.0000      -0.408869       -11.1259
  35   0.0000       0.036269         0.9869
  36   0.0000       0.041998         1.1428
  37   0.0000       0.042277         1.1504
  38   0.0000       0.045024         1.2252
  39   0.0000       0.057214         1.5569

MULLIKEN ATOMIC CHARGES
-----------------------
   0 C :    1.135633
   1 C :   -0.001770
   2 C :    0.213891
   3 C :    0.564733
   4 C :    0.041670
   5 C :   -0.344370
   6 C :    0.558309
   7 H :   -0.241737
   8 H :   -0.269942
   9 H :   -0.359750
  10 H :   -0.421679
  11 H :   -0.191746
  12 C :    0.630809
  13 H :   -0.207391
  14 H :   -0.374499
  15 H :   -0.238901
  16 C :    0.594055
  17 H :   -0.250525
  18 H :   -0.480306
  19 H :   -0.043242
  20 H :   -0.018499
  21 H :   -0.090884
  22 H :   -0.096225
  23 H :   -0.044024
  24 H :   -0.063609
Sum of atomic charges:   -0.0000000

LOEWDIN ATOMIC CHARGES
----------------------
   0 C :    0.049645
   1 C :   -0.141240
   2 C :   -0.138599
   3 C :    0.042265
   4 C :   -0.160096
   5 C :   -0.158521
   6 C :    0.040542
   7 H :    0.015938
   8 H :    0.021605
   9 H :    0.039853
  10 H :    0.037725
  11 H :    0.011705
  12 C :    0.163754
  13 H :    0.010510
  14 H :    0.038819
  15 H :    0.009845
  16 C :    0.166302
  17 H :   -0.001737
  18 H :    0.034744
  19 H :   -0.011972
  20 H :   -0.014194
  21 H :   -0.013617
  22 H :   -0.010039
  23 H :   -0.011991
  24 H :   -0.021241

  Mayer bond orders larger than 0.100000
B(  0-C ,  1-C ) :   1.0650 B(  0-C ,  2-C ) :   1.0606 B(  0-C ,  7-H ) :   0.4867
B(  0-C ,  8-H ) :   0.5877 B(  1-C ,  3-C ) :   1.0415 B(  1-C ,  4-C ) :   1.1050
B(  1-C ,  7-H ) :   0.1418 B(  1-C ,  9-H ) :   0.2309 B(  1-C , 14-H ) :   0.2144
B(  1-C , 16-C ) :  -0.1457 B(  2-C ,  4-C ) :  -0.1156 B(  2-C ,  5-C ) :   0.9337
B(  2-C ,  6-C ) :   1.0047 B(  2-C , 10-H ) :   0.2067 B(  2-C , 12-C ) :  -0.1668
B(  2-C , 13-H ) :   0.1192 B(  2-C , 18-H ) :   0.1972 B(  2-C , 20-H ) :  -0.1573
B(  3-C ,  4-C ) :  -0.1212 B(  3-C ,  6-C ) :   1.3498 B(  3-C , 11-H ) :   0.6946
B(  3-C , 15-H ) :   0.1180 B(  3-C , 17-H ) :   0.6727 B(  4-C ,  5-C ) :   1.0209
B(  4-C ,  6-C ) :   0.1010 B(  4-C ,  9-H ) :   0.1991 B(  4-C , 12-C ) :  -0.2520
B(  4-C , 14-H ) :   0.1009 B(  4-C , 16-C ) :   1.3197 B(  4-C , 20-H ) :  -0.1505
B(  4-C , 22-H ) :   0.1173 B(  4-C , 23-H ) :   0.1677 B(  4-C , 24-H ) :   0.1432
B(  5-C ,  7-H ) :   0.2393 B(  5-C , 10-H ) :   0.1018 B(  5-C , 12-C ) :   1.3261
B(  5-C , 14-H ) :   0.2390 B(  5-C , 16-C ) :  -0.2883 B(  5-C , 19-H ) :   0.1252
B(  5-C , 20-H ) :   0.2711 B(  6-C , 10-H ) :   0.1152 B(  6-C , 13-H ) :   0.7063
B(  6-C , 15-H ) :   0.6166 B(  6-C , 17-H ) :   0.1421 B(  7-H ,  8-H ) :  -0.3015
B( 11-H , 17-H ) :  -0.2429 B( 12-C , 19-H ) :   0.7935 B( 12-C , 20-H ) :   0.8619
B( 12-C , 21-H ) :   0.8530 B( 13-H , 15-H ) :  -0.2452 B( 16-C , 18-H ) :   0.1553
B( 16-C , 22-H ) :   0.8230 B( 16-C , 23-H ) :   0.7618 B( 16-C , 24-H ) :   0.9294
B( 19-H , 21-H ) :  -0.1105 B( 22-H , 23-H ) :  -0.1041

MP2 TOTAL ENERGY:     -351.493268755 Eh
FINAL SINGLE POINT ENERGY      -351.493268755077

DIPOLE MOMENT
-------------
                                X             Y             Z
Electronic contribution:      2.18812      -1.14026       0.81811
Nuclear contribution   :     -2.17978       1.13673      -0.79723
                        -----------------------------------------
Total Dipole Moment    :      0.00833      -0.00353       0.02088
                        -----------------------------------------
Magnitude (a.u.)       :      0.02276
Magnitude (Debye)      :      0.05785

Rotational constants in cm-1:     0.070316     0.058689     0.043716
Rotational constants in MHz :  2108.023226  1759.438003  1310.560457

                             ****ORCA TERMINATED NORMALLY****
TOTAL RUN TIME: 0 days 0 hours 2 minutes 9 seconds 253 msec
