                         Program Version 5.0.3 -  RELEASE  -
|  1> !ri-mp2 aug-cc-pvdz aug-cc-pvdz/c tightscf
|  2> %pal nprocs 16 end
|  3> %maxcore 3800
|  4>
|  5> * xyz 0 1
|  6> O     -0.702493   -2.681831   -0.000062
|  7> C     -0.427456   -1.502083   -0.000033
|  8> C      0.890406   -0.915681   -0.000045
|  9> C      1.039767    0.449836   -0.000006
| 10> C      0.269702    2.790611    0.000072
| 11> N      0.022247    1.356401    0.000047
| 12> C     -1.294568    0.876674    0.000053
| 13> N     -1.455705   -0.502781    0.000017
| 14> C     -2.848272   -0.963109    0.000032
| 15> O     -2.241746    1.641359    0.000089
| 16> N      2.127187   -1.527354   -0.000091
| 17> C      2.991264   -0.559718   -0.000081
| 18> N      2.381227    0.689357   -0.000031
| 19> H      4.063530   -0.659977   -0.000108
| 20> H      2.840421    1.583267   -0.000003
| 21> H      0.825941    3.084691    0.892129
| 22> H     -0.692999    3.289743    0.000154
| 23> H      0.825822    3.084747   -0.892040
| 24> H     -3.364115   -0.590499    0.882301
| 25> H     -2.830297   -2.046278    0.000011
| 26> H     -3.364145   -0.590467   -0.882207
| 27> *
| 28>
| 29>                          ****END OF INPUT****

CARTESIAN COORDINATES (ANGSTROEM)
---------------------------------
  O     -0.702493   -2.681831   -0.000062
  C     -0.427456   -1.502083   -0.000033
  C      0.890406   -0.915681   -0.000045
  C      1.039767    0.449836   -0.000006
  C      0.269702    2.790611    0.000072
  N      0.022247    1.356401    0.000047
  C     -1.294568    0.876674    0.000053
  N     -1.455705   -0.502781    0.000017
  C     -2.848272   -0.963109    0.000032
  O     -2.241746    1.641359    0.000089
  N      2.127187   -1.527354   -0.000091
  C      2.991264   -0.559718   -0.000081
  N      2.381227    0.689357   -0.000031
  H      4.063530   -0.659977   -0.000108
  H      2.840421    1.583267   -0.000003
  H      0.825941    3.084691    0.892129
  H     -0.692999    3.289743    0.000154
  H      0.825822    3.084747   -0.892040
  H     -3.364115   -0.590499    0.882301
  H     -2.830297   -2.046278    0.000011
  H     -3.364145   -0.590467   -0.882207

 Total Charge           Charge          ....    0
 Multiplicity           Mult            ....    1
 Number of Electrons    NEL             ....   94
 Basis Dimension        Dim             ....  371

ORBITAL ENERGIES
----------------

  NO   OCC          E(Eh)            E(eV)
   0   2.0000     -20.550659      -559.2119
   1   2.0000     -20.541190      -558.9542
   2   2.0000     -15.664141      -426.2429
   3   2.0000     -15.649594      -425.8471
   4   2.0000     -15.626146      -425.2091
   5   2.0000     -15.586468      -424.1294
   6   2.0000     -11.418886      -310.7237
   7   2.0000     -11.377944      -309.6096
   8   2.0000     -11.358485      -309.0801
   9   2.0000     -11.330228      -308.3112
  10   2.0000     -11.302306      -307.5514
  11   2.0000     -11.265863      -306.5597
  12   2.0000     -11.260465      -306.4128
  13   2.0000      -1.437763       -39.1235
  14   2.0000      -1.398334       -38.0506
  15   2.0000      -1.386859       -37.7384
  16   2.0000      -1.304031       -35.4845
  17   2.0000      -1.253432       -34.1076
  18   2.0000      -1.205037       -32.7907
  19   2.0000      -1.068708       -29.0810
  20   2.0000      -0.998614       -27.1737
  21   2.0000      -0.969792       -26.3894
  22   2.0000      -0.889242       -24.1975
  23   2.0000      -0.873822       -23.7779
  24   2.0000      -0.860286       -23.4096
  25   2.0000      -0.813280       -22.1305
  26   2.0000      -0.730687       -19.8830
  27   2.0000      -0.714255       -19.4359
  28   2.0000      -0.702393       -19.1131
  29   2.0000      -0.674283       -18.3482
  30   2.0000      -0.654794       -17.8179
  31   2.0000      -0.639667       -17.4062
  32   2.0000      -0.639074       -17.3901
  33   2.0000      -0.627371       -17.0716
  34   2.0000      -0.626094       -17.0369
  35   2.0000      -0.601451       -16.3663
  36   2.0000      -0.580480       -15.7957
  37   2.0000      -0.560609       -15.2550
  38   2.0000      -0.548929       -14.9371
  39   2.0000      -0.547133       -14.8883
  40   2.0000      -0.481709       -13.1080
  41   2.0000      -0.474535       -12.9128
  42   2.0000      -0.462688       -12.5904
  43   2.0000      -0.436624       -11.8811
  44   2.0000      -0.431437       -11.7400
  45   2.0000      -0.407543       -11.0898
  46   2.0000      -0.319788        -8.7019
  47   0.0000       0.013596         0.3700
  48   0.0000       0.033706         0.9172
  49   0.0000       0.040956         1.1145
  50   0.0000       0.045462         1.2371
  51   0.0000       0.053240         1.4487

MULLIKEN ATOMIC CHARGES
-----------------------
   0 O :   -0.850204
   1 C :    1.023064
   2 C :    0.739219
   3 C :    0.530661
   4 C :    0.823108
   5 N :   -0.671179
   6 C :    0.751779
   7 N :   -0.716473
   8 C :    0.696413
   9 O :   -0.761584
  10 N :   -0.901923
  11 C :    0.829566
  12 N :   -0.542158
  13 H :   -0.203949
  14 H :   -0.100898
  15 H :   -0.055430
  16 H :   -0.279542
  17 H :   -0.055409
  18 H :   -0.019668
  19 H :   -0.215728
  20 H :   -0.019664
Sum of atomic charges:    0.0000000

LOEWDIN ATOMIC CHARGES
----------------------
   0 O :    0.063937
   1 C :   -0.240186
   2 C :   -0.145695
   3 C :   -0.109799
   4 C :    0.231522
   5 N :   -0.031740
   6 C :   -0.269602
   7 N :   -0.010792
   8 C :    0.215828
   9 O :    0.059000
  10 N :    0.093269
  11 C :    0.005300
  12 N :    0.153321
  13 H :    0.007855
  14 H :    0.034081
  15 H :   -0.001058
  16 H :   -0.017822
  17 H :   -0.001056
  18 H :   -0.003880
  19 H :   -0.028605
  20 H :   -0.003879

  Mayer bond orders larger than 0.100000
B(  0-O ,  1-C ) :   1.2486 B(  1-C ,  2-C ) :   0.4170 B(  1-C ,  3-C ) :   0.4062
B(  1-C ,  6-C ) :  -0.1418 B(  1-C ,  7-N ) :   0.6232 B(  1-C , 10-N ) :   0.1592
B(  2-C ,  3-C ) :   1.0423 B(  2-C ,  5-N ) :  -0.1012 B(  2-C ,  7-N ) :   0.1233
B(  2-C , 10-N ) :   0.5553 B(  2-C , 13-H ) :   0.1596 B(  3-C ,  4-C ) :  -0.1056
B(  3-C ,  5-N ) :   0.6610 B(  3-C ,  6-C ) :  -0.3784 B(  3-C , 12-N ) :   0.8345
B(  3-C , 14-H ) :  -0.1888 B(  4-C ,  5-N ) :   0.9094 B(  4-C ,  6-C ) :  -0.1002
B(  4-C , 15-H ) :   0.8985 B(  4-C , 16-H ) :   0.9923 B(  4-C , 17-H ) :   0.8984
B(  5-N ,  6-C ) :   1.1180 B(  5-N ,  9-O ) :  -0.1875 B(  5-N , 12-N ) :  -0.1353
B(  6-C ,  7-N ) :   1.0831 B(  6-C ,  8-C ) :  -0.1030 B(  6-C ,  9-O ) :   1.7716
B(  7-N ,  8-C ) :   0.9975 B(  7-N ,  9-O ) :  -0.2841 B(  8-C , 18-H ) :   0.8352
B(  8-C , 19-H ) :   1.1100 B(  8-C , 20-H ) :   0.8352 B( 10-N , 11-C ) :   1.7259
B( 11-C , 12-N ) :   0.9373 B( 11-C , 13-H ) :   0.8454 B( 11-C , 14-H ) :  -0.1071
B( 12-N , 13-H ) :  -0.1214 B( 12-N , 14-H ) :   1.2650 B( 15-H , 16-H ) :  -0.1102
B( 16-H , 17-H ) :  -0.1102 B( 18-H , 19-H ) :  -0.1001 B( 19-H , 20-H ) :  -0.1001

MP2 TOTAL ENERGY:     -639.394557543 Eh
FINAL SINGLE POINT ENERGY      -639.394557542991

DIPOLE MOMENT
-------------
                                X             Y             Z
Electronic contribution:      3.36574      -4.51746      -0.00018
Nuclear contribution   :     -1.68948       6.99516       0.00023
                        -----------------------------------------
Total Dipole Moment    :      1.67626       2.47770       0.00005
                        -----------------------------------------
Magnitude (a.u.)       :      2.99146
Magnitude (Debye)      :      7.60368

Rotational constants in cm-1:     0.039796     0.029397     0.017016
Rotational constants in MHz :  1193.050698   881.297130   510.120975

                             ****ORCA TERMINATED NORMALLY****
TOTAL RUN TIME: 0 days 0 hours 2 minutes 59 seconds 119 msec
