                         Program Version 5.0.3 -  RELEASE  -
|  1> !ri-mp2 aug-cc-pvdz aug-cc-pvdz/c tightscf
|  2> %pal nprocs 16 end
|  3>
|  4> * xyz 0 1
|  5> C     0.000000     0.000000    0.340441
|  6> F     0.000000     1.256469   -0.128588
|  7> F    -1.088134    -0.628234   -0.128588
|  8> F     1.088134    -0.628234   -0.128588
|  9> H     0.000000     0.000000    1.429227
| 10> *
| 11>
| 12>                          ****END OF INPUT****

CARTESIAN COORDINATES (ANGSTROEM)
---------------------------------
  C      0.000000    0.000000    0.340441
  F      0.000000    1.256469   -0.128588
  F     -1.088134   -0.628234   -0.128588
  F      1.088134   -0.628234   -0.128588
  H      0.000000    0.000000    1.429227

 Total Charge           Charge          ....    0
 Multiplicity           Mult            ....    1
 Number of Electrons    NEL             ....   34
 Basis Dimension        Dim             ....  101

ORBITAL ENERGIES
----------------

  NO   OCC          E(Eh)            E(eV)
   0   2.0000     -26.359372      -717.2750
   1   2.0000     -26.359372      -717.2750
   2   2.0000     -26.359344      -717.2742
   3   2.0000     -11.523670      -313.5750
   4   2.0000      -1.740058       -47.3494
   5   2.0000      -1.646944       -44.8156
   6   2.0000      -1.646944       -44.8156
   7   2.0000      -0.996946       -27.1283
   8   2.0000      -0.849458       -23.1149
   9   2.0000      -0.828586       -22.5470
  10   2.0000      -0.828586       -22.5470
  11   2.0000      -0.714424       -19.4405
  12   2.0000      -0.714424       -19.4405
  13   2.0000      -0.671323       -18.2676
  14   2.0000      -0.671323       -18.2676
  15   2.0000      -0.655753       -17.8440
  16   2.0000      -0.600659       -16.3448
  17   0.0000       0.033978         0.9246
  18   0.0000       0.087778         2.3886
  19   0.0000       0.087778         2.3886
  20   0.0000       0.090824         2.4715
  21   0.0000       0.159172         4.3313

MULLIKEN ATOMIC CHARGES
-----------------------
   0 C :    1.773450
   1 F :   -0.526211
   2 F :   -0.526210
   3 F :   -0.526210
   4 H :   -0.194818
Sum of atomic charges:    0.0000000

LOEWDIN ATOMIC CHARGES
----------------------
   0 C :   -0.173667
   1 F :    0.051163
   2 F :    0.051164
   3 F :    0.051164
   4 H :    0.020177

  Mayer bond orders larger than 0.100000
B(  0-C ,  1-F ) :   0.5803 B(  0-C ,  2-F ) :   0.5803 B(  0-C ,  3-F ) :   0.5803
B(  0-C ,  4-H ) :   1.0446

MP2 TOTAL ENERGY:     -337.561492092 Eh
FINAL SINGLE POINT ENERGY      -337.561492092416

DIPOLE MOMENT
-------------
                                X             Y             Z
Electronic contribution:     -0.00000      -0.00000      -0.91286
Nuclear contribution   :      0.00000      -0.00000       1.65097
                        -----------------------------------------
Total Dipole Moment    :     -0.00000      -0.00000       0.73812
                        -----------------------------------------
Magnitude (a.u.)       :      0.73812
Magnitude (Debye)      :      1.87614

Rotational constants in cm-1:     0.341691     0.341691     0.187355
Rotational constants in MHz : 10243.652650 10243.648948  5616.749486

                             ****ORCA TERMINATED NORMALLY****
TOTAL RUN TIME: 0 days 0 hours 0 minutes 48 seconds 115 msec
