                         Program Version 5.0.3 -  RELEASE  -
|  1> !ri-mp2 aug-cc-pvdz aug-cc-pvdz/c tightscf
|  2> %pal nprocs 16 end
|  3>
|  4> * xyz 0 1
|  5> S     -1.476701   -0.452025   -0.259302
|  6> C      1.913232   -0.302099   -0.804682
|  7> H      1.265426   -0.226374   -1.678866
|  8> H      2.683844    0.466120   -0.886402
|  9> H      2.406718   -1.274145   -0.844759
| 10> C     -0.015272   -1.169321    0.615996
| 11> H      0.232350   -2.124200    0.156285
| 12> H     -0.282085   -1.344028    1.657022
| 13> C      1.122948   -0.146438    0.496930
| 14> H      1.809247   -0.288791    1.336203
| 15> C     -0.761847    1.249024   -0.311830
| 16> H     -1.519110    1.960559    0.008816
| 17> H     -0.481066    1.483947   -1.337013
| 18> C      0.449983    1.229470    0.621149
| 19> H      0.115459    1.375949    1.649963
| 20> H      1.142169    2.039539    0.382198
| 21> *
| 22>
| 23>                          ****END OF INPUT****

CARTESIAN COORDINATES (ANGSTROEM)
---------------------------------
  S     -1.476701   -0.452025   -0.259302
  C      1.913232   -0.302099   -0.804682
  H      1.265426   -0.226374   -1.678866
  H      2.683844    0.466120   -0.886402
  H      2.406718   -1.274145   -0.844759
  C     -0.015272   -1.169321    0.615996
  H      0.232350   -2.124200    0.156285
  H     -0.282085   -1.344028    1.657022
  C      1.122948   -0.146438    0.496930
  H      1.809247   -0.288791    1.336203
  C     -0.761847    1.249024   -0.311830
  H     -1.519110    1.960559    0.008816
  H     -0.481066    1.483947   -1.337013
  C      0.449983    1.229470    0.621149
  H      0.115459    1.375949    1.649963
  H      1.142169    2.039539    0.382198

 Total Charge           Charge          ....    0
 Multiplicity           Mult            ....    1
 Number of Electrons    NEL             ....   56
 Basis Dimension        Dim             ....  232

ORBITAL ENERGIES
----------------

  NO   OCC          E(Eh)            E(eV)
   0   2.0000     -91.935751     -2501.6990
   1   2.0000     -11.257828      -306.3411
   2   2.0000     -11.256724      -306.3110
   3   2.0000     -11.243876      -305.9614
   4   2.0000     -11.236664      -305.7652
   5   2.0000     -11.223547      -305.4082
   6   2.0000      -8.937261      -243.1952
   7   2.0000      -6.619075      -180.1142
   8   2.0000      -6.617955      -180.0837
   9   2.0000      -6.615886      -180.0274
  10   2.0000      -1.133247       -30.8372
  11   2.0000      -1.009827       -27.4788
  12   2.0000      -0.975894       -26.5554
  13   2.0000      -0.911295       -24.7976
  14   2.0000      -0.783939       -21.3321
  15   2.0000      -0.761977       -20.7344
  16   2.0000      -0.658267       -17.9124
  17   2.0000      -0.635704       -17.2984
  18   2.0000      -0.607253       -16.5242
  19   2.0000      -0.560140       -15.2422
  20   2.0000      -0.549191       -14.9442
  21   2.0000      -0.528860       -14.3910
  22   2.0000      -0.490724       -13.3533
  23   2.0000      -0.473347       -12.8804
  24   2.0000      -0.470088       -12.7918
  25   2.0000      -0.465636       -12.6706
  26   2.0000      -0.415689       -11.3115
  27   2.0000      -0.328819        -8.9476
  28   0.0000       0.033169         0.9026
  29   0.0000       0.043863         1.1936
  30   0.0000       0.045363         1.2344
  31   0.0000       0.051132         1.3914
  32   0.0000       0.065081         1.7709

MULLIKEN ATOMIC CHARGES
-----------------------
   0 S :    0.434917
   1 C :    0.533579
   2 H :   -0.009070
   3 H :   -0.090538
   4 H :   -0.090922
   5 C :    0.200660
   6 H :   -0.126807
   7 H :   -0.142007
   8 C :   -0.564848
   9 H :   -0.156533
  10 C :    0.014413
  11 H :   -0.078552
  12 H :   -0.133517
  13 C :    0.505272
  14 H :   -0.168262
  15 H :   -0.127785
Sum of atomic charges:    0.0000000

LOEWDIN ATOMIC CHARGES
----------------------
   0 S :    0.814986
   1 C :    0.155068
   2 H :   -0.017826
   3 H :   -0.012674
   4 H :   -0.013484
   5 C :   -0.231895
   6 H :   -0.033337
   7 H :   -0.034269
   8 C :   -0.301581
   9 H :    0.036821
  10 C :   -0.256449
  11 H :   -0.038033
  12 H :   -0.041357
  13 C :   -0.059494
  14 H :    0.017247
  15 H :    0.016277

  Mayer bond orders larger than 0.100000
B(  0-S ,  5-C ) :   1.1709 B(  0-S ,  8-C ) :  -0.3102 B(  0-S , 10-C ) :   1.1144
B(  1-C ,  2-H ) :   0.8656 B(  1-C ,  3-H ) :   0.8448 B(  1-C ,  4-H ) :   0.8228
B(  1-C ,  8-C ) :   1.4104 B(  2-H ,  8-C ) :   0.2379 B(  3-H ,  4-H ) :  -0.1012
B(  5-C ,  6-H ) :   0.9025 B(  5-C ,  7-H ) :   0.8537 B(  5-C ,  8-C ) :   0.9350
B(  5-C , 10-C ) :   0.1836 B(  6-H ,  7-H ) :  -0.1533 B(  7-H ,  8-C ) :   0.1736
B(  8-C ,  9-H ) :   0.6531 B(  8-C , 10-C ) :  -0.2367 B(  8-C , 13-C ) :   1.1675
B(  8-C , 14-H ) :   0.1659 B( 10-C , 11-H ) :   0.8928 B( 10-C , 12-H ) :   0.9003
B( 10-C , 13-C ) :   1.2386 B( 11-H , 12-H ) :  -0.1278 B( 12-H , 13-C ) :   0.1100
B( 13-C , 14-H ) :   0.7297 B( 13-C , 15-H ) :   0.7900 B( 14-H , 15-H ) :  -0.1595

MP2 TOTAL ENERGY:     -593.603556713 Eh
FINAL SINGLE POINT ENERGY      -593.603556713429

DIPOLE MOMENT
-------------
                                X             Y             Z
Electronic contribution:     -6.83246      -1.80171      -0.16727
Nuclear contribution   :      7.63463       2.14319       0.46460
                        -----------------------------------------
Total Dipole Moment    :      0.80217       0.34148       0.29734
                        -----------------------------------------
Magnitude (a.u.)       :      0.92114
Magnitude (Debye)      :      2.34136

Rotational constants in cm-1:     0.142427     0.085571     0.069728
Rotational constants in MHz :  4269.864503  2565.364091  2090.382380

                             ****ORCA TERMINATED NORMALLY****
TOTAL RUN TIME: 0 days 0 hours 1 minutes 3 seconds 811 msec
