                         Program Version 5.0.3 -  RELEASE  -
|  1> !ri-mp2 aug-cc-pvdz aug-cc-pvdz/c tightscf
|  2> %pal nprocs 16 end
|  3> %maxcore 3800
|  4>
|  5> * xyz 0 1
|  6> C     -0.793806    0.000318    0.000712
|  7> C      0.794117   -0.000302   -0.000582
|  8> C     -1.356708   -0.190381   -1.421764
|  9> C     -1.354984   -1.136464    0.877663
| 10> C     -1.354681    1.328013    0.546448
| 11> C      1.357091   -0.075244    1.432659
| 12> C      1.353535   -1.204868   -0.782754
| 13> C      1.355771    1.278820   -0.652338
| 14> H     -2.441884   -0.073265   -1.406406
| 15> H     -1.144492   -1.183517   -1.816507
| 16> H     -0.962417    0.543192   -2.125265
| 17> H     -2.440034   -1.182634    0.768829
| 18> H     -1.142299   -0.980842    1.934840
| 19> H     -0.959235   -2.112026    0.594245
| 20> H     -2.439863    1.257189    0.639872
| 21> H     -1.140724    2.165686   -0.116604
| 22> H     -0.960397    1.570217    1.533667
| 23> H      2.442714    0.035395    1.406956
| 24> H      1.140854   -1.031082    1.908797
| 25> H      0.966525    0.716279    2.072656
| 26> H      2.439259   -1.240178   -0.675973
| 27> H      1.134677   -1.138294   -1.847977
| 28> H      0.961030   -2.153714   -0.416363
| 29> H      2.441259    1.201912   -0.736986
| 30> H      1.139195    2.167901   -0.060992
| 31> H      0.963822    1.438426   -1.657047
| 32> *
| 33>
| 34>                          ****END OF INPUT****

CARTESIAN COORDINATES (ANGSTROEM)
---------------------------------
  C     -0.793806    0.000318    0.000712
  C      0.794117   -0.000302   -0.000582
  C     -1.356708   -0.190381   -1.421764
  C     -1.354984   -1.136464    0.877663
  C     -1.354681    1.328013    0.546448
  C      1.357091   -0.075244    1.432659
  C      1.353535   -1.204868   -0.782754
  C      1.355771    1.278820   -0.652338
  H     -2.441884   -0.073265   -1.406406
  H     -1.144492   -1.183517   -1.816507
  H     -0.962417    0.543192   -2.125265
  H     -2.440034   -1.182634    0.768829
  H     -1.142299   -0.980842    1.934840
  H     -0.959235   -2.112026    0.594245
  H     -2.439863    1.257189    0.639872
  H     -1.140724    2.165686   -0.116604
  H     -0.960397    1.570217    1.533667
  H      2.442714    0.035395    1.406956
  H      1.140854   -1.031082    1.908797
  H      0.966525    0.716279    2.072656
  H      2.439259   -1.240178   -0.675973
  H      1.134677   -1.138294   -1.847977
  H      0.961030   -2.153714   -0.416363
  H      2.441259    1.201912   -0.736986
  H      1.139195    2.167901   -0.060992
  H      0.963822    1.438426   -1.657047

 Total Charge           Charge          ....    0
 Multiplicity           Mult            ....    1
 Number of Electrons    NEL             ....   66
 Basis Dimension        Dim             ....  346

ORBITAL ENERGIES
----------------

  NO   OCC          E(Eh)            E(eV)
   0   2.0000     -11.236694      -305.7660
   1   2.0000     -11.236206      -305.7527
   2   2.0000     -11.211124      -305.0702
   3   2.0000     -11.211117      -305.0700
   4   2.0000     -11.211110      -305.0698
   5   2.0000     -11.211101      -305.0696
   6   2.0000     -11.211082      -305.0690
   7   2.0000     -11.211071      -305.0687
   8   2.0000      -1.122570       -30.5467
   9   2.0000      -1.038153       -28.2496
  10   2.0000      -0.940649       -25.5964
  11   2.0000      -0.940538       -25.5933
  12   2.0000      -0.911549       -24.8045
  13   2.0000      -0.911518       -24.8037
  14   2.0000      -0.803591       -21.8668
  15   2.0000      -0.692530       -18.8447
  16   2.0000      -0.645476       -17.5643
  17   2.0000      -0.603379       -16.4188
  18   2.0000      -0.603347       -16.4179
  19   2.0000      -0.589552       -16.0425
  20   2.0000      -0.589508       -16.0413
  21   2.0000      -0.551990       -15.0204
  22   2.0000      -0.530672       -14.4403
  23   2.0000      -0.530538       -14.4367
  24   2.0000      -0.522587       -14.2203
  25   2.0000      -0.509170       -13.8552
  26   2.0000      -0.509127       -13.8541
  27   2.0000      -0.494962       -13.4686
  28   2.0000      -0.479960       -13.0604
  29   2.0000      -0.479863       -13.0577
  30   2.0000      -0.431586       -11.7440
  31   2.0000      -0.431523       -11.7423
  32   2.0000      -0.421512       -11.4699
  33   0.0000       0.037697         1.0258
  34   0.0000       0.043200         1.1755
  35   0.0000       0.045901         1.2490
  36   0.0000       0.045903         1.2491
  37   0.0000       0.062090         1.6895

MULLIKEN ATOMIC CHARGES
-----------------------
   0 C :   -3.016879
   1 C :   -3.013160
   2 C :    1.249627
   3 C :    1.249077
   4 C :    1.249228
   5 C :    1.249496
   6 C :    1.248655
   7 C :    1.249439
   8 H :   -0.073852
   9 H :   -0.085591
  10 H :   -0.086893
  11 H :   -0.072710
  12 H :   -0.084416
  13 H :   -0.086040
  14 H :   -0.072332
  15 H :   -0.084511
  16 H :   -0.086220
  17 H :   -0.071927
  18 H :   -0.087297
  19 H :   -0.085942
  20 H :   -0.071756
  21 H :   -0.085660
  22 H :   -0.085503
  23 H :   -0.072861
  24 H :   -0.085376
  25 H :   -0.086596
Sum of atomic charges:    0.0000000

LOEWDIN ATOMIC CHARGES
----------------------
   0 C :   -0.407768
   1 C :   -0.407786
   2 C :    0.171954
   3 C :    0.172077
   4 C :    0.171810
   5 C :    0.172172
   6 C :    0.172152
   7 C :    0.172147
   8 H :   -0.008332
   9 H :   -0.012227
  10 H :   -0.015558
  11 H :   -0.008357
  12 H :   -0.012160
  13 H :   -0.015621
  14 H :   -0.008317
  15 H :   -0.012179
  16 H :   -0.015413
  17 H :   -0.008382
  18 H :   -0.012292
  19 H :   -0.015509
  20 H :   -0.008274
  21 H :   -0.012327
  22 H :   -0.015605
  23 H :   -0.008365
  24 H :   -0.012323
  25 H :   -0.015517

  Mayer bond orders larger than 0.100000
B(  0-C ,  1-C ) :  -0.1839 B(  0-C ,  2-C ) :   1.5694 B(  0-C ,  3-C ) :   1.5700
B(  0-C ,  4-C ) :   1.5706 B(  0-C ,  8-H ) :   0.2781 B(  0-C ,  9-H ) :   0.3453
B(  0-C , 10-H ) :   0.1506 B(  0-C , 11-H ) :   0.2777 B(  0-C , 12-H ) :   0.3451
B(  0-C , 13-H ) :   0.1506 B(  0-C , 14-H ) :   0.2776 B(  0-C , 15-H ) :   0.3451
B(  0-C , 16-H ) :   0.1507 B(  1-C ,  5-C ) :   1.5699 B(  1-C ,  6-C ) :   1.5716
B(  1-C ,  7-C ) :   1.5699 B(  1-C , 17-H ) :   0.2779 B(  1-C , 18-H ) :   0.3447
B(  1-C , 19-H ) :   0.1531 B(  1-C , 20-H ) :   0.2775 B(  1-C , 21-H ) :   0.3435
B(  1-C , 22-H ) :   0.1529 B(  1-C , 23-H ) :   0.2777 B(  1-C , 24-H ) :   0.3446
B(  1-C , 25-H ) :   0.1523 B(  2-C ,  3-C ) :  -0.1883 B(  2-C ,  4-C ) :  -0.1887
B(  2-C ,  8-H ) :   0.6206 B(  2-C ,  9-H ) :   0.6765 B(  2-C , 10-H ) :   0.7032
B(  3-C ,  4-C ) :  -0.1889 B(  3-C , 11-H ) :   0.6204 B(  3-C , 12-H ) :   0.6762
B(  3-C , 13-H ) :   0.7029 B(  4-C , 14-H ) :   0.6198 B(  4-C , 15-H ) :   0.6756
B(  4-C , 16-H ) :   0.7027 B(  5-C ,  6-C ) :  -0.1885 B(  5-C ,  7-C ) :  -0.1888
B(  5-C , 17-H ) :   0.6200 B(  5-C , 18-H ) :   0.6763 B(  5-C , 19-H ) :   0.7026
B(  6-C ,  7-C ) :  -0.1888 B(  6-C , 20-H ) :   0.6195 B(  6-C , 21-H ) :   0.6757
B(  6-C , 22-H ) :   0.7021 B(  7-C , 23-H ) :   0.6196 B(  7-C , 24-H ) :   0.6759
B(  7-C , 25-H ) :   0.7026 B(  8-H ,  9-H ) :  -0.1237 B(  8-H , 10-H ) :  -0.1231
B(  9-H , 10-H ) :  -0.1249 B( 11-H , 12-H ) :  -0.1238 B( 11-H , 13-H ) :  -0.1229
B( 12-H , 13-H ) :  -0.1247 B( 14-H , 15-H ) :  -0.1234 B( 14-H , 16-H ) :  -0.1231
B( 15-H , 16-H ) :  -0.1248 B( 17-H , 18-H ) :  -0.1238 B( 17-H , 19-H ) :  -0.1227
B( 18-H , 19-H ) :  -0.1247 B( 20-H , 21-H ) :  -0.1237 B( 20-H , 22-H ) :  -0.1229
B( 21-H , 22-H ) :  -0.1243 B( 23-H , 24-H ) :  -0.1235 B( 23-H , 25-H ) :  -0.1231
B( 24-H , 25-H ) :  -0.1246

MP2 TOTAL ENERGY:     -314.687560118 Eh
FINAL SINGLE POINT ENERGY      -314.687560118111

DIPOLE MOMENT
-------------
                                X             Y             Z
Electronic contribution:      0.00202      -0.00064       0.00023
Nuclear contribution   :     -0.00218       0.00070      -0.00028
                        -----------------------------------------
Total Dipole Moment    :     -0.00016       0.00006      -0.00006
                        -----------------------------------------
Magnitude (a.u.)       :      0.00018
Magnitude (Debye)      :      0.00047

Rotational constants in cm-1:     0.077291     0.055077     0.055069
Rotational constants in MHz :  2317.113167  1651.153787  1650.912452

                             ****ORCA TERMINATED NORMALLY****
TOTAL RUN TIME: 0 days 0 hours 2 minutes 17 seconds 332 msec
