                         Program Version 5.0.3 -  RELEASE  -
|  1> !ri-mp2 aug-cc-pvdz aug-cc-pvdz/c tightscf
|  2> %pal nprocs 16 end
|  3>
|  4> * xyz 0 1
|  5> C     -0.621065    1.325981    0.000000
|  6> C      0.020904    0.729584    1.256731
|  7> C      0.020904    0.729584   -1.256731
|  8> C      0.020904   -0.794091    1.182195
|  9> C      0.020904   -0.794091   -1.182195
| 10> O      0.655923   -1.267487    0.000000
| 11> H     -1.692321    1.099091    0.000000
| 12> H     -0.531769    2.413763    0.000000
| 13> H      1.053246    1.077801    1.346976
| 14> H     -0.509437    1.050894    2.156429
| 15> H     -0.509437    1.050894   -2.156429
| 16> H      1.053246    1.077801   -1.346976
| 17> H      0.568763   -1.234712    2.014395
| 18> H     -1.011867   -1.171361    1.218225
| 19> H     -1.011867   -1.171361   -1.218225
| 20> H      0.568763   -1.234712   -2.014395
| 21> *
| 22>
| 23>                          ****END OF INPUT****

CARTESIAN COORDINATES (ANGSTROEM)
---------------------------------
  C     -0.621065    1.325981    0.000000
  C      0.020904    0.729584    1.256731
  C      0.020904    0.729584   -1.256731
  C      0.020904   -0.794091    1.182195
  C      0.020904   -0.794091   -1.182195
  O      0.655923   -1.267487    0.000000
  H     -1.692321    1.099091    0.000000
  H     -0.531769    2.413763    0.000000
  H      1.053246    1.077801    1.346976
  H     -0.509437    1.050894    2.156429
  H     -0.509437    1.050894   -2.156429
  H      1.053246    1.077801   -1.346976
  H      0.568763   -1.234712    2.014395
  H     -1.011867   -1.171361    1.218225
  H     -1.011867   -1.171361   -1.218225
  H      0.568763   -1.234712   -2.014395

 Total Charge           Charge          ....    0
 Multiplicity           Mult            ....    1
 Number of Electrons    NEL             ....   48
 Basis Dimension        Dim             ....  228

ORBITAL ENERGIES
----------------

  NO   OCC          E(Eh)            E(eV)
   0   2.0000     -20.557111      -559.3874
   1   2.0000     -11.274257      -306.7881
   2   2.0000     -11.274236      -306.7876
   3   2.0000     -11.227660      -305.5202
   4   2.0000     -11.224726      -305.4403
   5   2.0000     -11.224653      -305.4383
   6   2.0000      -1.369235       -37.2588
   7   2.0000      -1.076861       -29.3029
   8   2.0000      -1.025590       -27.9077
   9   2.0000      -0.878350       -23.9011
  10   2.0000      -0.859725       -23.3943
  11   2.0000      -0.769061       -20.9272
  12   2.0000      -0.673795       -18.3349
  13   2.0000      -0.634988       -17.2789
  14   2.0000      -0.625701       -17.0262
  15   2.0000      -0.609398       -16.5826
  16   2.0000      -0.571201       -15.5432
  17   2.0000      -0.539820       -14.6893
  18   2.0000      -0.536658       -14.6032
  19   2.0000      -0.495999       -13.4968
  20   2.0000      -0.479937       -13.0598
  21   2.0000      -0.456690       -12.4272
  22   2.0000      -0.443740       -12.0748
  23   2.0000      -0.401619       -10.9286
  24   0.0000       0.036435         0.9914
  25   0.0000       0.044386         1.2078
  26   0.0000       0.045830         1.2471
  27   0.0000       0.048669         1.3244
  28   0.0000       0.064437         1.7534

MULLIKEN ATOMIC CHARGES
-----------------------
   0 C :    0.187062
   1 C :    0.210527
   2 C :    0.210527
   3 C :    0.871735
   4 C :    0.871735
   5 O :   -0.933698
   6 H :   -0.169389
   7 H :   -0.098948
   8 H :   -0.131894
   9 H :   -0.077856
  10 H :   -0.077856
  11 H :   -0.131894
  12 H :   -0.264816
  13 H :   -0.100209
  14 H :   -0.100209
  15 H :   -0.264816
Sum of atomic charges:    0.0000000

LOEWDIN ATOMIC CHARGES
----------------------
   0 C :   -0.032369
   1 C :   -0.025096
   2 C :   -0.025096
   3 C :   -0.027898
   4 C :   -0.027898
   5 O :   -0.000798
   6 H :    0.015440
   7 H :    0.013528
   8 H :    0.018694
   9 H :    0.016512
  10 H :    0.016512
  11 H :    0.018694
  12 H :    0.006571
  13 H :    0.013317
  14 H :    0.013317
  15 H :    0.006571

  Mayer bond orders larger than 0.100000
B(  0-C ,  1-C ) :   1.2598 B(  0-C ,  2-C ) :   1.2598 B(  0-C ,  6-H ) :   0.8079
B(  0-C ,  7-H ) :   0.8110 B(  1-C ,  3-C ) :   1.2374 B(  1-C ,  8-H ) :   0.8072
B(  1-C ,  9-H ) :   0.8154 B(  2-C ,  4-C ) :   1.2374 B(  2-C , 10-H ) :   0.8154
B(  2-C , 11-H ) :   0.8072 B(  3-C ,  5-O ) :   0.5920 B(  3-C , 12-H ) :   0.9814
B(  3-C , 13-H ) :   0.8384 B(  4-C ,  5-O ) :   0.5920 B(  4-C , 14-H ) :   0.8384
B(  4-C , 15-H ) :   0.9814 B(  6-H ,  7-H ) :  -0.1231 B(  8-H ,  9-H ) :  -0.1202
B( 10-H , 11-H ) :  -0.1202 B( 12-H , 13-H ) :  -0.1535 B( 14-H , 15-H ) :  -0.1535

MP2 TOTAL ENERGY:     -270.979986708 Eh
FINAL SINGLE POINT ENERGY      -270.979986708208

DIPOLE MOMENT
-------------
                                X             Y             Z
Electronic contribution:      1.65807      -2.60099       0.00000
Nuclear contribution   :     -2.10611       3.07502      -0.00000
                        -----------------------------------------
Total Dipole Moment    :     -0.44804       0.47403       0.00000
                        -----------------------------------------
Magnitude (a.u.)       :      0.65226
Magnitude (Debye)      :      1.65791

Rotational constants in cm-1:     0.155354     0.150121     0.086353
Rotational constants in MHz :  4657.388683  4500.528816  2588.812186

                             ****ORCA TERMINATED NORMALLY****
TOTAL RUN TIME: 0 days 0 hours 0 minutes 54 seconds 716 msec
