                         Program Version 5.0.3 -  RELEASE  -
|  1> !ri-mp2 aug-cc-pvdz aug-cc-pvdz/c tightscf
|  2> %pal nprocs 16 end
|  3>
|  4> * xyz 0 1
|  5> C      0.000000    0.000000    0.681974
|  6> C      0.000000    0.000000   -0.681974
|  7> C      0.000000    1.213865    1.428575
|  8> C      0.000000   -1.213865    1.428575
|  9> C      0.000000    1.213865   -1.428575
| 10> C      0.000000   -1.213865   -1.428575
| 11> N      0.000000    2.183501    2.049472
| 12> N      0.000000   -2.183501    2.049472
| 13> N      0.000000    2.183501   -2.049472
| 14> N      0.000000   -2.183501   -2.049472
| 15> *
| 16>
| 17>                          ****END OF INPUT****

CARTESIAN COORDINATES (ANGSTROEM)
---------------------------------
  C      0.000000    0.000000    0.681974
  C      0.000000    0.000000   -0.681974
  C      0.000000    1.213865    1.428575
  C      0.000000   -1.213865    1.428575
  C      0.000000    1.213865   -1.428575
  C      0.000000   -1.213865   -1.428575
  N      0.000000    2.183501    2.049472
  N      0.000000   -2.183501    2.049472
  N      0.000000    2.183501   -2.049472
  N      0.000000   -2.183501   -2.049472

 Total Charge           Charge          ....    0
 Multiplicity           Mult            ....    1
 Number of Electrons    NEL             ....   64
 Basis Dimension        Dim             ....  230

ORBITAL ENERGIES
----------------

  NO   OCC          E(Eh)            E(eV)
   0   2.0000     -15.663973      -426.2384
   1   2.0000     -15.663973      -426.2384
   2   2.0000     -15.663973      -426.2384
   3   2.0000     -15.663972      -426.2383
   4   2.0000     -11.434263      -311.1421
   5   2.0000     -11.432827      -311.1030
   6   2.0000     -11.356005      -309.0126
   7   2.0000     -11.355998      -309.0124
   8   2.0000     -11.355993      -309.0123
   9   2.0000     -11.355983      -309.0120
  10   2.0000      -1.325025       -36.0558
  11   2.0000      -1.301175       -35.4068
  12   2.0000      -1.294728       -35.2313
  13   2.0000      -1.291174       -35.1346
  14   2.0000      -1.227045       -33.3896
  15   2.0000      -1.071648       -29.1610
  16   2.0000      -0.921669       -25.0799
  17   2.0000      -0.841232       -22.8911
  18   2.0000      -0.812491       -22.1090
  19   2.0000      -0.659398       -17.9431
  20   2.0000      -0.633197       -17.2302
  21   2.0000      -0.632985       -17.2244
  22   2.0000      -0.630477       -17.1562
  23   2.0000      -0.622195       -16.9308
  24   2.0000      -0.575323       -15.6553
  25   2.0000      -0.554322       -15.0839
  26   2.0000      -0.551728       -15.0133
  27   2.0000      -0.546516       -14.8715
  28   2.0000      -0.543740       -14.7959
  29   2.0000      -0.537616       -14.6293
  30   2.0000      -0.523362       -14.2414
  31   2.0000      -0.441789       -12.0217
  32   0.0000      -0.064403        -1.7525
  33   0.0000       0.040036         1.0894
  34   0.0000       0.052672         1.4333
  35   0.0000       0.067343         1.8325
  36   0.0000       0.068938         1.8759

MULLIKEN ATOMIC CHARGES
-----------------------
   0 C :    2.170619
   1 C :    2.170619
   2 C :   -0.852467
   3 C :   -0.852467
   4 C :   -0.852467
   5 C :   -0.852467
   6 N :   -0.232843
   7 N :   -0.232843
   8 N :   -0.232843
   9 N :   -0.232843
Sum of atomic charges:    0.0000000

LOEWDIN ATOMIC CHARGES
----------------------
   0 C :   -0.161456
   1 C :   -0.161456
   2 C :   -0.084093
   3 C :   -0.084093
   4 C :   -0.084093
   5 C :   -0.084093
   6 N :    0.164821
   7 N :    0.164821
   8 N :    0.164821
   9 N :    0.164821

  Mayer bond orders larger than 0.100000
B(  0-C ,  1-C ) :   1.5858 B(  0-C ,  2-C ) :  -0.2227 B(  0-C ,  3-C ) :  -0.2227
B(  0-C ,  4-C ) :  -0.3714 B(  0-C ,  5-C ) :  -0.3714 B(  0-C ,  6-N ) :  -0.2823
B(  0-C ,  7-N ) :  -0.2823 B(  1-C ,  2-C ) :  -0.3714 B(  1-C ,  3-C ) :  -0.3714
B(  1-C ,  4-C ) :  -0.2227 B(  1-C ,  5-C ) :  -0.2227 B(  1-C ,  8-N ) :  -0.2823
B(  1-C ,  9-N ) :  -0.2823 B(  2-C ,  3-C ) :   0.1429 B(  2-C ,  6-N ) :   2.7503
B(  3-C ,  7-N ) :   2.7503 B(  4-C ,  5-C ) :   0.1429 B(  4-C ,  8-N ) :   2.7503
B(  5-C ,  9-N ) :   2.7503

MP2 TOTAL ENERGY:     -446.367502481 Eh
FINAL SINGLE POINT ENERGY      -446.367502480659

DIPOLE MOMENT
-------------
                                X             Y             Z
Electronic contribution:      0.00000       0.00000       0.00000
Nuclear contribution   :      0.00000       0.00000       0.00000
                        -----------------------------------------
Total Dipole Moment    :      0.00000       0.00000       0.00000
                        -----------------------------------------
Magnitude (a.u.)       :      0.00000
Magnitude (Debye)      :      0.00000

Rotational constants in cm-1:     0.049887     0.048925     0.024701
Rotational constants in MHz :  1495.583025  1466.746245   740.512140

                             ****ORCA TERMINATED NORMALLY****
TOTAL RUN TIME: 0 days 0 hours 0 minutes 53 seconds 520 msec
