                         Program Version 5.0.3 -  RELEASE  -
|  1> !ri-mp2 aug-cc-pvdz aug-cc-pvdz/c tightscf
|  2> %pal nprocs 16 end
|  3>
|  4> * xyz 0 1
|  5> C      0.000000    0.000000    0.000000
|  6> C      0.856146    0.856146    0.856146
|  7> C     -0.856146   -0.856146    0.856146
|  8> C     -0.856146    0.856146   -0.856146
|  9> C      0.856146   -0.856146   -0.856146
| 10> N      1.518318    1.518318    1.518318
| 11> N     -1.518318   -1.518318    1.518318
| 12> N     -1.518318    1.518318   -1.518318
| 13> N      1.518318   -1.518318   -1.518318
| 14> *
| 15>
| 16>                          ****END OF INPUT****

CARTESIAN COORDINATES (ANGSTROEM)
---------------------------------
  C      0.000000    0.000000    0.000000
  C      0.856146    0.856146    0.856146
  C     -0.856146   -0.856146    0.856146
  C     -0.856146    0.856146   -0.856146
  C      0.856146   -0.856146   -0.856146
  N      1.518318    1.518318    1.518318
  N     -1.518318   -1.518318    1.518318
  N     -1.518318    1.518318   -1.518318
  N      1.518318   -1.518318   -1.518318

 Total Charge           Charge          ....    0
 Multiplicity           Mult            ....    1
 Number of Electrons    NEL             ....   58
 Basis Dimension        Dim             ....  207

ORBITAL ENERGIES
----------------

  NO   OCC          E(Eh)            E(eV)
   0   2.0000     -15.670341      -426.4117
   1   2.0000     -15.670341      -426.4117
   2   2.0000     -15.670341      -426.4117
   3   2.0000     -15.670339      -426.4116
   4   2.0000     -11.499729      -312.9235
   5   2.0000     -11.368335      -309.3481
   6   2.0000     -11.368335      -309.3481
   7   2.0000     -11.368335      -309.3481
   8   2.0000     -11.368320      -309.3477
   9   2.0000      -1.341576       -36.5061
  10   2.0000      -1.302560       -35.4445
  11   2.0000      -1.302560       -35.4445
  12   2.0000      -1.302560       -35.4445
  13   2.0000      -1.211474       -32.9659
  14   2.0000      -0.878817       -23.9138
  15   2.0000      -0.878817       -23.9138
  16   2.0000      -0.878817       -23.9138
  17   2.0000      -0.641775       -17.4636
  18   2.0000      -0.636602       -17.3228
  19   2.0000      -0.636602       -17.3228
  20   2.0000      -0.636602       -17.3228
  21   2.0000      -0.577608       -15.7175
  22   2.0000      -0.577608       -15.7175
  23   2.0000      -0.550936       -14.9917
  24   2.0000      -0.550936       -14.9917
  25   2.0000      -0.550936       -14.9917
  26   2.0000      -0.535675       -14.5764
  27   2.0000      -0.535675       -14.5764
  28   2.0000      -0.535675       -14.5764
  29   0.0000       0.032140         0.8746
  30   0.0000       0.061776         1.6810
  31   0.0000       0.061776         1.6810
  32   0.0000       0.061776         1.6810
  33   0.0000       0.075640         2.0583

MULLIKEN ATOMIC CHARGES
-----------------------
   0 C :    1.009690
   1 C :    0.029037
   2 C :    0.029037
   3 C :    0.029037
   4 C :    0.029037
   5 N :   -0.281460
   6 N :   -0.281460
   7 N :   -0.281460
   8 N :   -0.281460
Sum of atomic charges:    0.0000000

LOEWDIN ATOMIC CHARGES
----------------------
   0 C :   -0.414568
   1 C :   -0.061941
   2 C :   -0.061941
   3 C :   -0.061941
   4 C :   -0.061941
   5 N :    0.165583
   6 N :    0.165583
   7 N :    0.165583
   8 N :    0.165583

  Mayer bond orders larger than 0.100000
B(  0-C ,  1-C ) :   0.2511 B(  0-C ,  2-C ) :   0.2511 B(  0-C ,  3-C ) :   0.2511
B(  0-C ,  4-C ) :   0.2511 B(  0-C ,  5-N ) :  -0.1878 B(  0-C ,  6-N ) :  -0.1878
B(  0-C ,  7-N ) :  -0.1878 B(  0-C ,  8-N ) :  -0.1878 B(  1-C ,  2-C ) :   0.1805
B(  1-C ,  3-C ) :   0.1805 B(  1-C ,  4-C ) :   0.1805 B(  1-C ,  5-N ) :   2.7847
B(  2-C ,  3-C ) :   0.1805 B(  2-C ,  4-C ) :   0.1805 B(  2-C ,  6-N ) :   2.7847
B(  3-C ,  4-C ) :   0.1805 B(  3-C ,  7-N ) :   2.7847 B(  4-C ,  8-N ) :   2.7847

MP2 TOTAL ENERGY:     -408.360171827 Eh
FINAL SINGLE POINT ENERGY      -408.360171826601

DIPOLE MOMENT
-------------
                                X             Y             Z
Electronic contribution:      0.00000       0.00000       0.00000
Nuclear contribution   :      0.00000       0.00000       0.00000
                        -----------------------------------------
Total Dipole Moment    :      0.00000       0.00000       0.00000
                        -----------------------------------------
Magnitude (a.u.)       :      0.00000
Magnitude (Debye)      :      0.00000

Rotational constants in cm-1:     0.051278     0.051278     0.051278
Rotational constants in MHz :  1537.263443  1537.263443  1537.263443

                             ****ORCA TERMINATED NORMALLY****
TOTAL RUN TIME: 0 days 0 hours 0 minutes 53 seconds 468 msec
