                         Program Version 5.0.3 -  RELEASE  -
|  1> !ri-mp2 aug-cc-pvdz aug-cc-pvdz/c tightscf
|  2> %pal nprocs 16 end
|  3> %maxcore 3800
|  4>
|  5> * xyz 0 1
|  6> C     -2.401528    0.502518   -0.667526
|  7> C     -2.260633   -1.021826   -0.364232
|  8> C     -1.222072    1.126694    0.106636
|  9> C     -0.997200   -1.082851    0.518924
| 10> C     -1.144453    0.209527    1.343374
| 11> C      0.221275   -0.773296   -0.380965
| 12> C      0.094854    0.782700   -0.624847
| 13> C      1.349485    1.451766    0.000179
| 14> C      1.581769   -0.992045    0.255521
| 15> C      2.270694    0.335229    0.459780
| 16> C      2.775082   -0.620972   -0.585328
| 17> H     -3.352715    0.889677   -0.300403
| 18> H     -2.352143    0.725742   -1.733924
| 19> H     -2.158654   -1.624292   -1.267296
| 20> H     -3.129856   -1.394619    0.178895
| 21> H     -1.339901    2.191878    0.303109
| 22> H     -0.899022   -2.008675    1.084603
| 23> H     -0.291880    0.414655    1.989396
| 24> H     -2.051980    0.229391    1.948912
| 25> H      0.145237   -1.338197   -1.312928
| 26> H      0.018474    1.024497   -1.684640
| 27> H      1.840307    2.119123   -0.711691
| 28> H      1.063396    2.066804    0.856481
| 29> H      1.694152   -1.794885    0.972678
| 30> H      2.893858    0.506385    1.327317
| 31> H      2.609293   -0.379963   -1.628590
| 32> H      3.707801   -1.132180   -0.391015
| 33> *
| 34>
| 35>                          ****END OF INPUT****

CARTESIAN COORDINATES (ANGSTROEM)
---------------------------------
  C     -2.401528    0.502518   -0.667526
  C     -2.260633   -1.021826   -0.364232
  C     -1.222072    1.126694    0.106636
  C     -0.997200   -1.082851    0.518924
  C     -1.144453    0.209527    1.343374
  C      0.221275   -0.773296   -0.380965
  C      0.094854    0.782700   -0.624847
  C      1.349485    1.451766    0.000179
  C      1.581769   -0.992045    0.255521
  C      2.270694    0.335229    0.459780
  C      2.775082   -0.620972   -0.585328
  H     -3.352715    0.889677   -0.300403
  H     -2.352143    0.725742   -1.733924
  H     -2.158654   -1.624292   -1.267296
  H     -3.129856   -1.394619    0.178895
  H     -1.339901    2.191878    0.303109
  H     -0.899022   -2.008675    1.084603
  H     -0.291880    0.414655    1.989396
  H     -2.051980    0.229391    1.948912
  H      0.145237   -1.338197   -1.312928
  H      0.018474    1.024497   -1.684640
  H      1.840307    2.119123   -0.711691
  H      1.063396    2.066804    0.856481
  H      1.694152   -1.794885    0.972678
  H      2.893858    0.506385    1.327317
  H      2.609293   -0.379963   -1.628590
  H      3.707801   -1.132180   -0.391015

 Total Charge           Charge          ....    0
 Multiplicity           Mult            ....    1
 Number of Electrons    NEL             ....   82
 Basis Dimension        Dim             ....  397

ORBITAL ENERGIES
----------------

  NO   OCC          E(Eh)            E(eV)
   0   2.0000     -11.224697      -305.4395
   1   2.0000     -11.222750      -305.3865
   2   2.0000     -11.221867      -305.3625
   3   2.0000     -11.221381      -305.3493
   4   2.0000     -11.221083      -305.3412
   5   2.0000     -11.220596      -305.3279
   6   2.0000     -11.220307      -305.3201
   7   2.0000     -11.218265      -305.2645
   8   2.0000     -11.216775      -305.2240
   9   2.0000     -11.216227      -305.2090
  10   2.0000     -11.213576      -305.1369
  11   2.0000      -1.184677       -32.2367
  12   2.0000      -1.136257       -30.9191
  13   2.0000      -1.014305       -27.6007
  14   2.0000      -0.986926       -26.8556
  15   2.0000      -0.946193       -25.7472
  16   2.0000      -0.928379       -25.2625
  17   2.0000      -0.831018       -22.6131
  18   2.0000      -0.774240       -21.0682
  19   2.0000      -0.770444       -20.9649
  20   2.0000      -0.743586       -20.2340
  21   2.0000      -0.718055       -19.5393
  22   2.0000      -0.669090       -18.2069
  23   2.0000      -0.662917       -18.0389
  24   2.0000      -0.642292       -17.4777
  25   2.0000      -0.612072       -16.6553
  26   2.0000      -0.578564       -15.7435
  27   2.0000      -0.558252       -15.1908
  28   2.0000      -0.541501       -14.7350
  29   2.0000      -0.516298       -14.0492
  30   2.0000      -0.493155       -13.4194
  31   2.0000      -0.488256       -13.2861
  32   2.0000      -0.481575       -13.1043
  33   2.0000      -0.480474       -13.0744
  34   2.0000      -0.467594       -12.7239
  35   2.0000      -0.449819       -12.2402
  36   2.0000      -0.430248       -11.7076
  37   2.0000      -0.427939       -11.6448
  38   2.0000      -0.420628       -11.4459
  39   2.0000      -0.390170       -10.6171
  40   2.0000      -0.380447       -10.3525
  41   0.0000       0.034969         0.9516
  42   0.0000       0.040336         1.0976
  43   0.0000       0.041273         1.1231
  44   0.0000       0.042498         1.1564
  45   0.0000       0.054300         1.4776

MULLIKEN ATOMIC CHARGES
-----------------------
   0 C :    0.591220
   1 C :    0.746050
   2 C :    0.245784
   3 C :    0.167236
   4 C :    1.014609
   5 C :    0.082180
   6 C :   -0.151957
   7 C :    0.646353
   8 C :    0.685935
   9 C :    0.432609
  10 C :    1.112847
  11 H :   -0.184552
  12 H :   -0.234820
  13 H :   -0.227783
  14 H :   -0.212277
  15 H :   -0.467860
  16 H :   -0.480001
  17 H :   -0.205270
  18 H :   -0.300532
  19 H :   -0.467578
  20 H :   -0.442063
  21 H :   -0.144569
  22 H :   -0.257310
  23 H :   -0.622103
  24 H :   -0.472846
  25 H :   -0.410444
  26 H :   -0.442863
Sum of atomic charges:    0.0000000

LOEWDIN ATOMIC CHARGES
----------------------
   0 C :    0.043480
   1 C :    0.040522
   2 C :   -0.144842
   3 C :   -0.133934
   4 C :    0.058624
   5 C :   -0.082790
   6 C :   -0.077141
   7 C :    0.055599
   8 C :   -0.082269
   9 C :   -0.109154
  10 C :    0.100283
  11 H :    0.010751
  12 H :    0.010419
  13 H :    0.009535
  14 H :    0.010805
  15 H :    0.039210
  16 H :    0.038891
  17 H :    0.018544
  18 H :    0.022659
  19 H :    0.040429
  20 H :    0.035660
  21 H :    0.015499
  22 H :    0.012634
  23 H :    0.030979
  24 H :    0.026448
  25 H :    0.008847
  26 H :    0.000312

  Mayer bond orders larger than 0.100000
B(  0-C ,  1-C ) :   1.3545 B(  0-C ,  2-C ) :   1.0293 B(  0-C , 11-H ) :   0.6861
B(  0-C , 12-H ) :   0.5934 B(  0-C , 13-H ) :   0.1459 B(  0-C , 15-H ) :   0.1376
B(  1-C ,  3-C ) :   1.0486 B(  1-C ,  4-C ) :  -0.1330 B(  1-C , 12-H ) :   0.1200
B(  1-C , 13-H ) :   0.5666 B(  1-C , 14-H ) :   0.6728 B(  2-C ,  4-C ) :   1.0190
B(  2-C ,  6-C ) :   0.9086 B(  2-C , 11-H ) :   0.1266 B(  2-C , 19-H ) :  -0.1057
B(  2-C , 20-H ) :   0.1040 B(  2-C , 22-H ) :  -0.1183 B(  3-C ,  4-C ) :   1.0063
B(  3-C ,  5-C ) :   1.0073 B(  3-C , 14-H ) :   0.1615 B(  3-C , 19-H ) :   0.1825
B(  4-C , 17-H ) :   0.5501 B(  4-C , 18-H ) :   0.6397 B(  5-C ,  6-C ) :   0.9301
B(  5-C ,  7-C ) :  -0.1177 B(  5-C ,  8-C ) :   0.9351 B(  5-C , 15-H ) :   0.1024
B(  5-C , 16-H ) :   0.1882 B(  5-C , 19-H ) :  -0.1173 B(  5-C , 20-H ) :   0.1593
B(  5-C , 23-H ) :   0.2975 B(  6-C ,  7-C ) :   1.1200 B(  6-C , 10-C ) :   0.1805
B(  6-C , 15-H ) :   0.1454 B(  6-C , 17-H ) :   0.2029 B(  6-C , 19-H ) :   0.2955
B(  6-C , 20-H ) :   0.1827 B(  6-C , 21-H ) :   0.1811 B(  6-C , 22-H ) :   0.2202
B(  7-C ,  9-C ) :   1.2483 B(  7-C , 20-H ) :   0.1284 B(  7-C , 21-H ) :   0.6796
B(  7-C , 22-H ) :   0.5977 B(  8-C ,  9-C ) :   0.9255 B(  8-C , 10-C ) :   0.9823
B(  8-C , 19-H ) :   0.1187 B(  8-C , 26-H ) :   0.1832 B(  9-C , 10-C ) :   1.1219
B(  9-C , 22-H ) :   0.1111 B(  9-C , 24-H ) :   0.3418 B( 10-C , 24-H ) :   0.1259
B( 10-C , 25-H ) :   0.4961 B( 10-C , 26-H ) :   0.4865 B( 11-H , 12-H ) :  -0.2369
B( 13-H , 14-H ) :  -0.2435 B( 17-H , 18-H ) :  -0.3057 B( 21-H , 22-H ) :  -0.1950
B( 25-H , 26-H ) :  -0.2007

MP2 TOTAL ENERGY:     -427.462930811 Eh
FINAL SINGLE POINT ENERGY      -427.462930811098

DIPOLE MOMENT
-------------
                                X             Y             Z
Electronic contribution:      1.62407      -0.50441       0.44524
Nuclear contribution   :     -1.66586       0.51456      -0.38342
                        -----------------------------------------
Total Dipole Moment    :     -0.04180       0.01015       0.06182
                        -----------------------------------------
Magnitude (a.u.)       :      0.07531
Magnitude (Debye)      :      0.19144

Rotational constants in cm-1:     0.081854     0.031837     0.028419
Rotational constants in MHz :  2453.931483   954.450739   851.989861

                             ****ORCA TERMINATED NORMALLY****
TOTAL RUN TIME: 0 days 0 hours 3 minutes 33 seconds 97 msec
