                         Program Version 5.0.3 -  RELEASE  -
|  1> !ri-mp2 aug-cc-pvdz aug-cc-pvdz/c tightscf
|  2> %pal nprocs 16 end
|  3>
|  4> * xyz 0 1
|  5> C      0.000000    1.212629    0.508884
|  6> C      1.216393    1.420165   -0.356202
|  7> C      0.000000    0.000000    1.437632
|  8> C     -0.001233    0.749275   -0.932390
|  9> C      0.001233   -0.749275   -0.932390
| 10> C     -1.216393   -1.420165   -0.356202
| 11> H     -0.565029    2.087185    0.799175
| 12> H      2.090716    0.811351   -0.162580
| 13> H      1.434669    2.428532   -0.679316
| 14> H     -0.877843    0.008372    2.088558
| 15> H      0.877843   -0.008372    2.088558
| 16> H     -0.578811    1.277641   -1.680483
| 17> H      0.578811   -1.277641   -1.680483
| 18> H     -1.434669   -2.428532   -0.679316
| 19> H     -2.090716   -0.811351   -0.162580
| 20> C      0.000000   -1.212629    0.508884
| 21> H      0.565029   -2.087185    0.799175
| 22> *
| 23>
| 24>                          ****END OF INPUT****

CARTESIAN COORDINATES (ANGSTROEM)
---------------------------------
  C      0.000000    1.212629    0.508884
  C      1.216393    1.420165   -0.356202
  C      0.000000    0.000000    1.437632
  C     -0.001233    0.749275   -0.932390
  C      0.001233   -0.749275   -0.932390
  C     -1.216393   -1.420165   -0.356202
  H     -0.565029    2.087185    0.799175
  H      2.090716    0.811351   -0.162580
  H      1.434669    2.428532   -0.679316
  H     -0.877843    0.008372    2.088558
  H      0.877843   -0.008372    2.088558
  H     -0.578811    1.277641   -1.680483
  H      0.578811   -1.277641   -1.680483
  H     -1.434669   -2.428532   -0.679316
  H     -2.090716   -0.811351   -0.162580
  C      0.000000   -1.212629    0.508884
  H      0.565029   -2.087185    0.799175

 Total Charge           Charge          ....    0
 Multiplicity           Mult            ....    1
 Number of Electrons    NEL             ....   52
 Basis Dimension        Dim             ....  251

ORBITAL ENERGIES
----------------

  NO   OCC          E(Eh)            E(eV)
   0   2.0000     -11.229699      -305.5756
   1   2.0000     -11.229233      -305.5630
   2   2.0000     -11.228756      -305.5500
   3   2.0000     -11.228516      -305.5435
   4   2.0000     -11.225655      -305.4656
   5   2.0000     -11.223407      -305.4044
   6   2.0000     -11.223402      -305.4043
   7   2.0000      -1.194336       -32.4995
   8   2.0000      -1.098293       -29.8861
   9   2.0000      -0.974498       -26.5175
  10   2.0000      -0.853622       -23.2282
  11   2.0000      -0.817093       -22.2342
  12   2.0000      -0.753395       -20.5009
  13   2.0000      -0.747266       -20.3341
  14   2.0000      -0.686968       -18.6933
  15   2.0000      -0.648890       -17.6572
  16   2.0000      -0.588511       -16.0142
  17   2.0000      -0.565873       -15.3982
  18   2.0000      -0.556562       -15.1448
  19   2.0000      -0.525560       -14.3012
  20   2.0000      -0.494675       -13.4608
  21   2.0000      -0.470496       -12.8029
  22   2.0000      -0.446176       -12.1411
  23   2.0000      -0.418217       -11.3803
  24   2.0000      -0.375018       -10.2048
  25   2.0000      -0.373688       -10.1686
  26   0.0000       0.036411         0.9908
  27   0.0000       0.041901         1.1402
  28   0.0000       0.045237         1.2310
  29   0.0000       0.045878         1.2484
  30   0.0000       0.061552         1.6749

MULLIKEN ATOMIC CHARGES
-----------------------
   0 C :    0.381934
   1 C :    0.781205
   2 C :    0.377513
   3 C :    0.465818
   4 C :    0.465818
   5 C :    0.781205
   6 H :   -0.413697
   7 H :   -0.364492
   8 H :   -0.421258
   9 H :   -0.166979
  10 H :   -0.166979
  11 H :   -0.451288
  12 H :   -0.451288
  13 H :   -0.421258
  14 H :   -0.364492
  15 C :    0.381934
  16 H :   -0.413697
Sum of atomic charges:   -0.0000000

LOEWDIN ATOMIC CHARGES
----------------------
   0 C :   -0.099424
   1 C :    0.099500
   2 C :    0.043748
   3 C :   -0.097411
   4 C :   -0.097411
   5 C :    0.099500
   6 H :    0.024073
   7 H :    0.008309
   8 H :   -0.000602
   9 H :    0.014272
  10 H :    0.014272
  11 H :    0.029409
  12 H :    0.029409
  13 H :   -0.000602
  14 H :    0.008309
  15 C :   -0.099424
  16 H :    0.024073

  Mayer bond orders larger than 0.100000
B(  0-C ,  1-C ) :   1.0083 B(  0-C ,  2-C ) :   1.1917 B(  0-C ,  3-C ) :   0.9291
B(  0-C ,  6-H ) :   0.5023 B(  0-C , 11-H ) :   0.1332 B(  1-C ,  3-C ) :   0.9661
B(  1-C ,  5-C ) :   0.1772 B(  1-C ,  7-H ) :   0.7745 B(  1-C ,  8-H ) :   0.6676
B(  2-C ,  9-H ) :   0.7117 B(  2-C , 10-H ) :   0.7117 B(  2-C , 15-C ) :   1.1917
B(  3-C ,  4-C ) :   1.2804 B(  3-C , 11-H ) :   0.3221 B(  4-C ,  5-C ) :   0.9661
B(  4-C , 12-H ) :   0.3221 B(  4-C , 15-C ) :   0.9291 B(  5-C , 13-H ) :   0.6676
B(  5-C , 14-H ) :   0.7745 B(  5-C , 15-C ) :   1.0083 B(  7-H ,  8-H ) :  -0.1820
B(  9-H , 10-H ) :  -0.1642 B( 12-H , 15-C ) :   0.1332 B( 13-H , 14-H ) :  -0.1820
B( 15-C , 16-H ) :   0.5023

MP2 TOTAL ENERGY:     -271.858219262 Eh
FINAL SINGLE POINT ENERGY      -271.858219261550

DIPOLE MOMENT
-------------
                                X             Y             Z
Electronic contribution:     -0.00000       0.00000      -0.73996
Nuclear contribution   :     -0.00000      -0.00000       0.75789
                        -----------------------------------------
Total Dipole Moment    :     -0.00000       0.00000       0.01793
                        -----------------------------------------
Magnitude (a.u.)       :      0.01793
Magnitude (Debye)      :      0.04556

Rotational constants in cm-1:     0.170432     0.096924     0.077161
Rotational constants in MHz :  5109.421058  2905.699900  2313.224541

                             ****ORCA TERMINATED NORMALLY****
TOTAL RUN TIME: 0 days 0 hours 0 minutes 57 seconds 41 msec
