                         Program Version 5.0.3 -  RELEASE  -
|  1> !ri-mp2 aug-cc-pvdz aug-cc-pvdz/c tightscf
|  2> %pal nprocs 16 end
|  3>
|  4> * xyz 0 1
|  5> S     -1.849048   -0.498034   -0.251110
|  6> S      2.347895   -0.118777   -0.102268
|  7> N      0.029899    1.184602    0.018376
|  8> N     -1.384596    1.156257    0.116381
|  9> C      0.716388    0.030291    0.085786
| 10> C     -0.237505   -1.118129    0.367886
| 11> H      0.445368    2.022351   -0.358482
| 12> H     -1.620549    1.333484    1.090140
| 13> H      0.061019   -2.005332   -0.179311
| 14> H     -0.257812   -1.340511    1.436386
| 15> *
| 16>
| 17>                          ****END OF INPUT****

CARTESIAN COORDINATES (ANGSTROEM)
---------------------------------
  S     -1.849048   -0.498034   -0.251110
  S      2.347895   -0.118777   -0.102268
  N      0.029899    1.184602    0.018376
  N     -1.384596    1.156257    0.116381
  C      0.716388    0.030291    0.085786
  C     -0.237505   -1.118129    0.367886
  H      0.445368    2.022351   -0.358482
  H     -1.620549    1.333484    1.090140
  H      0.061019   -2.005332   -0.179311
  H     -0.257812   -1.340511    1.436386

 Total Charge           Charge          ....    0
 Multiplicity           Mult            ....    1
 Number of Electrons    NEL             ....   62
 Basis Dimension        Dim             ....  182

ORBITAL ENERGIES
----------------

  NO   OCC          E(Eh)            E(eV)
   0   2.0000     -92.012203     -2503.7793
   1   2.0000     -91.918358     -2501.2257
   2   2.0000     -15.661425      -426.1690
   3   2.0000     -15.660048      -426.1316
   4   2.0000     -11.375859      -309.5529
   5   2.0000     -11.305290      -307.6326
   6   2.0000      -9.010726      -245.1943
   7   2.0000      -8.921639      -242.7701
   8   2.0000      -6.692503      -182.1123
   9   2.0000      -6.690998      -182.0713
  10   2.0000      -6.688456      -182.0022
  11   2.0000      -6.604001      -179.7040
  12   2.0000      -6.601263      -179.6295
  13   2.0000      -6.600059      -179.5967
  14   2.0000      -1.377747       -37.4904
  15   2.0000      -1.158697       -31.5298
  16   2.0000      -1.095012       -29.7968
  17   2.0000      -0.964926       -26.2570
  18   2.0000      -0.884888       -24.0790
  19   2.0000      -0.833425       -22.6787
  20   2.0000      -0.737766       -20.0756
  21   2.0000      -0.669674       -18.2228
  22   2.0000      -0.635490       -17.2926
  23   2.0000      -0.616575       -16.7779
  24   2.0000      -0.556933       -15.1549
  25   2.0000      -0.522333       -14.2134
  26   2.0000      -0.502441       -13.6721
  27   2.0000      -0.465246       -12.6600
  28   2.0000      -0.379490       -10.3264
  29   2.0000      -0.345500        -9.4015
  30   2.0000      -0.335773        -9.1369
  31   0.0000       0.029152         0.7933
  32   0.0000       0.043378         1.1804
  33   0.0000       0.046665         1.2698
  34   0.0000       0.059664         1.6235
  35   0.0000       0.075462         2.0534

MULLIKEN ATOMIC CHARGES
-----------------------
   0 S :    0.733851
   1 S :   -0.061551
   2 N :   -0.429489
   3 N :   -0.553360
   4 C :    0.324880
   5 C :   -0.273476
   6 H :   -0.005073
   7 H :    0.166783
   8 H :    0.058090
   9 H :    0.039346
Sum of atomic charges:   -0.0000000

LOEWDIN ATOMIC CHARGES
----------------------
   0 S :    0.853171
   1 S :    0.534142
   2 N :   -0.054168
   3 N :   -0.195622
   4 C :   -0.763671
   5 C :   -0.266217
   6 H :    0.015396
   7 H :   -0.074818
   8 H :   -0.027961
   9 H :   -0.020252

  Mayer bond orders larger than 0.100000
B(  0-S ,  3-N ) :   0.7084 B(  0-S ,  5-C ) :   1.0543 B(  1-S ,  4-C ) :   1.6941
B(  2-N ,  3-N ) :   1.1642 B(  2-N ,  4-C ) :   0.9886 B(  2-N ,  6-H ) :   1.1353
B(  3-N ,  4-C ) :  -0.2071 B(  3-N ,  5-C ) :   0.1522 B(  3-N ,  6-H ) :  -0.1164
B(  3-N ,  7-H ) :   1.0106 B(  4-C ,  5-C ) :   1.1598 B(  5-C ,  8-H ) :   0.9154
B(  5-C ,  9-H ) :   0.9476

MP2 TOTAL ENERGY:     -982.898759762 Eh
FINAL SINGLE POINT ENERGY      -982.898759761959

DIPOLE MOMENT
-------------
                                X             Y             Z
Electronic contribution:      0.22504       0.14759      -1.30209
Nuclear contribution   :     -1.35181       0.04143       1.93805
                        -----------------------------------------
Total Dipole Moment    :     -1.12678       0.18902       0.63597
                        -----------------------------------------
Magnitude (a.u.)       :      1.30760
Magnitude (Debye)      :      3.32365

Rotational constants in cm-1:     0.207494     0.050988     0.042508
Rotational constants in MHz :  6220.510514  1528.572068  1274.353898

                             ****ORCA TERMINATED NORMALLY****
TOTAL RUN TIME: 0 days 0 hours 0 minutes 46 seconds 385 msec
