                         Program Version 5.0.3 -  RELEASE  -
|  1> !ri-mp2 aug-cc-pvdz aug-cc-pvdz/c tightscf
|  2> %pal nprocs 16 end
|  3> %maxcore 3800
|  4>
|  5> * xyz 0 1
|  6> C     -4.806157    0.164946   -0.005623
|  7> C     -6.062810   -0.680870    0.015204
|  8> C      6.725592   -0.280291   -0.006395
|  9> C     -3.487345   -0.589442   -0.010665
| 10> C      5.426775    0.524067    0.007880
| 11> C     -2.245230    0.293358    0.007034
| 12> C      4.172804   -0.350971   -0.004536
| 13> C     -0.944153   -0.509724   -0.005659
| 14> C      2.867501    0.444990    0.008804
| 15> C      0.309146    0.366142    0.008951
| 16> C      1.614054   -0.430731   -0.003842
| 17> O     -4.857865    1.374419   -0.015761
| 18> H     -6.066233   -1.383636   -0.820306
| 19> H     -6.941478   -0.043492   -0.036220
| 20> H     -6.097895   -1.276478    0.930151
| 21> H      6.792162   -0.936999    0.863557
| 22> H      6.790716   -0.908018   -0.897593
| 23> H      7.599872    0.372101    0.003614
| 24> H     -3.487195   -1.243242   -0.890607
| 25> H     -3.492921   -1.273880    0.845326
| 26> H      5.404779    1.195795   -0.855539
| 27> H      5.406736    1.168164    0.892173
| 28> H     -2.273858    0.968070   -0.851145
| 29> H     -2.275701    0.936898    0.889030
| 30> H      4.193680   -0.996496   -0.889181
| 31> H      4.195186   -1.023399    0.859786
| 32> H     -0.922432   -1.183317    0.857933
| 33> H     -0.922105   -1.154301   -0.891131
| 34> H      2.847599    1.090299    0.893334
| 35> H      2.846263    1.117212   -0.855399
| 36> H      0.287614    1.010598    0.893780
| 37> H      0.287855    1.038888   -0.854540
| 38> H      1.635068   -1.102846    0.860594
| 39> H      1.634146   -1.076122   -0.888446
| 40> *
| 41>
| 42>                          ****END OF INPUT****

CARTESIAN COORDINATES (ANGSTROEM)
---------------------------------
  C     -4.806157    0.164946   -0.005623
  C     -6.062810   -0.680870    0.015204
  C      6.725592   -0.280291   -0.006395
  C     -3.487345   -0.589442   -0.010665
  C      5.426775    0.524067    0.007880
  C     -2.245230    0.293358    0.007034
  C      4.172804   -0.350971   -0.004536
  C     -0.944153   -0.509724   -0.005659
  C      2.867501    0.444990    0.008804
  C      0.309146    0.366142    0.008951
  C      1.614054   -0.430731   -0.003842
  O     -4.857865    1.374419   -0.015761
  H     -6.066233   -1.383636   -0.820306
  H     -6.941478   -0.043492   -0.036220
  H     -6.097895   -1.276478    0.930151
  H      6.792162   -0.936999    0.863557
  H      6.790716   -0.908018   -0.897593
  H      7.599872    0.372101    0.003614
  H     -3.487195   -1.243242   -0.890607
  H     -3.492921   -1.273880    0.845326
  H      5.404779    1.195795   -0.855539
  H      5.406736    1.168164    0.892173
  H     -2.273858    0.968070   -0.851145
  H     -2.275701    0.936898    0.889030
  H      4.193680   -0.996496   -0.889181
  H      4.195186   -1.023399    0.859786
  H     -0.922432   -1.183317    0.857933
  H     -0.922105   -1.154301   -0.891131
  H      2.847599    1.090299    0.893334
  H      2.846263    1.117212   -0.855399
  H      0.287614    1.010598    0.893780
  H      0.287855    1.038888   -0.854540
  H      1.635068   -1.102846    0.860594
  H      1.634146   -1.076122   -0.888446

 Total Charge           Charge          ....    0
 Multiplicity           Mult            ....    1
 Number of Electrons    NEL             ....   96
 Basis Dimension        Dim             ....  474

ORBITAL ENERGIES
----------------

  NO   OCC          E(Eh)            E(eV)
   0   2.0000     -20.553180      -559.2805
   1   2.0000     -11.335468      -308.4538
   2   2.0000     -11.241263      -305.8903
   3   2.0000     -11.239549      -305.8437
   4   2.0000     -11.224287      -305.4284
   5   2.0000     -11.223685      -305.4120
   6   2.0000     -11.220598      -305.3280
   7   2.0000     -11.220364      -305.3216
   8   2.0000     -11.219672      -305.3028
   9   2.0000     -11.218835      -305.2800
  10   2.0000     -11.218238      -305.2638
  11   2.0000     -11.215958      -305.2017
  12   2.0000      -1.389967       -37.8229
  13   2.0000      -1.098724       -29.8978
  14   2.0000      -1.078996       -29.3610
  15   2.0000      -1.047397       -28.5011
  16   2.0000      -1.015399       -27.6304
  17   2.0000      -0.980106       -26.6701
  18   2.0000      -0.926019       -25.1983
  19   2.0000      -0.863787       -23.5048
  20   2.0000      -0.810108       -22.0442
  21   2.0000      -0.788731       -21.4625
  22   2.0000      -0.785009       -21.3612
  23   2.0000      -0.732911       -19.9435
  24   2.0000      -0.662403       -18.0249
  25   2.0000      -0.650278       -17.6950
  26   2.0000      -0.645819       -17.5736
  27   2.0000      -0.624499       -16.9935
  28   2.0000      -0.620123       -16.8744
  29   2.0000      -0.592419       -16.1205
  30   2.0000      -0.588764       -16.0211
  31   2.0000      -0.573285       -15.5999
  32   2.0000      -0.564025       -15.3479
  33   2.0000      -0.557564       -15.1721
  34   2.0000      -0.546558       -14.8726
  35   2.0000      -0.528849       -14.3907
  36   2.0000      -0.522710       -14.2237
  37   2.0000      -0.496232       -13.5032
  38   2.0000      -0.493178       -13.4201
  39   2.0000      -0.489136       -13.3101
  40   2.0000      -0.483941       -13.1687
  41   2.0000      -0.469507       -12.7759
  42   2.0000      -0.467503       -12.7214
  43   2.0000      -0.460094       -12.5198
  44   2.0000      -0.457221       -12.4416
  45   2.0000      -0.456322       -12.4172
  46   2.0000      -0.434598       -11.8260
  47   2.0000      -0.403927       -10.9914
  48   0.0000       0.030661         0.8343
  49   0.0000       0.036383         0.9900
  50   0.0000       0.042460         1.1554
  51   0.0000       0.042748         1.1632
  52   0.0000       0.045601         1.2409

MULLIKEN ATOMIC CHARGES
-----------------------
   0 C :    0.286765
   1 C :    0.480203
   2 C :    0.602367
   3 C :    0.140993
   4 C :    0.551708
   5 C :    0.525874
   6 C :    0.300662
   7 C :    0.558727
   8 C :    0.354856
   9 C :    0.301837
  10 C :    0.409197
  11 O :   -0.816957
  12 H :    0.028635
  13 H :   -0.080244
  14 H :    0.040178
  15 H :   -0.095543
  16 H :   -0.096028
  17 H :   -0.077501
  18 H :   -0.063336
  19 H :   -0.073924
  20 H :   -0.193593
  21 H :   -0.193710
  22 H :   -0.214475
  23 H :   -0.219980
  24 H :   -0.228161
  25 H :   -0.229426
  26 H :   -0.259824
  27 H :   -0.254979
  28 H :   -0.244721
  29 H :   -0.243490
  30 H :   -0.245871
  31 H :   -0.248079
  32 H :   -0.249570
  33 H :   -0.252590
Sum of atomic charges:    0.0000000

LOEWDIN ATOMIC CHARGES
----------------------
   0 C :   -0.301781
   1 C :    0.195320
   2 C :    0.129674
   3 C :    0.010632
   4 C :   -0.073167
   5 C :   -0.024635
   6 C :   -0.042530
   7 C :   -0.032654
   8 C :   -0.034693
   9 C :   -0.031391
  10 C :   -0.033731
  11 O :    0.046872
  12 H :   -0.009941
  13 H :   -0.009690
  14 H :   -0.008632
  15 H :   -0.020572
  16 H :   -0.020564
  17 H :   -0.022409
  18 H :    0.025473
  19 H :    0.025241
  20 H :    0.010731
  21 H :    0.010744
  22 H :    0.021528
  23 H :    0.021949
  24 H :    0.015938
  25 H :    0.015927
  26 H :    0.016256
  27 H :    0.016267
  28 H :    0.016996
  29 H :    0.016979
  30 H :    0.018240
  31 H :    0.018239
  32 H :    0.016691
  33 H :    0.016695

  Mayer bond orders larger than 0.100000
B(  0-C ,  1-C ) :   1.0341 B(  0-C ,  3-C ) :   1.1465 B(  0-C ,  5-C ) :  -0.1451
B(  0-C , 11-O ) :   1.3431 B(  0-C , 13-H ) :   0.1239 B(  1-C , 12-H ) :   0.9269
B(  1-C , 13-H ) :   0.8370 B(  1-C , 14-H ) :   0.9187 B(  2-C ,  4-C ) :   1.1914
B(  2-C , 15-H ) :   0.8990 B(  2-C , 16-H ) :   0.8990 B(  2-C , 17-H ) :   0.9151
B(  3-C ,  5-C ) :   1.2828 B(  3-C ,  7-C ) :  -0.1841 B(  3-C ,  9-C ) :  -0.1049
B(  3-C , 18-H ) :   0.8721 B(  3-C , 19-H ) :   0.8486 B(  4-C ,  6-C ) :   1.2716
B(  4-C ,  8-C ) :  -0.1803 B(  4-C , 10-C ) :  -0.1216 B(  4-C , 20-H ) :   0.6899
B(  4-C , 21-H ) :   0.6895 B(  5-C ,  6-C ) :   0.1070 B(  5-C ,  7-C ) :   1.4304
B(  5-C ,  9-C ) :  -0.2065 B(  5-C , 10-C ) :  -0.1458 B(  5-C , 22-H ) :   0.7130
B(  5-C , 23-H ) :   0.7156 B(  6-C ,  8-C ) :   1.3444 B(  6-C ,  9-C ) :  -0.1213
B(  6-C , 10-C ) :  -0.1574 B(  6-C , 24-H ) :   0.6931 B(  6-C , 25-H ) :   0.6928
B(  7-C ,  8-C ) :  -0.1437 B(  7-C ,  9-C ) :   1.5054 B(  7-C , 10-C ) :  -0.1968
B(  7-C , 26-H ) :   0.6326 B(  7-C , 27-H ) :   0.6448 B(  8-C ,  9-C ) :  -0.1838
B(  8-C , 10-C ) :   1.5454 B(  8-C , 28-H ) :   0.6923 B(  8-C , 29-H ) :   0.6943
B(  9-C , 10-C ) :   1.5301 B(  9-C , 30-H ) :   0.6283 B(  9-C , 31-H ) :   0.6312
B( 10-C , 32-H ) :   0.6484 B( 10-C , 33-H ) :   0.6486

MP2 TOTAL ENERGY:     -506.116414518 Eh
FINAL SINGLE POINT ENERGY      -506.116414518262

DIPOLE MOMENT
-------------
                                X             Y             Z
Electronic contribution:    -18.25308       3.74771      -0.04976
Nuclear contribution   :     18.38489      -4.95747       0.06238
                        -----------------------------------------
Total Dipole Moment    :      0.13181      -1.20976       0.01262
                        -----------------------------------------
Magnitude (a.u.)       :      1.21699
Magnitude (Debye)      :      3.09334

Rotational constants in cm-1:     0.174532     0.005634     0.005513
Rotational constants in MHz :  5232.326483   168.891456   165.260913

                             ****ORCA TERMINATED NORMALLY****
TOTAL RUN TIME: 0 days 0 hours 3 minutes 58 seconds 605 msec
