                         Program Version 5.0.3 -  RELEASE  -
|  1> !ri-mp2 aug-cc-pvdz aug-cc-pvdz/c tightscf
|  2> %pal nprocs 16 end
|  3>
|  4> * xyz 0 1
|  5> C     -1.137324    0.318072        0.000000
|  6> O     -2.279401    1.022074        0.000000
|  7> C     -1.190713   -1.078014        0.000000
|  8> C      0.031924   -1.715471        0.000000
|  9> N      1.199468   -1.061094        0.000000
| 10> C      1.110451    0.264069        0.000000
| 11> O      2.256714    0.960746        0.000000
| 12> N      0.000000    0.995036        0.000000
| 13> H     -2.038605    1.959714        0.000000
| 14> H     -2.128722   -1.608922        0.000000
| 15> H      0.091249   -2.797105        0.000000
| 16> H      2.975267    0.314212        0.000000
| 17> *
| 18>
| 19>                          ****END OF INPUT****

CARTESIAN COORDINATES (ANGSTROEM)
---------------------------------
  C     -1.137324    0.318072    0.000000
  O     -2.279401    1.022074    0.000000
  C     -1.190713   -1.078014    0.000000
  C      0.031924   -1.715471    0.000000
  N      1.199468   -1.061094    0.000000
  C      1.110451    0.264069    0.000000
  O      2.256714    0.960746    0.000000
  N      0.000000    0.995036    0.000000
  H     -2.038605    1.959714    0.000000
  H     -2.128722   -1.608922    0.000000
  H      0.091249   -2.797105    0.000000
  H      2.975267    0.314212    0.000000

 Total Charge           Charge          ....    0
 Multiplicity           Mult            ....    1
 Number of Electrons    NEL             ....   58
 Basis Dimension        Dim             ....  220

ORBITAL ENERGIES
----------------

  NO   OCC          E(Eh)            E(eV)
   0   2.0000     -20.627749      -561.3096
   1   2.0000     -20.618316      -561.0529
   2   2.0000     -15.579981      -423.9528
   3   2.0000     -15.576082      -423.8467
   4   2.0000     -11.395530      -310.0881
   5   2.0000     -11.379607      -309.6549
   6   2.0000     -11.315587      -307.9128
   7   2.0000     -11.245708      -306.0113
   8   2.0000      -1.460023       -39.7292
   9   2.0000      -1.447724       -39.3946
  10   2.0000      -1.304000       -35.4837
  11   2.0000      -1.209214       -32.9044
  12   2.0000      -1.072358       -29.1803
  13   2.0000      -0.914359       -24.8810
  14   2.0000      -0.901156       -24.5217
  15   2.0000      -0.801968       -21.8227
  16   2.0000      -0.750300       -20.4167
  17   2.0000      -0.709885       -19.3170
  18   2.0000      -0.663523       -18.0554
  19   2.0000      -0.654924       -17.8214
  20   2.0000      -0.639460       -17.4006
  21   2.0000      -0.605648       -16.4805
  22   2.0000      -0.596114       -16.2211
  23   2.0000      -0.582741       -15.8572
  24   2.0000      -0.514930       -14.0120
  25   2.0000      -0.501372       -13.6430
  26   2.0000      -0.431542       -11.7429
  27   2.0000      -0.424752       -11.5581
  28   2.0000      -0.358130        -9.7452
  29   0.0000       0.032557         0.8859
  30   0.0000       0.042407         1.1539
  31   0.0000       0.043920         1.1951
  32   0.0000       0.057120         1.5543
  33   0.0000       0.085824         2.3354

MULLIKEN ATOMIC CHARGES
-----------------------
   0 C :    0.728999
   1 O :   -0.780817
   2 C :    0.951654
   3 C :    0.524971
   4 N :   -0.685077
   5 C :    0.981186
   6 O :   -0.697800
   7 N :   -0.682211
   8 H :    0.186914
   9 H :   -0.392524
  10 H :   -0.281048
  11 H :    0.145755
Sum of atomic charges:    0.0000000

LOEWDIN ATOMIC CHARGES
----------------------
   0 C :   -0.273737
   1 O :    0.218636
   2 C :    0.061309
   3 C :   -0.013892
   4 N :    0.047489
   5 C :   -0.324141
   6 O :    0.221658
   7 N :    0.100886
   8 H :   -0.022947
   9 H :    0.001104
  10 H :    0.013410
  11 H :   -0.029774

  Mayer bond orders larger than 0.100000
B(  0-C ,  1-O ) :   0.2333 B(  0-C ,  2-C ) :   1.0921 B(  0-C ,  3-C ) :   0.3137
B(  0-C ,  5-C ) :  -0.1317 B(  0-C ,  7-N ) :   1.2942 B(  0-C ,  9-H ) :   0.2372
B(  1-O ,  8-H ) :   1.0115 B(  2-C ,  3-C ) :   1.2186 B(  2-C ,  5-C ) :   0.1058
B(  2-C ,  9-H ) :   0.4544 B(  3-C ,  4-N ) :   1.1092 B(  3-C ,  5-C ) :  -0.1621
B(  3-C ,  9-H ) :   0.1573 B(  3-C , 10-H ) :   0.8896 B(  4-N ,  5-C ) :   1.5112
B(  5-C ,  6-O ) :   0.4437 B(  5-C ,  7-N ) :   1.2404 B(  6-O , 11-H ) :   1.0986

MP2 TOTAL ENERGY:     -413.761869083 Eh
FINAL SINGLE POINT ENERGY      -413.761869082771

DIPOLE MOMENT
-------------
                                X             Y             Z
Electronic contribution:      0.83215       1.53175      -0.00000
Nuclear contribution   :     -1.06328      -2.04200       0.00000
                        -----------------------------------------
Total Dipole Moment    :     -0.23113      -0.51025      -0.00000
                        -----------------------------------------
Magnitude (a.u.)       :      0.56016
Magnitude (Debye)      :      1.42380

Rotational constants in cm-1:     0.133184     0.067389     0.044748
Rotational constants in MHz :  3992.766236  2020.274737  1341.498385

                             ****ORCA TERMINATED NORMALLY****
TOTAL RUN TIME: 0 days 0 hours 0 minutes 56 seconds 831 msec
