                         Program Version 5.0.3 -  RELEASE  -
|  1> !ri-mp2 aug-cc-pvdz aug-cc-pvdz/c tightscf
|  2> %pal nprocs 16 end
|  3>
|  4> * xyz 0 1
|  5> C      2.562959   -0.246263    0.024431
|  6> H      2.684739   -0.856591   -0.869433
|  7> H      3.378057    0.477039    0.064926
|  8> H      2.630633   -0.894805    0.896772
|  9> C      1.233789    0.476855    0.001020
| 10> H      1.104781    1.083961    0.900241
| 11> H      1.171235    1.127632   -0.877417
| 12> O      0.198136   -0.516463   -0.060443
| 13> N     -1.408351    1.154815    0.055718
| 14> H     -0.750537    1.856650   -0.229457
| 15> H     -2.382975    1.377652   -0.044925
| 16> C     -1.116122   -0.185256   -0.006501
| 17> O     -1.955791   -1.049445    0.017389
| 18> *
| 19>
| 20>                          ****END OF INPUT****

CARTESIAN COORDINATES (ANGSTROEM)
---------------------------------
  C      2.562959   -0.246263    0.024431
  H      2.684739   -0.856591   -0.869433
  H      3.378057    0.477039    0.064926
  H      2.630633   -0.894805    0.896772
  C      1.233789    0.476855    0.001020
  H      1.104781    1.083961    0.900241
  H      1.171235    1.127632   -0.877417
  O      0.198136   -0.516463   -0.060443
  N     -1.408351    1.154815    0.055718
  H     -0.750537    1.856650   -0.229457
  H     -2.382975    1.377652   -0.044925
  C     -1.116122   -0.185256   -0.006501
  O     -1.955791   -1.049445    0.017389

 Total Charge           Charge          ....    0
 Multiplicity           Mult            ....    1
 Number of Electrons    NEL             ....   48
 Basis Dimension        Dim             ....  201

ORBITAL ENERGIES
----------------

  NO   OCC          E(Eh)            E(eV)
   0   2.0000     -20.610054      -560.8281
   1   2.0000     -20.529781      -558.6437
   2   2.0000     -15.603119      -424.5825
   3   2.0000     -11.414090      -310.5932
   4   2.0000     -11.314651      -307.8873
   5   2.0000     -11.240956      -305.8820
   6   2.0000      -1.462608       -39.7996
   7   2.0000      -1.360243       -37.0141
   8   2.0000      -1.221677       -33.2435
   9   2.0000      -1.052277       -28.6339
  10   2.0000      -0.886362       -24.1191
  11   2.0000      -0.822528       -22.3821
  12   2.0000      -0.766465       -20.8566
  13   2.0000      -0.705454       -19.1964
  14   2.0000      -0.693946       -18.8832
  15   2.0000      -0.634042       -17.2532
  16   2.0000      -0.605634       -16.4801
  17   2.0000      -0.582392       -15.8477
  18   2.0000      -0.561666       -15.2837
  19   2.0000      -0.531481       -14.4623
  20   2.0000      -0.516995       -14.0682
  21   2.0000      -0.471828       -12.8391
  22   2.0000      -0.450473       -12.2580
  23   2.0000      -0.425262       -11.5720
  24   0.0000       0.024251         0.6599
  25   0.0000       0.038218         1.0400
  26   0.0000       0.046182         1.2567
  27   0.0000       0.051372         1.3979
  28   0.0000       0.064083         1.7438

MULLIKEN ATOMIC CHARGES
-----------------------
   0 C :    0.170093
   1 H :   -0.018905
   2 H :   -0.014258
   3 H :   -0.015620
   4 C :    0.885763
   5 H :   -0.217732
   6 H :   -0.272195
   7 O :   -0.844707
   8 N :   -0.181787
   9 H :    0.039145
  10 H :   -0.013189
  11 C :    1.179785
  12 O :   -0.696392
Sum of atomic charges:   -0.0000000

LOEWDIN ATOMIC CHARGES
----------------------
   0 C :    0.148244
   1 H :   -0.011423
   2 H :   -0.013036
   3 H :   -0.010843
   4 C :   -0.052242
   5 H :    0.010970
   6 H :    0.007179
   7 O :    0.083588
   8 N :    0.276528
   9 H :   -0.044137
  10 H :   -0.007825
  11 C :   -0.413622
  12 O :    0.026621

  Mayer bond orders larger than 0.100000
B(  0-C ,  1-H ) :   0.9610 B(  0-C ,  2-H ) :   0.9031 B(  0-C ,  3-H ) :   0.9543
B(  0-C ,  4-C ) :   1.2101 B(  4-C ,  5-H ) :   0.8184 B(  4-C ,  6-H ) :   0.8168
B(  4-C ,  7-O ) :   0.5029 B(  7-O , 11-C ) :   0.8208 B(  8-N ,  9-H ) :   1.0477
B(  8-N , 10-H ) :   1.0781 B(  8-N , 11-C ) :   0.9877 B( 11-C , 12-O ) :   1.5491

MP2 TOTAL ENERGY:     -322.918601074 Eh
FINAL SINGLE POINT ENERGY      -322.918601074188

DIPOLE MOMENT
-------------
                                X             Y             Z
Electronic contribution:     -6.76652      -2.31197      -0.04381
Nuclear contribution   :      7.89219       4.20275      -0.16153
                        -----------------------------------------
Total Dipole Moment    :      1.12567       1.89078      -0.20534
                        -----------------------------------------
Magnitude (a.u.)       :      2.21005
Magnitude (Debye)      :      5.61751

Rotational constants in cm-1:     0.295281     0.070480     0.058208
Rotational constants in MHz :  8852.299821  2112.923220  1745.031181

                             ****ORCA TERMINATED NORMALLY****
TOTAL RUN TIME: 0 days 0 hours 0 minutes 58 seconds 30 msec
