                         Program Version 5.0.3 -  RELEASE  -
|  1> !ri-mp2 aug-cc-pvdz aug-cc-pvdz/c tightscf
|  2> %pal nprocs 16 end
|  3>
|  4> * xyz 0 1
|  5> C      0.000000    0.000000    0.141895
|  6> O      0.000000    0.000000    1.357923
|  7> N      0.000000    1.161700   -0.607409
|  8> N      0.000000   -1.161700   -0.607409
|  9> H      0.198783    1.990644   -0.072919
| 10> H      0.395193    1.143037   -1.532593
| 11> H     -0.198783   -1.990644   -0.072919
| 12> H     -0.395193   -1.143037   -1.532593
| 13> *
| 14>
| 15>                          ****END OF INPUT****

CARTESIAN COORDINATES (ANGSTROEM)
---------------------------------
  C      0.000000    0.000000    0.141895
  O      0.000000    0.000000    1.357923
  N      0.000000    1.161700   -0.607409
  N      0.000000   -1.161700   -0.607409
  H      0.198783    1.990644   -0.072919
  H      0.395193    1.143037   -1.532593
  H     -0.198783   -1.990644   -0.072919
  H     -0.395193   -1.143037   -1.532593

 Total Charge           Charge          ....    0
 Multiplicity           Mult            ....    1
 Number of Electrons    NEL             ....   32
 Basis Dimension        Dim             ....  128

ORBITAL ENERGIES
----------------

  NO   OCC          E(Eh)            E(eV)
   0   2.0000     -20.525435      -558.5255
   1   2.0000     -15.592300      -424.2880
   2   2.0000     -15.592274      -424.2873
   3   2.0000     -11.390501      -309.9513
   4   2.0000      -1.398833       -38.0642
   5   2.0000      -1.237190       -33.6657
   6   2.0000      -1.183221       -32.1971
   7   2.0000      -0.828491       -22.5444
   8   2.0000      -0.741847       -20.1867
   9   2.0000      -0.728841       -19.8328
  10   2.0000      -0.640915       -17.4402
  11   2.0000      -0.611820       -16.6485
  12   2.0000      -0.602112       -16.3843
  13   2.0000      -0.446389       -12.1469
  14   2.0000      -0.436680       -11.8827
  15   2.0000      -0.420150       -11.4329
  16   0.0000       0.026315         0.7161
  17   0.0000       0.041295         1.1237
  18   0.0000       0.056298         1.5319
  19   0.0000       0.069338         1.8868
  20   0.0000       0.104941         2.8556

MULLIKEN ATOMIC CHARGES
-----------------------
   0 C :    1.219484
   1 O :   -0.685753
   2 N :   -0.245105
   3 N :   -0.245105
   4 H :    0.012415
   5 H :   -0.034176
   6 H :    0.012415
   7 H :   -0.034176
Sum of atomic charges:    0.0000000

LOEWDIN ATOMIC CHARGES
----------------------
   0 C :   -0.455697
   1 O :    0.006462
   2 N :    0.266876
   3 N :    0.266876
   4 H :   -0.015027
   5 H :   -0.027232
   6 H :   -0.015027
   7 H :   -0.027232

  Mayer bond orders larger than 0.100000
B(  0-C ,  1-O ) :   1.5272 B(  0-C ,  2-N ) :   0.9370 B(  0-C ,  3-N ) :   0.9370
B(  2-N ,  4-H ) :   1.0740 B(  2-N ,  5-H ) :   1.1064 B(  3-N ,  6-H ) :   1.0740
B(  3-N ,  7-H ) :   1.1064

MP2 TOTAL ENERGY:     -224.714514908 Eh
FINAL SINGLE POINT ENERGY      -224.714514907862

DIPOLE MOMENT
-------------
                                X             Y             Z
Electronic contribution:      0.00000       0.00000       1.56666
Nuclear contribution   :     -0.00000      -0.00000      -3.19900
                        -----------------------------------------
Total Dipole Moment    :      0.00000       0.00000      -1.63235
                        -----------------------------------------
Magnitude (a.u.)       :      1.63235
Magnitude (Debye)      :      4.14909

Rotational constants in cm-1:     0.374692     0.345278     0.180980
Rotational constants in MHz : 11232.988036 10351.168441  5425.645916

                             ****ORCA TERMINATED NORMALLY****
TOTAL RUN TIME: 0 days 0 hours 0 minutes 35 seconds 14 msec
