                         Program Version 5.0.3 -  RELEASE  -
|  1> !ri-mp2 aug-cc-pvdz aug-cc-pvdz/c tightscf
|  2> %pal nprocs 16 end
|  3>
|  4> * xyz 0 1
|  5> O      0.000000    0.000000    0.327847
|  6> C      0.000000    1.173022   -0.371331
|  7> C      0.000000   -1.173022   -0.371331
|  8> C      0.000000    2.350479    0.235228
|  9> C      0.000000   -2.350479    0.235228
| 10> H      0.000000    1.065115   -1.450457
| 11> H      0.000000   -1.065115   -1.450457
| 12> H      0.000000    3.252035   -0.356369
| 13> H      0.000000    2.435055    1.312056
| 14> H      0.000000   -3.252035   -0.356369
| 15> H      0.000000   -2.435055    1.312056
| 16> *
| 17>
| 18>                          ****END OF INPUT****

CARTESIAN COORDINATES (ANGSTROEM)
---------------------------------
  O      0.000000    0.000000    0.327847
  C      0.000000    1.173022   -0.371331
  C      0.000000   -1.173022   -0.371331
  C      0.000000    2.350479    0.235228
  C      0.000000   -2.350479    0.235228
  H      0.000000    1.065115   -1.450457
  H      0.000000   -1.065115   -1.450457
  H      0.000000    3.252035   -0.356369
  H      0.000000    2.435055    1.312056
  H      0.000000   -3.252035   -0.356369
  H      0.000000   -2.435055    1.312056

 Total Charge           Charge          ....    0
 Multiplicity           Mult            ....    1
 Number of Electrons    NEL             ....   38
 Basis Dimension        Dim             ....  169

ORBITAL ENERGIES
----------------

  NO   OCC          E(Eh)            E(eV)
   0   2.0000     -20.615202      -560.9682
   1   2.0000     -11.311234      -307.7943
   2   2.0000     -11.311205      -307.7935
   3   2.0000     -11.227909      -305.5269
   4   2.0000     -11.227908      -305.5269
   5   2.0000      -1.442190       -39.2440
   6   2.0000      -1.075712       -29.2716
   7   2.0000      -1.008430       -27.4408
   8   2.0000      -0.828637       -22.5484
   9   2.0000      -0.812754       -22.1162
  10   2.0000      -0.708810       -19.2877
  11   2.0000      -0.660059       -17.9611
  12   2.0000      -0.622900       -16.9500
  13   2.0000      -0.590483       -16.0679
  14   2.0000      -0.587295       -15.9811
  15   2.0000      -0.543346       -14.7852
  16   2.0000      -0.517670       -14.0865
  17   2.0000      -0.397437       -10.8148
  18   2.0000      -0.328833        -8.9480
  19   0.0000       0.036200         0.9850
  20   0.0000       0.043229         1.1763
  21   0.0000       0.046507         1.2655
  22   0.0000       0.061800         1.6817
  23   0.0000       0.063761         1.7350

MULLIKEN ATOMIC CHARGES
-----------------------
   0 O :   -0.921628
   1 C :    0.736677
   2 C :    0.736677
   3 C :    0.707014
   4 C :    0.707014
   5 H :   -0.416136
   6 H :   -0.416136
   7 H :   -0.230500
   8 H :   -0.336240
   9 H :   -0.230500
  10 H :   -0.336240
Sum of atomic charges:   -0.0000000

LOEWDIN ATOMIC CHARGES
----------------------
   0 O :    0.045517
   1 C :   -0.089892
   2 C :   -0.089892
   3 C :    0.159892
   4 C :    0.159892
   5 H :   -0.005931
   6 H :   -0.005931
   7 H :   -0.048963
   8 H :   -0.037865
   9 H :   -0.048963
  10 H :   -0.037865

  Mayer bond orders larger than 0.100000
B(  0-O ,  1-C ) :   0.6083 B(  0-O ,  2-C ) :   0.6083 B(  1-C ,  2-C ) :   0.1637
B(  1-C ,  3-C ) :   2.1572 B(  1-C ,  5-H ) :   0.6587 B(  1-C ,  7-H ) :   0.2924
B(  1-C ,  8-H ) :   0.2057 B(  2-C ,  4-C ) :   2.1572 B(  2-C ,  6-H ) :   0.6587
B(  2-C ,  9-H ) :   0.2924 B(  2-C , 10-H ) :   0.2057 B(  3-C ,  4-C ) :   0.1745
B(  3-C ,  7-H ) :   0.6545 B(  3-C ,  8-H ) :   0.7470 B(  4-C ,  9-H ) :   0.6545
B(  4-C , 10-H ) :   0.7470 B(  7-H ,  8-H ) :  -0.1882 B(  9-H , 10-H ) :  -0.1882

MP2 TOTAL ENERGY:     -230.539692119 Eh
FINAL SINGLE POINT ENERGY      -230.539692119273

DIPOLE MOMENT
-------------
                                X             Y             Z
Electronic contribution:      0.00000       0.00000       0.46279
Nuclear contribution   :      0.00000       0.00000      -1.00229
                        -----------------------------------------
Total Dipole Moment    :      0.00000       0.00000      -0.53950
                        -----------------------------------------
Magnitude (a.u.)       :      0.53950
Magnitude (Debye)      :      1.37131

Rotational constants in cm-1:     1.177592     0.083731     0.078173
Rotational constants in MHz : 35303.329451  2510.191926  2343.556731

                             ****ORCA TERMINATED NORMALLY****
TOTAL RUN TIME: 0 days 0 hours 0 minutes 46 seconds 176 msec
