                         Program Version 5.0.3 -  RELEASE  -
|  1> !ri-mp2 aug-cc-pvdz aug-cc-pvdz/c tightscf
|  2> %pal nprocs 16 end
|  3> %maxcore 3800
|  4>
|  5> * xyz 0 1
|  6> C     -2.760426   -1.207325    1.207306
|  7> C     -1.942526   -0.170313    1.165936
|  8> S     -1.209568    0.357864   -0.377660
|  9> O     -1.661482   -0.546197   -1.429486
| 10> O     -1.432644    1.796435   -0.478409
| 11> C      0.549958    0.093229   -0.128571
| 12> C      1.327317    1.134136    0.365938
| 13> C      2.688495    0.926492    0.555460
| 14> C      3.254893   -0.306208    0.249360
| 15> C      2.466154   -1.336958   -0.253252
| 16> C      1.104750   -1.142081   -0.445145
| 17> H     -2.971203   -1.781796    0.315349
| 18> H     -3.245923   -1.496562    2.129835
| 19> H     -1.694653    0.461090    2.008205
| 20> H      0.872163    2.091493    0.574475
| 21> H      3.306169    1.729235    0.933931
| 22> H      4.315074   -0.462596    0.395508
| 23> H      2.912325   -2.289975   -0.502003
| 24> H      0.480456   -1.924459   -0.851784
| 25> *
| 26>
| 27>                          ****END OF INPUT****

CARTESIAN COORDINATES (ANGSTROEM)
---------------------------------
  C     -2.760426   -1.207325    1.207306
  C     -1.942526   -0.170313    1.165936
  S     -1.209568    0.357864   -0.377660
  O     -1.661482   -0.546197   -1.429486
  O     -1.432644    1.796435   -0.478409
  C      0.549958    0.093229   -0.128571
  C      1.327317    1.134136    0.365938
  C      2.688495    0.926492    0.555460
  C      3.254893   -0.306208    0.249360
  C      2.466154   -1.336958   -0.253252
  C      1.104750   -1.142081   -0.445145
  H     -2.971203   -1.781796    0.315349
  H     -3.245923   -1.496562    2.129835
  H     -1.694653    0.461090    2.008205
  H      0.872163    2.091493    0.574475
  H      3.306169    1.729235    0.933931
  H      4.315074   -0.462596    0.395508
  H      2.912325   -2.289975   -0.502003
  H      0.480456   -1.924459   -0.851784

 Total Charge           Charge          ....    0
 Multiplicity           Mult            ....    1
 Number of Electrons    NEL             ....   88
 Basis Dimension        Dim             ....  329

ORBITAL ENERGIES
----------------

  NO   OCC          E(Eh)            E(eV)
   0   2.0000     -92.203061     -2508.9728
   1   2.0000     -20.554269      -559.3101
   2   2.0000     -20.552024      -559.2490
   3   2.0000     -11.286045      -307.1089
   4   2.0000     -11.284798      -307.0750
   5   2.0000     -11.279414      -306.9285
   6   2.0000     -11.271781      -306.7208
   7   2.0000     -11.271615      -306.7162
   8   2.0000     -11.269052      -306.6465
   9   2.0000     -11.263136      -306.4855
  10   2.0000     -11.262952      -306.4805
  11   2.0000      -9.175020      -249.6650
  12   2.0000      -6.860523      -186.6843
  13   2.0000      -6.859190      -186.6480
  14   2.0000      -6.858755      -186.6362
  15   2.0000      -1.451534       -39.4982
  16   2.0000      -1.338587       -36.4248
  17   2.0000      -1.187567       -32.3154
  18   2.0000      -1.099401       -29.9162
  19   2.0000      -1.058577       -28.8054
  20   2.0000      -1.046906       -28.4878
  21   2.0000      -0.934538       -25.4301
  22   2.0000      -0.857742       -23.3403
  23   2.0000      -0.849472       -23.1153
  24   2.0000      -0.787345       -21.4248
  25   2.0000      -0.739200       -20.1146
  26   2.0000      -0.703268       -19.1369
  27   2.0000      -0.671434       -18.2706
  28   2.0000      -0.667311       -18.1584
  29   2.0000      -0.653149       -17.7731
  30   2.0000      -0.640032       -17.4162
  31   2.0000      -0.619368       -16.8539
  32   2.0000      -0.616363       -16.7721
  33   2.0000      -0.575488       -15.6598
  34   2.0000      -0.547099       -14.8873
  35   2.0000      -0.533967       -14.5300
  36   2.0000      -0.522462       -14.2169
  37   2.0000      -0.496551       -13.5119
  38   2.0000      -0.489941       -13.3320
  39   2.0000      -0.469832       -12.7848
  40   2.0000      -0.437387       -11.9019
  41   2.0000      -0.423891       -11.5346
  42   2.0000      -0.366520        -9.9735
  43   2.0000      -0.361460        -9.8358
  44   0.0000       0.028281         0.7696
  45   0.0000       0.033956         0.9240
  46   0.0000       0.037841         1.0297
  47   0.0000       0.048892         1.3304
  48   0.0000       0.052824         1.4374

MULLIKEN ATOMIC CHARGES
-----------------------
   0 C :    0.488033
   1 C :    0.089013
   2 S :    3.186207
   3 O :   -1.297857
   4 O :   -1.280394
   5 C :    0.824080
   6 C :   -0.190391
   7 C :    0.639690
   8 C :    0.344930
   9 C :    0.571380
  10 C :   -0.070882
  11 H :   -0.246588
  12 H :   -0.226075
  13 H :   -0.437187
  14 H :   -0.543694
  15 H :   -0.437307
  16 H :   -0.437859
  17 H :   -0.440949
  18 H :   -0.534148
Sum of atomic charges:    0.0000000

LOEWDIN ATOMIC CHARGES
----------------------
   0 C :    0.164332
   1 C :   -0.126451
   2 S :    0.951332
   3 O :   -0.380702
   4 O :   -0.387219
   5 C :   -0.257780
   6 C :    0.016750
   7 C :    0.021163
   8 C :    0.026090
   9 C :    0.021253
  10 C :    0.019472
  11 H :   -0.034964
  12 H :   -0.027852
  13 H :   -0.025974
  14 H :    0.001406
  15 H :    0.004008
  16 H :    0.006231
  17 H :    0.004024
  18 H :    0.004879

  Mayer bond orders larger than 0.100000
B(  0-C ,  1-C ) :   2.0401 B(  0-C , 11-H ) :   0.8683 B(  0-C , 12-H ) :   0.8481
B(  1-C ,  2-S ) :   0.5972 B(  1-C ,  3-O ) :   0.3041 B(  1-C ,  4-O ) :   0.2802
B(  1-C , 13-H ) :   0.8692 B(  2-S ,  3-O ) :   0.4128 B(  2-S ,  4-O ) :   0.3717
B(  2-S ,  5-C ) :   0.9773 B(  2-S ,  6-C ) :  -0.1737 B(  2-S , 10-C ) :  -0.2102
B(  2-S , 13-H ) :  -0.1642 B(  3-O ,  4-O ) :   0.1457 B(  3-O ,  5-C ) :   0.3221
B(  3-O ,  6-C ) :  -0.1008 B(  4-O ,  5-C ) :   0.4145 B(  4-O , 10-C ) :  -0.1496
B(  5-C ,  6-C ) :   1.1023 B(  5-C ,  7-C ) :  -0.2982 B(  5-C ,  9-C ) :  -0.3352
B(  5-C , 10-C ) :   1.1907 B(  5-C , 14-H ) :   0.3872 B(  5-C , 18-H ) :   0.2758
B(  6-C ,  7-C ) :   1.9758 B(  6-C ,  8-C ) :   0.2078 B(  6-C ,  9-C ) :   0.1276
B(  6-C , 10-C ) :  -0.2044 B(  6-C , 14-H ) :   0.1653 B(  6-C , 15-H ) :   0.3641
B(  7-C ,  8-C ) :   1.6867 B(  7-C ,  9-C ) :  -0.1484 B(  7-C , 10-C ) :   0.1446
B(  7-C , 14-H ) :   0.1810 B(  7-C , 15-H ) :   0.2304 B(  7-C , 16-H ) :   0.1802
B(  8-C ,  9-C ) :   1.6921 B(  8-C , 10-C ) :   0.1711 B(  8-C , 15-H ) :   0.1579
B(  8-C , 16-H ) :   0.3624 B(  8-C , 17-H ) :   0.1714 B(  9-C , 10-C ) :   1.9680
B(  9-C , 15-H ) :  -0.1006 B(  9-C , 16-H ) :   0.1962 B(  9-C , 17-H ) :   0.2361
B(  9-C , 18-H ) :   0.2278 B( 10-C , 17-H ) :   0.3372 B( 10-C , 18-H ) :   0.1948
B( 11-H , 12-H ) :  -0.1893

MP2 TOTAL ENERGY:     -856.439045240 Eh
FINAL SINGLE POINT ENERGY      -856.439045240017

DIPOLE MOMENT
-------------
                                X             Y             Z
Electronic contribution:     -2.75901       2.60869      -3.28159
Nuclear contribution   :      3.89370      -3.60086       4.89798
                        -----------------------------------------
Total Dipole Moment    :      1.13469      -0.99217       1.61639
                        -----------------------------------------
Magnitude (a.u.)       :      2.21012
Magnitude (Debye)      :      5.61768

Rotational constants in cm-1:     0.064924     0.022654     0.020712
Rotational constants in MHz :  1946.385375   679.160892   620.929295

                             ****ORCA TERMINATED NORMALLY****
TOTAL RUN TIME: 0 days 0 hours 1 minutes 50 seconds 931 msec
