                         Program Version 5.0.3 -  RELEASE  -
|  1> !ri-mp2 aug-cc-pvdz aug-cc-pvdz/c tightscf
|  2> %pal nprocs 16 end
|  3>
|  4> * xyz 0 1
|  5> N     -0.204180    1.865921   -0.165122
|  6> C     -0.044385    0.433011   -0.462275
|  7> C     -1.370928   -0.271392   -0.129443
|  8> O     -1.723843   -1.301180   -0.637826
|  9> O     -2.103030    0.357938    0.804964
| 10> H     -1.646282    1.209604    0.969437
| 11> C      1.128185   -0.162775    0.360267
| 12> C      2.465222    0.464609   -0.056758
| 13> C      1.217327   -1.687377    0.244479
| 14> H      0.147500    0.235377   -1.520887
| 15> H      0.941461    0.092091    1.408810
| 16> H      3.277525    0.032580    0.528053
| 17> H      2.673618    0.266976   -1.110595
| 18> H      2.508562    1.543790    0.096919
| 19> H      0.318428   -2.184121    0.600700
| 20> H      1.371984   -1.994000   -0.791577
| 21> H      2.062337   -2.049689    0.830873
| 22> H      0.683380    2.321499   -0.008696
| 23> H     -0.666802    2.353922   -0.921910
| 24> *
| 25>
| 26>                          ****END OF INPUT****

CARTESIAN COORDINATES (ANGSTROEM)
---------------------------------
  N     -0.204180    1.865921   -0.165122
  C     -0.044385    0.433011   -0.462275
  C     -1.370928   -0.271392   -0.129443
  O     -1.723843   -1.301180   -0.637826
  O     -2.103030    0.357938    0.804964
  H     -1.646282    1.209604    0.969437
  C      1.128185   -0.162775    0.360267
  C      2.465222    0.464609   -0.056758
  C      1.217327   -1.687377    0.244479
  H      0.147500    0.235377   -1.520887
  H      0.941461    0.092091    1.408810
  H      3.277525    0.032580    0.528053
  H      2.673618    0.266976   -1.110595
  H      2.508562    1.543790    0.096919
  H      0.318428   -2.184121    0.600700
  H      1.371984   -1.994000   -0.791577
  H      2.062337   -2.049689    0.830873
  H      0.683380    2.321499   -0.008696
  H     -0.666802    2.353922   -0.921910

 Total Charge           Charge          ....    0
 Multiplicity           Mult            ....    1
 Number of Electrons    NEL             ....   64
 Basis Dimension        Dim             ....  283

ORBITAL ENERGIES
----------------

  NO   OCC          E(Eh)            E(eV)
   0   2.0000     -20.604211      -560.6691
   1   2.0000     -20.545817      -559.0801
   2   2.0000     -15.588195      -424.1764
   3   2.0000     -11.381518      -309.7069
   4   2.0000     -11.294186      -307.3304
   5   2.0000     -11.259333      -306.3820
   6   2.0000     -11.241018      -305.8837
   7   2.0000     -11.224229      -305.4268
   8   2.0000      -1.453918       -39.5631
   9   2.0000      -1.358940       -36.9786
  10   2.0000      -1.224055       -33.3082
  11   2.0000      -1.089471       -29.6460
  12   2.0000      -0.964943       -26.2574
  13   2.0000      -0.939937       -25.5770
  14   2.0000      -0.822894       -22.3921
  15   2.0000      -0.798848       -21.7378
  16   2.0000      -0.728238       -19.8164
  17   2.0000      -0.694452       -18.8970
  18   2.0000      -0.676555       -18.4100
  19   2.0000      -0.637332       -17.3427
  20   2.0000      -0.625652       -17.0248
  21   2.0000      -0.607728       -16.5371
  22   2.0000      -0.591941       -16.1075
  23   2.0000      -0.567787       -15.4503
  24   2.0000      -0.550725       -14.9860
  25   2.0000      -0.540825       -14.7166
  26   2.0000      -0.502545       -13.6749
  27   2.0000      -0.492833       -13.4107
  28   2.0000      -0.488801       -13.3009
  29   2.0000      -0.461352       -12.5540
  30   2.0000      -0.449632       -12.2351
  31   2.0000      -0.420604       -11.4452
  32   0.0000       0.025658         0.6982
  33   0.0000       0.037463         1.0194
  34   0.0000       0.042638         1.1602
  35   0.0000       0.049723         1.3530
  36   0.0000       0.062167         1.6917

MULLIKEN ATOMIC CHARGES
-----------------------
   0 N :   -0.408433
   1 C :    0.510576
   2 C :    1.376411
   3 O :   -0.793181
   4 O :   -0.759660
   5 H :    0.293251
   6 C :   -1.388654
   7 C :    0.943685
   8 C :    0.927825
   9 H :   -0.139429
  10 H :   -0.221919
  11 H :   -0.036931
  12 H :   -0.024095
  13 H :   -0.171372
  14 H :   -0.049405
  15 H :   -0.013086
  16 H :   -0.067864
  17 H :    0.025498
  18 H :   -0.003219
Sum of atomic charges:    0.0000000

LOEWDIN ATOMIC CHARGES
----------------------
   0 N :    0.230272
   1 C :   -0.138934
   2 C :   -0.316918
   3 O :    0.051257
   4 O :    0.214268
   5 H :   -0.085488
   6 C :   -0.234552
   7 C :    0.171168
   8 C :    0.170479
   9 H :    0.047146
  10 H :    0.045026
  11 H :   -0.009252
  12 H :   -0.003066
  13 H :   -0.027532
  14 H :   -0.020163
  15 H :   -0.001671
  16 H :   -0.012253
  17 H :   -0.059910
  18 H :   -0.019878

  Mayer bond orders larger than 0.100000
B(  0-N ,  1-C ) :   0.7475 B(  0-N , 17-H ) :   1.0167 B(  0-N , 18-H ) :   1.0787
B(  1-C ,  2-C ) :   0.8988 B(  1-C ,  4-O ) :   0.1689 B(  1-C ,  6-C ) :   1.2461
B(  1-C ,  7-C ) :  -0.1216 B(  1-C ,  8-C ) :  -0.1423 B(  1-C ,  9-H ) :   0.5726
B(  1-C , 10-H ) :   0.1822 B(  1-C , 15-H ) :  -0.1132 B(  2-C ,  3-O ) :   1.4088
B(  2-C ,  4-O ) :   0.3625 B(  4-O ,  5-H ) :   0.9022 B(  6-C ,  7-C ) :   1.2563
B(  6-C ,  8-C ) :   1.3055 B(  6-C ,  9-H ) :   0.2189 B(  6-C , 10-H ) :   0.5907
B(  6-C , 11-H ) :   0.1399 B(  6-C , 12-H ) :   0.1893 B(  6-C , 13-H ) :   0.1040
B(  6-C , 14-H ) :   0.1415 B(  6-C , 15-H ) :   0.2230 B(  6-C , 16-H ) :   0.1485
B(  7-C ,  8-C ) :  -0.1649 B(  7-C , 11-H ) :   0.8188 B(  7-C , 12-H ) :   0.8936
B(  7-C , 13-H ) :   0.8221 B(  8-C , 14-H ) :   0.8176 B(  8-C , 15-H ) :   0.8521
B(  8-C , 16-H ) :   0.7701 B( 14-H , 16-H ) :  -0.1010

MP2 TOTAL ENERGY:     -401.304335740 Eh
FINAL SINGLE POINT ENERGY      -401.304335740334

DIPOLE MOMENT
-------------
                                X             Y             Z
Electronic contribution:    -10.31689      -0.39347      -0.17700
Nuclear contribution   :     11.91233       1.87158       0.08495
                        -----------------------------------------
Total Dipole Moment    :      1.59544       1.47811      -0.09205
                        -----------------------------------------
Magnitude (a.u.)       :      2.17686
Magnitude (Debye)      :      5.53314

Rotational constants in cm-1:     0.094837     0.053781     0.039393
Rotational constants in MHz :  2843.154950  1612.318044  1180.980325

                             ****ORCA TERMINATED NORMALLY****
TOTAL RUN TIME: 0 days 0 hours 1 minutes 17 seconds 779 msec
