                         Program Version 5.0.3 -  RELEASE  -
|  1> !ri-mp2 aug-cc-pvdz aug-cc-pvdz/c tightscf
|  2> %pal nprocs 16 end
|  3>
|  4> * xyz 0 1
|  5> C     -1.357401    1.261636   -0.000015
|  6> C     -1.021256   -0.208745    0.000007
|  7> O      0.300018   -0.575884   -0.000304
|  8> C      1.343345    0.319637    0.000014
|  9> C      2.594789   -0.109974    0.000104
| 10> O     -1.841186   -1.081285    0.000173
| 11> H     -0.954127    1.760057    0.881924
| 12> H     -0.953586    1.760128   -0.881661
| 13> H     -2.438358    1.353144   -0.000324
| 14> H      1.083879    1.367562    0.000051
| 15> H      2.832057   -1.163725    0.000004
| 16> H      3.402610    0.604869    0.000394
| 17> *
| 18>
| 19>                          ****END OF INPUT****

CARTESIAN COORDINATES (ANGSTROEM)
---------------------------------
  C     -1.357401    1.261636   -0.000015
  C     -1.021256   -0.208745    0.000007
  O      0.300018   -0.575884   -0.000304
  C      1.343345    0.319637    0.000014
  C      2.594789   -0.109974    0.000104
  O     -1.841186   -1.081285    0.000173
  H     -0.954127    1.760057    0.881924
  H     -0.953586    1.760128   -0.881661
  H     -2.438358    1.353144   -0.000324
  H      1.083879    1.367562    0.000051
  H      2.832057   -1.163725    0.000004
  H      3.402610    0.604869    0.000394

 Total Charge           Charge          ....    0
 Multiplicity           Mult            ....    1
 Number of Electrons    NEL             ....   46
 Basis Dimension        Dim             ....  192

ORBITAL ENERGIES
----------------

  NO   OCC          E(Eh)            E(eV)
   0   2.0000     -20.630515      -561.3848
   1   2.0000     -20.563256      -559.5546
   2   2.0000     -11.405326      -310.3547
   3   2.0000     -11.321879      -308.0840
   4   2.0000     -11.267425      -306.6022
   5   2.0000     -11.242316      -305.9190
   6   2.0000      -1.479249       -40.2524
   7   2.0000      -1.385099       -37.6905
   8   2.0000      -1.064625       -28.9699
   9   2.0000      -1.032721       -28.1018
  10   2.0000      -0.865633       -23.5551
  11   2.0000      -0.789007       -21.4700
  12   2.0000      -0.717953       -19.5365
  13   2.0000      -0.678614       -18.4660
  14   2.0000      -0.668249       -18.1840
  15   2.0000      -0.620588       -16.8871
  16   2.0000      -0.607442       -16.5293
  17   2.0000      -0.587639       -15.9905
  18   2.0000      -0.568411       -15.4673
  19   2.0000      -0.533704       -14.5228
  20   2.0000      -0.506250       -13.7758
  21   2.0000      -0.457875       -12.4594
  22   2.0000      -0.368796       -10.0355
  23   0.0000       0.028205         0.7675
  24   0.0000       0.040166         1.0930
  25   0.0000       0.050703         1.3797
  26   0.0000       0.051546         1.4026
  27   0.0000       0.061957         1.6859

MULLIKEN ATOMIC CHARGES
-----------------------
   0 C :    0.301531
   1 C :    0.808480
   2 O :   -0.920007
   3 C :    0.931544
   4 C :    0.603482
   5 O :   -0.703975
   6 H :    0.120056
   7 H :    0.119930
   8 H :   -0.206395
   9 H :   -0.506804
  10 H :   -0.336794
  11 H :   -0.211047
Sum of atomic charges:    0.0000000

LOEWDIN ATOMIC CHARGES
----------------------
   0 C :    0.193225
   1 C :   -0.322984
   2 O :    0.082355
   3 C :   -0.076928
   4 C :    0.174447
   5 O :    0.056644
   6 H :   -0.003898
   7 H :   -0.003923
   8 H :   -0.005023
   9 H :   -0.019075
  10 H :   -0.031737
  11 H :   -0.043102

  Mayer bond orders larger than 0.100000
B(  0-C ,  1-C ) :   1.0709 B(  0-C ,  6-H ) :   0.8677 B(  0-C ,  7-H ) :   0.8677
B(  0-C ,  8-H ) :   1.0141 B(  1-C ,  2-O ) :   0.7023 B(  1-C ,  5-O ) :   1.5421
B(  2-O ,  3-C ) :   0.4695 B(  3-C ,  4-C ) :   2.3226 B(  3-C ,  9-H ) :   0.3719
B(  3-C , 10-H ) :   0.3404 B(  3-C , 11-H ) :   0.2556 B(  4-C ,  9-H ) :   0.1786
B(  4-C , 10-H ) :   0.6332 B(  4-C , 11-H ) :   0.7109 B( 10-H , 11-H ) :  -0.1882

MP2 TOTAL ENERGY:     -305.652001422 Eh
FINAL SINGLE POINT ENERGY      -305.652001421893

DIPOLE MOMENT
-------------
                                X             Y             Z
Electronic contribution:     -2.28380      -4.08285      -0.00034
Nuclear contribution   :      2.95850       5.67571       0.00039
                        -----------------------------------------
Total Dipole Moment    :      0.67470       1.59286       0.00005
                        -----------------------------------------
Magnitude (a.u.)       :      1.72986
Magnitude (Debye)      :      4.39696

Rotational constants in cm-1:     0.292123     0.075479     0.060658
Rotational constants in MHz :  8757.622372  2262.812447  1818.477172

                             ****ORCA TERMINATED NORMALLY****
TOTAL RUN TIME: 0 days 0 hours 0 minutes 55 seconds 388 msec
