                         Program Version 5.0.3 -  RELEASE  -
|  1> !ri-mp2 aug-cc-pvdz aug-cc-pvdz/c tightscf
|  2> %pal nprocs 16 end
|  3>
|  4> * xyz 0 1
|  5> C     -1.222725    0.248264    0.000000
|  6> N     -2.224302   -0.323411    0.000000
|  7> C      0.000000    0.979779    0.000000
|  8> H     -0.097533    2.057310    0.000000
|  9> C      1.206868    0.404586    0.000000
| 10> H      2.065769    1.066361    0.000000
| 11> C      1.490613   -1.057531    0.000000
| 12> H      0.580711   -1.654271    0.000000
| 13> H      2.086316   -1.328056    0.875372
| 14> H      2.086316   -1.328056   -0.875372
| 15> *
| 16>
| 17>                          ****END OF INPUT****

CARTESIAN COORDINATES (ANGSTROEM)
---------------------------------
  C     -1.222725    0.248264    0.000000
  N     -2.224302   -0.323411    0.000000
  C      0.000000    0.979779    0.000000
  H     -0.097533    2.057310    0.000000
  C      1.206868    0.404586    0.000000
  H      2.065769    1.066361    0.000000
  C      1.490613   -1.057531    0.000000
  H      0.580711   -1.654271    0.000000
  H      2.086316   -1.328056    0.875372
  H      2.086316   -1.328056   -0.875372

 Total Charge           Charge          ....    0
 Multiplicity           Mult            ....    1
 Number of Electrons    NEL             ....   36
 Basis Dimension        Dim             ....  160

ORBITAL ENERGIES
----------------

  NO   OCC          E(Eh)            E(eV)
   0   2.0000     -15.580745      -423.9736
   1   2.0000     -11.292137      -307.2747
   2   2.0000     -11.284012      -307.0536
   3   2.0000     -11.282723      -307.0185
   4   2.0000     -11.254167      -306.2415
   5   2.0000      -1.225945       -33.3596
   6   2.0000      -1.119519       -30.4637
   7   2.0000      -0.990023       -26.9399
   8   2.0000      -0.847788       -23.0695
   9   2.0000      -0.698944       -19.0192
  10   2.0000      -0.672099       -18.2887
  11   2.0000      -0.595845       -16.2138
  12   2.0000      -0.567977       -15.4554
  13   2.0000      -0.558745       -15.2042
  14   2.0000      -0.537898       -14.6369
  15   2.0000      -0.509854       -13.8738
  16   2.0000      -0.465726       -12.6731
  17   2.0000      -0.380925       -10.3655
  18   0.0000       0.027043         0.7359
  19   0.0000       0.040724         1.1081
  20   0.0000       0.049435         1.3452
  21   0.0000       0.051694         1.4067
  22   0.0000       0.074347         2.0231

MULLIKEN ATOMIC CHARGES
-----------------------
   0 C :   -0.565618
   1 N :   -0.320575
   2 C :    1.057074
   3 H :   -0.343523
   4 C :    0.209741
   5 H :   -0.404750
   6 C :    0.297687
   7 H :   -0.063656
   8 H :    0.066810
   9 H :    0.066810
Sum of atomic charges:   -0.0000000

LOEWDIN ATOMIC CHARGES
----------------------
   0 C :   -0.172400
   1 N :    0.074487
   2 C :   -0.035108
   3 H :   -0.000010
   4 C :   -0.009194
   5 H :    0.009793
   6 C :    0.158919
   7 H :   -0.014951
   8 H :   -0.005768
   9 H :   -0.005768

  Mayer bond orders larger than 0.100000
B(  0-C ,  1-N ) :   2.6324 B(  0-C ,  2-C ) :   0.4725 B(  1-N ,  2-C ) :  -0.1403
B(  2-C ,  3-H ) :   0.6528 B(  2-C ,  4-C ) :   1.8664 B(  4-C ,  5-H ) :   0.7521
B(  4-C ,  6-C ) :   1.2583 B(  6-C ,  7-H ) :   0.9715 B(  6-C ,  8-H ) :   0.8579
B(  6-C ,  9-H ) :   0.8579

MP2 TOTAL ENERGY:     -209.540536161 Eh
FINAL SINGLE POINT ENERGY      -209.540536160869

DIPOLE MOMENT
-------------
                                X             Y             Z
Electronic contribution:     -4.98091       1.67833       0.00000
Nuclear contribution   :      6.76048      -1.19782       0.00000
                        -----------------------------------------
Total Dipole Moment    :      1.77957       0.48052       0.00000
                        -----------------------------------------
Magnitude (a.u.)       :      1.84330
Magnitude (Debye)      :      4.68530

Rotational constants in cm-1:     0.409012     0.114743     0.091101
Rotational constants in MHz : 12261.879072  3439.896898  2731.147380

                             ****ORCA TERMINATED NORMALLY****
TOTAL RUN TIME: 0 days 0 hours 0 minutes 35 seconds 728 msec
