                         Program Version 5.0.3 -  RELEASE  -
|  1> !ri-mp2 aug-cc-pvdz aug-cc-pvdz/c tightscf
|  2> %pal nprocs 16 end
|  3>
|  4> * xyz 0 1
|  5> C     -0.894816   -0.631696    0.000000
|  6> H     -0.633553   -1.676755    0.000000
|  7> F     -2.212388   -0.376299    0.000000
|  8> C      0.000000    0.341550    0.000000
|  9> F     -0.371902    1.637064    0.000000
| 10> C      1.486201    0.188572    0.000000
| 11> F      1.834576   -1.152835    0.000000
| 12> H      1.916333    0.657416    0.888334
| 13> H      1.916333    0.657416   -0.888334
| 14> *
| 15>
| 16>                          ****END OF INPUT****

CARTESIAN COORDINATES (ANGSTROEM)
---------------------------------
  C     -0.894816   -0.631696    0.000000
  H     -0.633553   -1.676755    0.000000
  F     -2.212388   -0.376299    0.000000
  C      0.000000    0.341550    0.000000
  F     -0.371902    1.637064    0.000000
  C      1.486201    0.188572    0.000000
  F      1.834576   -1.152835    0.000000
  H      1.916333    0.657416    0.888334
  H      1.916333    0.657416   -0.888334

 Total Charge           Charge          ....    0
 Multiplicity           Mult            ....    1
 Number of Electrons    NEL             ....   48
 Basis Dimension        Dim             ....  165

ORBITAL ENERGIES
----------------

  NO   OCC          E(Eh)            E(eV)
   0   2.0000     -26.345738      -716.9040
   1   2.0000     -26.335538      -716.6264
   2   2.0000     -26.323813      -716.3074
   3   2.0000     -11.357053      -309.0411
   4   2.0000     -11.354484      -308.9712
   5   2.0000     -11.344237      -308.6924
   6   2.0000      -1.657729       -45.1091
   7   2.0000      -1.640308       -44.6351
   8   2.0000      -1.625652       -44.2363
   9   2.0000      -1.103794       -30.0358
  10   2.0000      -0.990403       -26.9502
  11   2.0000      -0.846838       -23.0436
  12   2.0000      -0.779217       -21.2036
  13   2.0000      -0.772087       -21.0096
  14   2.0000      -0.744557       -20.2604
  15   2.0000      -0.712168       -19.3791
  16   2.0000      -0.707567       -19.2539
  17   2.0000      -0.704714       -19.1762
  18   2.0000      -0.693083       -18.8598
  19   2.0000      -0.663874       -18.0649
  20   2.0000      -0.607755       -16.5379
  21   2.0000      -0.567730       -15.4487
  22   2.0000      -0.556631       -15.1467
  23   2.0000      -0.389227       -10.5914
  24   0.0000       0.034773         0.9462
  25   0.0000       0.046282         1.2594
  26   0.0000       0.051132         1.3914
  27   0.0000       0.076595         2.0843
  28   0.0000       0.100836         2.7439

MULLIKEN ATOMIC CHARGES
-----------------------
   0 C :    1.054235
   1 H :   -0.191105
   2 F :   -0.630304
   3 C :    0.140476
   4 F :   -0.745247
   5 C :    0.988839
   6 F :   -0.594839
   7 H :   -0.011028
   8 H :   -0.011028
Sum of atomic charges:    0.0000000

LOEWDIN ATOMIC CHARGES
----------------------
   0 C :    0.039120
   1 H :   -0.004973
   2 F :    0.043070
   3 C :   -0.225387
   4 F :    0.070982
   5 C :    0.041728
   6 F :    0.006836
   7 H :    0.014312
   8 H :    0.014312

  Mayer bond orders larger than 0.100000
B(  0-C ,  1-H ) :   0.8872 B(  0-C ,  2-F ) :   0.1598 B(  0-C ,  3-C ) :   1.9877
B(  0-C ,  4-F ) :   0.1274 B(  2-F ,  3-C ) :   0.2927 B(  3-C ,  4-F ) :   0.1178
B(  3-C ,  5-C ) :   1.2408 B(  3-C ,  6-F ) :   0.1746 B(  5-C ,  6-F ) :   0.3028
B(  5-C ,  7-H ) :   0.8785 B(  5-C ,  8-H ) :   0.8785

MP2 TOTAL ENERGY:     -414.680701016 Eh
FINAL SINGLE POINT ENERGY      -414.680701016076

DIPOLE MOMENT
-------------
                                X             Y             Z
Electronic contribution:     -2.99703       0.43458      -0.00000
Nuclear contribution   :      3.69739      -0.43972       0.00000
                        -----------------------------------------
Total Dipole Moment    :      0.70036      -0.00514      -0.00000
                        -----------------------------------------
Magnitude (a.u.)       :      0.70038
Magnitude (Debye)      :      1.78023

Rotational constants in cm-1:     0.194608     0.080624     0.057627
Rotational constants in MHz :  5834.207822  2417.059931  1727.614644

                             ****ORCA TERMINATED NORMALLY****
TOTAL RUN TIME: 0 days 0 hours 0 minutes 26 seconds 596 msec
