                         Program Version 5.0.3 -  RELEASE  -
|  1> !ri-mp2 aug-cc-pvdz aug-cc-pvdz/c tightscf
|  2> %pal nprocs 16 end
|  3>
|  4> * xyz 0 1
|  5> H     -2.046077    1.260629    0.000000
|  6> C     -1.219389    0.555593    0.000000
|  7> H      0.021554    2.201006    0.000000
|  8> C      0.000000    1.114678    0.000000
|  9> H      1.392911   -0.573551    0.000000
| 10> C      1.319865    0.504047    0.000000
| 11> H      3.420124    0.739387    0.000000
| 12> H      2.436778    2.299849    0.000000
| 13> C      2.450226    1.216544    0.000000
| 14> H     -2.367696   -0.977943    0.864681
| 15> H     -2.367696   -0.977943   -0.864681
| 16> C     -1.702301   -0.867901    0.000000
| 17> H     -1.238007   -2.971360    0.000000
| 18> H     -0.064100   -2.005323   -0.883366
| 19> H     -0.064100   -2.005323    0.883366
| 20> C     -0.702350   -2.021198    0.000000
| 21> *
| 22>
| 23>                          ****END OF INPUT****

CARTESIAN COORDINATES (ANGSTROEM)
---------------------------------
  H     -2.046077    1.260629    0.000000
  C     -1.219389    0.555593    0.000000
  H      0.021554    2.201006    0.000000
  C      0.000000    1.114678    0.000000
  H      1.392911   -0.573551    0.000000
  C      1.319865    0.504047    0.000000
  H      3.420124    0.739387    0.000000
  H      2.436778    2.299849    0.000000
  C      2.450226    1.216544    0.000000
  H     -2.367696   -0.977943    0.864681
  H     -2.367696   -0.977943   -0.864681
  C     -1.702301   -0.867901    0.000000
  H     -1.238007   -2.971360    0.000000
  H     -0.064100   -2.005323   -0.883366
  H     -0.064100   -2.005323    0.883366
  C     -0.702350   -2.021198    0.000000

 Total Charge           Charge          ....    0
 Multiplicity           Mult            ....    1
 Number of Electrons    NEL             ....   46
 Basis Dimension        Dim             ....  228

ORBITAL ENERGIES
----------------

  NO   OCC          E(Eh)            E(eV)
   0   2.0000     -11.240232      -305.8622
   1   2.0000     -11.238640      -305.8189
   2   2.0000     -11.237916      -305.7992
   3   2.0000     -11.232744      -305.6585
   4   2.0000     -11.229682      -305.5752
   5   2.0000     -11.224676      -305.4390
   6   2.0000      -1.101438       -29.9716
   7   2.0000      -1.048260       -28.5246
   8   2.0000      -0.981587       -26.7103
   9   2.0000      -0.880924       -23.9712
  10   2.0000      -0.794867       -21.6294
  11   2.0000      -0.729227       -19.8433
  12   2.0000      -0.646797       -17.6002
  13   2.0000      -0.620194       -16.8763
  14   2.0000      -0.614183       -16.7128
  15   2.0000      -0.569625       -15.5003
  16   2.0000      -0.563115       -15.3231
  17   2.0000      -0.522023       -14.2050
  18   2.0000      -0.503606       -13.7038
  19   2.0000      -0.491234       -13.3671
  20   2.0000      -0.463397       -12.6097
  21   2.0000      -0.431910       -11.7529
  22   2.0000      -0.310316        -8.4441
  23   0.0000       0.035561         0.9677
  24   0.0000       0.040822         1.1108
  25   0.0000       0.043883         1.1941
  26   0.0000       0.053754         1.4627
  27   0.0000       0.058417         1.5896

MULLIKEN ATOMIC CHARGES
-----------------------
   0 H :   -0.538133
   1 C :   -0.269961
   2 H :   -0.551952
   3 C :    0.594802
   4 H :   -0.810720
   5 C :    0.782828
   6 H :   -0.360179
   7 H :   -0.351133
   8 C :    0.795036
   9 H :    0.072967
  10 H :    0.072967
  11 C :   -0.046615
  12 H :   -0.227064
  13 H :    0.060323
  14 H :    0.060323
  15 C :    0.716510
Sum of atomic charges:   -0.0000000

LOEWDIN ATOMIC CHARGES
----------------------
   0 H :   -0.001978
   1 C :   -0.002707
   2 H :   -0.001943
   3 C :   -0.026860
   4 H :   -0.029257
   5 C :   -0.070290
   6 H :   -0.045445
   7 H :   -0.040292
   8 C :    0.172940
   9 H :    0.015536
  10 H :    0.015536
  11 C :   -0.064871
  12 H :   -0.018697
  13 H :   -0.016224
  14 H :   -0.016224
  15 C :    0.130776

  Mayer bond orders larger than 0.100000
B(  0-H ,  1-C ) :   0.4855 B(  0-H ,  3-C ) :   0.2390 B(  1-C ,  2-H ) :   0.2942
B(  1-C ,  3-C ) :   2.1021 B(  1-C ,  5-C ) :  -0.1246 B(  1-C ,  8-C ) :   0.1558
B(  1-C ,  9-H ) :   0.1426 B(  1-C , 10-H ) :   0.1426 B(  1-C , 11-C ) :   1.2849
B(  1-C , 15-C ) :  -0.1339 B(  2-H ,  3-C ) :   0.2297 B(  2-H ,  5-C ) :   0.1021
B(  3-C ,  4-H ) :   0.1018 B(  3-C ,  5-C ) :   1.3191 B(  3-C ,  8-C ) :  -0.2267
B(  3-C , 11-C ) :  -0.2544 B(  4-H ,  5-C ) :   0.1888 B(  4-H , 11-C ) :   0.1466
B(  5-C ,  6-H ) :   0.2799 B(  5-C ,  8-C ) :   1.9005 B(  6-H ,  7-H ) :  -0.1911
B(  6-H ,  8-C ) :   0.5728 B(  7-H ,  8-C ) :   0.7318 B(  9-H , 11-C ) :   0.7470
B( 10-H , 11-C ) :   0.7470 B( 11-C , 15-C ) :   1.2389 B( 12-H , 15-C ) :   0.8981
B( 13-H , 14-H ) :  -0.1246 B( 13-H , 15-C ) :   0.8368 B( 14-H , 15-C ) :   0.8368

MP2 TOTAL ENERGY:     -233.866038526 Eh
FINAL SINGLE POINT ENERGY      -233.866038526392

DIPOLE MOMENT
-------------
                                X             Y             Z
Electronic contribution:      0.70070       2.96550       0.00000
Nuclear contribution   :     -0.92160      -3.16616       0.00000
                        -----------------------------------------
Total Dipole Moment    :     -0.22089      -0.20066       0.00000
                        -----------------------------------------
Magnitude (a.u.)       :      0.29843
Magnitude (Debye)      :      0.75855

Rotational constants in cm-1:     0.231384     0.067209     0.053092
Rotational constants in MHz :  6936.717363  2014.865875  1591.645375

                             ****ORCA TERMINATED NORMALLY****
TOTAL RUN TIME: 0 days 0 hours 0 minutes 50 seconds 937 msec
