                         Program Version 5.0.3 -  RELEASE  -
|  1> !ri-mp2 aug-cc-pvdz aug-cc-pvdz/c tightscf
|  2> %pal nprocs 16 end
|  3>
|  4> * xyz 0 1
|  5> C      1.701604   -1.275001   -0.436236
|  6> H      2.374174   -0.561889   -0.914203
|  7> H      2.313484   -2.070904   -0.008931
|  8> H      1.074007   -1.711323   -1.214157
|  9> C      0.842683   -0.605101    0.647356
| 10> H      1.502107   -0.227760    1.434975
| 11> H      0.212380   -1.360114    1.116333
| 12> C      0.743877    1.839260   -0.066279
| 13> H      0.096872    2.613381   -0.477032
| 14> H      1.149562    2.202250    0.882755
| 15> H      1.594614    1.719062   -0.742276
| 16> C     -2.193807   -0.745612   -0.035612
| 17> H     -3.043183   -0.530327    0.618671
| 18> H     -2.614514   -1.013203   -1.008980
| 19> H     -1.686431   -1.625328    0.355250
| 20> C      0.004778    0.540753    0.128637
| 21> C     -1.296904    0.449290   -0.156534
| 22> H     -1.786454    1.344617   -0.530396
| 23> *
| 24>
| 25>                          ****END OF INPUT****

CARTESIAN COORDINATES (ANGSTROEM)
---------------------------------
  C      1.701604   -1.275001   -0.436236
  H      2.374174   -0.561889   -0.914203
  H      2.313484   -2.070904   -0.008931
  H      1.074007   -1.711323   -1.214157
  C      0.842683   -0.605101    0.647356
  H      1.502107   -0.227760    1.434975
  H      0.212380   -1.360114    1.116333
  C      0.743877    1.839260   -0.066279
  H      0.096872    2.613381   -0.477032
  H      1.149562    2.202250    0.882755
  H      1.594614    1.719062   -0.742276
  C     -2.193807   -0.745612   -0.035612
  H     -3.043183   -0.530327    0.618671
  H     -2.614514   -1.013203   -1.008980
  H     -1.686431   -1.625328    0.355250
  C      0.004778    0.540753    0.128637
  C     -1.296904    0.449290   -0.156534
  H     -1.786454    1.344617   -0.530396

 Total Charge           Charge          ....    0
 Multiplicity           Mult            ....    1
 Number of Electrons    NEL             ....   48
 Basis Dimension        Dim             ....  246

ORBITAL ENERGIES
----------------

  NO   OCC          E(Eh)            E(eV)
   0   2.0000     -11.230059      -305.5854
   1   2.0000     -11.225464      -305.4604
   2   2.0000     -11.221377      -305.3492
   3   2.0000     -11.220060      -305.3134
   4   2.0000     -11.219547      -305.2994
   5   2.0000     -11.219409      -305.2956
   6   2.0000      -1.102140       -29.9908
   7   2.0000      -1.012679       -27.5564
   8   2.0000      -0.976469       -26.5711
   9   2.0000      -0.883423       -24.0392
  10   2.0000      -0.845096       -22.9962
  11   2.0000      -0.698971       -19.0200
  12   2.0000      -0.639926       -17.4133
  13   2.0000      -0.604093       -16.4382
  14   2.0000      -0.582964       -15.8633
  15   2.0000      -0.568965       -15.4823
  16   2.0000      -0.553749       -15.0683
  17   2.0000      -0.538750       -14.6601
  18   2.0000      -0.517708       -14.0875
  19   2.0000      -0.508479       -13.8364
  20   2.0000      -0.502512       -13.6740
  21   2.0000      -0.477837       -13.0026
  22   2.0000      -0.451142       -12.2762
  23   2.0000      -0.329544        -8.9674
  24   0.0000       0.037092         1.0093
  25   0.0000       0.043176         1.1749
  26   0.0000       0.045128         1.2280
  27   0.0000       0.048824         1.3286
  28   0.0000       0.060764         1.6535

MULLIKEN ATOMIC CHARGES
-----------------------
   0 C :    0.382852
   1 H :   -0.126474
   2 H :   -0.098523
   3 H :   -0.093943
   4 C :    0.350106
   5 H :   -0.119031
   6 H :   -0.064104
   7 C :    0.219475
   8 H :   -0.201141
   9 H :    0.056256
  10 H :   -0.004436
  11 C :    0.237803
  12 H :    0.064119
  13 H :    0.102004
  14 H :   -0.218315
  15 C :   -0.060832
  16 C :    0.143761
  17 H :   -0.569576
Sum of atomic charges:    0.0000000

LOEWDIN ATOMIC CHARGES
----------------------
   0 C :    0.146612
   1 H :   -0.025521
   2 H :   -0.019595
   3 H :   -0.015982
   4 C :   -0.032939
   5 H :    0.015343
   6 H :   -0.002347
   7 C :    0.162368
   8 H :   -0.016798
   9 H :   -0.009790
  10 H :   -0.017142
  11 C :    0.139918
  12 H :   -0.016196
  13 H :   -0.015311
  14 H :   -0.033488
  15 C :   -0.239583
  16 C :   -0.013618
  17 H :   -0.005931

  Mayer bond orders larger than 0.100000
B(  0-C ,  1-H ) :   0.9369 B(  0-C ,  2-H ) :   0.8902 B(  0-C ,  3-H ) :   0.9789
B(  0-C ,  4-C ) :   1.1535 B(  0-C , 16-C ) :   0.1528 B(  4-C ,  5-H ) :   0.7566
B(  4-C ,  6-H ) :   0.7560 B(  4-C ,  7-C ) :  -0.2311 B(  4-C , 15-C ) :   1.0653
B(  4-C , 16-C ) :  -0.1408 B(  5-H , 15-C ) :   0.1169 B(  6-H , 15-C ) :   0.1794
B(  6-H , 16-C ) :  -0.1042 B(  7-C ,  8-H ) :   0.7253 B(  7-C ,  9-H ) :   0.9121
B(  7-C , 10-H ) :   0.9362 B(  7-C , 11-C ) :   0.1076 B(  7-C , 15-C ) :   1.2760
B(  7-C , 16-C ) :  -0.1147 B(  8-H , 15-C ) :   0.2907 B( 11-C , 12-H ) :   0.8788
B( 11-C , 13-H ) :   0.8724 B( 11-C , 14-H ) :   0.9630 B( 11-C , 15-C ) :  -0.1257
B( 11-C , 16-C ) :   1.1224 B( 15-C , 16-C ) :   1.7745 B( 15-C , 17-H ) :   0.2670
B( 16-C , 17-H ) :   0.4124

MP2 TOTAL ENERGY:     -235.088381033 Eh
FINAL SINGLE POINT ENERGY      -235.088381032960

DIPOLE MOMENT
-------------
                                X             Y             Z
Electronic contribution:     -1.20777       1.24590       0.54846
Nuclear contribution   :      1.27101      -1.30841      -0.52270
                        -----------------------------------------
Total Dipole Moment    :      0.06324      -0.06252       0.02576
                        -----------------------------------------
Magnitude (a.u.)       :      0.09258
Magnitude (Debye)      :      0.23531

Rotational constants in cm-1:     0.135827     0.090787     0.061092
Rotational constants in MHz :  4072.001697  2721.716757  1831.498979

                             ****ORCA TERMINATED NORMALLY****
TOTAL RUN TIME: 0 days 0 hours 0 minutes 54 seconds 267 msec
