                         Program Version 5.0.3 -  RELEASE  -
|  1> !ri-mp2 aug-cc-pvdz aug-cc-pvdz/c tightscf
|  2> %pal nprocs 16 end
|  3>
|  4> * xyz 0 1
|  5> C      0.000000    0.660572    0.578468
|  6> C      0.000000   -0.660572    0.578468
|  7> F      0.000000    1.383039   -0.550638
|  8> F      0.000000   -1.383039   -0.550638
|  9> H      0.000000    1.245818    1.484934
| 10> H      0.000000   -1.245818    1.484934
| 11> *
| 12>
| 13>                          ****END OF INPUT****

CARTESIAN COORDINATES (ANGSTROEM)
---------------------------------
  C      0.000000    0.660572    0.578468
  C      0.000000   -0.660572    0.578468
  F      0.000000    1.383039   -0.550638
  F      0.000000   -1.383039   -0.550638
  H      0.000000    1.245818    1.484934
  H      0.000000   -1.245818    1.484934

 Total Charge           Charge          ....    0
 Multiplicity           Mult            ....    1
 Number of Electrons    NEL             ....   32
 Basis Dimension        Dim             ....  110

ORBITAL ENERGIES
----------------

  NO   OCC          E(Eh)            E(eV)
   0   2.0000     -26.335799      -716.6335
   1   2.0000     -26.335795      -716.6334
   2   2.0000     -11.346653      -308.7581
   3   2.0000     -11.344883      -308.7100
   4   2.0000      -1.651156       -44.9303
   5   2.0000      -1.638234       -44.5786
   6   2.0000      -1.072460       -29.1831
   7   2.0000      -0.863734       -23.5034
   8   2.0000      -0.780586       -21.2408
   9   2.0000      -0.757318       -20.6077
  10   2.0000      -0.715947       -19.4819
  11   2.0000      -0.701693       -19.0941
  12   2.0000      -0.689765       -18.7695
  13   2.0000      -0.619809       -16.8658
  14   2.0000      -0.582313       -15.8456
  15   2.0000      -0.393280       -10.7017
  16   0.0000       0.032288         0.8786
  17   0.0000       0.047351         1.2885
  18   0.0000       0.087565         2.3828
  19   0.0000       0.104215         2.8358
  20   0.0000       0.107820         2.9339

MULLIKEN ATOMIC CHARGES
-----------------------
   0 C :    0.779850
   1 C :    0.779850
   2 F :   -0.603354
   3 F :   -0.603354
   4 H :   -0.176496
   5 H :   -0.176496
Sum of atomic charges:   -0.0000000

LOEWDIN ATOMIC CHARGES
----------------------
   0 C :   -0.025833
   1 C :   -0.025833
   2 F :    0.038983
   3 F :    0.038983
   4 H :   -0.013151
   5 H :   -0.013151

  Mayer bond orders larger than 0.100000
B(  0-C ,  1-C ) :   2.1381 B(  0-C ,  2-F ) :   0.2769 B(  0-C ,  3-F ) :   0.2105
B(  0-C ,  4-H ) :   0.8941 B(  1-C ,  2-F ) :   0.2105 B(  1-C ,  3-F ) :   0.2769
B(  1-C ,  5-H ) :   0.8941

MP2 TOTAL ENERGY:     -276.435410800 Eh
FINAL SINGLE POINT ENERGY      -276.435410800331

DIPOLE MOMENT
-------------
                                X             Y             Z
Electronic contribution:      0.00000       0.00000      -2.73688
Nuclear contribution   :      0.00000       0.00000       3.80810
                        -----------------------------------------
Total Dipole Moment    :      0.00000       0.00000       1.07121
                        -----------------------------------------
Magnitude (a.u.)       :      1.07121
Magnitude (Debye)      :      2.72281

Rotational constants in cm-1:     0.709788     0.195361     0.153196
Rotational constants in MHz : 21278.922647  5856.775281  4592.690724

                             ****ORCA TERMINATED NORMALLY****
TOTAL RUN TIME: 0 days 0 hours 0 minutes 23 seconds 901 msec
