                         Program Version 5.0.3 -  RELEASE  -
|  1> !ri-mp2 aug-cc-pvdz aug-cc-pvdz/c tightscf
|  2> %pal nprocs 16 end
|  3>
|  4> * xyz 0 1
|  5> C     -0.795540   -1.498083    0.000000
|  6> F      0.356729   -2.191946    0.000000
|  7> H     -1.660114   -2.146002    0.000000
|  8> C     -0.829762   -0.177917    0.000000
|  9> H     -1.791395    0.315467    0.000000
| 10> C      0.375366    0.693448    0.000000
| 11> H      1.319452    0.152643    0.000000
| 12> F      0.356729    1.516706    1.098964
| 13> F      0.356729    1.516706   -1.098964
| 14> *
| 15>
| 16>                          ****END OF INPUT****

CARTESIAN COORDINATES (ANGSTROEM)
---------------------------------
  C     -0.795540   -1.498083    0.000000
  F      0.356729   -2.191946    0.000000
  H     -1.660114   -2.146002    0.000000
  C     -0.829762   -0.177917    0.000000
  H     -1.791395    0.315467    0.000000
  C      0.375366    0.693448    0.000000
  H      1.319452    0.152643    0.000000
  F      0.356729    1.516706    1.098964
  F      0.356729    1.516706   -1.098964

 Total Charge           Charge          ....    0
 Multiplicity           Mult            ....    1
 Number of Electrons    NEL             ....   48
 Basis Dimension        Dim             ....  165

ORBITAL ENERGIES
----------------

  NO   OCC          E(Eh)            E(eV)
   0   2.0000     -26.349062      -716.9944
   1   2.0000     -26.324120      -716.3157
   2   2.0000     -26.324102      -716.3152
   3   2.0000     -11.428912      -310.9965
   4   2.0000     -11.366583      -309.3005
   5   2.0000     -11.272015      -306.7271
   6   2.0000      -1.663317       -45.2612
   7   2.0000      -1.658598       -45.1327
   8   2.0000      -1.601818       -43.5877
   9   2.0000      -1.114034       -30.3144
  10   2.0000      -0.971472       -26.4351
  11   2.0000      -0.856673       -23.3113
  12   2.0000      -0.794429       -21.6175
  13   2.0000      -0.766763       -20.8647
  14   2.0000      -0.756028       -20.5726
  15   2.0000      -0.748066       -20.3559
  16   2.0000      -0.715742       -19.4763
  17   2.0000      -0.666279       -18.1304
  18   2.0000      -0.659530       -17.9467
  19   2.0000      -0.629392       -17.1266
  20   2.0000      -0.629104       -17.1188
  21   2.0000      -0.599158       -16.3039
  22   2.0000      -0.533730       -14.5235
  23   2.0000      -0.414985       -11.2923
  24   0.0000       0.031103         0.8463
  25   0.0000       0.047607         1.2954
  26   0.0000       0.050160         1.3649
  27   0.0000       0.095817         2.6073
  28   0.0000       0.097406         2.6506

MULLIKEN ATOMIC CHARGES
-----------------------
   0 C :    1.046701
   1 F :   -0.637571
   2 H :   -0.192306
   3 C :    0.122171
   4 H :   -0.340409
   5 C :    1.497841
   6 H :   -0.273852
   7 F :   -0.611287
   8 F :   -0.611287
Sum of atomic charges:    0.0000000

LOEWDIN ATOMIC CHARGES
----------------------
   0 C :    0.016961
   1 F :    0.038916
   2 H :   -0.000816
   3 C :    0.010688
   4 H :    0.007905
   5 C :   -0.153983
   6 H :    0.022696
   7 F :    0.028816
   8 F :    0.028816

  Mayer bond orders larger than 0.100000
B(  0-C ,  1-F ) :   0.1883 B(  0-C ,  2-H ) :   0.8045 B(  0-C ,  3-C ) :   1.9154
B(  1-F ,  3-C ) :   0.2516 B(  2-H ,  3-C ) :   0.1027 B(  3-C ,  4-H ) :   0.9186
B(  3-C ,  5-C ) :   1.1346 B(  5-C ,  6-H ) :   0.8932 B(  5-C ,  7-F ) :   0.3300
B(  5-C ,  8-F ) :   0.3300

MP2 TOTAL ENERGY:     -414.701134591 Eh
FINAL SINGLE POINT ENERGY      -414.701134590527

DIPOLE MOMENT
-------------
                                X             Y             Z
Electronic contribution:      2.36376       1.57658       0.00000
Nuclear contribution   :     -2.99296      -2.35471       0.00000
                        -----------------------------------------
Total Dipole Moment    :     -0.62920      -0.77814       0.00000
                        -----------------------------------------
Magnitude (a.u.)       :      1.00069
Magnitude (Debye)      :      2.54356

Rotational constants in cm-1:     0.227239     0.067708     0.063239
Rotational constants in MHz :  6812.448737  2029.827690  1895.867120

                             ****ORCA TERMINATED NORMALLY****
TOTAL RUN TIME: 0 days 0 hours 0 minutes 26 seconds 340 msec
