                         Program Version 5.0.3 -  RELEASE  -
|  1> !ri-mp2 aug-cc-pvdz aug-cc-pvdz/c tightscf
|  2> %pal nprocs 16 end
|  3>
|  4> * xyz 0 1
|  5> C      2.504241    0.931319   -0.085192
|  6> C      1.998142   -0.478800   -0.128417
|  7> C      0.769296   -0.918216    0.140008
|  8> C     -0.434805   -0.119302    0.542445
|  9> C     -1.601727   -0.257472   -0.447654
| 10> C     -2.851525    0.501404   -0.006889
| 11> H      1.734783    1.651980    0.184380
| 12> H      3.319775    1.027195    0.636764
| 13> H      2.913879    1.224357   -1.055460
| 14> H      2.738677   -1.220567   -0.412233
| 15> H      0.595713   -1.987355    0.051531
| 16> H     -0.185051    0.936381    0.659414
| 17> H     -0.776153   -0.463279    1.525879
| 18> H     -1.278423    0.098753   -1.429077
| 19> H     -1.840844   -1.317309   -0.573189
| 20> H     -3.661297    0.386912   -0.728721
| 21> H     -3.213611    0.139892    0.957916
| 22> H     -2.649176    1.569437    0.096993
| 23> *
| 24>
| 25>                          ****END OF INPUT****

CARTESIAN COORDINATES (ANGSTROEM)
---------------------------------
  C      2.504241    0.931319   -0.085192
  C      1.998142   -0.478800   -0.128417
  C      0.769296   -0.918216    0.140008
  C     -0.434805   -0.119302    0.542445
  C     -1.601727   -0.257472   -0.447654
  C     -2.851525    0.501404   -0.006889
  H      1.734783    1.651980    0.184380
  H      3.319775    1.027195    0.636764
  H      2.913879    1.224357   -1.055460
  H      2.738677   -1.220567   -0.412233
  H      0.595713   -1.987355    0.051531
  H     -0.185051    0.936381    0.659414
  H     -0.776153   -0.463279    1.525879
  H     -1.278423    0.098753   -1.429077
  H     -1.840844   -1.317309   -0.573189
  H     -3.661297    0.386912   -0.728721
  H     -3.213611    0.139892    0.957916
  H     -2.649176    1.569437    0.096993

 Total Charge           Charge          ....    0
 Multiplicity           Mult            ....    1
 Number of Electrons    NEL             ....   48
 Basis Dimension        Dim             ....  246

ORBITAL ENERGIES
----------------

  NO   OCC          E(Eh)            E(eV)
   0   2.0000     -11.228618      -305.5462
   1   2.0000     -11.225211      -305.4535
   2   2.0000     -11.224583      -305.4364
   3   2.0000     -11.224088      -305.4230
   4   2.0000     -11.223784      -305.4147
   5   2.0000     -11.217799      -305.2518
   6   2.0000      -1.091933       -29.7130
   7   2.0000      -1.040306       -28.3082
   8   2.0000      -0.961417       -26.1615
   9   2.0000      -0.896163       -24.3858
  10   2.0000      -0.807522       -21.9738
  11   2.0000      -0.721801       -19.6412
  12   2.0000      -0.657950       -17.9037
  13   2.0000      -0.610649       -16.6166
  14   2.0000      -0.590731       -16.0746
  15   2.0000      -0.566580       -15.4174
  16   2.0000      -0.556793       -15.1511
  17   2.0000      -0.534139       -14.5347
  18   2.0000      -0.522063       -14.2061
  19   2.0000      -0.499928       -13.6037
  20   2.0000      -0.478645       -13.0246
  21   2.0000      -0.467479       -12.7207
  22   2.0000      -0.457562       -12.4509
  23   2.0000      -0.341025        -9.2797
  24   0.0000       0.036482         0.9927
  25   0.0000       0.042929         1.1682
  26   0.0000       0.044728         1.2171
  27   0.0000       0.048732         1.3261
  28   0.0000       0.060303         1.6409

MULLIKEN ATOMIC CHARGES
-----------------------
   0 C :    0.242516
   1 C :    0.001455
   2 C :    0.862238
   3 C :    0.244511
   4 C :    0.038069
   5 C :    0.409976
   6 H :   -0.194853
   7 H :    0.066211
   8 H :    0.083329
   9 H :   -0.446461
  10 H :   -0.519374
  11 H :   -0.216441
  12 H :   -0.034202
  13 H :   -0.136712
  14 H :   -0.168765
  15 H :   -0.079598
  16 H :   -0.063599
  17 H :   -0.088300
Sum of atomic charges:   -0.0000000

LOEWDIN ATOMIC CHARGES
----------------------
   0 C :    0.137425
   1 C :   -0.048162
   2 C :   -0.019128
   3 C :   -0.035928
   4 C :   -0.070093
   5 C :    0.130152
   6 H :   -0.032225
   7 H :   -0.015750
   8 H :   -0.016002
   9 H :   -0.007791
  10 H :   -0.000958
  11 H :    0.000039
  12 H :    0.018223
  13 H :    0.012541
  14 H :    0.009811
  15 H :   -0.021886
  16 H :   -0.020100
  17 H :   -0.020170

  Mayer bond orders larger than 0.100000
B(  0-C ,  1-C ) :   1.2188 B(  0-C ,  2-C ) :  -0.1824 B(  0-C ,  6-H ) :   1.0415
B(  0-C ,  7-H ) :   0.8716 B(  0-C ,  8-H ) :   0.8997 B(  0-C ,  9-H ) :  -0.1186
B(  1-C ,  2-C ) :   1.8761 B(  1-C ,  6-H ) :   0.1001 B(  1-C ,  9-H ) :   0.7019
B(  1-C , 10-H ) :   0.1541 B(  2-C ,  3-C ) :   1.2541 B(  2-C ,  9-H ) :   0.1662
B(  2-C , 10-H ) :   0.4043 B(  3-C ,  4-C ) :   1.2541 B(  3-C , 11-H ) :   0.7485
B(  3-C , 12-H ) :   0.8478 B(  4-C ,  5-C ) :   1.2053 B(  4-C , 13-H ) :   0.8776
B(  4-C , 14-H ) :   0.8124 B(  5-C , 15-H ) :   0.9114 B(  5-C , 16-H ) :   0.9446
B(  5-C , 17-H ) :   0.9302

MP2 TOTAL ENERGY:     -235.083204963 Eh
FINAL SINGLE POINT ENERGY      -235.083204962665

DIPOLE MOMENT
-------------
                                X             Y             Z
Electronic contribution:      2.43464      -2.09676       0.08617
Nuclear contribution   :     -2.46543       2.19194      -0.09191
                        -----------------------------------------
Total Dipole Moment    :     -0.03078       0.09517      -0.00574
                        -----------------------------------------
Magnitude (a.u.)       :      0.10019
Magnitude (Debye)      :      0.25467

Rotational constants in cm-1:     0.288702     0.049113     0.045320
Rotational constants in MHz :  8655.072664  1472.380421  1358.673586

                             ****ORCA TERMINATED NORMALLY****
TOTAL RUN TIME: 0 days 0 hours 0 minutes 40 seconds 229 msec
