                         Program Version 5.0.3 -  RELEASE  -
|  1> !ri-mp2 aug-cc-pvdz aug-cc-pvdz/c tightscf
|  2> %pal nprocs 16 end
|  3>
|  4> * xyz 0 1
|  5> H      3.165275   -0.906366    0.000000
|  6> C      2.248373   -0.372188    0.000000
|  7> C      1.205752    0.228394    0.000000
|  8> H      0.114647    2.056770    0.000000
|  9> C      0.000000    0.978779    0.000000
| 10> H     -2.064969    1.154769    0.000000
| 11> C     -1.233830    0.458318    0.000000
| 12> H     -0.691320   -1.620929    0.000000
| 13> H     -2.183701   -1.244462    0.875775
| 14> H     -2.183701   -1.244462   -0.875775
| 15> C     -1.579666   -0.992523    0.000000
| 16> *
| 17>
| 18>                          ****END OF INPUT****

CARTESIAN COORDINATES (ANGSTROEM)
---------------------------------
  H      3.165275   -0.906366    0.000000
  C      2.248373   -0.372188    0.000000
  C      1.205752    0.228394    0.000000
  H      0.114647    2.056770    0.000000
  C      0.000000    0.978779    0.000000
  H     -2.064969    1.154769    0.000000
  C     -1.233830    0.458318    0.000000
  H     -0.691320   -1.620929    0.000000
  H     -2.183701   -1.244462    0.875775
  H     -2.183701   -1.244462   -0.875775
  C     -1.579666   -0.992523    0.000000

 Total Charge           Charge          ....    0
 Multiplicity           Mult            ....    1
 Number of Electrons    NEL             ....   36
 Basis Dimension        Dim             ....  169

ORBITAL ENERGIES
----------------

  NO   OCC          E(Eh)            E(eV)
   0   2.0000     -11.259306      -306.3813
   1   2.0000     -11.255038      -306.2651
   2   2.0000     -11.244333      -305.9739
   3   2.0000     -11.233923      -305.6906
   4   2.0000     -11.233817      -305.6877
   5   2.0000      -1.105875       -30.0924
   6   2.0000      -1.024926       -27.8896
   7   2.0000      -0.950734       -25.8708
   8   2.0000      -0.811538       -22.0831
   9   2.0000      -0.709174       -19.2976
  10   2.0000      -0.665386       -18.1061
  11   2.0000      -0.629854       -17.1392
  12   2.0000      -0.574584       -15.6352
  13   2.0000      -0.536819       -14.6076
  14   2.0000      -0.517082       -14.0705
  15   2.0000      -0.454503       -12.3677
  16   2.0000      -0.392899       -10.6913
  17   2.0000      -0.332532        -9.0486
  18   0.0000       0.035178         0.9572
  19   0.0000       0.040788         1.1099
  20   0.0000       0.046792         1.2733
  21   0.0000       0.058941         1.6039
  22   0.0000       0.059509         1.6193

MULLIKEN ATOMIC CHARGES
-----------------------
   0 H :   -0.472167
   1 C :    0.586182
   2 C :   -0.286026
   3 H :   -0.432978
   4 C :    0.719638
   5 H :   -0.425009
   6 C :    0.060146
   7 H :   -0.077996
   8 H :    0.053451
   9 H :    0.053451
  10 C :    0.221307
Sum of atomic charges:    0.0000000

LOEWDIN ATOMIC CHARGES
----------------------
   0 H :   -0.106639
   1 C :    0.214734
   2 C :   -0.121881
   3 H :   -0.002539
   4 C :   -0.063242
   5 H :    0.000567
   6 C :   -0.024629
   7 H :   -0.020267
   8 H :   -0.011183
   9 H :   -0.011183
  10 C :    0.146262

  Mayer bond orders larger than 0.100000
B(  0-H ,  1-C ) :   0.1804 B(  0-H ,  2-C ) :   0.1749 B(  1-C ,  2-C ) :   2.8810
B(  1-C ,  4-C ) :   0.1386 B(  2-C ,  4-C ) :   1.4458 B(  2-C , 10-C ) :   0.1058
B(  3-H ,  4-C ) :   0.5346 B(  3-H ,  6-C ) :   0.1372 B(  4-C ,  6-C ) :   1.8210
B(  4-C , 10-C ) :  -0.1300 B(  5-H ,  6-C ) :   0.7293 B(  6-C , 10-C ) :   1.3031
B(  7-H , 10-C ) :   0.9679 B(  8-H , 10-C ) :   0.8629 B(  9-H , 10-C ) :   0.8629

MP2 TOTAL ENERGY:     -193.449248669 Eh
FINAL SINGLE POINT ENERGY      -193.449248669049

DIPOLE MOMENT
-------------
                                X             Y             Z
Electronic contribution:      3.54913       1.75272      -0.00000
Nuclear contribution   :     -3.93144      -1.84584       0.00000
                        -----------------------------------------
Total Dipole Moment    :     -0.38231      -0.09312      -0.00000
                        -----------------------------------------
Magnitude (a.u.)       :      0.39348
Magnitude (Debye)      :      1.00016

Rotational constants in cm-1:     0.406735     0.110413     0.088245
Rotational constants in MHz : 12193.597472  3310.107968  2645.529977

                             ****ORCA TERMINATED NORMALLY****
TOTAL RUN TIME: 0 days 0 hours 0 minutes 29 seconds 684 msec
