                         Program Version 5.0.3 -  RELEASE  -
|  1> !ri-mp2 aug-cc-pvdz aug-cc-pvdz/c tightscf
|  2> %pal nprocs 16 end
|  3>
|  4> * xyz 0 1
|  5> C      0.000000    0.673836    1.076580
|  6> C      0.000000   -0.673836    1.076580
|  7> C      0.000000    1.493940   -0.073575
|  8> C      0.000000   -1.493940   -0.073575
|  9> H      0.000000    1.184203    2.032282
| 10> H      0.000000   -1.184203    2.032282
| 11> C      0.000000    2.225403   -1.028515
| 12> C      0.000000   -2.225403   -1.028515
| 13> H      0.000000    2.859977   -1.879220
| 14> H      0.000000   -2.859977   -1.879220
| 15> *
| 16>
| 17>                          ****END OF INPUT****

CARTESIAN COORDINATES (ANGSTROEM)
---------------------------------
  C      0.000000    0.673836    1.076580
  C      0.000000   -0.673836    1.076580
  C      0.000000    1.493940   -0.073575
  C      0.000000   -1.493940   -0.073575
  H      0.000000    1.184203    2.032282
  H      0.000000   -1.184203    2.032282
  C      0.000000    2.225403   -1.028515
  C      0.000000   -2.225403   -1.028515
  H      0.000000    2.859977   -1.879220
  H      0.000000   -2.859977   -1.879220

 Total Charge           Charge          ....    0
 Multiplicity           Mult            ....    1
 Number of Electrons    NEL             ....   40
 Basis Dimension        Dim             ....  174

ORBITAL ENERGIES
----------------

  NO   OCC          E(Eh)            E(eV)
   0   2.0000     -11.283551      -307.0410
   1   2.0000     -11.282004      -306.9989
   2   2.0000     -11.252735      -306.2025
   3   2.0000     -11.252730      -306.2023
   4   2.0000     -11.246657      -306.0371
   5   2.0000     -11.246656      -306.0371
   6   2.0000      -1.126790       -30.6615
   7   2.0000      -1.049765       -28.5655
   8   2.0000      -1.005469       -27.3602
   9   2.0000      -0.882400       -24.0113
  10   2.0000      -0.760723       -20.7003
  11   2.0000      -0.715965       -19.4824
  12   2.0000      -0.691336       -18.8122
  13   2.0000      -0.655053       -17.8249
  14   2.0000      -0.583245       -15.8709
  15   2.0000      -0.498195       -13.5566
  16   2.0000      -0.424382       -11.5480
  17   2.0000      -0.405317       -11.0292
  18   2.0000      -0.400223       -10.8906
  19   2.0000      -0.328914        -8.9502
  20   0.0000       0.035088         0.9548
  21   0.0000       0.039057         1.0628
  22   0.0000       0.040363         1.0983
  23   0.0000       0.055124         1.5000
  24   0.0000       0.061939         1.6854

MULLIKEN ATOMIC CHARGES
-----------------------
   0 C :    0.547656
   1 C :    0.547656
   2 C :   -0.286443
   3 C :   -0.286443
   4 H :   -0.431460
   5 H :   -0.431460
   6 C :    0.693798
   7 C :    0.693798
   8 H :   -0.523551
   9 H :   -0.523551
Sum of atomic charges:    0.0000000

LOEWDIN ATOMIC CHARGES
----------------------
   0 C :   -0.035782
   1 C :   -0.035782
   2 C :   -0.102858
   3 C :   -0.102858
   4 H :    0.005791
   5 H :    0.005791
   6 C :    0.233024
   7 C :    0.233024
   8 H :   -0.100175
   9 H :   -0.100175

  Mayer bond orders larger than 0.100000
B(  0-C ,  1-C ) :   2.0298 B(  0-C ,  2-C ) :   1.5957 B(  0-C ,  4-H ) :   0.4222
B(  0-C ,  5-H ) :   0.2682 B(  0-C ,  8-H ) :   0.1111 B(  1-C ,  3-C ) :   1.5957
B(  1-C ,  4-H ) :   0.2682 B(  1-C ,  5-H ) :   0.4222 B(  1-C ,  9-H ) :   0.1111
B(  2-C ,  3-C ) :   0.1684 B(  2-C ,  6-C ) :   2.8743 B(  2-C ,  7-C ) :  -0.1547
B(  2-C ,  8-H ) :   0.3979 B(  3-C ,  6-C ) :  -0.1547 B(  3-C ,  7-C ) :   2.8743
B(  3-C ,  9-H ) :   0.3979 B(  6-C ,  7-C ) :   0.3084

MP2 TOTAL ENERGY:     -230.185822878 Eh
FINAL SINGLE POINT ENERGY      -230.185822878017

DIPOLE MOMENT
-------------
                                X             Y             Z
Electronic contribution:     -0.00000       0.00000      -0.23225
Nuclear contribution   :      0.00000       0.00000       0.30220
                        -----------------------------------------
Total Dipole Moment    :     -0.00000       0.00000       0.06995
                        -----------------------------------------
Magnitude (a.u.)       :      0.06995
Magnitude (Debye)      :      0.17781

Rotational constants in cm-1:     0.244923     0.083122     0.062060
Rotational constants in MHz :  7342.614118  2491.949217  1860.522006

                             ****ORCA TERMINATED NORMALLY****
TOTAL RUN TIME: 0 days 0 hours 0 minutes 31 seconds 953 msec
