                         Program Version 5.0.3 -  RELEASE  -
|  1> !ri-mp2 aug-cc-pvdz aug-cc-pvdz/c tightscf
|  2> %pal nprocs 16 end
|  3>
|  4> * xyz 0 1
|  5> N     -0.000879    0.657327   -0.156908
|  6> N      0.000879   -0.657327   -0.156908
|  7> O      0.011007    1.297461   -1.232955
|  8> O     -0.011007   -1.297461   -1.232955
|  9> C      0.000879    1.397974    1.121153
| 10> C     -0.000879   -1.397974    1.121153
| 11> H     -0.261515    2.413654    0.851840
| 12> H     -0.729762    0.994639    1.816917
| 13> H      0.995166    1.380452    1.566321
| 14> H      0.261515   -2.413654    0.851840
| 15> H      0.729762   -0.994639    1.816917
| 16> H     -0.995166   -1.380452    1.566321
| 17> *
| 18>
| 19>                          ****END OF INPUT****

CARTESIAN COORDINATES (ANGSTROEM)
---------------------------------
  N     -0.000879    0.657327   -0.156908
  N      0.000879   -0.657327   -0.156908
  O      0.011007    1.297461   -1.232955
  O     -0.011007   -1.297461   -1.232955
  C      0.000879    1.397974    1.121153
  C     -0.000879   -1.397974    1.121153
  H     -0.261515    2.413654    0.851840
  H     -0.729762    0.994639    1.816917
  H      0.995166    1.380452    1.566321
  H      0.261515   -2.413654    0.851840
  H      0.729762   -0.994639    1.816917
  H     -0.995166   -1.380452    1.566321

 Total Charge           Charge          ....    0
 Multiplicity           Mult            ....    1
 Number of Electrons    NEL             ....   48
 Basis Dimension        Dim             ....  192

ORBITAL ENERGIES
----------------

  NO   OCC          E(Eh)            E(eV)
   0   2.0000     -20.555780      -559.3512
   1   2.0000     -20.555779      -559.3512
   2   2.0000     -15.779053      -429.3699
   3   2.0000     -15.778153      -429.3454
   4   2.0000     -11.320832      -308.0555
   5   2.0000     -11.320822      -308.0552
   6   2.0000      -1.552937       -42.2576
   7   2.0000      -1.429035       -38.8860
   8   2.0000      -1.227845       -33.4114
   9   2.0000      -1.074977       -29.2516
  10   2.0000      -1.035146       -28.1678
  11   2.0000      -0.818528       -22.2733
  12   2.0000      -0.776523       -21.1303
  13   2.0000      -0.745908       -20.2972
  14   2.0000      -0.708915       -19.2906
  15   2.0000      -0.641718       -17.4620
  16   2.0000      -0.624770       -17.0008
  17   2.0000      -0.622386       -16.9360
  18   2.0000      -0.613377       -16.6908
  19   2.0000      -0.600715       -16.3463
  20   2.0000      -0.514316       -13.9952
  21   2.0000      -0.454143       -12.3579
  22   2.0000      -0.449126       -12.2213
  23   2.0000      -0.320085        -8.7100
  24   0.0000       0.017671         0.4808
  25   0.0000       0.036621         0.9965
  26   0.0000       0.039056         1.0628
  27   0.0000       0.054800         1.4912
  28   0.0000       0.061296         1.6680

MULLIKEN ATOMIC CHARGES
-----------------------
   0 N :    0.318981
   1 N :    0.318981
   2 O :   -0.941539
   3 O :   -0.941539
   4 C :    0.793612
   5 C :    0.793612
   6 H :   -0.171013
   7 H :    0.010207
   8 H :   -0.010247
   9 H :   -0.171013
  10 H :    0.010207
  11 H :   -0.010247
Sum of atomic charges:    0.0000000

LOEWDIN ATOMIC CHARGES
----------------------
   0 N :   -0.237150
   1 N :   -0.237150
   2 O :   -0.013457
   3 O :   -0.013457
   4 C :    0.255680
   5 C :    0.255680
   6 H :   -0.000200
   7 H :   -0.008478
   8 H :    0.003605
   9 H :   -0.000200
  10 H :   -0.008478
  11 H :    0.003605

  Mayer bond orders larger than 0.100000
B(  0-N ,  1-N ) :   1.2699 B(  0-N ,  2-O ) :   1.0179 B(  0-N ,  4-C ) :   0.7293
B(  1-N ,  3-O ) :   1.0179 B(  1-N ,  5-C ) :   0.7293 B(  4-C ,  6-H ) :   1.0622
B(  4-C ,  7-H ) :   0.8938 B(  4-C ,  8-H ) :   0.8733 B(  5-C ,  9-H ) :   1.0622
B(  5-C , 10-H ) :   0.8938 B(  5-C , 11-H ) :   0.8733

MP2 TOTAL ENERGY:     -338.774682540 Eh
FINAL SINGLE POINT ENERGY      -338.774682540007

DIPOLE MOMENT
-------------
                                X             Y             Z
Electronic contribution:      0.00000       0.00000      -5.32208
Nuclear contribution   :      0.00000       0.00000       8.43557
                        -----------------------------------------
Total Dipole Moment    :      0.00000       0.00000       3.11349
                        -----------------------------------------
Magnitude (a.u.)       :      3.11349
Magnitude (Debye)      :      7.91386

Rotational constants in cm-1:     0.177407     0.126076     0.075829
Rotational constants in MHz :  5318.520507  3779.678112  2273.286451

                             ****ORCA TERMINATED NORMALLY****
TOTAL RUN TIME: 0 days 0 hours 0 minutes 33 seconds 997 msec
