                         Program Version 5.0.3 -  RELEASE  -
|  1> !ri-mp2 aug-cc-pvdz aug-cc-pvdz/c tightscf
|  2> %pal nprocs 16 end
|  3>
|  4> * xyz 0 1
|  5> C     0.000000     1.361719    0.498953
|  6> N     0.000000     0.616634   -0.777570
|  7> N     0.000000    -0.616634   -0.777570
|  8> C     0.000000    -1.361719    0.498953
|  9> H     0.885227     1.126165    1.094742
| 10> H    -0.885227     1.126165    1.094742
| 11> H     0.000000     2.420611    0.259791
| 12> H     0.885227    -1.126165    1.094742
| 13> H    -0.885227    -1.126165    1.094742
| 14> H     0.000000    -2.420611    0.259791
| 15> *
| 16>
| 17>                          ****END OF INPUT****

CARTESIAN COORDINATES (ANGSTROEM)
---------------------------------
  C      0.000000    1.361719    0.498953
  N      0.000000    0.616634   -0.777570
  N      0.000000   -0.616634   -0.777570
  C      0.000000   -1.361719    0.498953
  H      0.885227    1.126165    1.094742
  H     -0.885227    1.126165    1.094742
  H      0.000000    2.420611    0.259791
  H      0.885227   -1.126165    1.094742
  H     -0.885227   -1.126165    1.094742
  H      0.000000   -2.420611    0.259791

 Total Charge           Charge          ....    0
 Multiplicity           Mult            ....    1
 Number of Electrons    NEL             ....   32
 Basis Dimension        Dim             ....  146

ORBITAL ENERGIES
----------------

  NO   OCC          E(Eh)            E(eV)
   0   2.0000     -15.627527      -425.2466
   1   2.0000     -15.626154      -425.2093
   2   2.0000     -11.266169      -306.5680
   3   2.0000     -11.266152      -306.5676
   4   2.0000      -1.360023       -37.0081
   5   2.0000      -1.049083       -28.5470
   6   2.0000      -0.977568       -26.6010
   7   2.0000      -0.776278       -21.1236
   8   2.0000      -0.668900       -18.2017
   9   2.0000      -0.651242       -17.7212
  10   2.0000      -0.640367       -17.4253
  11   2.0000      -0.571289       -15.5456
  12   2.0000      -0.562068       -15.2946
  13   2.0000      -0.503539       -13.7020
  14   2.0000      -0.459080       -12.4922
  15   2.0000      -0.366984        -9.9861
  16   0.0000       0.031329         0.8525
  17   0.0000       0.044528         1.2117
  18   0.0000       0.052920         1.4400
  19   0.0000       0.059569         1.6209
  20   0.0000       0.073793         2.0080

MULLIKEN ATOMIC CHARGES
-----------------------
   0 C :    0.652189
   1 N :   -0.468687
   2 N :   -0.468687
   3 C :    0.652189
   4 H :    0.031925
   5 H :    0.031925
   6 H :   -0.247353
   7 H :    0.031925
   8 H :    0.031925
   9 H :   -0.247353
Sum of atomic charges:    0.0000000

LOEWDIN ATOMIC CHARGES
----------------------
   0 C :    0.117670
   1 N :   -0.042537
   2 N :   -0.042537
   3 C :    0.117670
   4 H :   -0.022572
   5 H :   -0.022572
   6 H :   -0.029989
   7 H :   -0.022572
   8 H :   -0.022572
   9 H :   -0.029989

  Mayer bond orders larger than 0.100000
B(  0-C ,  1-N ) :   0.7351 B(  0-C ,  4-H ) :   0.8969 B(  0-C ,  5-H ) :   0.8969
B(  0-C ,  6-H ) :   1.0726 B(  1-N ,  2-N ) :   1.2314 B(  2-N ,  3-C ) :   0.7351
B(  3-C ,  7-H ) :   0.8969 B(  3-C ,  8-H ) :   0.8969 B(  3-C ,  9-H ) :   1.0726

MP2 TOTAL ENERGY:     -188.721582499 Eh
FINAL SINGLE POINT ENERGY      -188.721582499082

DIPOLE MOMENT
-------------
                                X             Y             Z
Electronic contribution:     -0.00000      -0.00000      -3.74153
Nuclear contribution   :      0.00000       0.00000       5.05898
                        -----------------------------------------
Total Dipole Moment    :     -0.00000      -0.00000       1.31745
                        -----------------------------------------
Magnitude (a.u.)       :      1.31745
Magnitude (Debye)      :      3.34870

Rotational constants in cm-1:     0.550195     0.223929     0.169251
Rotational constants in MHz : 16494.443036  6713.233908  5074.025517

                             ****ORCA TERMINATED NORMALLY****
TOTAL RUN TIME: 0 days 0 hours 0 minutes 16 seconds 885 msec
