                         Program Version 5.0.3 -  RELEASE  -
|  1> !ri-mp2 aug-cc-pvdz aug-cc-pvdz/c tightscf
|  2> %pal nprocs 16 end
|  3>
|  4> * xyz 0 1
|  5> F     2.712836   -0.183297   -0.382192
|  6> F    -0.780636    1.809141   -0.002362
|  7> N     0.499090   -1.575311    0.231574
|  8> N    -3.035226   -0.748871   -0.138204
|  9> C     0.398551   -0.217436    0.121358
| 10> C     1.691625    0.542189    0.236949
| 11> C    -0.771372    0.445989    0.008802
| 12> C    -2.034053   -0.175673   -0.069809
| 13> H     1.624059    1.515903   -0.239488
| 14> H     1.970850    0.661136    1.285812
| 15> H     1.376086   -1.979329   -0.052815
| 16> H    -0.316350   -2.131455    0.030091
| 17> *
| 18>
| 19>                          ****END OF INPUT****

CARTESIAN COORDINATES (ANGSTROEM)
---------------------------------
  F      2.712836   -0.183297   -0.382192
  F     -0.780636    1.809141   -0.002362
  N      0.499090   -1.575311    0.231574
  N     -3.035226   -0.748871   -0.138204
  C      0.398551   -0.217436    0.121358
  C      1.691625    0.542189    0.236949
  C     -0.771372    0.445989    0.008802
  C     -2.034053   -0.175673   -0.069809
  H      1.624059    1.515903   -0.239488
  H      1.970850    0.661136    1.285812
  H      1.376086   -1.979329   -0.052815
  H     -0.316350   -2.131455    0.030091

 Total Charge           Charge          ....    0
 Multiplicity           Mult            ....    1
 Number of Electrons    NEL             ....   60
 Basis Dimension        Dim             ....  220

ORBITAL ENERGIES
----------------

  NO   OCC          E(Eh)            E(eV)
   0   2.0000     -26.344106      -716.8596
   1   2.0000     -26.331844      -716.5259
   2   2.0000     -15.618810      -425.0094
   3   2.0000     -15.600428      -424.5092
   4   2.0000     -11.364048      -309.2315
   5   2.0000     -11.358318      -309.0755
   6   2.0000     -11.351121      -308.8797
   7   2.0000     -11.301176      -307.5206
   8   2.0000      -1.648547       -44.8592
   9   2.0000      -1.631806       -44.4037
  10   2.0000      -1.282209       -34.8907
  11   2.0000      -1.238413       -33.6989
  12   2.0000      -1.090829       -29.6830
  13   2.0000      -1.014622       -27.6093
  14   2.0000      -0.872967       -23.7546
  15   2.0000      -0.800306       -21.7774
  16   2.0000      -0.787619       -21.4322
  17   2.0000      -0.743103       -20.2209
  18   2.0000      -0.719737       -19.5851
  19   2.0000      -0.716132       -19.4870
  20   2.0000      -0.706820       -19.2336
  21   2.0000      -0.682687       -18.5769
  22   2.0000      -0.649044       -17.6614
  23   2.0000      -0.586804       -15.9677
  24   2.0000      -0.584413       -15.9027
  25   2.0000      -0.563606       -15.3365
  26   2.0000      -0.543785       -14.7971
  27   2.0000      -0.501458       -13.6454
  28   2.0000      -0.489489       -13.3197
  29   2.0000      -0.351544        -9.5660
  30   0.0000       0.028032         0.7628
  31   0.0000       0.039614         1.0779
  32   0.0000       0.049640         1.3508
  33   0.0000       0.061966         1.6862
  34   0.0000       0.078673         2.1408

MULLIKEN ATOMIC CHARGES
-----------------------
   0 F :   -0.636393
   1 F :   -0.803109
   2 N :   -0.458195
   3 N :   -0.275250
   4 C :   -0.318970
   5 C :    1.275529
   6 C :    1.949382
   7 C :   -0.668588
   8 H :   -0.090254
   9 H :    0.027379
  10 H :   -0.013386
  11 H :    0.011855
Sum of atomic charges:    0.0000000

LOEWDIN ATOMIC CHARGES
----------------------
   0 F :    0.004804
   1 F :    0.052981
   2 N :    0.279369
   3 N :    0.093004
   4 C :   -0.199939
   5 C :    0.097320
   6 C :   -0.201074
   7 C :   -0.133873
   8 H :    0.012517
   9 H :    0.026756
  10 H :   -0.020556
  11 H :   -0.011308

  Mayer bond orders larger than 0.100000
B(  0-F ,  4-C ) :   0.2053 B(  0-F ,  5-C ) :   0.1889 B(  1-F ,  4-C ) :   0.5536
B(  1-F ,  6-C ) :  -0.6526 B(  1-F ,  7-C ) :   0.3933 B(  2-N ,  4-C ) :   0.9695
B(  2-N ,  6-C ) :  -0.1358 B(  2-N , 10-H ) :   1.1582 B(  2-N , 11-H ) :   1.0930
B(  3-N ,  7-C ) :   2.6264 B(  4-C ,  5-C ) :   1.0996 B(  4-C ,  6-C ) :   1.4802
B(  4-C ,  7-C ) :   0.4454 B(  4-C ,  8-H ) :   0.2176 B(  4-C ,  9-H ) :   0.1147
B(  5-C ,  8-H ) :   0.8407 B(  5-C ,  9-H ) :   0.8781 B(  6-C ,  7-C ) :  -0.1042

MP2 TOTAL ENERGY:     -462.869411215 Eh
FINAL SINGLE POINT ENERGY      -462.869411215088

DIPOLE MOMENT
-------------
                                X             Y             Z
Electronic contribution:     -1.13201       3.22541      -1.11173
Nuclear contribution   :      2.60659      -3.39053       1.33971
                        -----------------------------------------
Total Dipole Moment    :      1.47458      -0.16511       0.22798
                        -----------------------------------------
Magnitude (a.u.)       :      1.50121
Magnitude (Debye)      :      3.81577

Rotational constants in cm-1:     0.129858     0.043002     0.033115
Rotational constants in MHz :  3893.045822  1289.153959   992.766209

                             ****ORCA TERMINATED NORMALLY****
TOTAL RUN TIME: 0 days 0 hours 0 minutes 48 seconds 982 msec
