                         Program Version 5.0.3 -  RELEASE  -
|  1> !ri-mp2 aug-cc-pvdz aug-cc-pvdz/c tightscf
|  2> %pal nprocs 16 end
|  3>
|  4> * xyz 0 1
|  5> C     -1.951735   -0.180434    0.100405
|  6> C     -0.883932    0.542857   -0.210248
|  7> C      1.381983   -0.094680    0.182826
|  8> C     -2.041959   -1.672002    0.148175
|  9> C     -0.803865    2.031933   -0.270242
| 10> C      2.547078   -0.777270   -0.480474
| 11> O      1.391725    0.406289    1.275264
| 12> O      0.290604   -0.118487   -0.630137
| 13> H     -2.849211    0.374513    0.346595
| 14> H     -2.835495   -2.034166   -0.509960
| 15> H     -1.110051   -2.145591   -0.151752
| 16> H     -2.289315   -2.012966    1.156589
| 17> H     -1.765809    2.473463   -0.017477
| 18> H     -0.524541    2.360081   -1.274356
| 19> H     -0.054472    2.408994    0.426265
| 20> H      2.828171   -0.232808   -1.382252
| 21> H      2.270172   -1.786382   -0.783928
| 22> H      3.386497   -0.809977    0.206602
| 23> *
| 24>
| 25>                          ****END OF INPUT****

CARTESIAN COORDINATES (ANGSTROEM)
---------------------------------
  C     -1.951735   -0.180434    0.100405
  C     -0.883932    0.542857   -0.210248
  C      1.381983   -0.094680    0.182826
  C     -2.041959   -1.672002    0.148175
  C     -0.803865    2.031933   -0.270242
  C      2.547078   -0.777270   -0.480474
  O      1.391725    0.406289    1.275264
  O      0.290604   -0.118487   -0.630137
  H     -2.849211    0.374513    0.346595
  H     -2.835495   -2.034166   -0.509960
  H     -1.110051   -2.145591   -0.151752
  H     -2.289315   -2.012966    1.156589
  H     -1.765809    2.473463   -0.017477
  H     -0.524541    2.360081   -1.274356
  H     -0.054472    2.408994    0.426265
  H      2.828171   -0.232808   -1.382252
  H      2.270172   -1.786382   -0.783928
  H      3.386497   -0.809977    0.206602

 Total Charge           Charge          ....    0
 Multiplicity           Mult            ....    1
 Number of Electrons    NEL             ....   62
 Basis Dimension        Dim             ....  274

ORBITAL ENERGIES
----------------

  NO   OCC          E(Eh)            E(eV)
   0   2.0000     -20.615139      -560.9665
   1   2.0000     -20.558396      -559.4224
   2   2.0000     -11.394511      -310.0604
   3   2.0000     -11.299187      -307.4665
   4   2.0000     -11.250333      -306.1371
   5   2.0000     -11.233725      -305.6852
   6   2.0000     -11.230977      -305.6104
   7   2.0000     -11.228799      -305.5511
   8   2.0000      -1.467572       -39.9347
   9   2.0000      -1.371485       -37.3200
  10   2.0000      -1.093196       -29.7474
  11   2.0000      -1.021680       -27.8013
  12   2.0000      -0.994577       -27.0638
  13   2.0000      -0.900615       -24.5070
  14   2.0000      -0.831839       -22.6355
  15   2.0000      -0.717421       -19.5220
  16   2.0000      -0.689596       -18.7649
  17   2.0000      -0.677760       -18.4428
  18   2.0000      -0.652572       -17.7574
  19   2.0000      -0.613682       -16.6991
  20   2.0000      -0.594792       -16.1851
  21   2.0000      -0.582691       -15.8558
  22   2.0000      -0.568366       -15.4660
  23   2.0000      -0.560090       -15.2408
  24   2.0000      -0.551780       -15.0147
  25   2.0000      -0.531678       -14.4677
  26   2.0000      -0.523368       -14.2416
  27   2.0000      -0.505875       -13.7656
  28   2.0000      -0.468119       -12.7382
  29   2.0000      -0.452049       -12.3009
  30   2.0000      -0.348369        -9.4796
  31   0.0000       0.034043         0.9264
  32   0.0000       0.041344         1.1250
  33   0.0000       0.042692         1.1617
  34   0.0000       0.052987         1.4419
  35   0.0000       0.061068         1.6617

MULLIKEN ATOMIC CHARGES
-----------------------
   0 C :    0.334921
   1 C :    0.468060
   2 C :    0.665816
   3 C :    0.243897
   4 C :    0.255893
   5 C :    0.279910
   6 O :   -0.700913
   7 O :   -1.081481
   8 H :   -0.471991
   9 H :    0.042758
  10 H :   -0.187346
  11 H :    0.090063
  12 H :   -0.120929
  13 H :    0.065631
  14 H :    0.079691
  15 H :    0.031825
  16 H :    0.017859
  17 H :   -0.013664
Sum of atomic charges:   -0.0000000

LOEWDIN ATOMIC CHARGES
----------------------
   0 C :   -0.000948
   1 C :   -0.241550
   2 C :   -0.349166
   3 C :    0.147977
   4 C :    0.178408
   5 C :    0.208739
   6 O :    0.058349
   7 O :    0.093737
   8 H :    0.000549
   9 H :   -0.015567
  10 H :   -0.023547
  11 H :   -0.013147
  12 H :   -0.010412
  13 H :   -0.004978
  14 H :   -0.012591
  15 H :   -0.003940
  16 H :   -0.005779
  17 H :   -0.006136

  Mayer bond orders larger than 0.100000
B(  0-C ,  1-C ) :   1.8779 B(  0-C ,  3-C ) :   1.1456 B(  0-C ,  7-O ) :  -0.1542
B(  0-C ,  8-H ) :   0.6032 B(  0-C ,  9-H ) :   0.1160 B(  0-C , 10-H ) :   0.1193
B(  0-C , 11-H ) :   0.1514 B(  1-C ,  4-C ) :   1.1393 B(  1-C ,  8-H ) :   0.1448
B(  1-C , 14-H ) :   0.1083 B(  2-C ,  5-C ) :   1.0953 B(  2-C ,  6-O ) :   1.4957
B(  2-C ,  7-O ) :   0.9827 B(  2-C , 17-H ) :   0.1178 B(  3-C ,  9-H ) :   0.8807
B(  3-C , 10-H ) :   0.9739 B(  3-C , 11-H ) :   0.8640 B(  4-C , 12-H ) :   0.9141
B(  4-C , 13-H ) :   0.8694 B(  4-C , 14-H ) :   0.8883 B(  5-C , 15-H ) :   0.9616
B(  5-C , 16-H ) :   0.9585 B(  5-C , 17-H ) :   0.8687 B(  6-O ,  7-O ) :   0.1241

MP2 TOTAL ENERGY:     -384.046484583 Eh
FINAL SINGLE POINT ENERGY      -384.046484583359

DIPOLE MOMENT
-------------
                                X             Y             Z
Electronic contribution:      2.88924       1.15180       1.27868
Nuclear contribution   :     -2.97623      -1.42848      -2.01321
                        -----------------------------------------
Total Dipole Moment    :     -0.08699      -0.27668      -0.73453
                        -----------------------------------------
Magnitude (a.u.)       :      0.78972
Magnitude (Debye)      :      2.00730

Rotational constants in cm-1:     0.096211     0.049490     0.039273
Rotational constants in MHz :  2884.323443  1483.674810  1177.372395

                             ****ORCA TERMINATED NORMALLY****
TOTAL RUN TIME: 0 days 0 hours 1 minutes 16 seconds 163 msec
