                         Program Version 5.0.3 -  RELEASE  -
|  1> !ri-mp2 aug-cc-pvdz aug-cc-pvdz/c tightscf
|  2> %pal nprocs 16 end
|  3>
|  4> * xyz 0 1
|  5> C      0.000000    0.915171    0.000000
|  6> C     -1.234906    0.436582    0.000000
|  7> C     -1.665685   -0.992435    0.000000
|  8> Cl     1.445564   -0.071997    0.000000
|  9> H      0.228804    1.968959    0.000000
| 10> H     -2.020171    1.186064    0.000000
| 11> H     -0.816904   -1.671987    0.000000
| 12> H     -2.281387   -1.207498    0.876786
| 13> H     -2.281387   -1.207498   -0.876786
| 14> *
| 15>
| 16>                          ****END OF INPUT****

CARTESIAN COORDINATES (ANGSTROEM)
---------------------------------
  C      0.000000    0.915171    0.000000
  C     -1.234906    0.436582    0.000000
  C     -1.665685   -0.992435    0.000000
  Cl     1.445564   -0.071997    0.000000
  H      0.228804    1.968959    0.000000
  H     -2.020171    1.186064    0.000000
  H     -0.816904   -1.671987    0.000000
  H     -2.281387   -1.207498    0.876786
  H     -2.281387   -1.207498   -0.876786

 Total Charge           Charge          ....    0
 Multiplicity           Mult            ....    1
 Number of Electrons    NEL             ....   40
 Basis Dimension        Dim             ....  141

ORBITAL ENERGIES
----------------

  NO   OCC          E(Eh)            E(eV)
   0   2.0000    -104.834147     -2852.6822
   1   2.0000     -11.296905      -307.4044
   2   2.0000     -11.259111      -306.3760
   3   2.0000     -11.238859      -305.8249
   4   2.0000     -10.560227      -287.3584
   5   2.0000      -8.028001      -218.4530
   6   2.0000      -8.024740      -218.3643
   7   2.0000      -8.024662      -218.3622
   8   2.0000      -1.154771       -31.4229
   9   2.0000      -1.052538       -28.6410
  10   2.0000      -0.939390       -25.5621
  11   2.0000      -0.753768       -20.5111
  12   2.0000      -0.676708       -18.4142
  13   2.0000      -0.591720       -16.1015
  14   2.0000      -0.580540       -15.7973
  15   2.0000      -0.545912       -14.8550
  16   2.0000      -0.508653       -13.8411
  17   2.0000      -0.497688       -13.5428
  18   2.0000      -0.448834       -12.2134
  19   2.0000      -0.359337        -9.7780
  20   0.0000       0.034109         0.9282
  21   0.0000       0.045473         1.2374
  22   0.0000       0.053749         1.4626
  23   0.0000       0.057585         1.5670
  24   0.0000       0.072614         1.9759

MULLIKEN ATOMIC CHARGES
-----------------------
   0 C :   -0.060668
   1 C :    0.791017
   2 C :    0.299445
   3 Cl:   -0.336957
   4 H :   -0.350081
   5 H :   -0.385087
   6 H :   -0.034222
   7 H :    0.038276
   8 H :    0.038276
Sum of atomic charges:    0.0000000

LOEWDIN ATOMIC CHARGES
----------------------
   0 C :   -0.376384
   1 C :   -0.121972
   2 C :    0.126773
   3 Cl:    0.499319
   4 H :   -0.058050
   5 H :   -0.003395
   6 H :   -0.039173
   7 H :   -0.013559
   8 H :   -0.013559

  Mayer bond orders larger than 0.100000
B(  0-C ,  1-C ) :   1.3099 B(  0-C ,  3-Cl) :   1.0788 B(  0-C ,  4-H ) :   0.9220
B(  1-C ,  2-C ) :   1.2246 B(  1-C ,  3-Cl) :  -0.2871 B(  1-C ,  5-H ) :   0.8514
B(  2-C ,  6-H ) :   0.9632 B(  2-C ,  7-H ) :   0.8845 B(  2-C ,  8-H ) :   0.8845

MP2 TOTAL ENERGY:     -576.585167180 Eh
FINAL SINGLE POINT ENERGY      -576.585167179994

DIPOLE MOMENT
-------------
                                X             Y             Z
Electronic contribution:      8.30774       1.00914       0.00000
Nuclear contribution   :     -9.06975      -0.81376       0.00000
                        -----------------------------------------
Total Dipole Moment    :     -0.76202       0.19539       0.00000
                        -----------------------------------------
Magnitude (a.u.)       :      0.78667
Magnitude (Debye)      :      1.99955

Rotational constants in cm-1:     0.481697     0.117478     0.096114
Rotational constants in MHz : 14440.899528  3521.900431  2881.411472

                             ****ORCA TERMINATED NORMALLY****
TOTAL RUN TIME: 0 days 0 hours 0 minutes 34 seconds 90 msec
