                         Program Version 5.0.3 -  RELEASE  -
|  1> !ri-mp2 aug-cc-pvdz aug-cc-pvdz/c tightscf
|  2> %pal nprocs 16 end
|  3>
|  4> * xyz 0 1
|  5> C     0.000000     0.665985    0.661718
|  6> C     0.000000    -0.665985    0.661718
|  7> C     0.000000     1.586665   -0.520621
|  8> C     0.000000    -1.586665   -0.520621
|  9> H     0.000000     1.161212    1.627911
| 10> H     0.000000    -1.161212    1.627911
| 11> H     0.000000     1.057812   -1.471692
| 12> H     0.000000    -1.057812   -1.471692
| 13> H    -0.875737     2.240903   -0.501401
| 14> H     0.875737     2.240903   -0.501401
| 15> H     0.875737    -2.240903   -0.501401
| 16> H    -0.875737    -2.240903   -0.501401
| 17> *
| 18>
| 19>                          ****END OF INPUT****

CARTESIAN COORDINATES (ANGSTROEM)
---------------------------------
  C      0.000000    0.665985    0.661718
  C      0.000000   -0.665985    0.661718
  C      0.000000    1.586665   -0.520621
  C      0.000000   -1.586665   -0.520621
  H      0.000000    1.161212    1.627911
  H      0.000000   -1.161212    1.627911
  H      0.000000    1.057812   -1.471692
  H      0.000000   -1.057812   -1.471692
  H     -0.875737    2.240903   -0.501401
  H      0.875737    2.240903   -0.501401
  H      0.875737   -2.240903   -0.501401
  H     -0.875737   -2.240903   -0.501401

 Total Charge           Charge          ....    0
 Multiplicity           Mult            ....    1
 Number of Electrons    NEL             ....   32
 Basis Dimension        Dim             ....  164

ORBITAL ENERGIES
----------------

  NO   OCC          E(Eh)            E(eV)
   0   2.0000     -11.229162      -305.5610
   1   2.0000     -11.227491      -305.5156
   2   2.0000     -11.224305      -305.4289
   3   2.0000     -11.224297      -305.4287
   4   2.0000      -1.078799       -29.3556
   5   2.0000      -0.980004       -26.6673
   6   2.0000      -0.895564       -24.3695
   7   2.0000      -0.720698       -19.6112
   8   2.0000      -0.652299       -17.7500
   9   2.0000      -0.571055       -15.5392
  10   2.0000      -0.570515       -15.5245
  11   2.0000      -0.551827       -15.0160
  12   2.0000      -0.535061       -14.5598
  13   2.0000      -0.511964       -13.9313
  14   2.0000      -0.470724       -12.8091
  15   2.0000      -0.342072        -9.3083
  16   0.0000       0.036995         1.0067
  17   0.0000       0.046639         1.2691
  18   0.0000       0.049061         1.3350
  19   0.0000       0.057478         1.5641
  20   0.0000       0.064708         1.7608

MULLIKEN ATOMIC CHARGES
-----------------------
   0 C :    0.212986
   1 C :    0.212986
   2 C :    0.233508
   3 C :    0.233508
   4 H :   -0.433999
   5 H :   -0.433999
   6 H :   -0.156297
   7 H :   -0.156297
   8 H :    0.071901
   9 H :    0.071901
  10 H :    0.071901
  11 H :    0.071901
Sum of atomic charges:   -0.0000000

LOEWDIN ATOMIC CHARGES
----------------------
   0 C :   -0.058659
   1 C :   -0.058659
   2 C :    0.134404
   3 C :    0.134404
   4 H :   -0.009139
   5 H :   -0.009139
   6 H :   -0.033961
   7 H :   -0.033961
   8 H :   -0.016323
   9 H :   -0.016323
  10 H :   -0.016323
  11 H :   -0.016323

  Mayer bond orders larger than 0.100000
B(  0-C ,  1-C ) :   1.9715 B(  0-C ,  2-C ) :   1.2130 B(  0-C ,  4-H ) :   0.7736
B(  1-C ,  3-C ) :   1.2130 B(  1-C ,  5-H ) :   0.7736 B(  2-C ,  6-H ) :   1.0021
B(  2-C ,  8-H ) :   0.8852 B(  2-C ,  9-H ) :   0.8852 B(  3-C ,  7-H ) :   1.0021
B(  3-C , 10-H ) :   0.8852 B(  3-C , 11-H ) :   0.8852

MP2 TOTAL ENERGY:     -156.707682673 Eh
FINAL SINGLE POINT ENERGY      -156.707682673299

DIPOLE MOMENT
-------------
                                X             Y             Z
Electronic contribution:     -0.00000      -0.00000       1.71230
Nuclear contribution   :      0.00000       0.00000      -1.81358
                        -----------------------------------------
Total Dipole Moment    :     -0.00000      -0.00000      -0.10129
                        -----------------------------------------
Magnitude (a.u.)       :      0.10129
Magnitude (Debye)      :      0.25745

Rotational constants in cm-1:     0.547433     0.169519     0.135890
Rotational constants in MHz : 16411.624667  5082.057928  4073.884792

                             ****ORCA TERMINATED NORMALLY****
TOTAL RUN TIME: 0 days 0 hours 0 minutes 33 seconds 620 msec
