                         Program Version 5.0.3 -  RELEASE  -
|  1> !ri-mp2 aug-cc-pvdz aug-cc-pvdz/c tightscf
|  2> %pal nprocs 16 end
|  3>
|  4> * xyz 0 1
|  5> C     -2.336058    0.040054   -0.754448
|  6> H     -3.277485    0.507889   -0.453946
|  7> H     -1.772566    0.765717   -1.337617
|  8> H     -2.599402   -0.788479   -1.416868
|  9> C     -1.586968   -0.461683    0.442081
| 10> H     -2.107557   -1.217663    1.022372
| 11> C     -0.380120   -0.094692    0.868817
| 12> H      0.005574   -0.582736    1.758463
| 13> C      0.533363    0.933703    0.270646
| 14> H      0.042346    1.473818   -0.542976
| 15> H      0.746217    1.697623    1.028760
| 16> C      1.855390    0.410014   -0.232532
| 17> H      2.574553    1.177611   -0.503227
| 18> C      2.197298   -0.864315   -0.374253
| 19> H      3.172382   -1.142407   -0.750747
| 20> H      1.518518   -1.669861   -0.126075
| 21> *
| 22>
| 23>                          ****END OF INPUT****

CARTESIAN COORDINATES (ANGSTROEM)
---------------------------------
  C     -2.336058    0.040054   -0.754448
  H     -3.277485    0.507889   -0.453946
  H     -1.772566    0.765717   -1.337617
  H     -2.599402   -0.788479   -1.416868
  C     -1.586968   -0.461683    0.442081
  H     -2.107557   -1.217663    1.022372
  C     -0.380120   -0.094692    0.868817
  H      0.005574   -0.582736    1.758463
  C      0.533363    0.933703    0.270646
  H      0.042346    1.473818   -0.542976
  H      0.746217    1.697623    1.028760
  C      1.855390    0.410014   -0.232532
  H      2.574553    1.177611   -0.503227
  C      2.197298   -0.864315   -0.374253
  H      3.172382   -1.142407   -0.750747
  H      1.518518   -1.669861   -0.126075

 Total Charge           Charge          ....    0
 Multiplicity           Mult            ....    1
 Number of Electrons    NEL             ....   46
 Basis Dimension        Dim             ....  228

ORBITAL ENERGIES
----------------

  NO   OCC          E(Eh)            E(eV)
   0   2.0000     -11.238885      -305.8256
   1   2.0000     -11.236379      -305.7574
   2   2.0000     -11.233036      -305.6665
   3   2.0000     -11.228783      -305.5507
   4   2.0000     -11.226645      -305.4925
   5   2.0000     -11.222077      -305.3682
   6   2.0000      -1.100458       -29.9450
   7   2.0000      -1.046544       -28.4779
   8   2.0000      -0.965544       -26.2738
   9   2.0000      -0.903846       -24.5949
  10   2.0000      -0.772448       -21.0194
  11   2.0000      -0.709914       -19.3177
  12   2.0000      -0.657583       -17.8938
  13   2.0000      -0.637011       -17.3340
  14   2.0000      -0.589235       -16.0339
  15   2.0000      -0.564622       -15.3641
  16   2.0000      -0.557675       -15.1751
  17   2.0000      -0.542423       -14.7601
  18   2.0000      -0.519382       -14.1331
  19   2.0000      -0.494898       -13.4669
  20   2.0000      -0.466270       -12.6878
  21   2.0000      -0.361214        -9.8291
  22   2.0000      -0.346205        -9.4207
  23   0.0000       0.036515         0.9936
  24   0.0000       0.042606         1.1594
  25   0.0000       0.046535         1.2663
  26   0.0000       0.049345         1.3428
  27   0.0000       0.061138         1.6636

MULLIKEN ATOMIC CHARGES
-----------------------
   0 C :    0.283361
   1 H :    0.066764
   2 H :   -0.196608
   3 H :    0.072708
   4 C :   -0.092031
   5 H :   -0.444427
   6 C :    0.986352
   7 H :   -0.468169
   8 C :    0.077354
   9 H :   -0.035566
  10 H :    0.067794
  11 C :    0.336807
  12 H :   -0.439416
  13 C :    0.398353
  14 H :   -0.310097
  15 H :   -0.303179
Sum of atomic charges:   -0.0000000

LOEWDIN ATOMIC CHARGES
----------------------
   0 C :    0.139577
   1 H :   -0.014835
   2 H :   -0.030953
   3 H :   -0.014936
   4 C :   -0.043697
   5 H :   -0.005820
   6 C :   -0.026089
   7 H :    0.003835
   8 C :   -0.035877
   9 H :    0.003288
  10 H :    0.019845
  11 C :   -0.060267
  12 H :   -0.004248
  13 C :    0.159417
  14 H :   -0.044859
  15 H :   -0.044382

  Mayer bond orders larger than 0.100000
B(  0-C ,  1-H ) :   0.8703 B(  0-C ,  2-H ) :   1.0098 B(  0-C ,  3-H ) :   0.8842
B(  0-C ,  4-C ) :   1.2195 B(  0-C ,  6-C ) :  -0.2099 B(  2-H ,  4-C ) :   0.1255
B(  2-H ,  6-C ) :  -0.1394 B(  4-C ,  5-H ) :   0.7694 B(  4-C ,  6-C ) :   1.8268
B(  4-C ,  7-H ) :   0.1480 B(  4-C , 13-C ) :   0.1993 B(  6-C ,  7-H ) :   0.4337
B(  6-C ,  8-C ) :   1.1767 B(  6-C , 11-C ) :  -0.1118 B(  8-C ,  9-H ) :   0.7992
B(  8-C , 10-H ) :   0.8344 B(  8-C , 11-C ) :   1.3706 B(  8-C , 13-C ) :  -0.3310
B(  8-C , 15-H ) :  -0.2226 B(  9-H , 11-C ) :   0.1695 B( 11-C , 12-H ) :   0.6833
B( 11-C , 13-C ) :   2.1582 B( 11-C , 14-H ) :   0.1282 B( 11-C , 15-H ) :   0.1430
B( 13-C , 14-H ) :   0.7435 B( 13-C , 15-H ) :   0.8669 B( 14-H , 15-H ) :  -0.2195

MP2 TOTAL ENERGY:     -233.863767650 Eh
FINAL SINGLE POINT ENERGY      -233.863767649878

DIPOLE MOMENT
-------------
                                X             Y             Z
Electronic contribution:      1.64336      -0.08609       1.32534
Nuclear contribution   :     -1.78515       0.23296      -1.39018
                        -----------------------------------------
Total Dipole Moment    :     -0.14179       0.14687      -0.06483
                        -----------------------------------------
Magnitude (a.u.)       :      0.21419
Magnitude (Debye)      :      0.54444

Rotational constants in cm-1:     0.241141     0.060870     0.059461
Rotational constants in MHz :  7229.224529  1824.829456  1782.603302

                             ****ORCA TERMINATED NORMALLY****
TOTAL RUN TIME: 0 days 0 hours 0 minutes 47 seconds 866 msec
