                         Program Version 5.0.3 -  RELEASE  -
|  1> !ri-mp2 aug-cc-pvdz aug-cc-pvdz/c tightscf
|  2> %pal nprocs 16 end
|  3>
|  4> * xyz 0 1
|  5> C      0.000000    0.674455    0.756935
|  6> C      0.000000   -0.674455    0.756935
|  7> C      0.000000    1.546499   -0.398566
|  8> C      0.000000   -1.546499   -0.398566
|  9> C      0.000000    2.881171   -0.319932
| 10> C      0.000000   -2.881171   -0.319932
| 11> H      0.000000    1.175747    1.719147
| 12> H      0.000000   -1.175747    1.719147
| 13> H      0.000000    1.087294   -1.380064
| 14> H      0.000000   -1.087294   -1.380064
| 15> H      0.000000    3.391009    0.635734
| 16> H      0.000000   -3.391009    0.635734
| 17> H      0.000000    3.500756   -1.205438
| 18> H      0.000000   -3.500756   -1.205438
| 19> *
| 20>
| 21>                          ****END OF INPUT****

CARTESIAN COORDINATES (ANGSTROEM)
---------------------------------
  C      0.000000    0.674455    0.756935
  C      0.000000   -0.674455    0.756935
  C      0.000000    1.546499   -0.398566
  C      0.000000   -1.546499   -0.398566
  C      0.000000    2.881171   -0.319932
  C      0.000000   -2.881171   -0.319932
  H      0.000000    1.175747    1.719147
  H      0.000000   -1.175747    1.719147
  H      0.000000    1.087294   -1.380064
  H      0.000000   -1.087294   -1.380064
  H      0.000000    3.391009    0.635734
  H      0.000000   -3.391009    0.635734
  H      0.000000    3.500756   -1.205438
  H      0.000000   -3.500756   -1.205438

 Total Charge           Charge          ....    0
 Multiplicity           Mult            ....    1
 Number of Electrons    NEL             ....   44
 Basis Dimension        Dim             ....  210

ORBITAL ENERGIES
----------------

  NO   OCC          E(Eh)            E(eV)
   0   2.0000     -11.246729      -306.0390
   1   2.0000     -11.246646      -306.0368
   2   2.0000     -11.245500      -306.0056
   3   2.0000     -11.244050      -305.9662
   4   2.0000     -11.238335      -305.8106
   5   2.0000     -11.238334      -305.8106
   6   2.0000      -1.115327       -30.3496
   7   2.0000      -1.061809       -28.8933
   8   2.0000      -0.988991       -26.9118
   9   2.0000      -0.848504       -23.0890
  10   2.0000      -0.797673       -21.7058
  11   2.0000      -0.729805       -19.8590
  12   2.0000      -0.676241       -18.4015
  13   2.0000      -0.636833       -17.3291
  14   2.0000      -0.601229       -16.3603
  15   2.0000      -0.567222       -15.4349
  16   2.0000      -0.548205       -14.9174
  17   2.0000      -0.527732       -14.3603
  18   2.0000      -0.482087       -13.1183
  19   2.0000      -0.468833       -12.7576
  20   2.0000      -0.396812       -10.7978
  21   2.0000      -0.296521        -8.0687
  22   0.0000       0.037232         1.0131
  23   0.0000       0.038622         1.0510
  24   0.0000       0.042947         1.1686
  25   0.0000       0.056950         1.5497
  26   0.0000       0.059263         1.6126

MULLIKEN ATOMIC CHARGES
-----------------------
   0 C :    0.260031
   1 C :    0.260031
   2 C :    0.777231
   3 C :    0.777231
   4 C :    0.791436
   5 C :    0.791436
   6 H :   -0.561199
   7 H :   -0.561199
   8 H :   -0.568392
   9 H :   -0.568392
  10 H :   -0.336030
  11 H :   -0.336030
  12 H :   -0.363075
  13 H :   -0.363075
Sum of atomic charges:    0.0000000

LOEWDIN ATOMIC CHARGES
----------------------
   0 C :   -0.016705
   1 C :   -0.016705
   2 C :   -0.071007
   3 C :   -0.071007
   4 C :    0.178566
   5 C :    0.178566
   6 H :    0.001822
   7 H :    0.001822
   8 H :   -0.010344
   9 H :   -0.010344
  10 H :   -0.038528
  11 H :   -0.038528
  12 H :   -0.043805
  13 H :   -0.043805

  Mayer bond orders larger than 0.100000
B(  0-C ,  1-C ) :   2.5558 B(  0-C ,  2-C ) :   1.3561 B(  0-C ,  3-C ) :  -0.1998
B(  0-C ,  4-C ) :  -0.1590 B(  0-C ,  5-C ) :   0.1276 B(  0-C ,  6-H ) :   0.1089
B(  0-C ,  7-H ) :   0.4632 B(  0-C ,  8-H ) :   0.1440 B(  1-C ,  2-C ) :  -0.1998
B(  1-C ,  3-C ) :   1.3561 B(  1-C ,  4-C ) :   0.1276 B(  1-C ,  5-C ) :  -0.1590
B(  1-C ,  6-H ) :   0.4632 B(  1-C ,  7-H ) :   0.1089 B(  1-C ,  9-H ) :   0.1440
B(  2-C ,  3-C ) :   0.2082 B(  2-C ,  4-C ) :   1.9443 B(  2-C ,  5-C ) :  -0.1136
B(  2-C ,  6-H ) :   0.1107 B(  2-C ,  8-H ) :   0.4047 B(  2-C , 10-H ) :   0.1284
B(  2-C , 12-H ) :   0.3349 B(  3-C ,  4-C ) :  -0.1136 B(  3-C ,  5-C ) :   1.9443
B(  3-C ,  7-H ) :   0.1107 B(  3-C ,  9-H ) :   0.4047 B(  3-C , 11-H ) :   0.1284
B(  3-C , 13-H ) :   0.3349 B(  4-C ,  5-C ) :   0.2205 B(  4-C , 10-H ) :   0.7208
B(  4-C , 12-H ) :   0.5263 B(  5-C , 11-H ) :   0.7208 B(  5-C , 13-H ) :   0.5263
B( 10-H , 12-H ) :  -0.1861 B( 11-H , 13-H ) :  -0.1861

MP2 TOTAL ENERGY:     -232.659397298 Eh
FINAL SINGLE POINT ENERGY      -232.659397297713

DIPOLE MOMENT
-------------
                                X             Y             Z
Electronic contribution:      0.00000      -0.00000       0.46544
Nuclear contribution   :      0.00000       0.00000      -0.47566
                        -----------------------------------------
Total Dipole Moment    :      0.00000      -0.00000      -0.01022
                        -----------------------------------------
Magnitude (a.u.)       :      0.01022
Magnitude (Debye)      :      0.02599

Rotational constants in cm-1:     0.502049     0.052541     0.047563
Rotational constants in MHz : 15051.065257  1575.133428  1425.908379

                             ****ORCA TERMINATED NORMALLY****
TOTAL RUN TIME: 0 days 0 hours 0 minutes 31 seconds 648 msec
