                         Program Version 5.0.3 -  RELEASE  -
|  1> !ri-mp2 aug-cc-pvdz aug-cc-pvdz/c tightscf
|  2> %pal nprocs 16 end
|  3>
|  4> * xyz 0 1
|  5> H      0.296999    2.638501    0.000000
|  6> Cl    -1.282302   -0.692895    0.000000
|  7> C      1.865985   -1.198419    0.000000
|  8> C     -0.527300    1.925834    0.000000
|  9> H     -1.148337    2.109135    0.878732
| 10> H     -1.148337    2.109135   -0.878732
| 11> C      0.000000    0.528312    0.000000
| 12> C      1.279580    0.174679    0.000000
| 13> H      1.985598    0.999563    0.000000
| 14> H      1.099594   -1.969354    0.000000
| 15> H      2.502012   -1.345103   -0.876739
| 16> H      2.502012   -1.345103    0.876739
| 17> *
| 18>
| 19>                          ****END OF INPUT****

CARTESIAN COORDINATES (ANGSTROEM)
---------------------------------
  H      0.296999    2.638501    0.000000
  Cl    -1.282302   -0.692895    0.000000
  C      1.865985   -1.198419    0.000000
  C     -0.527300    1.925834    0.000000
  H     -1.148337    2.109135    0.878732
  H     -1.148337    2.109135   -0.878732
  C      0.000000    0.528312    0.000000
  C      1.279580    0.174679    0.000000
  H      1.985598    0.999563    0.000000
  H      1.099594   -1.969354    0.000000
  H      2.502012   -1.345103   -0.876739
  H      2.502012   -1.345103    0.876739

 Total Charge           Charge          ....    0
 Multiplicity           Mult            ....    1
 Number of Electrons    NEL             ....   48
 Basis Dimension        Dim             ....  182

ORBITAL ENERGIES
----------------

  NO   OCC          E(Eh)            E(eV)
   0   2.0000    -104.828162     -2852.5193
   1   2.0000     -11.300912      -307.5135
   2   2.0000     -11.248516      -306.0877
   3   2.0000     -11.243063      -305.9393
   4   2.0000     -11.233374      -305.6757
   5   2.0000     -10.554314      -287.1975
   6   2.0000      -8.022009      -218.2899
   7   2.0000      -8.018891      -218.2051
   8   2.0000      -8.018777      -218.2020
   9   2.0000      -1.160365       -31.5751
  10   2.0000      -1.047632       -28.5075
  11   2.0000      -0.998847       -27.1800
  12   2.0000      -0.899336       -24.4722
  13   2.0000      -0.724492       -19.7144
  14   2.0000      -0.640760       -17.4360
  15   2.0000      -0.615499       -16.7486
  16   2.0000      -0.595329       -16.1997
  17   2.0000      -0.566654       -15.4194
  18   2.0000      -0.539118       -14.6701
  19   2.0000      -0.532060       -14.4781
  20   2.0000      -0.498065       -13.5530
  21   2.0000      -0.477731       -12.9997
  22   2.0000      -0.443664       -12.0727
  23   2.0000      -0.348952        -9.4955
  24   0.0000       0.034496         0.9387
  25   0.0000       0.042834         1.1656
  26   0.0000       0.052259         1.4220
  27   0.0000       0.054409         1.4805
  28   0.0000       0.068474         1.8633

MULLIKEN ATOMIC CHARGES
-----------------------
   0 H :   -0.102698
   1 Cl:   -0.432502
   2 C :    0.153549
   3 C :    0.304198
   4 H :    0.083315
   5 H :    0.083315
   6 C :   -0.656312
   7 C :    0.888634
   8 H :   -0.464753
   9 H :   -0.030700
  10 H :    0.086977
  11 H :    0.086977
Sum of atomic charges:   -0.0000000

LOEWDIN ATOMIC CHARGES
----------------------
   0 H :   -0.014231
   1 Cl:    0.544894
   2 C :    0.128024
   3 C :    0.100568
   4 H :   -0.013901
   5 H :   -0.013901
   6 C :   -0.575811
   7 C :   -0.081997
   8 H :   -0.000290
   9 H :   -0.044647
  10 H :   -0.014354
  11 H :   -0.014354

  Mayer bond orders larger than 0.100000
B(  0-H ,  3-C ) :   0.8352 B(  0-H ,  6-C ) :   0.2074 B(  1-Cl,  3-C ) :  -0.1281
B(  1-Cl,  6-C ) :   1.1607 B(  1-Cl,  7-C ) :  -0.3876 B(  2-C ,  6-C ) :  -0.1041
B(  2-C ,  7-C ) :   1.2268 B(  2-C ,  9-H ) :   0.9443 B(  2-C , 10-H ) :   0.8729
B(  2-C , 11-H ) :   0.8729 B(  3-C ,  4-H ) :   0.8818 B(  3-C ,  5-H ) :   0.8818
B(  3-C ,  6-C ) :   1.3390 B(  6-C ,  7-C ) :   1.4878 B(  6-C ,  8-H ) :   0.1929
B(  7-C ,  8-H ) :   0.5868 B(  7-C , 10-H ) :   0.1431 B(  7-C , 11-H ) :   0.1431

MP2 TOTAL ENERGY:     -615.780864426 Eh
FINAL SINGLE POINT ENERGY      -615.780864425794

DIPOLE MOMENT
-------------
                                X             Y             Z
Electronic contribution:     -7.26972      -3.69006       0.00000
Nuclear contribution   :      7.88859       4.16931       0.00000
                        -----------------------------------------
Total Dipole Moment    :      0.61887       0.47926       0.00000
                        -----------------------------------------
Magnitude (a.u.)       :      0.78274
Magnitude (Debye)      :      1.98957

Rotational constants in cm-1:     0.162506     0.110636     0.067459
Rotational constants in MHz :  4871.801443  3316.791414  2022.383759

                             ****ORCA TERMINATED NORMALLY****
TOTAL RUN TIME: 0 days 0 hours 0 minutes 39 seconds 402 msec
