                         Program Version 5.0.3 -  RELEASE  -
|  1> !ri-mp2 aug-cc-pvdz aug-cc-pvdz/c tightscf
|  2> %pal nprocs 16 end
|  3>
|  4> * xyz 0 1
|  5> Cl    -0.219933    1.550529   -0.000002
|  6> N     -2.880130   -0.962984    0.000001
|  7> N      3.077266   -0.391223    0.000000
|  8> C     -0.432054   -0.165225    0.000000
|  9> C      0.591544   -1.033696    0.000001
| 10> C     -1.783875   -0.609615    0.000001
| 11> C      1.955445   -0.655823    0.000001
| 12> H      0.372561   -2.093385    0.000003
| 13> *
| 14>
| 15>                          ****END OF INPUT****

CARTESIAN COORDINATES (ANGSTROEM)
---------------------------------
  Cl    -0.219933    1.550529   -0.000002
  N     -2.880130   -0.962984    0.000001
  N      3.077266   -0.391223    0.000000
  C     -0.432054   -0.165225    0.000000
  C      0.591544   -1.033696    0.000001
  C     -1.783875   -0.609615    0.000001
  C      1.955445   -0.655823    0.000001
  H      0.372561   -2.093385    0.000003

 Total Charge           Charge          ....    0
 Multiplicity           Mult            ....    1
 Number of Electrons    NEL             ....   56
 Basis Dimension        Dim             ....  174

ORBITAL ENERGIES
----------------

  NO   OCC          E(Eh)            E(eV)
   0   2.0000    -104.899904     -2854.4715
   1   2.0000     -15.634886      -425.4469
   2   2.0000     -15.625919      -425.2029
   3   2.0000     -11.408434      -310.4393
   4   2.0000     -11.353846      -308.9538
   5   2.0000     -11.330923      -308.3301
   6   2.0000     -11.322376      -308.0975
   7   2.0000     -10.625650      -289.1386
   8   2.0000      -8.093543      -220.2365
   9   2.0000      -8.089711      -220.1322
  10   2.0000      -8.089693      -220.1317
  11   2.0000      -1.284090       -34.9419
  12   2.0000      -1.265515       -34.4364
  13   2.0000      -1.228150       -33.4197
  14   2.0000      -1.113683       -30.3048
  15   2.0000      -0.971703       -26.4414
  16   2.0000      -0.791030       -21.5250
  17   2.0000      -0.758561       -20.6415
  18   2.0000      -0.646885       -17.6026
  19   2.0000      -0.613114       -16.6837
  20   2.0000      -0.604776       -16.4568
  21   2.0000      -0.593102       -16.1391
  22   2.0000      -0.533081       -14.5059
  23   2.0000      -0.528664       -14.3857
  24   2.0000      -0.515844       -14.0368
  25   2.0000      -0.510550       -13.8928
  26   2.0000      -0.496970       -13.5232
  27   2.0000      -0.412416       -11.2224
  28   0.0000       0.006856         0.1866
  29   0.0000       0.026887         0.7316
  30   0.0000       0.061967         1.6862
  31   0.0000       0.066165         1.8004
  32   0.0000       0.084165         2.2902

MULLIKEN ATOMIC CHARGES
-----------------------
   0 Cl:   -0.261471
   1 N :   -0.226279
   2 N :   -0.184624
   3 C :    0.553199
   4 C :    1.954770
   5 C :   -0.581360
   6 C :   -0.862194
   7 H :   -0.392042
Sum of atomic charges:    0.0000000

LOEWDIN ATOMIC CHARGES
----------------------
   0 Cl:    0.671676
   1 N :    0.114982
   2 N :    0.110770
   3 C :   -0.573321
   4 C :   -0.017286
   5 C :   -0.173131
   6 C :   -0.157353
   7 H :    0.023662

  Mayer bond orders larger than 0.100000
B(  0-Cl,  3-C ) :   1.1050 B(  0-Cl,  4-C ) :  -0.2974 B(  1-N ,  3-C ) :  -0.1950
B(  1-N ,  4-C ) :   0.1280 B(  1-N ,  5-C ) :   2.6242 B(  2-N ,  6-C ) :   2.6129
B(  3-C ,  4-C ) :   1.5170 B(  3-C ,  5-C ) :   0.1953 B(  3-C ,  6-C ) :   0.1583
B(  3-C ,  7-H ) :   0.2210 B(  4-C ,  5-C ) :  -0.3594 B(  4-C ,  7-H ) :   0.3162
B(  5-C ,  6-C ) :   0.1143 B(  5-C ,  7-H ) :  -0.1345 B(  6-C ,  7-H ) :   0.3014

MP2 TOTAL ENERGY:     -721.418352190 Eh
FINAL SINGLE POINT ENERGY      -721.418352189754

DIPOLE MOMENT
-------------
                                X             Y             Z
Electronic contribution:     -0.73267       3.76991      -0.00000
Nuclear contribution   :      0.64342      -4.03756       0.00001
                        -----------------------------------------
Total Dipole Moment    :     -0.08925      -0.26765       0.00000
                        -----------------------------------------
Magnitude (a.u.)       :      0.28214
Magnitude (Debye)      :      0.71714

Rotational constants in cm-1:     0.132308     0.049396     0.035968
Rotational constants in MHz :  3966.506189  1480.855957  1078.287832

                             ****ORCA TERMINATED NORMALLY****
TOTAL RUN TIME: 0 days 0 hours 0 minutes 37 seconds 516 msec
