                         Program Version 5.0.3 -  RELEASE  -
|  1> !ri-mp2 aug-cc-pvdz aug-cc-pvdz/c tightscf
|  2> %pal nprocs 16 end
|  3>
|  4> * xyz 0 1
|  5> C     -1.766341   -0.115464   -0.079800
|  6> N     -2.492129   -1.010435   -0.031960
|  7> C     -0.894931    1.009998   -0.149808
|  8> H     -1.357106    1.941241   -0.450071
|  9> C      0.411013    0.955887    0.131841
| 10> H      0.972979    1.879716    0.039002
| 11> C      1.185347   -0.249154    0.551313
| 12> H      0.526822   -1.114981    0.622590
| 13> H      1.581474   -0.068108    1.556020
| 14> C      2.357367   -0.548639   -0.394504
| 15> H      2.000836   -0.775983   -1.399184
| 16> H      3.038423    0.301062   -0.463225
| 17> H      2.926753   -1.405678   -0.035660
| 18> *
| 19>
| 20>                          ****END OF INPUT****

CARTESIAN COORDINATES (ANGSTROEM)
---------------------------------
  C     -1.766341   -0.115464   -0.079800
  N     -2.492129   -1.010435   -0.031960
  C     -0.894931    1.009998   -0.149808
  H     -1.357106    1.941241   -0.450071
  C      0.411013    0.955887    0.131841
  H      0.972979    1.879716    0.039002
  C      1.185347   -0.249154    0.551313
  H      0.526822   -1.114981    0.622590
  H      1.581474   -0.068108    1.556020
  C      2.357367   -0.548639   -0.394504
  H      2.000836   -0.775983   -1.399184
  H      3.038423    0.301062   -0.463225
  H      2.926753   -1.405678   -0.035660

 Total Charge           Charge          ....    0
 Multiplicity           Mult            ....    1
 Number of Electrons    NEL             ....   44
 Basis Dimension        Dim             ....  201

ORBITAL ENERGIES
----------------

  NO   OCC          E(Eh)            E(eV)
   0   2.0000     -15.579781      -423.9474
   1   2.0000     -11.287932      -307.1602
   2   2.0000     -11.283200      -307.0315
   3   2.0000     -11.281722      -306.9913
   4   2.0000     -11.255678      -306.2826
   5   2.0000     -11.241751      -305.9036
   6   2.0000      -1.225076       -33.3360
   7   2.0000      -1.125518       -30.6269
   8   2.0000      -1.035552       -28.1788
   9   2.0000      -0.904642       -24.6166
  10   2.0000      -0.831036       -22.6136
  11   2.0000      -0.694124       -18.8881
  12   2.0000      -0.681206       -18.5366
  13   2.0000      -0.618020       -16.8172
  14   2.0000      -0.585653       -15.9364
  15   2.0000      -0.553545       -15.0627
  16   2.0000      -0.545814       -14.8524
  17   2.0000      -0.516206       -14.0467
  18   2.0000      -0.510937       -13.9033
  19   2.0000      -0.504852       -13.7377
  20   2.0000      -0.463563       -12.6142
  21   2.0000      -0.379396       -10.3239
  22   0.0000       0.028410         0.7731
  23   0.0000       0.037810         1.0289
  24   0.0000       0.046201         1.2572
  25   0.0000       0.047024         1.2796
  26   0.0000       0.066094         1.7985

MULLIKEN ATOMIC CHARGES
-----------------------
   0 C :   -0.548729
   1 N :   -0.322705
   2 C :    0.998994
   3 H :   -0.357984
   4 C :    0.573464
   5 H :   -0.443619
   6 C :    0.044056
   7 H :   -0.077692
   8 H :    0.039321
   9 C :    0.308784
  10 H :   -0.068968
  11 H :   -0.064209
  12 H :   -0.080713
Sum of atomic charges:   -0.0000000

LOEWDIN ATOMIC CHARGES
----------------------
   0 C :   -0.170541
   1 N :    0.075815
   2 C :   -0.027064
   3 H :    0.001002
   4 C :    0.023158
   5 H :    0.016359
   6 C :   -0.049909
   7 H :    0.011346
   8 H :    0.022749
   9 C :    0.146340
  10 H :   -0.014246
  11 H :   -0.018847
  12 H :   -0.016160

  Mayer bond orders larger than 0.100000
B(  0-C ,  1-N ) :   2.6342 B(  0-C ,  2-C ) :   0.4801 B(  1-N ,  2-C ) :  -0.1502
B(  2-C ,  3-H ) :   0.5725 B(  2-C ,  4-C ) :   1.8736 B(  2-C ,  5-H ) :   0.1339
B(  2-C ,  9-C ) :   0.1159 B(  4-C ,  5-H ) :   0.5932 B(  4-C ,  6-C ) :   1.2057
B(  6-C ,  7-H ) :   0.8508 B(  6-C ,  8-H ) :   0.8360 B(  6-C ,  9-C ) :   1.2287
B(  9-C , 10-H ) :   0.9676 B(  9-C , 11-H ) :   0.9343 B(  9-C , 12-H ) :   0.9054

MP2 TOTAL ENERGY:     -248.728073251 Eh
FINAL SINGLE POINT ENERGY      -248.728073251440

DIPOLE MOMENT
-------------
                                X             Y             Z
Electronic contribution:     -8.34629       0.30117       0.17077
Nuclear contribution   :      9.85652       0.76539      -0.13316
                        -----------------------------------------
Total Dipole Moment    :      1.51023       1.06656       0.03761
                        -----------------------------------------
Magnitude (a.u.)       :      1.84926
Magnitude (Debye)      :      4.70045

Rotational constants in cm-1:     0.261480     0.065419     0.056277
Rotational constants in MHz :  7838.967451  1961.199200  1687.140108

                             ****ORCA TERMINATED NORMALLY****
TOTAL RUN TIME: 0 days 0 hours 0 minutes 39 seconds 377 msec
