                         Program Version 5.0.3 -  RELEASE  -
|  1> !ri-mp2 aug-cc-pvdz aug-cc-pvdz/c tightscf
|  2> %pal nprocs 16 end
|  3>
|  4> * xyz 0 1
|  5> C      1.302290    0.615163   -0.139445
|  6> C      0.013355    0.809181    0.136131
|  7> C      2.074570   -0.668347   -0.088094
|  8> C     -2.202655   -0.271676   -0.404781
|  9> C     -1.010350   -0.203515    0.558717
| 10> H      1.881490    1.484329   -0.436504
| 11> H     -0.366648    1.822918    0.039577
| 12> H      2.535067   -0.880541   -1.056528
| 13> H      1.460917   -1.524351    0.185335
| 14> H      2.891800   -0.598640    0.634949
| 15> H     -2.954741   -0.977144   -0.048720
| 16> H     -1.884282   -0.587950   -1.398923
| 17> H     -2.681767    0.703860   -0.505963
| 18> H     -1.381230    0.065717    1.553563
| 19> H     -0.563862   -1.193034    0.658048
| 20> *
| 21>
| 22>                          ****END OF INPUT****

CARTESIAN COORDINATES (ANGSTROEM)
---------------------------------
  C      1.302290    0.615163   -0.139445
  C      0.013355    0.809181    0.136131
  C      2.074570   -0.668347   -0.088094
  C     -2.202655   -0.271676   -0.404781
  C     -1.010350   -0.203515    0.558717
  H      1.881490    1.484329   -0.436504
  H     -0.366648    1.822918    0.039577
  H      2.535067   -0.880541   -1.056528
  H      1.460917   -1.524351    0.185335
  H      2.891800   -0.598640    0.634949
  H     -2.954741   -0.977144   -0.048720
  H     -1.884282   -0.587950   -1.398923
  H     -2.681767    0.703860   -0.505963
  H     -1.381230    0.065717    1.553563
  H     -0.563862   -1.193034    0.658048

 Total Charge           Charge          ....    0
 Multiplicity           Mult            ....    1
 Number of Electrons    NEL             ....   40
 Basis Dimension        Dim             ....  205

ORBITAL ENERGIES
----------------

  NO   OCC          E(Eh)            E(eV)
   0   2.0000     -11.228861      -305.5528
   1   2.0000     -11.227697      -305.5212
   2   2.0000     -11.225131      -305.4513
   3   2.0000     -11.224293      -305.4285
   4   2.0000     -11.219650      -305.3022
   5   2.0000      -1.087148       -29.5828
   6   2.0000      -1.016569       -27.6622
   7   2.0000      -0.929429       -25.2911
   8   2.0000      -0.844434       -22.9782
   9   2.0000      -0.720611       -19.6088
  10   2.0000      -0.654205       -17.8018
  11   2.0000      -0.595580       -16.2066
  12   2.0000      -0.586329       -15.9548
  13   2.0000      -0.561778       -15.2868
  14   2.0000      -0.531382       -14.4596
  15   2.0000      -0.517305       -14.0766
  16   2.0000      -0.511151       -13.9091
  17   2.0000      -0.483306       -13.1514
  18   2.0000      -0.459599       -12.5063
  19   2.0000      -0.341811        -9.3011
  20   0.0000       0.037117         1.0100
  21   0.0000       0.043830         1.1927
  22   0.0000       0.046999         1.2789
  23   0.0000       0.050829         1.3831
  24   0.0000       0.062245         1.6938

MULLIKEN ATOMIC CHARGES
-----------------------
   0 C :    0.052348
   1 C :    0.607421
   2 C :    0.232514
   3 C :    0.300906
   4 C :    0.105409
   5 H :   -0.439422
   6 H :   -0.487921
   7 H :    0.080384
   8 H :   -0.196286
   9 H :    0.072556
  10 H :   -0.098795
  11 H :   -0.086168
  12 H :   -0.070513
  13 H :    0.029134
  14 H :   -0.101566
Sum of atomic charges:    0.0000000

LOEWDIN ATOMIC CHARGES
----------------------
   0 C :   -0.049729
   1 C :   -0.026309
   2 C :    0.136861
   3 C :    0.133430
   4 C :   -0.067174
   5 H :   -0.007983
   6 H :   -0.001907
   7 H :   -0.016194
   8 H :   -0.032426
   9 H :   -0.015782
  10 H :   -0.021724
  11 H :   -0.018427
  12 H :   -0.021387
  13 H :    0.013436
  14 H :   -0.004684

  Mayer bond orders larger than 0.100000
B(  0-C ,  1-C ) :   1.9254 B(  0-C ,  2-C ) :   1.2213 B(  0-C ,  3-C ) :   0.1358
B(  0-C ,  4-C ) :  -0.1086 B(  0-C ,  5-H ) :   0.7267 B(  0-C ,  6-H ) :   0.1405
B(  0-C ,  8-H ) :   0.1111 B(  1-C ,  2-C ) :  -0.1449 B(  1-C ,  4-C ) :   1.1998
B(  1-C ,  5-H ) :   0.1326 B(  1-C ,  6-H ) :   0.6142 B(  2-C ,  7-H ) :   0.8979
B(  2-C ,  8-H ) :   1.0162 B(  2-C ,  9-H ) :   0.8815 B(  3-C ,  4-C ) :   1.1863
B(  3-C , 10-H ) :   0.8970 B(  3-C , 11-H ) :   0.9845 B(  3-C , 12-H ) :   0.9285
B(  4-C ,  6-H ) :  -0.1650 B(  4-C , 13-H ) :   0.8492 B(  4-C , 14-H ) :   0.8474

MP2 TOTAL ENERGY:     -195.895229309 Eh
FINAL SINGLE POINT ENERGY      -195.895229309129

DIPOLE MOMENT
-------------
                                X             Y             Z
Electronic contribution:      1.13844       1.69167       0.42916
Nuclear contribution   :     -1.13887      -1.80466      -0.40185
                        -----------------------------------------
Total Dipole Moment    :     -0.00043      -0.11299       0.02731
                        -----------------------------------------
Magnitude (a.u.)       :      0.11624
Magnitude (Debye)      :      0.29547

Rotational constants in cm-1:     0.378493     0.084991     0.077809
Rotational constants in MHz : 11346.945562  2547.969506  2332.644990

                             ****ORCA TERMINATED NORMALLY****
TOTAL RUN TIME: 0 days 0 hours 0 minutes 35 seconds 825 msec
