                         Program Version 5.0.3 -  RELEASE  -
|  1> !ri-mp2 aug-cc-pvdz aug-cc-pvdz/c tightscf
|  2> %pal nprocs 16 end
|  3>
|  4> * xyz 0 1
|  5> C      0.000000    0.661946    0.959662
|  6> C      0.000000   -0.661946    0.959662
|  7> Cl     0.000000    1.660082   -0.449807
|  8> Cl     0.000000   -1.660082   -0.449807
|  9> H      0.000000    1.210752    1.888744
| 10> H      0.000000   -1.210752    1.888744
| 11> *
| 12>
| 13>                          ****END OF INPUT****

CARTESIAN COORDINATES (ANGSTROEM)
---------------------------------
  C      0.000000    0.661946    0.959662
  C      0.000000   -0.661946    0.959662
  Cl     0.000000    1.660082   -0.449807
  Cl     0.000000   -1.660082   -0.449807
  H      0.000000    1.210752    1.888744
  H      0.000000   -1.210752    1.888744

 Total Charge           Charge          ....    0
 Multiplicity           Mult            ....    1
 Number of Electrons    NEL             ....   48
 Basis Dimension        Dim             ....  118

ORBITAL ENERGIES
----------------

  NO   OCC          E(Eh)            E(eV)
   0   2.0000    -104.853820     -2853.2175
   1   2.0000    -104.853819     -2853.2175
   2   2.0000     -11.324987      -308.1686
   3   2.0000     -11.323234      -308.1209
   4   2.0000     -10.579958      -287.8953
   5   2.0000     -10.579937      -287.8947
   6   2.0000      -8.047808      -218.9920
   7   2.0000      -8.047806      -218.9919
   8   2.0000      -8.044255      -218.8953
   9   2.0000      -8.044255      -218.8953
  10   2.0000      -8.044223      -218.8944
  11   2.0000      -8.044222      -218.8944
  12   2.0000      -1.198512       -32.6132
  13   2.0000      -1.138082       -30.9688
  14   2.0000      -1.007167       -27.4064
  15   2.0000      -0.786518       -21.4023
  16   2.0000      -0.702586       -19.1183
  17   2.0000      -0.619682       -16.8624
  18   2.0000      -0.553040       -15.0490
  19   2.0000      -0.548669       -14.9300
  20   2.0000      -0.489869       -13.3300
  21   2.0000      -0.473433       -12.8828
  22   2.0000      -0.459442       -12.5021
  23   2.0000      -0.371538       -10.1101
  24   0.0000       0.033008         0.8982
  25   0.0000       0.048342         1.3155
  26   0.0000       0.072513         1.9732
  27   0.0000       0.093142         2.5345
  28   0.0000       0.105383         2.8676

MULLIKEN ATOMIC CHARGES
-----------------------
   0 C :    0.439052
   1 C :    0.439052
   2 Cl:   -0.190838
   3 Cl:   -0.190838
   4 H :   -0.248214
   5 H :   -0.248214
Sum of atomic charges:   -0.0000000

LOEWDIN ATOMIC CHARGES
----------------------
   0 C :   -0.471199
   1 C :   -0.471199
   2 Cl:    0.525574
   3 Cl:    0.525574
   4 H :   -0.054375
   5 H :   -0.054375

  Mayer bond orders larger than 0.100000
B(  0-C ,  1-C ) :   1.7252 B(  0-C ,  2-Cl) :   1.0365 B(  0-C ,  3-Cl) :  -0.1601
B(  0-C ,  4-H ) :   0.9048 B(  1-C ,  2-Cl) :  -0.1601 B(  1-C ,  3-Cl) :   1.0365
B(  1-C ,  5-H ) :   0.9048

MP2 TOTAL ENERGY:     -996.454637435 Eh
FINAL SINGLE POINT ENERGY      -996.454637434938

DIPOLE MOMENT
-------------
                                X             Y             Z
Electronic contribution:     -0.00000       0.00000      -3.83927
Nuclear contribution   :      0.00000       0.00000       4.70946
                        -----------------------------------------
Total Dipole Moment    :     -0.00000       0.00000       0.87019
                        -----------------------------------------
Magnitude (a.u.)       :      0.87019
Magnitude (Debye)      :      2.21185

Rotational constants in cm-1:     0.388428     0.080701     0.066819
Rotational constants in MHz : 11644.769661  2419.369107  2003.179607

                             ****ORCA TERMINATED NORMALLY****
TOTAL RUN TIME: 0 days 0 hours 0 minutes 27 seconds 641 msec
