                         Program Version 5.0.4 -  RELEASE  -
|  1> ! ri-mp2 aug-cc-pvdz aug-cc-pvdz/c tightscf
|  2> %pal nprocs 16 end
|  3> %maxcore 3800
|  4> %base "DZ_P-P_4_AB"
|  5>
|  6> *xyz 0 1
|  7> P        -0.569185   -0.187876   -0.819453
|  8> N        -0.900800    1.443639   -0.012091
|  9> P         1.459377   -0.425049   -0.000577
| 10> C        -1.487434   -1.299238    0.309407
| 11> C        -2.949022   -1.477713   -0.082393
| 12> H        -1.387809   -0.946627    1.335231
| 13> H        -0.949607   -2.249454    0.236007
| 14> H        -3.493409   -0.539148    0.001431
| 15> H        -3.425974   -2.203586    0.575674
| 16> H        -3.043719   -1.839999   -1.106108
| 17> O        -1.946757    1.608446    0.562030
| 18> O        -0.058012    2.316793   -0.171763
| 19> O         1.983750   -1.746518   -0.323845
| 20> O         1.335148   -0.131513    1.563344
| 21> H         1.614689   -0.883428    2.100090
| 22> O         2.250083    0.800315   -0.580660
| 23> H         1.743591    1.632159   -0.512176
| 24> *
| 25>
| 26> $new_job
| 27> ! ri-mp2 aug-cc-pvtz aug-cc-pvtz/c tightscf
| 28> %pal nprocs 16 end
| 29> %maxcore 3800
| 30> %base "TZ_P-P_4_AB"
| 31>
| 32> *xyz 0 1
| 33> P        -0.569185   -0.187876   -0.819453
| 34> N        -0.900800    1.443639   -0.012091
| 35> P         1.459377   -0.425049   -0.000577
| 36> C        -1.487434   -1.299238    0.309407
| 37> C        -2.949022   -1.477713   -0.082393
| 38> H        -1.387809   -0.946627    1.335231
| 39> H        -0.949607   -2.249454    0.236007
| 40> H        -3.493409   -0.539148    0.001431
| 41> H        -3.425974   -2.203586    0.575674
| 42> H        -3.043719   -1.839999   -1.106108
| 43> O        -1.946757    1.608446    0.562030
| 44> O        -0.058012    2.316793   -0.171763
| 45> O         1.983750   -1.746518   -0.323845
| 46> O         1.335148   -0.131513    1.563344
| 47> H         1.614689   -0.883428    2.100090
| 48> O         2.250083    0.800315   -0.580660
| 49> H         1.743591    1.632159   -0.512176
| 50> *
| 51>
| 52> $new_job
| 53> ! ri-mp2 aug-cc-pvqz aug-cc-pvqz/c tightscf
| 54> %pal nprocs 16 end
| 55> %maxcore 3800
| 56> %base "QZ_P-P_4_AB"
| 57>
| 58> *xyz 0 1
| 59> P        -0.569185   -0.187876   -0.819453
| 60> N        -0.900800    1.443639   -0.012091
| 61> P         1.459377   -0.425049   -0.000577
| 62> C        -1.487434   -1.299238    0.309407
| 63> C        -2.949022   -1.477713   -0.082393
| 64> H        -1.387809   -0.946627    1.335231
| 65> H        -0.949607   -2.249454    0.236007
| 66> H        -3.493409   -0.539148    0.001431
| 67> H        -3.425974   -2.203586    0.575674
| 68> H        -3.043719   -1.839999   -1.106108
| 69> O        -1.946757    1.608446    0.562030
| 70> O        -0.058012    2.316793   -0.171763
| 71> O         1.983750   -1.746518   -0.323845
| 72> O         1.335148   -0.131513    1.563344
| 73> H         1.614689   -0.883428    2.100090
| 74> O         2.250083    0.800315   -0.580660
| 75> H         1.743591    1.632159   -0.512176
| 76> *
| 77>
| 78>
| 79>
| 80>
| 81>                          ****END OF INPUT****
 Total Charge           Charge          ....    0
 Multiplicity           Mult            ....    1
 Number of Electrons    NEL             ....   96
MP2 TOTAL ENERGY:    -1191.814271037 Eh
FINAL SINGLE POINT ENERGY     -1191.814271036635
MP2 TOTAL ENERGY:    -1192.366598266 Eh
FINAL SINGLE POINT ENERGY     -1192.366598265897

CARTESIAN COORDINATES (ANGSTROEM)
---------------------------------
  P     -0.569185   -0.187876   -0.819453
  N     -0.900800    1.443639   -0.012091
  P      1.459377   -0.425049   -0.000577
  C     -1.487434   -1.299238    0.309407
  C     -2.949022   -1.477713   -0.082393
  H     -1.387809   -0.946627    1.335231
  H     -0.949607   -2.249454    0.236007
  H     -3.493409   -0.539148    0.001431
  H     -3.425974   -2.203586    0.575674
  H     -3.043719   -1.839999   -1.106108
  O     -1.946757    1.608446    0.562030
  O     -0.058012    2.316793   -0.171763
  O      1.983750   -1.746518   -0.323845
  O      1.335148   -0.131513    1.563344
  H      1.614689   -0.883428    2.100090
  O      2.250083    0.800315   -0.580660
  H      1.743591    1.632159   -0.512176

 Multiplicity           Mult            ....    1
 Number of Electrons    NEL             ....   96
 Basis Dimension        Dim             .... 1130

ORBITAL ENERGIES
----------------

  NO   OCC          E(Eh)            E(eV)
   0   2.0000     -80.096643     -2179.5405
   1   2.0000     -80.024453     -2177.5761
   2   2.0000     -20.631824      -561.4205
   3   2.0000     -20.622329      -561.1621
   4   2.0000     -20.621100      -561.1286
   5   2.0000     -20.611226      -560.8600
   6   2.0000     -20.530850      -558.6728
   7   2.0000     -15.856573      -431.4793
   8   2.0000     -11.274851      -306.8043
   9   2.0000     -11.245886      -306.0161
  10   2.0000      -7.618977      -207.3229
  11   2.0000      -7.565351      -205.8637
  12   2.0000      -5.517000      -150.1252
  13   2.0000      -5.516687      -150.1167
  14   2.0000      -5.515875      -150.0946
  15   2.0000      -5.459013      -148.5473
  16   2.0000      -5.457732      -148.5124
  17   2.0000      -5.456911      -148.4901
  18   2.0000      -1.631568       -44.3972
  19   2.0000      -1.458560       -39.6894
  20   2.0000      -1.428126       -38.8613
  21   2.0000      -1.404441       -38.2168
  22   2.0000      -1.324159       -36.0322
  23   2.0000      -1.091035       -29.6886
  24   2.0000      -1.011260       -27.5178
  25   2.0000      -0.905823       -24.6487
  26   2.0000      -0.867332       -23.6013
  27   2.0000      -0.835243       -22.7281
  28   2.0000      -0.778583       -21.1863
  29   2.0000      -0.751906       -20.4604
  30   2.0000      -0.741555       -20.1787
  31   2.0000      -0.737526       -20.0691
  32   2.0000      -0.679619       -18.4934
  33   2.0000      -0.667501       -18.1636
  34   2.0000      -0.650369       -17.6974
  35   2.0000      -0.634291       -17.2599
  36   2.0000      -0.595931       -16.2161
  37   2.0000      -0.592367       -16.1191
  38   2.0000      -0.569555       -15.4984
  39   2.0000      -0.553427       -15.0595
  40   2.0000      -0.540333       -14.7032
  41   2.0000      -0.527993       -14.3674
  42   2.0000      -0.520182       -14.1549
  43   2.0000      -0.494700       -13.4615
  44   2.0000      -0.487304       -13.2602
  45   2.0000      -0.482933       -13.1413
  46   2.0000      -0.458306       -12.4711
  47   2.0000      -0.414301       -11.2737
  48   0.0000       0.018650         0.5075
  49   0.0000       0.026704         0.7266
  50   0.0000       0.034365         0.9351
  51   0.0000       0.037451         1.0191
  52   0.0000       0.045319         1.2332

MULLIKEN ATOMIC CHARGES
-----------------------
   0 P :    0.651064
   1 N :    0.727471
   2 P :    2.351958
   3 C :   -0.617274
   4 C :   -0.824980
   5 H :    0.279367
   6 H :    0.283588
   7 H :    0.262392
   8 H :    0.294405
   9 H :    0.269545
  10 O :   -0.610525
  11 O :   -0.651433
  12 O :   -1.236201
  13 O :   -0.919849
  14 H :    0.383895
  15 O :   -1.034901
  16 H :    0.391479
Sum of atomic charges:    0.0000000

LOEWDIN ATOMIC CHARGES
----------------------
   0 P :    0.786696
   1 N :   -1.008675
   2 P :   -0.806668
   3 C :    0.300222
   4 C :    0.860256
   5 H :   -0.357556
   6 H :   -0.358278
   7 H :   -0.315272
   8 H :   -0.280090
   9 H :   -0.298092
  10 O :    0.485881
  11 O :    0.511338
  12 O :    0.264760
  13 O :    1.082611
  14 H :   -0.860091
  15 O :    1.066241
  16 H :   -1.073283

  Mayer bond orders larger than 0.100000
B(  0-P ,  1-N ) :   0.5751 B(  0-P ,  2-P ) :   0.9727 B(  0-P ,  3-C ) :   0.8787
B(  1-N , 10-O ) :   1.2780 B(  1-N , 11-O ) :   1.1354 B(  2-P , 12-O ) :   1.2861
B(  2-P , 13-O ) :   0.6139 B(  2-P , 15-O ) :   0.5300 B(  3-C ,  4-C ) :   0.8668
B(  3-C ,  5-H ) :   0.8753 B(  3-C ,  6-H ) :   0.8760 B(  4-C ,  7-H ) :   0.9464
B(  4-C ,  8-H ) :   0.9600 B(  4-C ,  9-H ) :   0.9373 B( 10-O , 11-O ) :   0.1247
B( 13-O , 14-H ) :   0.9163 B( 15-O , 16-H ) :   0.8175

MP2 TOTAL ENERGY:    -1192.546873485 Eh
FINAL SINGLE POINT ENERGY     -1192.546873484711

DIPOLE MOMENT
-------------
                                X             Y             Z
Electronic contribution:      8.44378       5.46628      -2.73989
Nuclear contribution   :     -9.38853      -6.16284       3.30420
                        -----------------------------------------
Total Dipole Moment    :     -0.94475      -0.69656       0.56430
                        -----------------------------------------
Magnitude (a.u.)       :      1.30238
Magnitude (Debye)      :      3.31038

Rotational constants in cm-1:     0.045982     0.029225     0.021613
Rotational constants in MHz :  1378.510932   876.132789   647.926731

                             ****ORCA TERMINATED NORMALLY****
TOTAL RUN TIME: 0 days 0 hours 35 minutes 51 seconds 509 msec
