                         Program Version 5.0.4 -  RELEASE  -
|  1> ! ri-mp2 aug-cc-pvdz aug-cc-pvdz/c tightscf
|  2> %pal nprocs 16 end
|  3> %maxcore 3800
|  4> %base "DZ_P-O_1_AB"
|  5> %scf
|  6> STABPerform true
|  7> STABRestartUHFifUnstable true
|  8> end
|  9>
| 10> *xyz 0 1
| 11> O        -0.169159   -0.713556    0.481610
| 12> P        -1.355157    0.178209   -0.018576
| 13> O        -1.018394    1.322854   -0.861038
| 14> C         0.822025   -1.198619   -0.447565
| 15> C         2.180082   -1.143019    0.209853
| 16> H         0.794389   -0.587286   -1.349842
| 17> C         2.616792    0.255460    0.633033
| 18> H         2.899833   -1.557641   -0.502520
| 19> H         2.175694   -1.806454    1.077380
| 20> C         2.691846    1.257282   -0.510766
| 21> H         3.593731    0.173795    1.114371
| 22> H         1.930761    0.624265    1.398093
| 23> H         3.331419    0.888613   -1.316237
| 24> H         3.109165    2.204095   -0.167317
| 25> H         1.707466    1.470216   -0.928303
| 26> H         0.550942   -2.221360   -0.708487
| 27> O        -2.321683   -0.882356   -0.693955
| 28> H        -2.912231   -0.480909   -1.340879
| 29> O        -2.091399    0.541213    1.334281
| 30> H        -1.913210    1.447656    1.607866
| 31> *
| 32>
| 33> $new_job
| 34> ! ri-mp2 aug-cc-pvtz aug-cc-pvtz/c tightscf
| 35> %pal nprocs 16 end
| 36> %maxcore 3800
| 37> %base "TZ_P-O_1_AB"
| 38>
| 39> *xyz 0 1
| 40> O        -0.169159   -0.713556    0.481610
| 41> P        -1.355157    0.178209   -0.018576
| 42> O        -1.018394    1.322854   -0.861038
| 43> C         0.822025   -1.198619   -0.447565
| 44> C         2.180082   -1.143019    0.209853
| 45> H         0.794389   -0.587286   -1.349842
| 46> C         2.616792    0.255460    0.633033
| 47> H         2.899833   -1.557641   -0.502520
| 48> H         2.175694   -1.806454    1.077380
| 49> C         2.691846    1.257282   -0.510766
| 50> H         3.593731    0.173795    1.114371
| 51> H         1.930761    0.624265    1.398093
| 52> H         3.331419    0.888613   -1.316237
| 53> H         3.109165    2.204095   -0.167317
| 54> H         1.707466    1.470216   -0.928303
| 55> H         0.550942   -2.221360   -0.708487
| 56> O        -2.321683   -0.882356   -0.693955
| 57> H        -2.912231   -0.480909   -1.340879
| 58> O        -2.091399    0.541213    1.334281
| 59> H        -1.913210    1.447656    1.607866
| 60> *
| 61>
| 62> $new_job
| 63> ! ri-mp2 aug-cc-pvqz aug-cc-pvqz/c tightscf
| 64> %pal nprocs 16 end
| 65> %maxcore 3800
| 66> %base "QZ_P-O_1_AB"
| 67>
| 68> *xyz 0 1
| 69> O        -0.169159   -0.713556    0.481610
| 70> P        -1.355157    0.178209   -0.018576
| 71> O        -1.018394    1.322854   -0.861038
| 72> C         0.822025   -1.198619   -0.447565
| 73> C         2.180082   -1.143019    0.209853
| 74> H         0.794389   -0.587286   -1.349842
| 75> C         2.616792    0.255460    0.633033
| 76> H         2.899833   -1.557641   -0.502520
| 77> H         2.175694   -1.806454    1.077380
| 78> C         2.691846    1.257282   -0.510766
| 79> H         3.593731    0.173795    1.114371
| 80> H         1.930761    0.624265    1.398093
| 81> H         3.331419    0.888613   -1.316237
| 82> H         3.109165    2.204095   -0.167317
| 83> H         1.707466    1.470216   -0.928303
| 84> H         0.550942   -2.221360   -0.708487
| 85> O        -2.321683   -0.882356   -0.693955
| 86> H        -2.912231   -0.480909   -1.340879
| 87> O        -2.091399    0.541213    1.334281
| 88> H        -1.913210    1.447656    1.607866
| 89> *
| 90>
| 91>
| 92>
| 93>
| 94>                          ****END OF INPUT****
 Total Charge           Charge          ....    0
 Multiplicity           Mult            ....    1
 Number of Electrons    NEL             ....   82
MP2 TOTAL ENERGY:     -799.746423296 Eh
FINAL SINGLE POINT ENERGY      -799.746423295844
MP2 TOTAL ENERGY:     -800.240408281 Eh
FINAL SINGLE POINT ENERGY      -800.240408280875

CARTESIAN COORDINATES (ANGSTROEM)
---------------------------------
  O     -0.169159   -0.713556    0.481610
  P     -1.355157    0.178209   -0.018576
  O     -1.018394    1.322854   -0.861038
  C      0.822025   -1.198619   -0.447565
  C      2.180082   -1.143019    0.209853
  H      0.794389   -0.587286   -1.349842
  C      2.616792    0.255460    0.633033
  H      2.899833   -1.557641   -0.502520
  H      2.175694   -1.806454    1.077380
  C      2.691846    1.257282   -0.510766
  H      3.593731    0.173795    1.114371
  H      1.930761    0.624265    1.398093
  H      3.331419    0.888613   -1.316237
  H      3.109165    2.204095   -0.167317
  H      1.707466    1.470216   -0.928303
  H      0.550942   -2.221360   -0.708487
  O     -2.321683   -0.882356   -0.693955
  H     -2.912231   -0.480909   -1.340879
  O     -2.091399    0.541213    1.334281
  H     -1.913210    1.447656    1.607866

 Multiplicity           Mult            ....    1
 Number of Electrons    NEL             ....   82
 Basis Dimension        Dim             .... 1230

ORBITAL ENERGIES
----------------

  NO   OCC          E(Eh)            E(eV)
   0   2.0000     -80.091037     -2179.3879
   1   2.0000     -20.601845      -560.6047
   2   2.0000     -20.601008      -560.5819
   3   2.0000     -20.587225      -560.2069
   4   2.0000     -20.508442      -558.0631
   5   2.0000     -11.294513      -307.3393
   6   2.0000     -11.226221      -305.4810
   7   2.0000     -11.217179      -305.2350
   8   2.0000     -11.203857      -304.8724
   9   2.0000      -7.609424      -207.0630
  10   2.0000      -5.508252      -149.8872
  11   2.0000      -5.508093      -149.8828
  12   2.0000      -5.507049      -149.8544
  13   2.0000      -1.463322       -39.8190
  14   2.0000      -1.391245       -37.8577
  15   2.0000      -1.389913       -37.8215
  16   2.0000      -1.301477       -35.4150
  17   2.0000      -1.082643       -29.4602
  18   2.0000      -0.990111       -26.9423
  19   2.0000      -0.895650       -24.3719
  20   2.0000      -0.846911       -23.0456
  21   2.0000      -0.787146       -21.4193
  22   2.0000      -0.753541       -20.5049
  23   2.0000      -0.730749       -19.8847
  24   2.0000      -0.681678       -18.5494
  25   2.0000      -0.666132       -18.1264
  26   2.0000      -0.646587       -17.5945
  27   2.0000      -0.623067       -16.9545
  28   2.0000      -0.611024       -16.6268
  29   2.0000      -0.584301       -15.8996
  30   2.0000      -0.580099       -15.7853
  31   2.0000      -0.563210       -15.3257
  32   2.0000      -0.550397       -14.9771
  33   2.0000      -0.536335       -14.5944
  34   2.0000      -0.523121       -14.2348
  35   2.0000      -0.509375       -13.8608
  36   2.0000      -0.475553       -12.9405
  37   2.0000      -0.474398       -12.9090
  38   2.0000      -0.471075       -12.8186
  39   2.0000      -0.463319       -12.6075
  40   2.0000      -0.459985       -12.5168
  41   0.0000       0.024093         0.6556
  42   0.0000       0.028989         0.7888
  43   0.0000       0.030358         0.8261
  44   0.0000       0.035607         0.9689
  45   0.0000       0.041288         1.1235

MULLIKEN ATOMIC CHARGES
-----------------------
   0 O :   -0.996696
   1 P :    2.798700
   2 O :   -1.198508
   3 C :   -0.041128
   4 C :   -0.507420
   5 H :    0.204428
   6 C :   -0.358575
   7 H :    0.260048
   8 H :    0.293341
   9 C :   -0.911781
  10 H :    0.271152
  11 H :    0.242058
  12 H :    0.183830
  13 H :    0.292017
  14 H :    0.299569
  15 H :    0.357321
  16 O :   -0.966580
  17 H :    0.385883
  18 O :   -1.004816
  19 H :    0.397157
Sum of atomic charges:   -0.0000000

LOEWDIN ATOMIC CHARGES
----------------------
   0 O :    0.700319
   1 P :   -0.998229
   2 O :    0.342096
   3 C :    0.142948
   4 C :    0.504345
   5 H :   -0.343704
   6 C :    0.506549
   7 H :   -0.271256
   8 H :   -0.270752
   9 C :    0.921420
  10 H :   -0.273004
  11 H :   -0.283797
  12 H :   -0.275240
  13 H :   -0.276881
  14 H :   -0.322181
  15 H :   -0.284140
  16 O :    1.104598
  17 H :   -0.855926
  18 O :    1.096561
  19 H :   -0.863727

  Mayer bond orders larger than 0.100000
B(  0-O ,  1-P ) :   0.8509 B(  0-O ,  3-C ) :   0.5896 B(  1-P ,  2-O ) :   1.3034
B(  1-P , 16-O ) :   0.4953 B(  1-P , 18-O ) :   0.4317 B(  3-C ,  4-C ) :   0.9301
B(  3-C ,  5-H ) :   0.9729 B(  3-C , 15-H ) :   0.8470 B(  4-C ,  6-C ) :   0.8750
B(  4-C ,  7-H ) :   0.9418 B(  4-C ,  8-H ) :   0.8755 B(  6-C ,  9-C ) :   0.9379
B(  6-C , 10-H ) :   0.9116 B(  6-C , 11-H ) :   0.9079 B(  9-C , 12-H ) :   1.0078
B(  9-C , 13-H ) :   0.9634 B(  9-C , 14-H ) :   0.8951 B( 16-O , 17-H ) :   0.9037
B( 18-O , 19-H ) :   0.8967

MP2 TOTAL ENERGY:     -800.396684646 Eh
FINAL SINGLE POINT ENERGY      -800.396684646298

DIPOLE MOMENT
-------------
                                X             Y             Z
Electronic contribution:    -16.34525      -0.32258       1.13366
Nuclear contribution   :     16.45960      -0.01050      -1.09336
                        -----------------------------------------
Total Dipole Moment    :      0.11435      -0.33308       0.04030
                        -----------------------------------------
Magnitude (a.u.)       :      0.35446
Magnitude (Debye)      :      0.90096

Rotational constants in cm-1:     0.082088     0.027791     0.025590
Rotational constants in MHz :  2460.941111   833.165507   767.173301

                             ****ORCA TERMINATED NORMALLY****
TOTAL RUN TIME: 0 days 5 hours 34 minutes 5 seconds 317 msec
