                         Program Version 5.0.4 -  RELEASE  -
|  1> ! ri-mp2 aug-cc-pvdz aug-cc-pvdz/c tightscf
|  2> %pal nprocs 16 end
|  3> %maxcore 3800
|  4> %base "DZ_Si-Cl_82_A"
|  5> %scf
|  6> STABPerform true
|  7> STABRestartUHFifUnstable true
|  8> end
|  9>
| 10> *xyz 0 2
| 11> C        -0.701741   -0.418599    0.000074
| 12> Si         1.238884   -0.438818    0.000082
| 13> Cl        -1.320476    1.240577   -0.000224
| 14> F        -1.177215   -1.059312    1.083716
| 15> F        -1.177210   -1.059700   -1.083340
| 16> F         1.694664    0.368920    1.283131
| 17> F         1.694668    0.368452   -1.283261
| 18> *
| 19>
| 20> $new_job
| 21> ! ri-mp2 aug-cc-pvtz aug-cc-pvtz/c tightscf
| 22> %pal nprocs 16 end
| 23> %maxcore 3800
| 24> %base "TZ_Si-Cl_82_A"
| 25>
| 26> *xyz 0 2
| 27> C        -0.701741   -0.418599    0.000074
| 28> Si         1.238884   -0.438818    0.000082
| 29> Cl        -1.320476    1.240577   -0.000224
| 30> F        -1.177215   -1.059312    1.083716
| 31> F        -1.177210   -1.059700   -1.083340
| 32> F         1.694664    0.368920    1.283131
| 33> F         1.694668    0.368452   -1.283261
| 34> *
| 35>
| 36> $new_job
| 37> ! ri-mp2 aug-cc-pvqz aug-cc-pvqz/c tightscf
| 38> %pal nprocs 16 end
| 39> %maxcore 3800
| 40> %base "QZ_Si-Cl_82_A"
| 41>
| 42> *xyz 0 2
| 43> C        -0.701741   -0.418599    0.000074
| 44> Si         1.238884   -0.438818    0.000082
| 45> Cl        -1.320476    1.240577   -0.000224
| 46> F        -1.177215   -1.059312    1.083716
| 47> F        -1.177210   -1.059700   -1.083340
| 48> F         1.694664    0.368920    1.283131
| 49> F         1.694668    0.368452   -1.283261
| 50> *
| 51>
| 52>
| 53>
| 54>
| 55>                          ****END OF INPUT****
 Total Charge           Charge          ....    0
 Multiplicity           Mult            ....    2
 Number of Electrons    NEL             ....   73
MP2 TOTAL ENERGY:    -1185.352614257 Eh
FINAL SINGLE POINT ENERGY     -1185.352614256605
MP2 TOTAL ENERGY:    -1185.817627094 Eh
FINAL SINGLE POINT ENERGY     -1185.817627093587

CARTESIAN COORDINATES (ANGSTROEM)
---------------------------------
  C     -0.701741   -0.418599    0.000074
  Si     1.238884   -0.438818    0.000082
  Cl    -1.320476    1.240577   -0.000224
  F     -1.177215   -1.059312    1.083716
  F     -1.177210   -1.059700   -1.083340
  F      1.694664    0.368920    1.283131
  F      1.694668    0.368452   -1.283261

 Multiplicity           Mult            ....    2
 Number of Electrons    NEL             ....   73
 Basis Dimension        Dim             ....  568

ORBITAL ENERGIES
----------------
                 SPIN UP ORBITALS
  NO   OCC          E(Eh)            E(eV)
   0   1.0000    -104.869301     -2853.6388
   1   1.0000     -68.902018     -1874.9192
   2   1.0000     -26.351123      -717.0505
   3   1.0000     -26.351103      -717.0500
   4   1.0000     -26.329763      -716.4693
   5   1.0000     -26.329756      -716.4691
   6   1.0000     -11.487192      -312.5824
   7   1.0000     -10.595500      -288.3182
   8   1.0000      -8.063016      -219.4058
   9   1.0000      -8.060554      -219.3388
  10   1.0000      -8.060493      -219.3372
  11   1.0000      -6.241465      -169.8389
  12   1.0000      -4.352340      -118.4332
  13   1.0000      -4.345321      -118.2422
  14   1.0000      -4.343931      -118.2044
  15   1.0000      -1.710995       -46.5585
  16   1.0000      -1.645506       -44.7765
  17   1.0000      -1.644798       -44.7572
  18   1.0000      -1.627097       -44.2756
  19   1.0000      -1.170059       -31.8389
  20   1.0000      -0.956648       -26.0317
  21   1.0000      -0.849645       -23.1200
  22   1.0000      -0.806730       -21.9522
  23   1.0000      -0.795545       -21.6479
  24   1.0000      -0.779898       -21.2221
  25   1.0000      -0.757149       -20.6031
  26   1.0000      -0.730576       -19.8800
  27   1.0000      -0.717666       -19.5287
  28   1.0000      -0.709222       -19.2989
  29   1.0000      -0.699886       -19.0449
  30   1.0000      -0.680989       -18.5306
  31   1.0000      -0.670982       -18.2583
  32   1.0000      -0.638932       -17.3862
  33   1.0000      -0.547487       -14.8979
  34   1.0000      -0.497061       -13.5257
  35   1.0000      -0.494919       -13.4674
  36   1.0000      -0.407040       -11.0761
  37   0.0000       0.034227         0.9314
  38   0.0000       0.038701         1.0531
  39   0.0000       0.038830         1.0566
  40   0.0000       0.044285         1.2051
  41   0.0000       0.069513         1.8915

                 SPIN DOWN ORBITALS
  NO   OCC          E(Eh)            E(eV)
   0   1.0000    -104.868886     -2853.6275
   1   1.0000     -68.895860     -1874.7517
   2   1.0000     -26.351391      -717.0578
   3   1.0000     -26.351371      -717.0573
   4   1.0000     -26.326748      -716.3872
   5   1.0000     -26.326738      -716.3870
   6   1.0000     -11.482332      -312.4501
   7   1.0000     -10.595058      -288.3062
   8   1.0000      -8.061644      -219.3685
   9   1.0000      -8.060263      -219.3309
  10   1.0000      -8.060000      -219.3238
  11   1.0000      -6.230881      -169.5509
  12   1.0000      -4.341279      -118.1322
  13   1.0000      -4.340580      -118.1132
  14   1.0000      -4.332478      -117.8927
  15   1.0000      -1.711015       -46.5591
  16   1.0000      -1.645414       -44.7740
  17   1.0000      -1.636693       -44.5367
  18   1.0000      -1.618352       -44.0376
  19   1.0000      -1.165600       -31.7176
  20   1.0000      -0.948352       -25.8060
  21   1.0000      -0.834724       -22.7140
  22   1.0000      -0.806007       -21.9326
  23   1.0000      -0.785529       -21.3753
  24   1.0000      -0.778392       -21.1811
  25   1.0000      -0.744921       -20.2703
  26   1.0000      -0.716761       -19.5041
  27   1.0000      -0.710144       -19.3240
  28   1.0000      -0.709719       -19.3124
  29   1.0000      -0.688269       -18.7288
  30   1.0000      -0.678569       -18.4648
  31   1.0000      -0.670805       -18.2535
  32   1.0000      -0.629382       -17.1263
  33   1.0000      -0.531400       -14.4601
  34   1.0000      -0.494328       -13.4513
  35   1.0000      -0.477738       -12.9999
  36   0.0000      -0.003485        -0.0948
  37   0.0000       0.039970         1.0876
  38   0.0000       0.040408         1.0996
  39   0.0000       0.042865         1.1664
  40   0.0000       0.048595         1.3223

MULLIKEN ATOMIC CHARGES AND SPIN POPULATIONS
--------------------------------------------
   0 C :    0.993572    0.082334
   1 Si:    1.716153    0.894702
   2 Cl:   -0.154120    0.028594
   3 F :   -0.579721   -0.002077
   4 F :   -0.579722   -0.002077
   5 F :   -0.698081   -0.000738
   6 F :   -0.698081   -0.000738
Sum of atomic charges         :    0.0000000

LOEWDIN ATOMIC CHARGES AND SPIN POPULATIONS
-------------------------------------------
   0 C :   -2.329368    0.152897
   1 Si:   -0.644359    0.585699
   2 Cl:    1.058907    0.036761
   3 F :    0.612147    0.009679
   4 F :    0.612148    0.009679
   5 F :    0.345263    0.102642
   6 F :    0.345263    0.102642

  Mayer bond orders larger than 0.100000
B(  0-C ,  1-Si) :   0.7209 B(  0-C ,  2-Cl) :   0.9731 B(  0-C ,  3-F ) :   0.5751
B(  0-C ,  4-F ) :   0.5751 B(  1-Si,  5-F ) :   0.4445 B(  1-Si,  6-F ) :   0.4445

MP2 TOTAL ENERGY:    -1185.972843001 Eh
FINAL SINGLE POINT ENERGY     -1185.972843000869

DIPOLE MOMENT
-------------
                                X             Y             Z
Electronic contribution:     -0.30512      -0.04514       0.00001
Nuclear contribution   :      0.71640      -0.34714       0.00007
                        -----------------------------------------
Total Dipole Moment    :      0.41129      -0.39227       0.00007
                        -----------------------------------------
Magnitude (a.u.)       :      0.56836
Magnitude (Debye)      :      1.44467

Rotational constants in cm-1:     0.077666     0.044386     0.044072
Rotational constants in MHz :  2328.354410  1330.662739  1321.237148

                             ****ORCA TERMINATED NORMALLY****
TOTAL RUN TIME: 0 days 0 hours 37 minutes 8 seconds 847 msec
