                         Program Version 5.0.4 -  RELEASE  -
|  1> ! ri-mp2 aug-cc-pvdz aug-cc-pvdz/c tightscf
|  2> %pal nprocs 16 end
|  3> %maxcore 3800
|  4> %base "DZ_Si-Cl_26_A"
|  5> %scf
|  6> STABPerform true
|  7> STABRestartUHFifUnstable true
|  8> end
|  9>
| 10> *xyz 0 2
| 11> Si         1.571111   -0.237198   -0.028176
| 12> C         0.037686    0.844736   -0.257967
| 13> C        -1.125475    0.218947    0.437760
| 14> C        -2.102329   -0.449007   -0.156504
| 15> H        -2.901944   -0.902828    0.412463
| 16> H        -2.137204   -0.563803   -1.233487
| 17> H        -0.157122    0.952088   -1.326039
| 18> H         0.246303    1.838288    0.142682
| 19> H        -1.130889    0.302361    1.520426
| 20> H         1.371550   -1.556278   -0.676878
| 21> H         1.854455   -0.437109    1.415573
| 22> *
| 23>
| 24> $new_job
| 25> ! ri-mp2 aug-cc-pvtz aug-cc-pvtz/c tightscf
| 26> %pal nprocs 16 end
| 27> %maxcore 3800
| 28> %base "TZ_Si-Cl_26_A"
| 29>
| 30> *xyz 0 2
| 31> Si         1.571111   -0.237198   -0.028176
| 32> C         0.037686    0.844736   -0.257967
| 33> C        -1.125475    0.218947    0.437760
| 34> C        -2.102329   -0.449007   -0.156504
| 35> H        -2.901944   -0.902828    0.412463
| 36> H        -2.137204   -0.563803   -1.233487
| 37> H        -0.157122    0.952088   -1.326039
| 38> H         0.246303    1.838288    0.142682
| 39> H        -1.130889    0.302361    1.520426
| 40> H         1.371550   -1.556278   -0.676878
| 41> H         1.854455   -0.437109    1.415573
| 42> *
| 43>
| 44> $new_job
| 45> ! ri-mp2 aug-cc-pvqz aug-cc-pvqz/c tightscf
| 46> %pal nprocs 16 end
| 47> %maxcore 3800
| 48> %base "QZ_Si-Cl_26_A"
| 49>
| 50> *xyz 0 2
| 51> Si         1.571111   -0.237198   -0.028176
| 52> C         0.037686    0.844736   -0.257967
| 53> C        -1.125475    0.218947    0.437760
| 54> C        -2.102329   -0.449007   -0.156504
| 55> H        -2.901944   -0.902828    0.412463
| 56> H        -2.137204   -0.563803   -1.233487
| 57> H        -0.157122    0.952088   -1.326039
| 58> H         0.246303    1.838288    0.142682
| 59> H        -1.130889    0.302361    1.520426
| 60> H         1.371550   -1.556278   -0.676878
| 61> H         1.854455   -0.437109    1.415573
| 62> *
| 63>
| 64>
| 65>
| 66>
| 67>                          ****END OF INPUT****
 Total Charge           Charge          ....    0
 Multiplicity           Mult            ....    2
 Number of Electrons    NEL             ....   39
MP2 TOTAL ENERGY:     -407.073824894 Eh
FINAL SINGLE POINT ENERGY      -407.073824893814
MP2 TOTAL ENERGY:     -407.217872502 Eh
FINAL SINGLE POINT ENERGY      -407.217872502155

CARTESIAN COORDINATES (ANGSTROEM)
---------------------------------
  Si     1.571111   -0.237198   -0.028176
  C      0.037686    0.844736   -0.257967
  C     -1.125475    0.218947    0.437760
  C     -2.102329   -0.449007   -0.156504
  H     -2.901944   -0.902828    0.412463
  H     -2.137204   -0.563803   -1.233487
  H     -0.157122    0.952088   -1.326039
  H      0.246303    1.838288    0.142682
  H     -1.130889    0.302361    1.520426
  H      1.371550   -1.556278   -0.676878
  H      1.854455   -0.437109    1.415573

 Multiplicity           Mult            ....    2
 Number of Electrons    NEL             ....   39
 Basis Dimension        Dim             ....  646

ORBITAL ENERGIES
----------------
                 SPIN UP ORBITALS
  NO   OCC          E(Eh)            E(eV)
   0   1.0000     -68.775680     -1871.4814
   1   1.0000     -11.236849      -305.7702
   2   1.0000     -11.224274      -305.4280
   3   1.0000     -11.221066      -305.3407
   4   1.0000      -6.125888      -166.6939
   5   1.0000      -4.238595      -115.3380
   6   1.0000      -4.228741      -115.0699
   7   1.0000      -4.228345      -115.0591
   8   1.0000      -1.073919       -29.2228
   9   1.0000      -0.943383       -25.6708
  10   1.0000      -0.764733       -20.8094
  11   1.0000      -0.699045       -19.0220
  12   1.0000      -0.646070       -17.5805
  13   1.0000      -0.596933       -16.2434
  14   1.0000      -0.547311       -14.8931
  15   1.0000      -0.504295       -13.7226
  16   1.0000      -0.478114       -13.0102
  17   1.0000      -0.476426       -12.9642
  18   1.0000      -0.374929       -10.2023
  19   1.0000      -0.316983        -8.6256
  20   0.0000       0.024403         0.6641
  21   0.0000       0.032573         0.8863
  22   0.0000       0.033622         0.9149
  23   0.0000       0.036483         0.9927
  24   0.0000       0.048996         1.3333

                 SPIN DOWN ORBITALS
  NO   OCC          E(Eh)            E(eV)
   0   1.0000     -68.770236     -1871.3333
   1   1.0000     -11.241114      -305.8863
   2   1.0000     -11.223003      -305.3934
   3   1.0000     -11.215476      -305.1886
   4   1.0000      -6.117568      -166.4675
   5   1.0000      -4.225154      -114.9723
   6   1.0000      -4.225050      -114.9694
   7   1.0000      -4.216569      -114.7387
   8   1.0000      -1.074853       -29.2482
   9   1.0000      -0.932575       -25.3767
  10   1.0000      -0.763495       -20.7757
  11   1.0000      -0.663836       -18.0639
  12   1.0000      -0.643415       -17.5082
  13   1.0000      -0.593304       -16.1446
  14   1.0000      -0.544529       -14.8174
  15   1.0000      -0.502087       -13.6625
  16   1.0000      -0.475615       -12.9421
  17   1.0000      -0.468565       -12.7503
  18   1.0000      -0.352281        -9.5860
  19   0.0000       0.022700         0.6177
  20   0.0000       0.029093         0.7917
  21   0.0000       0.033299         0.9061
  22   0.0000       0.036720         0.9992
  23   0.0000       0.043716         1.1896

MULLIKEN ATOMIC CHARGES AND SPIN POPULATIONS
--------------------------------------------
   0 Si:    0.555619    0.955329
   1 C :   -0.453101    0.010633
   2 C :   -0.467795   -0.255372
   3 C :   -0.869642    0.297795
   4 H :    0.346933   -0.014783
   5 H :    0.359219   -0.013829
   6 H :    0.240006   -0.000282
   7 H :    0.262621   -0.009240
   8 H :    0.440723    0.016660
   9 H :   -0.202538    0.008661
  10 H :   -0.212046    0.004429
Sum of atomic charges         :    0.0000000

LOEWDIN ATOMIC CHARGES AND SPIN POPULATIONS
-------------------------------------------
   0 Si:    1.088371    0.535949
   1 C :    0.369190    0.106663
   2 C :    0.230034   -0.028419
   3 C :    0.772531    0.073270
   4 H :   -0.356646    0.031884
   5 H :   -0.352440    0.031574
   6 H :   -0.385817    0.010613
   7 H :   -0.369751    0.010606
   8 H :   -0.337966   -0.020732
   9 H :   -0.327612    0.124258
  10 H :   -0.329894    0.124334

  Mayer bond orders larger than 0.100000
B(  0-Si,  1-C ) :   0.7314 B(  0-Si,  9-H ) :   0.8702 B(  0-Si, 10-H ) :   0.8624
B(  1-C ,  2-C ) :   0.8672 B(  1-C ,  6-H ) :   0.9443 B(  1-C ,  7-H ) :   0.9442
B(  2-C ,  3-C ) :   1.8096 B(  2-C ,  8-H ) :   0.7947 B(  3-C ,  4-H ) :   0.9572
B(  3-C ,  5-H ) :   0.8661

MP2 TOTAL ENERGY:     -407.262247831 Eh
FINAL SINGLE POINT ENERGY      -407.262247831060

DIPOLE MOMENT
-------------
                                X             Y             Z
Electronic contribution:      2.92403       0.57758      -0.29203
Nuclear contribution   :     -3.03602      -0.36314       0.26391
                        -----------------------------------------
Total Dipole Moment    :     -0.11200       0.21444      -0.02812
                        -----------------------------------------
Magnitude (a.u.)       :      0.24355
Magnitude (Debye)      :      0.61905

Rotational constants in cm-1:     0.510261     0.099701     0.094328
Rotational constants in MHz : 15297.242957  2988.970250  2827.882876

                             ****ORCA TERMINATED NORMALLY****
TOTAL RUN TIME: 0 days 1 hours 4 minutes 48 seconds 377 msec
