                         Program Version 5.0.4 -  RELEASE  -
|  1> ! ri-mp2 aug-cc-pvdz aug-cc-pvdz/c tightscf
|  2> %pal nprocs 16 end
|  3> %maxcore 3800
|  4> %base "DZ_B-F_34_AB"
|  5> %scf
|  6> STABPerform true
|  7> STABRestartUHFifUnstable true
|  8> end
|  9>
| 10> *xyz 0 1
| 11> F         1.497696   -1.425192   -0.000002
| 12> F         2.246820    0.700199   -0.000005
| 13> B         1.239820   -0.128590   -0.000002
| 14> C        -0.268141    0.396900    0.000002
| 15> O        -0.518286    1.588407    0.000003
| 16> N        -1.212395   -0.573935    0.000001
| 17> C        -2.630133   -0.291757    0.000003
| 18> H        -0.903258   -1.531055    0.000001
| 19> H        -2.752828    0.787636   -0.000003
| 20> H        -3.110484   -0.704627    0.887648
| 21> H        -3.110487   -0.704638   -0.887636
| 22> *
| 23>
| 24> $new_job
| 25> ! ri-mp2 aug-cc-pvtz aug-cc-pvtz/c tightscf
| 26> %pal nprocs 16 end
| 27> %maxcore 3800
| 28> %base "TZ_B-F_34_AB"
| 29>
| 30> *xyz 0 1
| 31> F         1.497696   -1.425192   -0.000002
| 32> F         2.246820    0.700199   -0.000005
| 33> B         1.239820   -0.128590   -0.000002
| 34> C        -0.268141    0.396900    0.000002
| 35> O        -0.518286    1.588407    0.000003
| 36> N        -1.212395   -0.573935    0.000001
| 37> C        -2.630133   -0.291757    0.000003
| 38> H        -0.903258   -1.531055    0.000001
| 39> H        -2.752828    0.787636   -0.000003
| 40> H        -3.110484   -0.704627    0.887648
| 41> H        -3.110487   -0.704638   -0.887636
| 42> *
| 43>
| 44> $new_job
| 45> ! ri-mp2 aug-cc-pvqz aug-cc-pvqz/c tightscf
| 46> %pal nprocs 16 end
| 47> %maxcore 3800
| 48> %base "QZ_B-F_34_AB"
| 49>
| 50> *xyz 0 1
| 51> F         1.497696   -1.425192   -0.000002
| 52> F         2.246820    0.700199   -0.000005
| 53> B         1.239820   -0.128590   -0.000002
| 54> C        -0.268141    0.396900    0.000002
| 55> O        -0.518286    1.588407    0.000003
| 56> N        -1.212395   -0.573935    0.000001
| 57> C        -2.630133   -0.291757    0.000003
| 58> H        -0.903258   -1.531055    0.000001
| 59> H        -2.752828    0.787636   -0.000003
| 60> H        -3.110484   -0.704627    0.887648
| 61> H        -3.110487   -0.704638   -0.887636
| 62> *
| 63>
| 64>
| 65>
| 66>
| 67>                          ****END OF INPUT****
 Total Charge           Charge          ....    0
 Multiplicity           Mult            ....    1
 Number of Electrons    NEL             ....   54
MP2 TOTAL ENERGY:     -432.254562195 Eh
FINAL SINGLE POINT ENERGY      -432.254562195125
MP2 TOTAL ENERGY:     -432.630653865 Eh
FINAL SINGLE POINT ENERGY      -432.630653864648

CARTESIAN COORDINATES (ANGSTROEM)
---------------------------------
  F      1.497696   -1.425192   -0.000002
  F      2.246820    0.700199   -0.000005
  B      1.239820   -0.128590   -0.000002
  C     -0.268141    0.396900    0.000002
  O     -0.518286    1.588407    0.000003
  N     -1.212395   -0.573935    0.000001
  C     -2.630133   -0.291757    0.000003
  H     -0.903258   -1.531055    0.000001
  H     -2.752828    0.787636   -0.000003
  H     -3.110484   -0.704627    0.887648
  H     -3.110487   -0.704638   -0.887636

 Multiplicity           Mult            ....    1
 Number of Electrons    NEL             ....   54
 Basis Dimension        Dim             ....  744

ORBITAL ENERGIES
----------------

  NO   OCC          E(Eh)            E(eV)
   0   2.0000     -26.336511      -716.6529
   1   2.0000     -26.327759      -716.4147
   2   2.0000     -20.533707      -558.7506
   3   2.0000     -15.601841      -424.5477
   4   2.0000     -11.346943      -308.7660
   5   2.0000     -11.268204      -306.6234
   6   2.0000      -7.733581      -210.4414
   7   2.0000      -1.666950       -45.3600
   8   2.0000      -1.634843       -44.4863
   9   2.0000      -1.393928       -37.9307
  10   2.0000      -1.247087       -33.9350
  11   2.0000      -0.979070       -26.6418
  12   2.0000      -0.854371       -23.2486
  13   2.0000      -0.811796       -22.0901
  14   2.0000      -0.785425       -21.3725
  15   2.0000      -0.781751       -21.2725
  16   2.0000      -0.734776       -19.9943
  17   2.0000      -0.686828       -18.6895
  18   2.0000      -0.678345       -18.4587
  19   2.0000      -0.676120       -18.3982
  20   2.0000      -0.651525       -17.7289
  21   2.0000      -0.635947       -17.3050
  22   2.0000      -0.588180       -16.0052
  23   2.0000      -0.558692       -15.2028
  24   2.0000      -0.549090       -14.9415
  25   2.0000      -0.434447       -11.8219
  26   2.0000      -0.404276       -11.0009
  27   0.0000       0.018930         0.5151
  28   0.0000       0.032133         0.8744
  29   0.0000       0.033232         0.9043
  30   0.0000       0.040008         1.0887
  31   0.0000       0.047015         1.2794

MULLIKEN ATOMIC CHARGES
-----------------------
   0 F :   -0.793569
   1 F :   -0.789969
   2 B :    1.792918
   3 C :    0.714330
   4 O :   -0.783769
   5 N :   -0.501529
   6 C :   -0.720449
   7 H :    0.254641
   8 H :    0.307404
   9 H :    0.259997
  10 H :    0.259996
Sum of atomic charges:   -0.0000000

LOEWDIN ATOMIC CHARGES
----------------------
   0 F :    0.833941
   1 F :    0.833983
   2 B :   -1.745616
   3 C :   -0.739176
   4 O :    0.682148
   5 N :    0.789285
   6 C :    0.791012
   7 H :   -0.530446
   8 H :   -0.350938
   9 H :   -0.282097
  10 H :   -0.282097

  Mayer bond orders larger than 0.100000
B(  0-F ,  2-B ) :   0.3445 B(  1-F ,  2-B ) :   0.3475 B(  2-B ,  3-C ) :   0.8881
B(  3-C ,  4-O ) :   1.4209 B(  3-C ,  5-N ) :   1.2325 B(  4-O ,  5-N ) :   0.1452
B(  5-N ,  6-C ) :   0.8153 B(  5-N ,  7-H ) :   0.9702 B(  6-C ,  8-H ) :   0.9161
B(  6-C ,  9-H ) :   0.9664 B(  6-C , 10-H ) :   0.9664

MP2 TOTAL ENERGY:     -432.752005229 Eh
FINAL SINGLE POINT ENERGY      -432.752005229456

DIPOLE MOMENT
-------------
                                X             Y             Z
Electronic contribution:     13.15842      -0.15289      -0.00002
Nuclear contribution   :    -13.84539      -1.24452       0.00002
                        -----------------------------------------
Total Dipole Moment    :     -0.68698      -1.39741       0.00000
                        -----------------------------------------
Magnitude (a.u.)       :      1.55714
Magnitude (Debye)      :      3.95794

Rotational constants in cm-1:     0.166192     0.057798     0.043233
Rotational constants in MHz :  4982.319523  1732.744125  1296.104169

                             ****ORCA TERMINATED NORMALLY****
TOTAL RUN TIME: 0 days 0 hours 34 minutes 56 seconds 365 msec
