                         Program Version 5.0.4 -  RELEASE  -
|  1> ! ri-mp2 aug-cc-pvdz aug-cc-pvdz/c tightscf
|  2> %pal nprocs 16 end
|  3> %maxcore 3800
|  4> %base "DZ_B-Si_81_AB"
|  5>
|  6> *xyz 0 1
|  7> Si         0.039028   -0.162830   -0.703077
|  8> N         1.113722    1.292330   -0.219070
|  9> B        -1.835919    0.230100   -0.027250
| 10> N         0.808155   -1.524827    0.282198
| 11> O         0.453427   -2.622067   -0.115589
| 12> O        -2.061121    1.317310    0.725105
| 13> O         0.610676    2.149265    0.504006
| 14> O        -2.801297   -0.642773   -0.372259
| 15> O         2.246517    1.334913   -0.632674
| 16> O         1.519095   -1.315350    1.237693
| 17> H        -3.672898   -0.430157   -0.015173
| 18> H        -1.263941    1.852317    0.882481
| 19> H         0.378526   -0.435941   -2.100131
| 20> *
| 21>
| 22> $new_job
| 23> ! ri-mp2 aug-cc-pvtz aug-cc-pvtz/c tightscf
| 24> %pal nprocs 16 end
| 25> %maxcore 3800
| 26> %base "TZ_B-Si_81_AB"
| 27>
| 28> *xyz 0 1
| 29> Si         0.039028   -0.162830   -0.703077
| 30> N         1.113722    1.292330   -0.219070
| 31> B        -1.835919    0.230100   -0.027250
| 32> N         0.808155   -1.524827    0.282198
| 33> O         0.453427   -2.622067   -0.115589
| 34> O        -2.061121    1.317310    0.725105
| 35> O         0.610676    2.149265    0.504006
| 36> O        -2.801297   -0.642773   -0.372259
| 37> O         2.246517    1.334913   -0.632674
| 38> O         1.519095   -1.315350    1.237693
| 39> H        -3.672898   -0.430157   -0.015173
| 40> H        -1.263941    1.852317    0.882481
| 41> H         0.378526   -0.435941   -2.100131
| 42> *
| 43>
| 44> $new_job
| 45> ! ri-mp2 aug-cc-pvqz aug-cc-pvqz/c tightscf
| 46> %pal nprocs 16 end
| 47> %maxcore 3800
| 48> %base "QZ_B-Si_81_AB"
| 49>
| 50> *xyz 0 1
| 51> Si         0.039028   -0.162830   -0.703077
| 52> N         1.113722    1.292330   -0.219070
| 53> B        -1.835919    0.230100   -0.027250
| 54> N         0.808155   -1.524827    0.282198
| 55> O         0.453427   -2.622067   -0.115589
| 56> O        -2.061121    1.317310    0.725105
| 57> O         0.610676    2.149265    0.504006
| 58> O        -2.801297   -0.642773   -0.372259
| 59> O         2.246517    1.334913   -0.632674
| 60> O         1.519095   -1.315350    1.237693
| 61> H        -3.672898   -0.430157   -0.015173
| 62> H        -1.263941    1.852317    0.882481
| 63> H         0.378526   -0.435941   -2.100131
| 64> *
| 65>
| 66>
| 67>
| 68>
| 69>                          ****END OF INPUT****
 Total Charge           Charge          ....    0
 Multiplicity           Mult            ....    1
 Number of Electrons    NEL             ....   84
MP2 TOTAL ENERGY:     -875.160910413 Eh
FINAL SINGLE POINT ENERGY      -875.160910413390
MP2 TOTAL ENERGY:     -875.679160104 Eh
FINAL SINGLE POINT ENERGY      -875.679160104018

CARTESIAN COORDINATES (ANGSTROEM)
---------------------------------
  Si     0.039028   -0.162830   -0.703077
  N      1.113722    1.292330   -0.219070
  B     -1.835919    0.230100   -0.027250
  N      0.808155   -1.524827    0.282198
  O      0.453427   -2.622067   -0.115589
  O     -2.061121    1.317310    0.725105
  O      0.610676    2.149265    0.504006
  O     -2.801297   -0.642773   -0.372259
  O      2.246517    1.334913   -0.632674
  O      1.519095   -1.315350    1.237693
  H     -3.672898   -0.430157   -0.015173
  H     -1.263941    1.852317    0.882481
  H      0.378526   -0.435941   -2.100131

 Multiplicity           Mult            ....    1
 Number of Electrons    NEL             ....   84
 Basis Dimension        Dim             ....  942

ORBITAL ENERGIES
----------------

  NO   OCC          E(Eh)            E(eV)
   0   2.0000     -68.891625     -1874.6364
   1   2.0000     -20.640081      -561.6452
   2   2.0000     -20.630147      -561.3748
   3   2.0000     -20.629617      -561.3604
   4   2.0000     -20.625359      -561.2445
   5   2.0000     -20.613597      -560.9245
   6   2.0000     -20.605880      -560.7145
   7   2.0000     -15.849352      -431.2828
   8   2.0000     -15.844885      -431.1612
   9   2.0000      -7.698505      -209.4870
  10   2.0000      -6.238377      -169.7549
  11   2.0000      -4.344844      -118.2292
  12   2.0000      -4.343970      -118.2054
  13   2.0000      -4.342690      -118.1706
  14   2.0000      -1.632885       -44.4331
  15   2.0000      -1.626462       -44.2583
  16   2.0000      -1.433545       -39.0087
  17   2.0000      -1.427306       -38.8390
  18   2.0000      -1.427050       -38.8320
  19   2.0000      -1.392656       -37.8961
  20   2.0000      -1.013923       -27.5903
  21   2.0000      -0.957950       -26.0671
  22   2.0000      -0.840477       -22.8705
  23   2.0000      -0.821757       -22.3611
  24   2.0000      -0.798820       -21.7370
  25   2.0000      -0.777115       -21.1464
  26   2.0000      -0.755265       -20.5518
  27   2.0000      -0.748773       -20.3752
  28   2.0000      -0.737586       -20.0707
  29   2.0000      -0.734712       -19.9925
  30   2.0000      -0.680432       -18.5155
  31   2.0000      -0.644535       -17.5387
  32   2.0000      -0.618365       -16.8266
  33   2.0000      -0.613236       -16.6870
  34   2.0000      -0.543729       -14.7956
  35   2.0000      -0.536870       -14.6090
  36   2.0000      -0.532606       -14.4929
  37   2.0000      -0.515408       -14.0250
  38   2.0000      -0.487461       -13.2645
  39   2.0000      -0.485600       -13.2139
  40   2.0000      -0.478293       -13.0150
  41   2.0000      -0.474340       -12.9074
  42   0.0000       0.015077         0.4103
  43   0.0000       0.020133         0.5478
  44   0.0000       0.025395         0.6910
  45   0.0000       0.034998         0.9523
  46   0.0000       0.037330         1.0158

MULLIKEN ATOMIC CHARGES
-----------------------
   0 Si:    1.223151
   1 N :    0.692847
   2 B :    1.361047
   3 N :    0.690617
   4 O :   -0.610788
   5 O :   -1.141805
   6 O :   -0.638025
   7 O :   -0.998162
   8 O :   -0.559804
   9 O :   -0.590057
  10 H :    0.344465
  11 H :    0.384694
  12 H :   -0.158179
Sum of atomic charges:   -0.0000000

LOEWDIN ATOMIC CHARGES
----------------------
   0 Si:    0.328212
   1 N :   -0.840599
   2 B :   -1.158131
   3 N :   -0.906316
   4 O :    0.461219
   5 O :    1.328601
   6 O :    0.540523
   7 O :    1.297471
   8 O :    0.479151
   9 O :    0.467689
  10 H :   -0.777252
  11 H :   -1.021265
  12 H :   -0.199304

  Mayer bond orders larger than 0.100000
B(  0-Si,  1-N ) :   0.4276 B(  0-Si,  2-B ) :   0.9675 B(  0-Si,  3-N ) :   0.4876
B(  0-Si,  7-O ) :  -0.1462 B(  0-Si, 12-H ) :   0.9736 B(  1-N ,  6-O ) :   1.1739
B(  1-N ,  8-O ) :   1.3413 B(  2-B ,  5-O ) :   0.5337 B(  2-B ,  7-O ) :   0.4318
B(  3-N ,  4-O ) :   1.2860 B(  3-N ,  9-O ) :   1.3120 B(  4-O ,  9-O ) :   0.1451
B(  5-O ,  7-O ) :  -0.1331 B(  5-O , 11-H ) :   0.8767 B(  6-O ,  8-O ) :   0.1554
B(  7-O , 10-H ) :   0.9296

MP2 TOTAL ENERGY:     -875.854345821 Eh
FINAL SINGLE POINT ENERGY      -875.854345821264

DIPOLE MOMENT
-------------
                                X             Y             Z
Electronic contribution:      1.32770      -0.36724       0.19428
Nuclear contribution   :     -2.91934       0.77279      -1.09013
                        -----------------------------------------
Total Dipole Moment    :     -1.59164       0.40555      -0.89586
                        -----------------------------------------
Magnitude (a.u.)       :      1.87092
Magnitude (Debye)      :      4.75551

Rotational constants in cm-1:     0.041905     0.036219     0.022956
Rotational constants in MHz :  1256.280125  1085.817308   688.205103

                             ****ORCA TERMINATED NORMALLY****
TOTAL RUN TIME: 0 days 0 hours 17 minutes 48 seconds 163 msec
