                         Program Version 5.0.4 -  RELEASE  -
|  1> ! ri-mp2 aug-cc-pvdz aug-cc-pvdz/c tightscf
|  2> %pal nprocs 16 end
|  3> %maxcore 3800
|  4> %base "DZ_S-F_4_AB"
|  5> %scf
|  6> STABPerform true
|  7> STABRestartUHFifUnstable true
|  8> end
|  9>
| 10> *xyz 0 1
| 11> F        -1.240941   -0.508097   -0.005312
| 12> O         1.247196   -0.435536   -0.118974
| 13> S        -0.019772    0.551451    0.015508
| 14> H         1.507241   -0.766053    0.751473
| 15> *
| 16>
| 17> $new_job
| 18> ! ri-mp2 aug-cc-pvtz aug-cc-pvtz/c tightscf
| 19> %pal nprocs 16 end
| 20> %maxcore 3800
| 21> %base "TZ_S-F_4_AB"
| 22>
| 23> *xyz 0 1
| 24> F        -1.240941   -0.508097   -0.005312
| 25> O         1.247196   -0.435536   -0.118974
| 26> S        -0.019772    0.551451    0.015508
| 27> H         1.507241   -0.766053    0.751473
| 28> *
| 29>
| 30> $new_job
| 31> ! ri-mp2 aug-cc-pvqz aug-cc-pvqz/c tightscf
| 32> %pal nprocs 16 end
| 33> %maxcore 3800
| 34> %base "QZ_S-F_4_AB"
| 35>
| 36> *xyz 0 1
| 37> F        -1.240941   -0.508097   -0.005312
| 38> O         1.247196   -0.435536   -0.118974
| 39> S        -0.019772    0.551451    0.015508
| 40> H         1.507241   -0.766053    0.751473
| 41> *
| 42>
| 43>
| 44>
| 45>
| 46>                          ****END OF INPUT****
 Total Charge           Charge          ....    0
 Multiplicity           Mult            ....    1
 Number of Electrons    NEL             ....   34
MP2 TOTAL ENERGY:     -572.933993101 Eh
FINAL SINGLE POINT ENERGY      -572.933993101188
MP2 TOTAL ENERGY:     -573.140266890 Eh
FINAL SINGLE POINT ENERGY      -573.140266890017

CARTESIAN COORDINATES (ANGSTROEM)
---------------------------------
  F     -1.240941   -0.508097   -0.005312
  O      1.247196   -0.435536   -0.118974
  S     -0.019772    0.551451    0.015508
  H      1.507241   -0.766053    0.751473

 Multiplicity           Mult            ....    1
 Number of Electrons    NEL             ....   34
 Basis Dimension        Dim             ....  290

ORBITAL ENERGIES
----------------

  NO   OCC          E(Eh)            E(eV)
   0   2.0000     -92.080793     -2505.6458
   1   2.0000     -26.316088      -716.0972
   2   2.0000     -20.632996      -561.4524
   3   2.0000      -9.069139      -246.7838
   4   2.0000      -6.750510      -183.6907
   5   2.0000      -6.748920      -183.6475
   6   2.0000      -6.746793      -183.5896
   7   2.0000      -1.619619       -44.0721
   8   2.0000      -1.426519       -38.8175
   9   2.0000      -0.955845       -26.0099
  10   2.0000      -0.761940       -20.7334
  11   2.0000      -0.705188       -19.1891
  12   2.0000      -0.700815       -19.0701
  13   2.0000      -0.665675       -18.1139
  14   2.0000      -0.583448       -15.8764
  15   2.0000      -0.541915       -14.7462
  16   2.0000      -0.378584       -10.3018
  17   0.0000       0.023481         0.6389
  18   0.0000       0.058724         1.5980
  19   0.0000       0.063030         1.7151
  20   0.0000       0.074061         2.0153
  21   0.0000       0.103706         2.8220

MULLIKEN ATOMIC CHARGES
-----------------------
   0 F :   -0.557689
   1 O :   -0.682439
   2 S :    0.904128
   3 H :    0.336000
Sum of atomic charges:   -0.0000000

LOEWDIN ATOMIC CHARGES
----------------------
   0 F :    0.025353
   1 O :    0.648163
   2 S :    0.316786
   3 H :   -0.990302

  Mayer bond orders larger than 0.100000
B(  0-F ,  2-S ) :   0.6386 B(  1-O ,  2-S ) :   0.9399 B(  1-O ,  3-H ) :   0.9179

MP2 TOTAL ENERGY:     -573.208816947 Eh
FINAL SINGLE POINT ENERGY      -573.208816946532

DIPOLE MOMENT
-------------
                                X             Y             Z
Electronic contribution:     -2.05111       0.37995      -0.11659
Nuclear contribution   :      2.58275      -0.27032       0.70770
                        -----------------------------------------
Total Dipole Moment    :      0.53164       0.10963       0.59111
                        -----------------------------------------
Magnitude (a.u.)       :      0.80254
Magnitude (Debye)      :      2.03989

Rotational constants in cm-1:     0.888708     0.294760     0.225795
Rotational constants in MHz : 26642.799141  8836.674584  6769.169335

                             ****ORCA TERMINATED NORMALLY****
TOTAL RUN TIME: 0 days 0 hours 4 minutes 1 seconds 547 msec
