                         Program Version 5.0.4 -  RELEASE  -
|  1> ! ri-mp2 aug-cc-pvdz aug-cc-pvdz/c tightscf
|  2> %pal nprocs 16 end
|  3> %maxcore 3800
|  4> %base "DZ_P-N_8_AB"
|  5> %scf
|  6> STABPerform true
|  7> STABRestartUHFifUnstable true
|  8> end
|  9>
| 10> *xyz 0 1
| 11> P        -0.612058   -0.023260   -0.574402
| 12> N         0.879635   -0.027951    0.405279
| 13> O         1.629844   -1.155850    0.039485
| 14> O         1.601079    1.114568   -0.016767
| 15> C        -1.401584    1.428847    0.201370
| 16> H        -0.920167    2.339860   -0.146751
| 17> H        -1.346880    1.379603    1.289166
| 18> C        -1.451097   -1.368018    0.332720
| 19> H        -2.482062   -1.432629   -0.017653
| 20> H        -1.442500   -1.194577    1.408609
| 21> H        -0.959546   -2.314890    0.118880
| 22> H        -2.448367    1.456445   -0.103940
| 23> H         1.783772   -1.090547   -0.919568
| 24> H         2.107880    1.366572    0.764045
| 25> *
| 26>
| 27> $new_job
| 28> ! ri-mp2 aug-cc-pvtz aug-cc-pvtz/c tightscf
| 29> %pal nprocs 16 end
| 30> %maxcore 3800
| 31> %base "TZ_P-N_8_AB"
| 32>
| 33> *xyz 0 1
| 34> P        -0.612058   -0.023260   -0.574402
| 35> N         0.879635   -0.027951    0.405279
| 36> O         1.629844   -1.155850    0.039485
| 37> O         1.601079    1.114568   -0.016767
| 38> C        -1.401584    1.428847    0.201370
| 39> H        -0.920167    2.339860   -0.146751
| 40> H        -1.346880    1.379603    1.289166
| 41> C        -1.451097   -1.368018    0.332720
| 42> H        -2.482062   -1.432629   -0.017653
| 43> H        -1.442500   -1.194577    1.408609
| 44> H        -0.959546   -2.314890    0.118880
| 45> H        -2.448367    1.456445   -0.103940
| 46> H         1.783772   -1.090547   -0.919568
| 47> H         2.107880    1.366572    0.764045
| 48> *
| 49>
| 50> $new_job
| 51> ! ri-mp2 aug-cc-pvqz aug-cc-pvqz/c tightscf
| 52> %pal nprocs 16 end
| 53> %maxcore 3800
| 54> %base "QZ_P-N_8_AB"
| 55>
| 56> *xyz 0 1
| 57> P        -0.612058   -0.023260   -0.574402
| 58> N         0.879635   -0.027951    0.405279
| 59> O         1.629844   -1.155850    0.039485
| 60> O         1.601079    1.114568   -0.016767
| 61> C        -1.401584    1.428847    0.201370
| 62> H        -0.920167    2.339860   -0.146751
| 63> H        -1.346880    1.379603    1.289166
| 64> C        -1.451097   -1.368018    0.332720
| 65> H        -2.482062   -1.432629   -0.017653
| 66> H        -1.442500   -1.194577    1.408609
| 67> H        -0.959546   -2.314890    0.118880
| 68> H        -2.448367    1.456445   -0.103940
| 69> H         1.783772   -1.090547   -0.919568
| 70> H         2.107880    1.366572    0.764045
| 71> *
| 72>
| 73>
| 74>
| 75>
| 76>                          ****END OF INPUT****
 Total Charge           Charge          ....    0
 Multiplicity           Mult            ....    1
 Number of Electrons    NEL             ....   58
MP2 TOTAL ENERGY:     -626.253388851 Eh
FINAL SINGLE POINT ENERGY      -626.253388850593
MP2 TOTAL ENERGY:     -626.554580872 Eh
FINAL SINGLE POINT ENERGY      -626.554580872232

CARTESIAN COORDINATES (ANGSTROEM)
---------------------------------
  P     -0.612058   -0.023260   -0.574402
  N      0.879635   -0.027951    0.405279
  O      1.629844   -1.155850    0.039485
  O      1.601079    1.114568   -0.016767
  C     -1.401584    1.428847    0.201370
  H     -0.920167    2.339860   -0.146751
  H     -1.346880    1.379603    1.289166
  C     -1.451097   -1.368018    0.332720
  H     -2.482062   -1.432629   -0.017653
  H     -1.442500   -1.194577    1.408609
  H     -0.959546   -2.314890    0.118880
  H     -2.448367    1.456445   -0.103940
  H      1.783772   -1.090547   -0.919568
  H      2.107880    1.366572    0.764045

 Multiplicity           Mult            ....    1
 Number of Electrons    NEL             ....   58
 Basis Dimension        Dim             ....  852

ORBITAL ENERGIES
----------------

  NO   OCC          E(Eh)            E(eV)
   0   2.0000     -79.959113     -2175.7981
   1   2.0000     -20.600767      -560.5754
   2   2.0000     -20.596735      -560.4657
   3   2.0000     -15.664014      -426.2395
   4   2.0000     -11.224419      -305.4320
   5   2.0000     -11.222095      -305.3687
   6   2.0000      -7.498856      -204.0543
   7   2.0000      -5.392946      -146.7495
   8   2.0000      -5.392507      -146.7376
   9   2.0000      -5.391261      -146.7037
  10   2.0000      -1.470766       -40.0216
  11   2.0000      -1.349446       -36.7203
  12   2.0000      -1.057615       -28.7792
  13   2.0000      -0.976497       -26.5718
  14   2.0000      -0.944897       -25.7120
  15   2.0000      -0.778126       -21.1739
  16   2.0000      -0.731926       -19.9167
  17   2.0000      -0.655889       -17.8476
  18   2.0000      -0.638676       -17.3792
  19   2.0000      -0.627644       -17.0791
  20   2.0000      -0.593884       -16.1604
  21   2.0000      -0.566853       -15.4248
  22   2.0000      -0.560702       -15.2575
  23   2.0000      -0.558890       -15.2082
  24   2.0000      -0.494133       -13.4460
  25   2.0000      -0.479544       -13.0491
  26   2.0000      -0.473151       -12.8751
  27   2.0000      -0.433144       -11.7864
  28   2.0000      -0.342627        -9.3234
  29   0.0000       0.026922         0.7326
  30   0.0000       0.032505         0.8845
  31   0.0000       0.034638         0.9426
  32   0.0000       0.039377         1.0715
  33   0.0000       0.050416         1.3719

MULLIKEN ATOMIC CHARGES
-----------------------
   0 P :    0.885404
   1 N :    0.022636
   2 O :   -0.622415
   3 O :   -0.646823
   4 C :   -1.178463
   5 H :    0.373649
   6 H :    0.294032
   7 C :   -1.171905
   8 H :    0.340935
   9 H :    0.296606
  10 H :    0.357490
  11 H :    0.333033
  12 H :    0.348915
  13 H :    0.366905
Sum of atomic charges:    0.0000000

LOEWDIN ATOMIC CHARGES
----------------------
   0 P :    0.734433
   1 N :   -0.359835
   2 O :    0.986228
   3 O :    0.997964
   4 C :    0.765612
   5 H :   -0.369123
   6 H :   -0.350285
   7 C :    0.764947
   8 H :   -0.360633
   9 H :   -0.350288
  10 H :   -0.367467
  11 H :   -0.359940
  12 H :   -0.887931
  13 H :   -0.843685

  Mayer bond orders larger than 0.100000
B(  0-P ,  1-N ) :   0.7496 B(  0-P ,  4-C ) :   0.9079 B(  0-P ,  7-C ) :   0.8967
B(  1-N ,  2-O ) :   0.6452 B(  1-N ,  3-O ) :   0.7022 B(  2-O , 12-H ) :   0.8326
B(  3-O , 13-H ) :   0.8976 B(  4-C ,  5-H ) :   0.8707 B(  4-C ,  6-H ) :   0.8852
B(  4-C , 11-H ) :   0.9047 B(  7-C ,  8-H ) :   0.9011 B(  7-C ,  9-H ) :   0.8928
B(  7-C , 10-H ) :   0.8781

MP2 TOTAL ENERGY:     -626.650566244 Eh
FINAL SINGLE POINT ENERGY      -626.650566244243

DIPOLE MOMENT
-------------
                                X             Y             Z
Electronic contribution:      4.61256      -0.24018      -2.73787
Nuclear contribution   :     -5.06251       0.53051       2.93888
                        -----------------------------------------
Total Dipole Moment    :     -0.44995       0.29033       0.20101
                        -----------------------------------------
Magnitude (a.u.)       :      0.57197
Magnitude (Debye)      :      1.45383

Rotational constants in cm-1:     0.130492     0.084417     0.058088
Rotational constants in MHz :  3912.045423  2530.772366  1741.428619

                             ****ORCA TERMINATED NORMALLY****
TOTAL RUN TIME: 0 days 0 hours 58 minutes 40 seconds 814 msec
