                         Program Version 5.0.4 -  RELEASE  -
|  1> ! ri-mp2 aug-cc-pvdz aug-cc-pvdz/c tightscf
|  2> %pal nprocs 16 end
|  3> %maxcore 3800
|  4> %base "DZ_Si-Si_130_AB"
|  5> %scf
|  6> STABPerform true
|  7> STABRestartUHFifUnstable true
|  8> end
|  9>
| 10> *xyz 0 1
| 11> Si         0.868303   -1.047122    0.722075
| 12> Si        -1.079364   -1.310334   -0.553888
| 13> C        -2.317156    0.053558   -0.061917
| 14> H        -1.781680   -2.601477   -0.325831
| 15> H        -0.852386   -1.159187   -2.006012
| 16> S        -1.817700    1.580457    0.186932
| 17> O        -3.607514   -0.244091    0.073872
| 18> C         1.927529    0.355336   -0.000598
| 19> H         1.637943   -2.299862    0.726533
| 20> H         0.432988   -0.692207    2.090750
| 21> S         3.512791    0.093047   -0.208077
| 22> O         1.370038    1.517112   -0.310592
| 23> H        -3.766761   -1.183432   -0.089694
| 24> H         0.400878    1.526952   -0.143194
| 25> *
| 26>
| 27> $new_job
| 28> ! ri-mp2 aug-cc-pvtz aug-cc-pvtz/c tightscf
| 29> %pal nprocs 16 end
| 30> %maxcore 3800
| 31> %base "TZ_Si-Si_130_AB"
| 32>
| 33> *xyz 0 1
| 34> Si         0.868303   -1.047122    0.722075
| 35> Si        -1.079364   -1.310334   -0.553888
| 36> C        -2.317156    0.053558   -0.061917
| 37> H        -1.781680   -2.601477   -0.325831
| 38> H        -0.852386   -1.159187   -2.006012
| 39> S        -1.817700    1.580457    0.186932
| 40> O        -3.607514   -0.244091    0.073872
| 41> C         1.927529    0.355336   -0.000598
| 42> H         1.637943   -2.299862    0.726533
| 43> H         0.432988   -0.692207    2.090750
| 44> S         3.512791    0.093047   -0.208077
| 45> O         1.370038    1.517112   -0.310592
| 46> H        -3.766761   -1.183432   -0.089694
| 47> H         0.400878    1.526952   -0.143194
| 48> *
| 49>
| 50> $new_job
| 51> ! ri-mp2 aug-cc-pvqz aug-cc-pvqz/c tightscf
| 52> %pal nprocs 16 end
| 53> %maxcore 3800
| 54> %base "QZ_Si-Si_130_AB"
| 55>
| 56> *xyz 0 1
| 57> Si         0.868303   -1.047122    0.722075
| 58> Si        -1.079364   -1.310334   -0.553888
| 59> C        -2.317156    0.053558   -0.061917
| 60> H        -1.781680   -2.601477   -0.325831
| 61> H        -0.852386   -1.159187   -2.006012
| 62> S        -1.817700    1.580457    0.186932
| 63> O        -3.607514   -0.244091    0.073872
| 64> C         1.927529    0.355336   -0.000598
| 65> H         1.637943   -2.299862    0.726533
| 66> H         0.432988   -0.692207    2.090750
| 67> S         3.512791    0.093047   -0.208077
| 68> O         1.370038    1.517112   -0.310592
| 69> H        -3.766761   -1.183432   -0.089694
| 70> H         0.400878    1.526952   -0.143194
| 71> *
| 72>
| 73>
| 74>
| 75>
| 76>                          ****END OF INPUT****
 Total Charge           Charge          ....    0
 Multiplicity           Mult            ....    1
 Number of Electrons    NEL             ....   94
MP2 TOTAL ENERGY:    -1603.041711230 Eh
FINAL SINGLE POINT ENERGY     -1603.041711230246
MP2 TOTAL ENERGY:    -1603.401199809 Eh
FINAL SINGLE POINT ENERGY     -1603.401199809095

CARTESIAN COORDINATES (ANGSTROEM)
---------------------------------
  Si     0.868303   -1.047122    0.722075
  Si    -1.079364   -1.310334   -0.553888
  C     -2.317156    0.053558   -0.061917
  H     -1.781680   -2.601477   -0.325831
  H     -0.852386   -1.159187   -2.006012
  S     -1.817700    1.580457    0.186932
  O     -3.607514   -0.244091    0.073872
  C      1.927529    0.355336   -0.000598
  H      1.637943   -2.299862    0.726533
  H      0.432988   -0.692207    2.090750
  S      3.512791    0.093047   -0.208077
  O      1.370038    1.517112   -0.310592
  H     -3.766761   -1.183432   -0.089694
  H      0.400878    1.526952   -0.143194

 Multiplicity           Mult            ....    1
 Number of Electrons    NEL             ....   94
 Basis Dimension        Dim             ....  932

ORBITAL ENERGIES
----------------

  NO   OCC          E(Eh)            E(eV)
   0   2.0000     -91.956519     -2502.2641
   1   2.0000     -91.923077     -2501.3541
   2   2.0000     -68.814478     -1872.5371
   3   2.0000     -68.804175     -1872.2568
   4   2.0000     -20.657927      -562.1308
   5   2.0000     -20.613007      -560.9084
   6   2.0000     -11.391851      -309.9880
   7   2.0000     -11.360578      -309.1370
   8   2.0000      -8.961720      -243.8608
   9   2.0000      -8.927789      -242.9375
  10   2.0000      -6.642984      -180.7648
  11   2.0000      -6.642004      -180.7381
  12   2.0000      -6.640998      -180.7108
  13   2.0000      -6.608995      -179.8399
  14   2.0000      -6.608099      -179.8155
  15   2.0000      -6.606879      -179.7823
  16   2.0000      -6.165385      -167.7687
  17   2.0000      -6.154572      -167.4744
  18   2.0000      -4.271570      -116.2353
  19   2.0000      -4.271253      -116.2267
  20   2.0000      -4.271048      -116.2211
  21   2.0000      -4.260911      -115.9453
  22   2.0000      -4.260528      -115.9349
  23   2.0000      -4.260305      -115.9288
  24   2.0000      -1.479127       -40.2491
  25   2.0000      -1.437663       -39.1208
  26   2.0000      -1.069976       -29.1155
  27   2.0000      -1.035707       -28.1830
  28   2.0000      -0.849655       -23.1203
  29   2.0000      -0.829974       -22.5847
  30   2.0000      -0.807939       -21.9851
  31   2.0000      -0.780050       -21.2263
  32   2.0000      -0.690610       -18.7924
  33   2.0000      -0.655104       -17.8263
  34   2.0000      -0.640886       -17.4394
  35   2.0000      -0.622488       -16.9388
  36   2.0000      -0.604981       -16.4624
  37   2.0000      -0.587274       -15.9805
  38   2.0000      -0.528277       -14.3751
  39   2.0000      -0.525347       -14.2954
  40   2.0000      -0.503758       -13.7080
  41   2.0000      -0.477285       -12.9876
  42   2.0000      -0.450733       -12.2651
  43   2.0000      -0.403618       -10.9830
  44   2.0000      -0.377352       -10.2683
  45   2.0000      -0.371975       -10.1220
  46   2.0000      -0.334537        -9.1032
  47   0.0000       0.011470         0.3121
  48   0.0000       0.024426         0.6647
  49   0.0000       0.026075         0.7095
  50   0.0000       0.030868         0.8399
  51   0.0000       0.037497         1.0203

MULLIKEN ATOMIC CHARGES
-----------------------
   0 Si:    0.923864
   1 Si:    0.874899
   2 C :    0.057906
   3 H :   -0.317099
   4 H :   -0.191940
   5 S :   -0.042835
   6 O :   -0.803767
   7 C :   -0.028015
   8 H :   -0.287977
   9 H :   -0.186761
  10 S :   -0.073109
  11 O :   -0.781460
  12 H :    0.401256
  13 H :    0.455037
Sum of atomic charges:    0.0000000

LOEWDIN ATOMIC CHARGES
----------------------
   0 Si:    0.507062
   1 Si:    0.604000
   2 C :   -1.190624
   3 H :   -0.256022
   4 H :   -0.256247
   5 S :    1.190191
   6 O :    1.111690
   7 C :   -1.309104
   8 H :   -0.278180
   9 H :   -0.256826
  10 S :    1.009088
  11 O :    1.074145
  12 H :   -0.836115
  13 H :   -1.113059

  Mayer bond orders larger than 0.100000
B(  0-Si,  1-Si) :   0.8266 B(  0-Si,  7-C ) :   0.7379 B(  0-Si,  8-H ) :   0.7957
B(  0-Si,  9-H ) :   0.8081 B(  1-Si,  2-C ) :   0.5977 B(  1-Si,  3-H ) :   0.7991
B(  1-Si,  4-H ) :   0.7934 B(  2-C ,  5-S ) :   1.5329 B(  2-C ,  6-O ) :   0.8415
B(  6-O , 12-H ) :   0.8102 B(  7-C , 10-S ) :   1.5666 B(  7-C , 11-O ) :   0.8889
B( 11-O , 13-H ) :   0.7064

MP2 TOTAL ENERGY:    -1603.521942042 Eh
FINAL SINGLE POINT ENERGY     -1603.521942042227

DIPOLE MOMENT
-------------
                                X             Y             Z
Electronic contribution:      2.02246       4.37286      -0.16010
Nuclear contribution   :     -3.87598      -6.09664       0.23163
                        -----------------------------------------
Total Dipole Moment    :     -1.85352      -1.72378       0.07152
                        -----------------------------------------
Magnitude (a.u.)       :      2.53221
Magnitude (Debye)      :      6.43636

Rotational constants in cm-1:     0.066702     0.017548     0.014784
Rotational constants in MHz :  1999.688875   526.087970   443.213417

                             ****ORCA TERMINATED NORMALLY****
TOTAL RUN TIME: 0 days 1 hours 21 minutes 23 seconds 272 msec
