                         Program Version 5.0.4 -  RELEASE  -
|  1> ! ri-mp2 aug-cc-pvdz aug-cc-pvdz/c tightscf
|  2> %pal nprocs 16 end
|  3> %maxcore 3800
|  4> %base "DZ_P-Si_13_AB"
|  5>
|  6> *xyz 0 1
|  7> Si        -0.622257    0.697138   -0.569259
|  8> P         1.363224   -0.108255    0.138131
|  9> N        -1.809914   -0.656047   -0.011869
| 10> O         1.561364    0.198542    1.556323
| 11> O         2.469152    0.514629   -0.825302
| 12> O        -2.970949   -0.346661    0.134236
| 13> O        -1.387791   -1.796582    0.146715
| 14> C        -1.126604    2.255051    0.267848
| 15> H        -0.961650    2.171158    1.341625
| 16> H        -2.178229    2.467344    0.080299
| 17> H        -0.528981    3.088218   -0.105004
| 18> H         3.141637    0.993705   -0.324855
| 19> O         1.387320   -1.618486   -0.323996
| 20> H         0.552660   -2.067507   -0.092810
| 21> H        -0.805942    0.661475   -2.029413
| 22> *
| 23>
| 24> $new_job
| 25> ! ri-mp2 aug-cc-pvtz aug-cc-pvtz/c tightscf
| 26> %pal nprocs 16 end
| 27> %maxcore 3800
| 28> %base "TZ_P-Si_13_AB"
| 29>
| 30> *xyz 0 1
| 31> Si        -0.622257    0.697138   -0.569259
| 32> P         1.363224   -0.108255    0.138131
| 33> N        -1.809914   -0.656047   -0.011869
| 34> O         1.561364    0.198542    1.556323
| 35> O         2.469152    0.514629   -0.825302
| 36> O        -2.970949   -0.346661    0.134236
| 37> O        -1.387791   -1.796582    0.146715
| 38> C        -1.126604    2.255051    0.267848
| 39> H        -0.961650    2.171158    1.341625
| 40> H        -2.178229    2.467344    0.080299
| 41> H        -0.528981    3.088218   -0.105004
| 42> H         3.141637    0.993705   -0.324855
| 43> O         1.387320   -1.618486   -0.323996
| 44> H         0.552660   -2.067507   -0.092810
| 45> H        -0.805942    0.661475   -2.029413
| 46> *
| 47>
| 48> $new_job
| 49> ! ri-mp2 aug-cc-pvqz aug-cc-pvqz/c tightscf
| 50> %pal nprocs 16 end
| 51> %maxcore 3800
| 52> %base "QZ_P-Si_13_AB"
| 53>
| 54> *xyz 0 1
| 55> Si        -0.622257    0.697138   -0.569259
| 56> P         1.363224   -0.108255    0.138131
| 57> N        -1.809914   -0.656047   -0.011869
| 58> O         1.561364    0.198542    1.556323
| 59> O         2.469152    0.514629   -0.825302
| 60> O        -2.970949   -0.346661    0.134236
| 61> O        -1.387791   -1.796582    0.146715
| 62> C        -1.126604    2.255051    0.267848
| 63> H        -0.961650    2.171158    1.341625
| 64> H        -2.178229    2.467344    0.080299
| 65> H        -0.528981    3.088218   -0.105004
| 66> H         3.141637    0.993705   -0.324855
| 67> O         1.387320   -1.618486   -0.323996
| 68> H         0.552660   -2.067507   -0.092810
| 69> H        -0.805942    0.661475   -2.029413
| 70> *
| 71>
| 72>
| 73>
| 74>
| 75>                          ****END OF INPUT****
 Total Charge           Charge          ....    0
 Multiplicity           Mult            ....    1
 Number of Electrons    NEL             ....   88
MP2 TOTAL ENERGY:    -1101.400920676 Eh
FINAL SINGLE POINT ENERGY     -1101.400920676273
MP2 TOTAL ENERGY:    -1101.911112545 Eh
FINAL SINGLE POINT ENERGY     -1101.911112545211

CARTESIAN COORDINATES (ANGSTROEM)
---------------------------------
  Si    -0.622257    0.697138   -0.569259
  P      1.363224   -0.108255    0.138131
  N     -1.809914   -0.656047   -0.011869
  O      1.561364    0.198542    1.556323
  O      2.469152    0.514629   -0.825302
  O     -2.970949   -0.346661    0.134236
  O     -1.387791   -1.796582    0.146715
  C     -1.126604    2.255051    0.267848
  H     -0.961650    2.171158    1.341625
  H     -2.178229    2.467344    0.080299
  H     -0.528981    3.088218   -0.105004
  H      3.141637    0.993705   -0.324855
  O      1.387320   -1.618486   -0.323996
  H      0.552660   -2.067507   -0.092810
  H     -0.805942    0.661475   -2.029413

 Multiplicity           Mult            ....    1
 Number of Electrons    NEL             ....   88
 Basis Dimension        Dim             .... 1004

ORBITAL ENERGIES
----------------

  NO   OCC          E(Eh)            E(eV)
   0   2.0000     -80.081190     -2179.1200
   1   2.0000     -68.850639     -1873.5211
   2   2.0000     -20.626204      -561.2676
   3   2.0000     -20.618362      -561.0541
   4   2.0000     -20.617327      -561.0260
   5   2.0000     -20.603706      -560.6553
   6   2.0000     -20.521799      -558.4265
   7   2.0000     -15.835614      -430.9090
   8   2.0000     -11.249255      -306.1078
   9   2.0000      -7.604369      -206.9254
  10   2.0000      -6.199007      -168.6835
  11   2.0000      -5.502547      -149.7319
  12   2.0000      -5.501857      -149.7131
  13   2.0000      -5.500907      -149.6873
  14   2.0000      -4.305797      -117.1667
  15   2.0000      -4.304477      -117.1308
  16   2.0000      -4.304046      -117.1190
  17   2.0000      -1.619237       -44.0617
  18   2.0000      -1.450831       -39.4791
  19   2.0000      -1.417764       -38.5793
  20   2.0000      -1.396197       -37.9924
  21   2.0000      -1.313432       -35.7403
  22   2.0000      -1.008501       -27.4427
  23   2.0000      -0.961650       -26.1678
  24   2.0000      -0.869678       -23.6651
  25   2.0000      -0.821425       -22.3521
  26   2.0000      -0.747409       -20.3380
  27   2.0000      -0.739893       -20.1335
  28   2.0000      -0.727679       -19.8011
  29   2.0000      -0.715401       -19.4670
  30   2.0000      -0.675755       -18.3882
  31   2.0000      -0.654883       -17.8203
  32   2.0000      -0.615721       -16.7546
  33   2.0000      -0.600582       -16.3427
  34   2.0000      -0.600170       -16.3315
  35   2.0000      -0.590613       -16.0714
  36   2.0000      -0.572712       -15.5843
  37   2.0000      -0.528081       -14.3698
  38   2.0000      -0.521714       -14.1966
  39   2.0000      -0.504356       -13.7242
  40   2.0000      -0.484389       -13.1809
  41   2.0000      -0.479449       -13.0465
  42   2.0000      -0.475174       -12.9301
  43   2.0000      -0.437164       -11.8958
  44   0.0000       0.015114         0.4113
  45   0.0000       0.028570         0.7774
  46   0.0000       0.032650         0.8884
  47   0.0000       0.037836         1.0296
  48   0.0000       0.045913         1.2493

MULLIKEN ATOMIC CHARGES
-----------------------
   0 Si:    1.020653
   1 P :    2.277148
   2 N :    0.725552
   3 O :   -1.200815
   4 O :   -1.003502
   5 O :   -0.605347
   6 O :   -0.675509
   7 C :   -0.977083
   8 H :    0.244379
   9 H :    0.304908
  10 H :    0.283281
  11 H :    0.406546
  12 O :   -0.979138
  13 H :    0.389814
  14 H :   -0.210886
Sum of atomic charges:   -0.0000000

LOEWDIN ATOMIC CHARGES
----------------------
   0 Si:    0.344691
   1 P :   -0.622884
   2 N :   -0.844939
   3 O :    0.262598
   4 O :    1.058283
   5 O :    0.473249
   6 O :    0.520229
   7 C :    0.933349
   8 H :   -0.345334
   9 H :   -0.350049
  10 H :   -0.343275
  11 H :   -0.876222
  12 O :    1.066916
  13 H :   -1.074087
  14 H :   -0.202525

  Mayer bond orders larger than 0.100000
B(  0-Si,  1-P ) :   0.9719 B(  0-Si,  2-N ) :   0.3522 B(  0-Si,  7-C ) :   0.9017
B(  0-Si, 14-H ) :   0.8379 B(  1-P ,  3-O ) :   1.3137 B(  1-P ,  4-O ) :   0.5097
B(  1-P , 12-O ) :   0.6794 B(  2-N ,  5-O ) :   1.3137 B(  2-N ,  6-O ) :   1.1647
B(  4-O , 11-H ) :   0.9055 B(  5-O ,  6-O ) :   0.1464 B(  7-C ,  8-H ) :   0.9530
B(  7-C ,  9-H ) :   0.8969 B(  7-C , 10-H ) :   0.9274 B( 12-O , 13-H ) :   0.8381

MP2 TOTAL ENERGY:    -1102.078762454 Eh
FINAL SINGLE POINT ENERGY     -1102.078762454081

DIPOLE MOMENT
-------------
                                X             Y             Z
Electronic contribution:      2.20849      -5.51138       0.10031
Nuclear contribution   :     -1.96538       7.07288      -1.17479
                        -----------------------------------------
Total Dipole Moment    :      0.24311       1.56150      -1.07448
                        -----------------------------------------
Magnitude (a.u.)       :      1.91099
Magnitude (Debye)      :      4.85735

Rotational constants in cm-1:     0.061122     0.030395     0.024318
Rotational constants in MHz :  1832.398988   911.232084   729.022854

                             ****ORCA TERMINATED NORMALLY****
TOTAL RUN TIME: 0 days 0 hours 22 minutes 6 seconds 588 msec
