                         Program Version 5.0.4 -  RELEASE  -
|  1> ! ri-mp2 aug-cc-pvdz aug-cc-pvdz/c tightscf
|  2> %pal nprocs 16 end
|  3> %maxcore 3800
|  4> %base "DZ_S-Cl_86_AB"
|  5> %scf
|  6> STABPerform true
|  7> STABRestartUHFifUnstable true
|  8> end
|  9>
| 10> *xyz 0 1
| 11> S         0.784958    1.009045    0.000002
| 12> Cl         1.766019   -0.815086   -0.000001
| 13> N        -0.800579    0.717084   -0.000007
| 14> C        -1.436860   -0.372089    0.000005
| 15> C        -2.924224   -0.409295   -0.000001
| 16> H        -3.335535    0.597230   -0.000012
| 17> H        -3.288663   -0.947521    0.877610
| 18> H        -3.288657   -0.947544   -0.877600
| 19> H        -0.898246   -1.321703    0.000014
| 20> *
| 21>
| 22> $new_job
| 23> ! ri-mp2 aug-cc-pvtz aug-cc-pvtz/c tightscf
| 24> %pal nprocs 16 end
| 25> %maxcore 3800
| 26> %base "TZ_S-Cl_86_AB"
| 27>
| 28> *xyz 0 1
| 29> S         0.784958    1.009045    0.000002
| 30> Cl         1.766019   -0.815086   -0.000001
| 31> N        -0.800579    0.717084   -0.000007
| 32> C        -1.436860   -0.372089    0.000005
| 33> C        -2.924224   -0.409295   -0.000001
| 34> H        -3.335535    0.597230   -0.000012
| 35> H        -3.288663   -0.947521    0.877610
| 36> H        -3.288657   -0.947544   -0.877600
| 37> H        -0.898246   -1.321703    0.000014
| 38> *
| 39>
| 40> $new_job
| 41> ! ri-mp2 aug-cc-pvqz aug-cc-pvqz/c tightscf
| 42> %pal nprocs 16 end
| 43> %maxcore 3800
| 44> %base "QZ_S-Cl_86_AB"
| 45>
| 46> *xyz 0 1
| 47> S         0.784958    1.009045    0.000002
| 48> Cl         1.766019   -0.815086   -0.000001
| 49> N        -0.800579    0.717084   -0.000007
| 50> C        -1.436860   -0.372089    0.000005
| 51> C        -2.924224   -0.409295   -0.000001
| 52> H        -3.335535    0.597230   -0.000012
| 53> H        -3.288663   -0.947521    0.877610
| 54> H        -3.288657   -0.947544   -0.877600
| 55> H        -0.898246   -1.321703    0.000014
| 56> *
| 57>
| 58>
| 59>
| 60>
| 61>                          ****END OF INPUT****
 Total Charge           Charge          ....    0
 Multiplicity           Mult            ....    1
 Number of Electrons    NEL             ....   56
MP2 TOTAL ENERGY:     -990.274562453 Eh
FINAL SINGLE POINT ENERGY      -990.274562452543
MP2 TOTAL ENERGY:     -990.513340996 Eh
FINAL SINGLE POINT ENERGY      -990.513340995789

CARTESIAN COORDINATES (ANGSTROEM)
---------------------------------
  S      0.784958    1.009045    0.000002
  Cl     1.766019   -0.815086   -0.000001
  N     -0.800579    0.717084   -0.000007
  C     -1.436860   -0.372089    0.000005
  C     -2.924224   -0.409295   -0.000001
  H     -3.335535    0.597230   -0.000012
  H     -3.288663   -0.947521    0.877610
  H     -3.288657   -0.947544   -0.877600
  H     -0.898246   -1.321703    0.000014

 Multiplicity           Mult            ....    1
 Number of Electrons    NEL             ....   56
 Basis Dimension        Dim             ....  592

ORBITAL ENERGIES
----------------

  NO   OCC          E(Eh)            E(eV)
   0   2.0000    -104.845818     -2852.9998
   1   2.0000     -92.037616     -2504.4708
   2   2.0000     -15.606792      -424.6824
   3   2.0000     -11.306624      -307.6689
   4   2.0000     -11.243245      -305.9443
   5   2.0000     -10.570454      -287.6367
   6   2.0000      -9.032340      -245.7825
   7   2.0000      -8.037344      -218.7073
   8   2.0000      -8.035679      -218.6619
   9   2.0000      -8.035463      -218.6561
  10   2.0000      -6.713665      -182.6881
  11   2.0000      -6.711564      -182.6309
  12   2.0000      -6.710317      -182.5970
  13   2.0000      -1.282045       -34.8862
  14   2.0000      -1.122914       -30.5560
  15   2.0000      -1.035378       -28.1741
  16   2.0000      -0.929886       -25.3035
  17   2.0000      -0.773483       -21.0475
  18   2.0000      -0.681369       -18.5410
  19   2.0000      -0.629467       -17.1287
  20   2.0000      -0.607064       -16.5191
  21   2.0000      -0.564331       -15.3562
  22   2.0000      -0.545749       -14.8506
  23   2.0000      -0.511950       -13.9309
  24   2.0000      -0.473924       -12.8961
  25   2.0000      -0.461651       -12.5622
  26   2.0000      -0.435252       -11.8438
  27   2.0000      -0.340381        -9.2622
  28   0.0000       0.023675         0.6442
  29   0.0000       0.035024         0.9530
  30   0.0000       0.038913         1.0589
  31   0.0000       0.045133         1.2281
  32   0.0000       0.055776         1.5177

MULLIKEN ATOMIC CHARGES
-----------------------
   0 S :    0.586107
   1 Cl:   -0.356797
   2 N :   -0.713792
   3 C :   -0.122700
   4 C :   -0.686604
   5 H :    0.296915
   6 H :    0.254139
   7 H :    0.254141
   8 H :    0.488591
Sum of atomic charges:   -0.0000000

LOEWDIN ATOMIC CHARGES
----------------------
   0 S :    0.241630
   1 Cl:    0.442396
   2 N :   -0.109569
   3 C :   -0.104866
   4 C :    0.875485
   5 H :   -0.324352
   6 H :   -0.299880
   7 H :   -0.299880
   8 H :   -0.420964

  Mayer bond orders larger than 0.100000
B(  0-S ,  1-Cl) :   0.9129 B(  0-S ,  2-N ) :   1.1616 B(  2-N ,  3-C ) :   1.5808
B(  3-C ,  4-C ) :   0.9290 B(  3-C ,  8-H ) :   0.7302 B(  4-C ,  5-H ) :   0.9242
B(  4-C ,  6-H ) :   0.9405 B(  4-C ,  7-H ) :   0.9405

MP2 TOTAL ENERGY:     -990.590278197 Eh
FINAL SINGLE POINT ENERGY      -990.590278197375

DIPOLE MOMENT
-------------
                                X             Y             Z
Electronic contribution:     11.87708       0.97548      -0.00000
Nuclear contribution   :    -12.82961      -1.42089       0.00001
                        -----------------------------------------
Total Dipole Moment    :     -0.95253      -0.44541       0.00001
                        -----------------------------------------
Magnitude (a.u.)       :      1.05152
Magnitude (Debye)      :      2.67275

Rotational constants in cm-1:     0.233211     0.056036     0.045560
Rotational constants in MHz :  6991.500920  1679.927467  1365.840531

                             ****ORCA TERMINATED NORMALLY****
TOTAL RUN TIME: 0 days 0 hours 18 minutes 44 seconds 349 msec
