                         Program Version 5.0.4 -  RELEASE  -
|  1> ! ri-mp2 aug-cc-pvdz aug-cc-pvdz/c tightscf
|  2> %pal nprocs 16 end
|  3> %maxcore 3800
|  4> %base "DZ_S-Cl_48_A"
|  5> %scf
|  6> STABPerform true
|  7> STABRestartUHFifUnstable true
|  8> end
|  9>
| 10> *xyz 0 2
| 11> S         0.000000    0.000000   -2.159740
| 12> N         0.000000    0.000000   -0.572972
| 13> C         0.000000    0.000000    0.611745
| 14> S         0.000000    0.000000    2.181010
| 15> *
| 16>
| 17> $new_job
| 18> ! ri-mp2 aug-cc-pvtz aug-cc-pvtz/c tightscf
| 19> %pal nprocs 16 end
| 20> %maxcore 3800
| 21> %base "TZ_S-Cl_48_A"
| 22>
| 23> *xyz 0 2
| 24> S         0.000000    0.000000   -2.159740
| 25> N         0.000000    0.000000   -0.572972
| 26> C         0.000000    0.000000    0.611745
| 27> S         0.000000    0.000000    2.181010
| 28> *
| 29>
| 30> $new_job
| 31> ! ri-mp2 aug-cc-pvqz aug-cc-pvqz/c tightscf
| 32> %pal nprocs 16 end
| 33> %maxcore 3800
| 34> %base "QZ_S-Cl_48_A"
| 35>
| 36> *xyz 0 2
| 37> S         0.000000    0.000000   -2.159740
| 38> N         0.000000    0.000000   -0.572972
| 39> C         0.000000    0.000000    0.611745
| 40> S         0.000000    0.000000    2.181010
| 41> *
| 42>
| 43>
| 44>
| 45>
| 46>                          ****END OF INPUT****
 Total Charge           Charge          ....    0
 Multiplicity           Mult            ....    2
 Number of Electrons    NEL             ....   45
MP2 TOTAL ENERGY:     -887.886380069 Eh
FINAL SINGLE POINT ENERGY      -887.886380068594
MP2 TOTAL ENERGY:     -888.061959502 Eh
FINAL SINGLE POINT ENERGY      -888.061959502204

CARTESIAN COORDINATES (ANGSTROEM)
---------------------------------
  S      0.000000    0.000000   -2.159740
  N      0.000000    0.000000   -0.572972
  C      0.000000    0.000000    0.611745
  S      0.000000    0.000000    2.181010

 Multiplicity           Mult            ....    2
 Number of Electrons    NEL             ....   45
 Basis Dimension        Dim             ....  328

ORBITAL ENERGIES
----------------
                 SPIN UP ORBITALS
  NO   OCC          E(Eh)            E(eV)
   0   1.0000     -92.044232     -2504.6509
   1   1.0000     -91.970105     -2502.6338
   2   1.0000     -15.651845      -425.9083
   3   1.0000     -11.389893      -309.9347
   4   1.0000      -9.041673      -246.0364
   5   1.0000      -8.974122      -244.1983
   6   1.0000      -6.735357      -183.2784
   7   1.0000      -6.719908      -182.8580
   8   1.0000      -6.717211      -182.7846
   9   1.0000      -6.657225      -181.1523
  10   1.0000      -6.655130      -181.0953
  11   1.0000      -6.652950      -181.0360
  12   1.0000      -1.332458       -36.2580
  13   1.0000      -1.097563       -29.8662
  14   1.0000      -1.021498       -27.7964
  15   1.0000      -0.712464       -19.3871
  16   1.0000      -0.638368       -17.3709
  17   1.0000      -0.626357       -17.0440
  18   1.0000      -0.619091       -16.8463
  19   1.0000      -0.482956       -13.1419
  20   1.0000      -0.447682       -12.1820
  21   1.0000      -0.376552       -10.2465
  22   1.0000      -0.347162        -9.4468
  23   0.0000       0.037915         1.0317
  24   0.0000       0.044518         1.2114
  25   0.0000       0.054704         1.4886
  26   0.0000       0.057585         1.5670
  27   0.0000       0.061419         1.6713

                 SPIN DOWN ORBITALS
  NO   OCC          E(Eh)            E(eV)
   0   1.0000     -92.035972     -2504.4261
   1   1.0000     -91.967824     -2502.5717
   2   1.0000     -15.652630      -425.9297
   3   1.0000     -11.389319      -309.9191
   4   1.0000      -9.032528      -245.7876
   5   1.0000      -8.971628      -244.1304
   6   1.0000      -6.716283      -182.7594
   7   1.0000      -6.712412      -182.6540
   8   1.0000      -6.697720      -182.2542
   9   1.0000      -6.654100      -181.0673
  10   1.0000      -6.651104      -180.9858
  11   1.0000      -6.647600      -180.8904
  12   1.0000      -1.323220       -36.0067
  13   1.0000      -1.078078       -29.3360
  14   1.0000      -0.990659       -26.9572
  15   1.0000      -0.669112       -18.2075
  16   1.0000      -0.626386       -17.0448
  17   1.0000      -0.605661       -16.4809
  18   1.0000      -0.604762       -16.4564
  19   1.0000      -0.438716       -11.9381
  20   1.0000      -0.387905       -10.5554
  21   1.0000      -0.336944        -9.1687
  22   0.0000      -0.026399        -0.7184
  23   0.0000       0.038986         1.0609
  24   0.0000       0.044884         1.2214
  25   0.0000       0.057803         1.5729
  26   0.0000       0.059353         1.6151

MULLIKEN ATOMIC CHARGES AND SPIN POPULATIONS
--------------------------------------------
   0 S :    0.399454    0.894039
   1 N :   -0.576528   -0.069485
   2 C :    0.030988   -0.064845
   3 S :    0.146085    0.240291
Sum of atomic charges         :    0.0000000

LOEWDIN ATOMIC CHARGES AND SPIN POPULATIONS
-------------------------------------------
   0 S :    0.797163    0.645498
   1 N :   -0.523411    0.155859
   2 C :   -1.213369    0.038733
   3 S :    0.939618    0.159910

  Mayer bond orders larger than 0.100000
B(  0-S ,  1-N ) :   1.0684 B(  0-S ,  2-C ) :   0.1523 B(  1-N ,  2-C ) :   2.0244
B(  2-C ,  3-S ) :   1.5255

MP2 TOTAL ENERGY:     -888.119949421 Eh
FINAL SINGLE POINT ENERGY      -888.119949421045

DIPOLE MOMENT
-------------
                                X             Y             Z
Electronic contribution:      0.00000      -0.00000      -0.53543
Nuclear contribution   :      0.00000       0.00000      -0.00377
                        -----------------------------------------
Total Dipole Moment    :      0.00000      -0.00000      -0.53920
                        -----------------------------------------
Magnitude (a.u.)       :      0.53920
Magnitude (Debye)      :      1.37053

Rotational constants in cm-1:     0.000000     0.054180     0.054180
Rotational constants in MHz :     0.000000  1624.285100  1624.285100

                             ****ORCA TERMINATED NORMALLY****
TOTAL RUN TIME: 0 days 0 hours 5 minutes 51 seconds 720 msec
