                         Program Version 5.0.4 -  RELEASE  -
|  1> ! ri-mp2 aug-cc-pvdz aug-cc-pvdz/c tightscf
|  2> %pal nprocs 16 end
|  3> %maxcore 3800
|  4> %base "DZ_B-F_81_A"
|  5> %scf
|  6> STABPerform true
|  7> STABRestartUHFifUnstable true
|  8> end
|  9>
| 10> *xyz 0 2
| 11> F        -2.139073    0.010671    0.041289
| 12> F         0.782184   -1.097683   -0.640412
| 13> F         0.376487    1.026472   -0.798178
| 14> F         1.316707    0.239724    0.978224
| 15> C         0.387254   -0.012782    0.051613
| 16> B        -1.070052   -0.307193    0.692403
| 17> *
| 18>
| 19> $new_job
| 20> ! ri-mp2 aug-cc-pvtz aug-cc-pvtz/c tightscf
| 21> %pal nprocs 16 end
| 22> %maxcore 3800
| 23> %base "TZ_B-F_81_A"
| 24>
| 25> *xyz 0 2
| 26> F        -2.139073    0.010671    0.041289
| 27> F         0.782184   -1.097683   -0.640412
| 28> F         0.376487    1.026472   -0.798178
| 29> F         1.316707    0.239724    0.978224
| 30> C         0.387254   -0.012782    0.051613
| 31> B        -1.070052   -0.307193    0.692403
| 32> *
| 33>
| 34> $new_job
| 35> ! ri-mp2 aug-cc-pvqz aug-cc-pvqz/c tightscf
| 36> %pal nprocs 16 end
| 37> %maxcore 3800
| 38> %base "QZ_B-F_81_A"
| 39>
| 40> *xyz 0 2
| 41> F        -2.139073    0.010671    0.041289
| 42> F         0.782184   -1.097683   -0.640412
| 43> F         0.376487    1.026472   -0.798178
| 44> F         1.316707    0.239724    0.978224
| 45> C         0.387254   -0.012782    0.051613
| 46> B        -1.070052   -0.307193    0.692403
| 47> *
| 48>
| 49>
| 50>
| 51>
| 52>                          ****END OF INPUT****
 Total Charge           Charge          ....    0
 Multiplicity           Mult            ....    2
 Number of Electrons    NEL             ....   47
MP2 TOTAL ENERGY:     -461.345360268 Eh
FINAL SINGLE POINT ENERGY      -461.345360267563
MP2 TOTAL ENERGY:     -461.730995832 Eh
FINAL SINGLE POINT ENERGY      -461.730995832141

CARTESIAN COORDINATES (ANGSTROEM)
---------------------------------
  F     -2.139073    0.010671    0.041289
  F      0.782184   -1.097683   -0.640412
  F      0.376487    1.026472   -0.798178
  F      1.316707    0.239724    0.978224
  C      0.387254   -0.012782    0.051613
  B     -1.070052   -0.307193    0.692403

 Multiplicity           Mult            ....    2
 Number of Electrons    NEL             ....   47
 Basis Dimension        Dim             ....  480

ORBITAL ENERGIES
----------------
                 SPIN UP ORBITALS
  NO   OCC          E(Eh)            E(eV)
   0   1.0000     -26.361994      -717.3463
   1   1.0000     -26.347795      -716.9600
   2   1.0000     -26.345960      -716.9100
   3   1.0000     -26.345192      -716.8891
   4   1.0000     -11.504382      -313.0501
   5   1.0000      -7.737797      -210.5562
   6   1.0000      -1.738150       -47.2975
   7   1.0000      -1.682353       -45.7791
   8   1.0000      -1.644125       -44.7389
   9   1.0000      -1.642934       -44.7065
  10   1.0000      -0.998237       -27.1634
  11   1.0000      -0.872352       -23.7379
  12   1.0000      -0.831601       -22.6290
  13   1.0000      -0.830914       -22.6103
  14   1.0000      -0.822043       -22.3689
  15   1.0000      -0.752868       -20.4866
  16   1.0000      -0.731539       -19.9062
  17   1.0000      -0.718308       -19.5462
  18   1.0000      -0.716110       -19.4864
  19   1.0000      -0.674463       -18.3531
  20   1.0000      -0.673309       -18.3217
  21   1.0000      -0.658844       -17.9281
  22   1.0000      -0.598835       -16.2951
  23   1.0000      -0.411692       -11.2027
  24   0.0000       0.027320         0.7434
  25   0.0000       0.036167         0.9842
  26   0.0000       0.038009         1.0343
  27   0.0000       0.041545         1.1305
  28   0.0000       0.060118         1.6359

                 SPIN DOWN ORBITALS
  NO   OCC          E(Eh)            E(eV)
   0   1.0000     -26.359068      -717.2667
   1   1.0000     -26.347838      -716.9611
   2   1.0000     -26.346426      -716.9227
   3   1.0000     -26.344008      -716.8569
   4   1.0000     -11.500393      -312.9416
   5   1.0000      -7.716672      -209.9813
   6   1.0000      -1.736836       -47.2617
   7   1.0000      -1.674299       -45.5600
   8   1.0000      -1.644629       -44.7526
   9   1.0000      -1.640809       -44.6487
  10   1.0000      -0.987695       -26.8765
  11   1.0000      -0.860555       -23.4169
  12   1.0000      -0.830055       -22.5870
  13   1.0000      -0.829358       -22.5680
  14   1.0000      -0.810093       -22.0438
  15   1.0000      -0.733284       -19.9537
  16   1.0000      -0.726930       -19.7808
  17   1.0000      -0.718891       -19.5620
  18   1.0000      -0.710641       -19.3375
  19   1.0000      -0.674616       -18.3572
  20   1.0000      -0.672540       -18.3008
  21   1.0000      -0.658421       -17.9165
  22   1.0000      -0.566672       -15.4199
  23   0.0000       0.020612         0.5609
  24   0.0000       0.033210         0.9037
  25   0.0000       0.038091         1.0365
  26   0.0000       0.040705         1.1076
  27   0.0000       0.066856         1.8192

MULLIKEN ATOMIC CHARGES AND SPIN POPULATIONS
--------------------------------------------
   0 F :   -0.654246   -0.016819
   1 F :   -0.559195    0.000720
   2 F :   -0.568886    0.014264
   3 F :   -0.563954   -0.009656
   4 C :    1.509721    0.030242
   5 B :    0.836561    0.981250
Sum of atomic charges         :   -0.0000000

LOEWDIN ATOMIC CHARGES AND SPIN POPULATIONS
-------------------------------------------
   0 F :    0.736227    0.151129
   1 F :    0.711053    0.013819
   2 F :    0.713846    0.026043
   3 F :    0.707600    0.011770
   4 C :   -2.099579    0.182665
   5 B :   -0.769146    0.614573

  Mayer bond orders larger than 0.100000
B(  0-F ,  5-B ) :   0.5147 B(  1-F ,  4-C ) :   0.5887 B(  2-F ,  4-C ) :   0.5877
B(  3-F ,  4-C ) :   0.6105 B(  4-C ,  5-B ) :   0.8816

MP2 TOTAL ENERGY:     -461.857474310 Eh
FINAL SINGLE POINT ENERGY      -461.857474309586

DIPOLE MOMENT
-------------
                                X             Y             Z
Electronic contribution:     -0.90228      -0.17292       0.46612
Nuclear contribution   :      0.47355       0.06305      -0.12869
                        -----------------------------------------
Total Dipole Moment    :     -0.42872      -0.10987       0.33743
                        -----------------------------------------
Magnitude (a.u.)       :      0.55653
Magnitude (Debye)      :      1.41459

Rotational constants in cm-1:     0.190816     0.087948     0.087172
Rotational constants in MHz :  5720.533205  2636.623259  2613.359236

                             ****ORCA TERMINATED NORMALLY****
TOTAL RUN TIME: 0 days 0 hours 17 minutes 11 seconds 866 msec
