                         Program Version 5.0.4 -  RELEASE  -
|  1> ! ri-mp2 aug-cc-pvdz aug-cc-pvdz/c tightscf
|  2> %pal nprocs 16 end
|  3> %maxcore 3800
|  4> %base "DZ_B-Si_40_AB"
|  5>
|  6> *xyz 0 1
|  7> Si         0.121401   -1.065489    0.000007
|  8> N         1.566545    0.149314    0.000003
|  9> B        -1.549191    0.082822   -0.000009
| 10> O         1.319924    1.354463   -0.000003
| 11> O         2.689709   -0.297156    0.000011
| 12> O        -1.473166    1.426364   -0.000012
| 13> O        -2.741640   -0.559175   -0.000007
| 14> H        -3.498558    0.040058   -0.000012
| 15> H        -0.553585    1.745144   -0.000013
| 16> H         0.387024   -1.861801    1.209741
| 17> H         0.387031   -1.861824   -1.209709
| 18> *
| 19>
| 20> $new_job
| 21> ! ri-mp2 aug-cc-pvtz aug-cc-pvtz/c tightscf
| 22> %pal nprocs 16 end
| 23> %maxcore 3800
| 24> %base "TZ_B-Si_40_AB"
| 25>
| 26> *xyz 0 1
| 27> Si         0.121401   -1.065489    0.000007
| 28> N         1.566545    0.149314    0.000003
| 29> B        -1.549191    0.082822   -0.000009
| 30> O         1.319924    1.354463   -0.000003
| 31> O         2.689709   -0.297156    0.000011
| 32> O        -1.473166    1.426364   -0.000012
| 33> O        -2.741640   -0.559175   -0.000007
| 34> H        -3.498558    0.040058   -0.000012
| 35> H        -0.553585    1.745144   -0.000013
| 36> H         0.387024   -1.861801    1.209741
| 37> H         0.387031   -1.861824   -1.209709
| 38> *
| 39>
| 40> $new_job
| 41> ! ri-mp2 aug-cc-pvqz aug-cc-pvqz/c tightscf
| 42> %pal nprocs 16 end
| 43> %maxcore 3800
| 44> %base "QZ_B-Si_40_AB"
| 45>
| 46> *xyz 0 1
| 47> Si         0.121401   -1.065489    0.000007
| 48> N         1.566545    0.149314    0.000003
| 49> B        -1.549191    0.082822   -0.000009
| 50> O         1.319924    1.354463   -0.000003
| 51> O         2.689709   -0.297156    0.000011
| 52> O        -1.473166    1.426364   -0.000012
| 53> O        -2.741640   -0.559175   -0.000007
| 54> H        -3.498558    0.040058   -0.000012
| 55> H        -0.553585    1.745144   -0.000013
| 56> H         0.387024   -1.861801    1.209741
| 57> H         0.387031   -1.861824   -1.209709
| 58> *
| 59>
| 60>
| 61>
| 62>
| 63>                          ****END OF INPUT****
 Total Charge           Charge          ....    0
 Multiplicity           Mult            ....    1
 Number of Electrons    NEL             ....   62
MP2 TOTAL ENERGY:     -671.072693199 Eh
FINAL SINGLE POINT ENERGY      -671.072693198556
MP2 TOTAL ENERGY:     -671.427874961 Eh
FINAL SINGLE POINT ENERGY      -671.427874960738

CARTESIAN COORDINATES (ANGSTROEM)
---------------------------------
  Si     0.121401   -1.065489    0.000007
  N      1.566545    0.149314    0.000003
  B     -1.549191    0.082822   -0.000009
  O      1.319924    1.354463   -0.000003
  O      2.689709   -0.297156    0.000011
  O     -1.473166    1.426364   -0.000012
  O     -2.741640   -0.559175   -0.000007
  H     -3.498558    0.040058   -0.000012
  H     -0.553585    1.745144   -0.000013
  H      0.387024   -1.861801    1.209741
  H      0.387031   -1.861824   -1.209709

 Multiplicity           Mult            ....    1
 Number of Electrons    NEL             ....   62
 Basis Dimension        Dim             ....  748

ORBITAL ENERGIES
----------------

  NO   OCC          E(Eh)            E(eV)
   0   2.0000     -68.827548     -1872.8928
   1   2.0000     -20.615326      -560.9715
   2   2.0000     -20.607328      -560.7539
   3   2.0000     -20.592471      -560.3496
   4   2.0000     -20.581863      -560.0610
   5   2.0000     -15.823790      -430.5872
   6   2.0000      -7.667853      -208.6529
   7   2.0000      -6.177157      -168.0890
   8   2.0000      -4.283872      -116.5701
   9   2.0000      -4.282495      -116.5326
  10   2.0000      -4.282059      -116.5207
  11   2.0000      -1.607566       -43.7441
  12   2.0000      -1.409546       -38.3557
  13   2.0000      -1.403115       -38.1807
  14   2.0000      -1.368164       -37.2296
  15   2.0000      -0.962652       -26.1951
  16   2.0000      -0.816292       -22.2124
  17   2.0000      -0.796027       -21.6610
  18   2.0000      -0.751596       -20.4520
  19   2.0000      -0.731644       -19.9090
  20   2.0000      -0.714980       -19.4556
  21   2.0000      -0.683517       -18.5994
  22   2.0000      -0.635763       -17.3000
  23   2.0000      -0.597067       -16.2470
  24   2.0000      -0.592187       -16.1142
  25   2.0000      -0.526997       -14.3403
  26   2.0000      -0.521791       -14.1987
  27   2.0000      -0.511093       -13.9076
  28   2.0000      -0.478927       -13.0323
  29   2.0000      -0.464867       -12.6497
  30   2.0000      -0.452238       -12.3060
  31   0.0000       0.019702         0.5361
  32   0.0000       0.029151         0.7932
  33   0.0000       0.035736         0.9724
  34   0.0000       0.037025         1.0075
  35   0.0000       0.048024         1.3068

MULLIKEN ATOMIC CHARGES
-----------------------
   0 Si:    0.791509
   1 N :    0.678303
   2 B :    1.391178
   3 O :   -0.641590
   4 O :   -0.566402
   5 O :   -1.135310
   6 O :   -1.014211
   7 H :    0.337489
   8 H :    0.391833
   9 H :   -0.116399
  10 H :   -0.116399
Sum of atomic charges:    0.0000000

LOEWDIN ATOMIC CHARGES
----------------------
   0 Si:    0.831680
   1 N :   -0.875643
   2 B :   -1.203465
   3 O :    0.523921
   4 O :    0.448509
   5 O :    1.314180
   6 O :    1.278975
   7 H :   -0.793526
   8 H :   -1.043832
   9 H :   -0.240399
  10 H :   -0.240401

  Mayer bond orders larger than 0.100000
B(  0-Si,  1-N ) :   0.3484 B(  0-Si,  2-B ) :   0.8898 B(  0-Si,  6-O ) :  -0.1032
B(  0-Si,  9-H ) :   0.8842 B(  0-Si, 10-H ) :   0.8842 B(  1-N ,  3-O ) :   1.2285
B(  1-N ,  4-O ) :   1.4022 B(  2-B ,  5-O ) :   0.5236 B(  2-B ,  6-O ) :   0.4071
B(  3-O ,  4-O ) :   0.1466 B(  5-O ,  6-O ) :  -0.1332 B(  5-O ,  8-H ) :   0.8716
B(  6-O ,  7-H ) :   0.9303

MP2 TOTAL ENERGY:     -671.547289268 Eh
FINAL SINGLE POINT ENERGY      -671.547289267854

DIPOLE MOMENT
-------------
                                X             Y             Z
Electronic contribution:      0.75582       1.19905      -0.00002
Nuclear contribution   :     -1.95573      -1.83837       0.00001
                        -----------------------------------------
Total Dipole Moment    :     -1.19991      -0.63931      -0.00001
                        -----------------------------------------
Magnitude (a.u.)       :      1.35960
Magnitude (Debye)      :      3.45582

Rotational constants in cm-1:     0.148464     0.044928     0.034912
Rotational constants in MHz :  4450.848756  1346.899548  1046.630975

                             ****ORCA TERMINATED NORMALLY****
TOTAL RUN TIME: 0 days 0 hours 9 minutes 7 seconds 992 msec
