                         Program Version 5.0.4 -  RELEASE  -
|  1> ! ri-mp2 aug-cc-pvdz aug-cc-pvdz/c tightscf
|  2> %pal nprocs 16 end
|  3> %maxcore 3800
|  4> %base "DZ_Si-Si_101_A"
|  5> %scf
|  6> STABPerform true
|  7> STABRestartUHFifUnstable true
|  8> end
|  9>
| 10> *xyz 0 2
| 11> Si         1.518583    0.089339   -0.095225
| 12> O        -0.052152   -0.517223    0.024109
| 13> H         1.593355    1.385624    0.620308
| 14> H         2.354634   -0.952946    0.538397
| 15> N        -1.100676    0.436513   -0.036009
| 16> O        -2.135775   -0.075154    0.029204
| 17> *
| 18>
| 19> $new_job
| 20> ! ri-mp2 aug-cc-pvtz aug-cc-pvtz/c tightscf
| 21> %pal nprocs 16 end
| 22> %maxcore 3800
| 23> %base "TZ_Si-Si_101_A"
| 24>
| 25> *xyz 0 2
| 26> Si         1.518583    0.089339   -0.095225
| 27> O        -0.052152   -0.517223    0.024109
| 28> H         1.593355    1.385624    0.620308
| 29> H         2.354634   -0.952946    0.538397
| 30> N        -1.100676    0.436513   -0.036009
| 31> O        -2.135775   -0.075154    0.029204
| 32> *
| 33>
| 34> $new_job
| 35> ! ri-mp2 aug-cc-pvqz aug-cc-pvqz/c tightscf
| 36> %pal nprocs 16 end
| 37> %maxcore 3800
| 38> %base "QZ_Si-Si_101_A"
| 39>
| 40> *xyz 0 2
| 41> Si         1.518583    0.089339   -0.095225
| 42> O        -0.052152   -0.517223    0.024109
| 43> H         1.593355    1.385624    0.620308
| 44> H         2.354634   -0.952946    0.538397
| 45> N        -1.100676    0.436513   -0.036009
| 46> O        -2.135775   -0.075154    0.029204
| 47> *
| 48>
| 49>
| 50>
| 51>
| 52>                          ****END OF INPUT****
 Total Charge           Charge          ....    0
 Multiplicity           Mult            ....    2
 Number of Electrons    NEL             ....   39
MP2 TOTAL ENERGY:     -494.827216229 Eh
FINAL SINGLE POINT ENERGY      -494.827216228810
MP2 TOTAL ENERGY:     -495.027973869 Eh
FINAL SINGLE POINT ENERGY      -495.027973868698

CARTESIAN COORDINATES (ANGSTROEM)
---------------------------------
  Si     1.518583    0.089339   -0.095225
  O     -0.052152   -0.517223    0.024109
  H      1.593355    1.385624    0.620308
  H      2.354634   -0.952946    0.538397
  N     -1.100676    0.436513   -0.036009
  O     -2.135775   -0.075154    0.029204

 Multiplicity           Mult            ....    2
 Number of Electrons    NEL             ....   39
 Basis Dimension        Dim             ....  416

ORBITAL ENERGIES
----------------
                 SPIN UP ORBITALS
  NO   OCC          E(Eh)            E(eV)
   0   1.0000     -68.824943     -1872.8219
   1   1.0000     -20.660883      -562.2112
   2   1.0000     -20.615203      -560.9682
   3   1.0000     -15.795090      -429.8063
   4   1.0000      -6.171083      -167.9237
   5   1.0000      -4.282910      -116.5439
   6   1.0000      -4.274233      -116.3078
   7   1.0000      -4.273624      -116.2912
   8   1.0000      -1.615866       -43.9700
   9   1.0000      -1.385491       -37.7011
  10   1.0000      -0.948415       -25.8077
  11   1.0000      -0.797690       -21.7063
  12   1.0000      -0.738049       -20.0833
  13   1.0000      -0.697680       -18.9848
  14   1.0000      -0.684633       -18.6298
  15   1.0000      -0.569524       -15.4975
  16   1.0000      -0.539972       -14.6934
  17   1.0000      -0.513270       -13.9668
  18   1.0000      -0.454676       -12.3724
  19   1.0000      -0.353529        -9.6200
  20   0.0000       0.027411         0.7459
  21   0.0000       0.039850         1.0844
  22   0.0000       0.041747         1.1360
  23   0.0000       0.043890         1.1943
  24   0.0000       0.061365         1.6698

                 SPIN DOWN ORBITALS
  NO   OCC          E(Eh)            E(eV)
   0   1.0000     -68.819296     -1872.6682
   1   1.0000     -20.670227      -562.4655
   2   1.0000     -20.609907      -560.8241
   3   1.0000     -15.788778      -429.6345
   4   1.0000      -6.162060      -167.6782
   5   1.0000      -4.270792      -116.2141
   6   1.0000      -4.270191      -116.1978
   7   1.0000      -4.261634      -115.9650
   8   1.0000      -1.621336       -44.1188
   9   1.0000      -1.377835       -37.4928
  10   1.0000      -0.945563       -25.7301
  11   1.0000      -0.788711       -21.4619
  12   1.0000      -0.739678       -20.1277
  13   1.0000      -0.694569       -18.9002
  14   1.0000      -0.657561       -17.8932
  15   1.0000      -0.557379       -15.1671
  16   1.0000      -0.530466       -14.4347
  17   1.0000      -0.499853       -13.6017
  18   1.0000      -0.454545       -12.3688
  19   0.0000       0.019482         0.5301
  20   0.0000       0.030285         0.8241
  21   0.0000       0.040886         1.1126
  22   0.0000       0.042699         1.1619
  23   0.0000       0.060863         1.6562

MULLIKEN ATOMIC CHARGES AND SPIN POPULATIONS
--------------------------------------------
   0 Si:    0.962345    0.892370
   1 O :   -0.702639    0.030465
   2 H :   -0.186715    0.051516
   3 H :   -0.178523    0.042370
   4 N :    0.484028    0.207127
   5 O :   -0.378495   -0.223847
Sum of atomic charges         :    0.0000000

LOEWDIN ATOMIC CHARGES AND SPIN POPULATIONS
-------------------------------------------
   0 Si:    0.684090    0.584666
   1 O :    0.192534    0.174946
   2 H :   -0.368195    0.137499
   3 H :   -0.379697    0.132830
   4 N :   -0.490300    0.095560
   5 O :    0.361568   -0.125500

  Mayer bond orders larger than 0.100000
B(  0-Si,  1-O ) :   0.4572 B(  0-Si,  2-H ) :   0.9039 B(  0-Si,  3-H ) :   0.9004
B(  1-O ,  4-N ) :   0.9942 B(  4-N ,  5-O ) :   1.8291

MP2 TOTAL ENERGY:     -495.095488229 Eh
FINAL SINGLE POINT ENERGY      -495.095488229479

DIPOLE MOMENT
-------------
                                X             Y             Z
Electronic contribution:     -2.99962      -0.13971      -1.14911
Nuclear contribution   :      3.67138       0.40467       1.12130
                        -----------------------------------------
Total Dipole Moment    :      0.67177       0.26496      -0.02781
                        -----------------------------------------
Magnitude (a.u.)       :      0.72267
Magnitude (Debye)      :      1.83687

Rotational constants in cm-1:     1.527347     0.103001     0.097511
Rotational constants in MHz : 45788.714689  3087.879718  2923.315891

                             ****ORCA TERMINATED NORMALLY****
TOTAL RUN TIME: 0 days 0 hours 22 minutes 40 seconds 652 msec
