                         Program Version 5.0.4 -  RELEASE  -
|  1> ! ri-mp2 aug-cc-pvdz aug-cc-pvdz/c tightscf
|  2> %pal nprocs 16 end
|  3> %maxcore 3800
|  4> %base "DZ_B-P_56_AB"
|  5> %scf
|  6> STABPerform true
|  7> STABRestartUHFifUnstable true
|  8> end
|  9>
| 10> *xyz 0 1
| 11> C        -1.039954    0.118652   -0.242693
| 12> B         1.935304    0.078073    0.104845
| 13> C         3.084922   -0.824930    0.661692
| 14> H         2.966305   -0.849503    1.752199
| 15> H         4.069382   -0.387565    0.480444
| 16> H         3.085914   -1.858810    0.317388
| 17> O        -1.133527    1.308229   -0.405098
| 18> C        -2.163608   -0.712505    0.336111
| 19> C         2.027504    1.630937    0.163269
| 20> H         2.531177    1.954533   -0.756861
| 21> H         2.651126    1.976743    0.989890
| 22> H         1.065606    2.141216    0.177840
| 23> C        -3.444690    0.071621    0.544804
| 24> H        -1.799600   -1.135097    1.277298
| 25> H        -2.320474   -1.569699   -0.324788
| 26> H        -3.281283    0.913028    1.215784
| 27> H        -4.217173   -0.567258    0.971860
| 28> H        -3.813023    0.475083   -0.397371
| 29> P         0.487276   -0.777870   -0.780233
| 30> H         0.359553   -1.983467   -0.062721
| 31> *
| 32>
| 33> $new_job
| 34> ! ri-mp2 aug-cc-pvtz aug-cc-pvtz/c tightscf
| 35> %pal nprocs 16 end
| 36> %maxcore 3800
| 37> %base "TZ_B-P_56_AB"
| 38>
| 39> *xyz 0 1
| 40> C        -1.039954    0.118652   -0.242693
| 41> B         1.935304    0.078073    0.104845
| 42> C         3.084922   -0.824930    0.661692
| 43> H         2.966305   -0.849503    1.752199
| 44> H         4.069382   -0.387565    0.480444
| 45> H         3.085914   -1.858810    0.317388
| 46> O        -1.133527    1.308229   -0.405098
| 47> C        -2.163608   -0.712505    0.336111
| 48> C         2.027504    1.630937    0.163269
| 49> H         2.531177    1.954533   -0.756861
| 50> H         2.651126    1.976743    0.989890
| 51> H         1.065606    2.141216    0.177840
| 52> C        -3.444690    0.071621    0.544804
| 53> H        -1.799600   -1.135097    1.277298
| 54> H        -2.320474   -1.569699   -0.324788
| 55> H        -3.281283    0.913028    1.215784
| 56> H        -4.217173   -0.567258    0.971860
| 57> H        -3.813023    0.475083   -0.397371
| 58> P         0.487276   -0.777870   -0.780233
| 59> H         0.359553   -1.983467   -0.062721
| 60> *
| 61>
| 62> $new_job
| 63> ! ri-mp2 aug-cc-pvqz aug-cc-pvqz/c tightscf
| 64> %pal nprocs 16 end
| 65> %maxcore 3800
| 66> %base "QZ_B-P_56_AB"
| 67>
| 68> *xyz 0 1
| 69> C        -1.039954    0.118652   -0.242693
| 70> B         1.935304    0.078073    0.104845
| 71> C         3.084922   -0.824930    0.661692
| 72> H         2.966305   -0.849503    1.752199
| 73> H         4.069382   -0.387565    0.480444
| 74> H         3.085914   -1.858810    0.317388
| 75> O        -1.133527    1.308229   -0.405098
| 76> C        -2.163608   -0.712505    0.336111
| 77> C         2.027504    1.630937    0.163269
| 78> H         2.531177    1.954533   -0.756861
| 79> H         2.651126    1.976743    0.989890
| 80> H         1.065606    2.141216    0.177840
| 81> C        -3.444690    0.071621    0.544804
| 82> H        -1.799600   -1.135097    1.277298
| 83> H        -2.320474   -1.569699   -0.324788
| 84> H        -3.281283    0.913028    1.215784
| 85> H        -4.217173   -0.567258    0.971860
| 86> H        -3.813023    0.475083   -0.397371
| 87> P         0.487276   -0.777870   -0.780233
| 88> H         0.359553   -1.983467   -0.062721
| 89> *
| 90>
| 91>
| 92>
| 93>
| 94>                          ****END OF INPUT****
 Total Charge           Charge          ....    0
 Multiplicity           Mult            ....    1
 Number of Electrons    NEL             ....   70
MP2 TOTAL ENERGY:     -637.799459284 Eh
FINAL SINGLE POINT ENERGY      -637.799459283510
MP2 TOTAL ENERGY:     -638.113441827 Eh
FINAL SINGLE POINT ENERGY      -638.113441827006

CARTESIAN COORDINATES (ANGSTROEM)
---------------------------------
  C     -1.039954    0.118652   -0.242693
  B      1.935304    0.078073    0.104845
  C      3.084922   -0.824930    0.661692
  H      2.966305   -0.849503    1.752199
  H      4.069382   -0.387565    0.480444
  H      3.085914   -1.858810    0.317388
  O     -1.133527    1.308229   -0.405098
  C     -2.163608   -0.712505    0.336111
  C      2.027504    1.630937    0.163269
  H      2.531177    1.954533   -0.756861
  H      2.651126    1.976743    0.989890
  H      1.065606    2.141216    0.177840
  C     -3.444690    0.071621    0.544804
  H     -1.799600   -1.135097    1.277298
  H     -2.320474   -1.569699   -0.324788
  H     -3.281283    0.913028    1.215784
  H     -4.217173   -0.567258    0.971860
  H     -3.813023    0.475083   -0.397371
  P      0.487276   -0.777870   -0.780233
  H      0.359553   -1.983467   -0.062721

 Multiplicity           Mult            ....    1
 Number of Electrons    NEL             ....   70
 Basis Dimension        Dim             .... 1196

ORBITAL ENERGIES
----------------

  NO   OCC          E(Eh)            E(eV)
   0   2.0000     -79.926940     -2174.9226
   1   2.0000     -20.549107      -559.1696
   2   2.0000     -11.335003      -308.4411
   3   2.0000     -11.241219      -305.8891
   4   2.0000     -11.217518      -305.2442
   5   2.0000     -11.202145      -304.8259
   6   2.0000     -11.189397      -304.4790
   7   2.0000      -7.607547      -207.0119
   8   2.0000      -7.474155      -203.3821
   9   2.0000      -5.368464      -146.0833
  10   2.0000      -5.367996      -146.0706
  11   2.0000      -5.367791      -146.0650
  12   2.0000      -1.396960       -38.0132
  13   2.0000      -1.061269       -28.8786
  14   2.0000      -0.980459       -26.6797
  15   2.0000      -0.929327       -25.2883
  16   2.0000      -0.924833       -25.1660
  17   2.0000      -0.846221       -23.0268
  18   2.0000      -0.729312       -19.8456
  19   2.0000      -0.655436       -17.8353
  20   2.0000      -0.638788       -17.3823
  21   2.0000      -0.628255       -17.0957
  22   2.0000      -0.595650       -16.2085
  23   2.0000      -0.578082       -15.7304
  24   2.0000      -0.565340       -15.3837
  25   2.0000      -0.546863       -14.8809
  26   2.0000      -0.541587       -14.7373
  27   2.0000      -0.534906       -14.5555
  28   2.0000      -0.525028       -14.2867
  29   2.0000      -0.515844       -14.0368
  30   2.0000      -0.493261       -13.4223
  31   2.0000      -0.472733       -12.8637
  32   2.0000      -0.454469       -12.3667
  33   2.0000      -0.389804       -10.6071
  34   2.0000      -0.351044        -9.5524
  35   0.0000       0.019450         0.5293
  36   0.0000       0.027768         0.7556
  37   0.0000       0.031578         0.8593
  38   0.0000       0.033665         0.9161
  39   0.0000       0.042387         1.1534

MULLIKEN ATOMIC CHARGES
-----------------------
   0 C :    0.509418
   1 B :    0.146739
   2 C :   -1.061629
   3 H :    0.279759
   4 H :    0.320309
   5 H :    0.306729
   6 O :   -0.878650
   7 C :   -0.399737
   8 C :   -1.135607
   9 H :    0.299937
  10 H :    0.326340
  11 H :    0.440201
  12 C :   -0.823764
  13 H :    0.256663
  14 H :    0.256824
  15 H :    0.248872
  16 H :    0.324670
  17 H :    0.236974
  18 P :    0.444585
  19 H :   -0.098631
Sum of atomic charges:   -0.0000000

LOEWDIN ATOMIC CHARGES
----------------------
   0 C :   -0.846473
   1 B :   -0.709509
   2 C :    0.990421
   3 H :   -0.297146
   4 H :   -0.299924
   5 H :   -0.321494
   6 O :    0.688712
   7 C :    0.385579
   8 C :    0.999486
   9 H :   -0.293602
  10 H :   -0.299278
  11 H :   -0.367641
  12 C :    0.893961
  13 H :   -0.299869
  14 H :   -0.308603
  15 H :   -0.293006
  16 H :   -0.283290
  17 H :   -0.287967
  18 P :    1.382582
  19 H :   -0.432940

  Mayer bond orders larger than 0.100000
B(  0-C ,  6-O ) :   1.1565 B(  0-C ,  7-C ) :   0.8154 B(  0-C , 12-C ) :  -0.1022
B(  0-C , 18-P ) :   0.8064 B(  1-B ,  2-C ) :   0.9858 B(  1-B ,  8-C ) :   1.0433
B(  1-B , 18-P ) :   1.0284 B(  2-C ,  3-H ) :   0.9088 B(  2-C ,  4-H ) :   0.8989
B(  2-C ,  5-H ) :   0.9007 B(  6-O ,  7-C ) :   0.1264 B(  7-C , 12-C ) :   0.9283
B(  7-C , 13-H ) :   0.8648 B(  7-C , 14-H ) :   0.9153 B(  8-C ,  9-H ) :   0.8769
B(  8-C , 10-H ) :   0.8743 B(  8-C , 11-H ) :   0.7978 B( 12-C , 15-H ) :   0.9513
B( 12-C , 16-H ) :   0.9610 B( 12-C , 17-H ) :   0.9671 B( 18-P , 19-H ) :   0.9910

MP2 TOTAL ENERGY:     -638.211669280 Eh
FINAL SINGLE POINT ENERGY      -638.211669280307

DIPOLE MOMENT
-------------
                                X             Y             Z
Electronic contribution:      0.91156      -0.69117      -5.73513
Nuclear contribution   :     -0.75267      -0.19453       6.36732
                        -----------------------------------------
Total Dipole Moment    :      0.15889      -0.88570       0.63219
                        -----------------------------------------
Magnitude (a.u.)       :      1.09971
Magnitude (Debye)      :      2.79525

Rotational constants in cm-1:     0.105116     0.028679     0.025367
Rotational constants in MHz :  3151.293095   859.783937   760.484398

                             ****ORCA TERMINATED NORMALLY****
TOTAL RUN TIME: 0 days 2 hours 25 minutes 49 seconds 530 msec
