                         Program Version 5.0.4 -  RELEASE  -
|  1> ! ri-mp2 aug-cc-pvdz aug-cc-pvdz/c tightscf
|  2> %pal nprocs 16 end
|  3> %maxcore 3800
|  4> %base "DZ_S-Cl_88_AB"
|  5>
|  6> *xyz 0 1
|  7> Cl         2.138213    0.636532   -0.000004
|  8> N        -0.609772   -0.817016    0.000001
|  9> C        -1.213760    1.563786    0.000003
| 10> C        -1.487550    0.091226    0.000004
| 11> C        -2.928324   -0.321823    0.000008
| 12> S         0.943775   -1.105849   -0.000004
| 13> H        -0.154802    1.791405    0.000027
| 14> H        -1.677154    2.020389    0.877168
| 15> H        -1.677110    2.020379   -0.877191
| 16> H        -3.020682   -1.404320   -0.000002
| 17> H        -3.437036    0.082337   -0.877952
| 18> H        -3.437025    0.082319    0.877983
| 19> *
| 20>
| 21> $new_job
| 22> ! ri-mp2 aug-cc-pvtz aug-cc-pvtz/c tightscf
| 23> %pal nprocs 16 end
| 24> %maxcore 3800
| 25> %base "TZ_S-Cl_88_AB"
| 26>
| 27> *xyz 0 1
| 28> Cl         2.138213    0.636532   -0.000004
| 29> N        -0.609772   -0.817016    0.000001
| 30> C        -1.213760    1.563786    0.000003
| 31> C        -1.487550    0.091226    0.000004
| 32> C        -2.928324   -0.321823    0.000008
| 33> S         0.943775   -1.105849   -0.000004
| 34> H        -0.154802    1.791405    0.000027
| 35> H        -1.677154    2.020389    0.877168
| 36> H        -1.677110    2.020379   -0.877191
| 37> H        -3.020682   -1.404320   -0.000002
| 38> H        -3.437036    0.082337   -0.877952
| 39> H        -3.437025    0.082319    0.877983
| 40> *
| 41>
| 42> $new_job
| 43> ! ri-mp2 aug-cc-pvqz aug-cc-pvqz/c tightscf
| 44> %pal nprocs 16 end
| 45> %maxcore 3800
| 46> %base "QZ_S-Cl_88_AB"
| 47>
| 48> *xyz 0 1
| 49> Cl         2.138213    0.636532   -0.000004
| 50> N        -0.609772   -0.817016    0.000001
| 51> C        -1.213760    1.563786    0.000003
| 52> C        -1.487550    0.091226    0.000004
| 53> C        -2.928324   -0.321823    0.000008
| 54> S         0.943775   -1.105849   -0.000004
| 55> H        -0.154802    1.791405    0.000027
| 56> H        -1.677154    2.020389    0.877168
| 57> H        -1.677110    2.020379   -0.877191
| 58> H        -3.020682   -1.404320   -0.000002
| 59> H        -3.437036    0.082337   -0.877952
| 60> H        -3.437025    0.082319    0.877983
| 61> *
| 62>
| 63>
| 64>
| 65>
| 66>                          ****END OF INPUT****
 Total Charge           Charge          ....    0
 Multiplicity           Mult            ....    1
 Number of Electrons    NEL             ....   64
MP2 TOTAL ENERGY:    -1029.464105557 Eh
FINAL SINGLE POINT ENERGY     -1029.464105556823
MP2 TOTAL ENERGY:    -1029.741014806 Eh
FINAL SINGLE POINT ENERGY     -1029.741014806367

CARTESIAN COORDINATES (ANGSTROEM)
---------------------------------
  Cl     2.138213    0.636532   -0.000004
  N     -0.609772   -0.817016    0.000001
  C     -1.213760    1.563786    0.000003
  C     -1.487550    0.091226    0.000004
  C     -2.928324   -0.321823    0.000008
  S      0.943775   -1.105849   -0.000004
  H     -0.154802    1.791405    0.000027
  H     -1.677154    2.020389    0.877168
  H     -1.677110    2.020379   -0.877191
  H     -3.020682   -1.404320   -0.000002
  H     -3.437036    0.082337   -0.877952
  H     -3.437025    0.082319    0.877983

 Multiplicity           Mult            ....    1
 Number of Electrons    NEL             ....   64
 Basis Dimension        Dim             ....  764

ORBITAL ENERGIES
----------------

  NO   OCC          E(Eh)            E(eV)
   0   2.0000    -104.829252     -2852.5490
   1   2.0000     -92.037575     -2504.4698
   2   2.0000     -15.602468      -424.5647
   3   2.0000     -11.316217      -307.9299
   4   2.0000     -11.240375      -305.8661
   5   2.0000     -11.238844      -305.8245
   6   2.0000     -10.554176      -287.1937
   7   2.0000      -9.031112      -245.7491
   8   2.0000      -8.020979      -218.2619
   9   2.0000      -8.019428      -218.2197
  10   2.0000      -8.019209      -218.2138
  11   2.0000      -6.712490      -182.6561
  12   2.0000      -6.710183      -182.5934
  13   2.0000      -6.708964      -182.5602
  14   2.0000      -1.281959       -34.8839
  15   2.0000      -1.113387       -30.2968
  16   2.0000      -1.057052       -28.7639
  17   2.0000      -0.973150       -26.4808
  18   2.0000      -0.933534       -25.4028
  19   2.0000      -0.723401       -19.6847
  20   2.0000      -0.661476       -17.9997
  21   2.0000      -0.641561       -17.4577
  22   2.0000      -0.632208       -17.2033
  23   2.0000      -0.574752       -15.6398
  24   2.0000      -0.562906       -15.3174
  25   2.0000      -0.542585       -14.7645
  26   2.0000      -0.538868       -14.6633
  27   2.0000      -0.511269       -13.9123
  28   2.0000      -0.465056       -12.6548
  29   2.0000      -0.445288       -12.1169
  30   2.0000      -0.411448       -11.1961
  31   2.0000      -0.332329        -9.0431
  32   0.0000       0.021969         0.5978
  33   0.0000       0.031640         0.8610
  34   0.0000       0.035237         0.9588
  35   0.0000       0.042477         1.1558
  36   0.0000       0.053062         1.4439

MULLIKEN ATOMIC CHARGES
-----------------------
   0 Cl:   -0.425800
   1 N :   -0.789843
   2 C :   -0.771901
   3 C :    0.571575
   4 C :   -0.783106
   5 S :    0.545960
   6 H :    0.337597
   7 H :    0.258447
   8 H :    0.258455
   9 H :    0.281210
  10 H :    0.258701
  11 H :    0.258705
Sum of atomic charges:    0.0000000

LOEWDIN ATOMIC CHARGES
----------------------
   0 Cl:    0.429702
   1 N :   -0.123009
   2 C :    0.861957
   3 C :   -0.447056
   4 C :    0.873884
   5 S :    0.318091
   6 H :   -0.451091
   7 H :   -0.285319
   8 H :   -0.285317
   9 H :   -0.316239
  10 H :   -0.287801
  11 H :   -0.287801

  Mayer bond orders larger than 0.100000
B(  0-Cl,  5-S ) :   0.8328 B(  1-N ,  3-C ) :   1.3151 B(  1-N ,  5-S ) :   1.2279
B(  2-C ,  3-C ) :   0.8318 B(  2-C ,  6-H ) :   0.9087 B(  2-C ,  7-H ) :   0.9550
B(  2-C ,  8-H ) :   0.9550 B(  3-C ,  4-C ) :   0.8459 B(  4-C ,  9-H ) :   0.9777
B(  4-C , 10-H ) :   0.9377 B(  4-C , 11-H ) :   0.9377

MP2 TOTAL ENERGY:    -1029.829390829 Eh
FINAL SINGLE POINT ENERGY     -1029.829390829217

DIPOLE MOMENT
-------------
                                X             Y             Z
Electronic contribution:     14.67317      -3.19745      -0.00004
Nuclear contribution   :    -16.04122       3.60896       0.00004
                        -----------------------------------------
Total Dipole Moment    :     -1.36805       0.41151       0.00000
                        -----------------------------------------
Magnitude (a.u.)       :      1.42860
Magnitude (Debye)      :      3.63121

Rotational constants in cm-1:     0.153284     0.044028     0.034640
Rotational constants in MHz :  4595.348485  1319.937624  1038.492365

                             ****ORCA TERMINATED NORMALLY****
TOTAL RUN TIME: 0 days 0 hours 11 minutes 0 seconds 605 msec
