                         Program Version 5.0.4 -  RELEASE  -
|  1> ! ri-mp2 aug-cc-pvdz aug-cc-pvdz/c tightscf
|  2> %pal nprocs 16 end
|  3> %maxcore 3800
|  4> %base "DZ_B-P_47_AB"
|  5> %scf
|  6> STABPerform true
|  7> STABRestartUHFifUnstable true
|  8> end
|  9>
| 10> *xyz 0 1
| 11> C        -1.068344   -0.479948    0.451697
| 12> B         1.640182    0.381238   -0.013475
| 13> O         1.128177    1.634097   -0.062722
| 14> O         2.991280    0.281943    0.083298
| 15> C        -2.052807   -0.097687   -0.353096
| 16> C        -3.330728    0.532711    0.089919
| 17> H        -1.943762   -0.257837   -1.423306
| 18> H        -3.366331    0.647159    1.172721
| 19> H        -4.185309   -0.071323   -0.222634
| 20> H        -3.460569    1.517227   -0.364909
| 21> H         0.166005    1.644492   -0.092891
| 22> H         3.334331   -0.613465    0.095753
| 23> P         0.483917   -1.176484   -0.192458
| 24> H        -1.181119   -0.342022    1.523109
| 25> H         0.932710   -1.841933    0.970677
| 26> *
| 27>
| 28> $new_job
| 29> ! ri-mp2 aug-cc-pvtz aug-cc-pvtz/c tightscf
| 30> %pal nprocs 16 end
| 31> %maxcore 3800
| 32> %base "TZ_B-P_47_AB"
| 33>
| 34> *xyz 0 1
| 35> C        -1.068344   -0.479948    0.451697
| 36> B         1.640182    0.381238   -0.013475
| 37> O         1.128177    1.634097   -0.062722
| 38> O         2.991280    0.281943    0.083298
| 39> C        -2.052807   -0.097687   -0.353096
| 40> C        -3.330728    0.532711    0.089919
| 41> H        -1.943762   -0.257837   -1.423306
| 42> H        -3.366331    0.647159    1.172721
| 43> H        -4.185309   -0.071323   -0.222634
| 44> H        -3.460569    1.517227   -0.364909
| 45> H         0.166005    1.644492   -0.092891
| 46> H         3.334331   -0.613465    0.095753
| 47> P         0.483917   -1.176484   -0.192458
| 48> H        -1.181119   -0.342022    1.523109
| 49> H         0.932710   -1.841933    0.970677
| 50> *
| 51>
| 52> $new_job
| 53> ! ri-mp2 aug-cc-pvqz aug-cc-pvqz/c tightscf
| 54> %pal nprocs 16 end
| 55> %maxcore 3800
| 56> %base "QZ_B-P_47_AB"
| 57>
| 58> *xyz 0 1
| 59> C        -1.068344   -0.479948    0.451697
| 60> B         1.640182    0.381238   -0.013475
| 61> O         1.128177    1.634097   -0.062722
| 62> O         2.991280    0.281943    0.083298
| 63> C        -2.052807   -0.097687   -0.353096
| 64> C        -3.330728    0.532711    0.089919
| 65> H        -1.943762   -0.257837   -1.423306
| 66> H        -3.366331    0.647159    1.172721
| 67> H        -4.185309   -0.071323   -0.222634
| 68> H        -3.460569    1.517227   -0.364909
| 69> H         0.166005    1.644492   -0.092891
| 70> H         3.334331   -0.613465    0.095753
| 71> P         0.483917   -1.176484   -0.192458
| 72> H        -1.181119   -0.342022    1.523109
| 73> H         0.932710   -1.841933    0.970677
| 74> *
| 75>
| 76>
| 77>
| 78>
| 79>                          ****END OF INPUT****
 Total Charge           Charge          ....    0
 Multiplicity           Mult            ....    1
 Number of Electrons    NEL             ....   62
MP2 TOTAL ENERGY:     -634.578911621 Eh
FINAL SINGLE POINT ENERGY      -634.578911620573
MP2 TOTAL ENERGY:     -634.885197064 Eh
FINAL SINGLE POINT ENERGY      -634.885197064023

CARTESIAN COORDINATES (ANGSTROEM)
---------------------------------
  C     -1.068344   -0.479948    0.451697
  B      1.640182    0.381238   -0.013475
  O      1.128177    1.634097   -0.062722
  O      2.991280    0.281943    0.083298
  C     -2.052807   -0.097687   -0.353096
  C     -3.330728    0.532711    0.089919
  H     -1.943762   -0.257837   -1.423306
  H     -3.366331    0.647159    1.172721
  H     -4.185309   -0.071323   -0.222634
  H     -3.460569    1.517227   -0.364909
  H      0.166005    1.644492   -0.092891
  H      3.334331   -0.613465    0.095753
  P      0.483917   -1.176484   -0.192458
  H     -1.181119   -0.342022    1.523109
  H      0.932710   -1.841933    0.970677

 Multiplicity           Mult            ....    1
 Number of Electrons    NEL             ....   62
 Basis Dimension        Dim             ....  932

ORBITAL ENERGIES
----------------

  NO   OCC          E(Eh)            E(eV)
   0   2.0000     -79.927244     -2174.9309
   1   2.0000     -20.568088      -559.6861
   2   2.0000     -20.564120      -559.5782
   3   2.0000     -11.253700      -306.2288
   4   2.0000     -11.239818      -305.8510
   5   2.0000     -11.234944      -305.7184
   6   2.0000      -7.647376      -208.0957
   7   2.0000      -7.472282      -203.3311
   8   2.0000      -5.366661      -146.0343
   9   2.0000      -5.366125      -146.0197
  10   2.0000      -5.365721      -146.0087
  11   2.0000      -1.384085       -37.6629
  12   2.0000      -1.349253       -36.7150
  13   2.0000      -1.091977       -29.7142
  14   2.0000      -0.965185       -26.2640
  15   2.0000      -0.844361       -22.9762
  16   2.0000      -0.791837       -21.5470
  17   2.0000      -0.754724       -20.5371
  18   2.0000      -0.679060       -18.4782
  19   2.0000      -0.633530       -17.2392
  20   2.0000      -0.614760       -16.7285
  21   2.0000      -0.605799       -16.4846
  22   2.0000      -0.585919       -15.9437
  23   2.0000      -0.582508       -15.8509
  24   2.0000      -0.574439       -15.6313
  25   2.0000      -0.528903       -14.3922
  26   2.0000      -0.502104       -13.6629
  27   2.0000      -0.493549       -13.4302
  28   2.0000      -0.453189       -12.3319
  29   2.0000      -0.395157       -10.7528
  30   2.0000      -0.340201        -9.2574
  31   0.0000       0.021706         0.5906
  32   0.0000       0.026418         0.7189
  33   0.0000       0.031677         0.8620
  34   0.0000       0.036018         0.9801
  35   0.0000       0.042242         1.1495

MULLIKEN ATOMIC CHARGES
-----------------------
   0 C :   -0.705538
   1 B :    1.380210
   2 O :   -1.093037
   3 O :   -1.111384
   4 C :   -0.185899
   5 C :   -0.695940
   6 H :    0.426462
   7 H :    0.227098
   8 H :    0.264547
   9 H :    0.250627
  10 H :    0.398943
  11 H :    0.357280
  12 P :    0.292541
  13 H :    0.296304
  14 H :   -0.102213
Sum of atomic charges:    0.0000000

LOEWDIN ATOMIC CHARGES
----------------------
   0 C :    0.114713
   1 B :   -1.417025
   2 O :    1.309199
   3 O :    1.290223
   4 C :    0.270962
   5 C :    0.893777
   6 H :   -0.342655
   7 H :   -0.313847
   8 H :   -0.292501
   9 H :   -0.292815
  10 H :   -0.869619
  11 H :   -0.827425
  12 P :    1.320840
  13 H :   -0.387563
  14 H :   -0.456264

  Mayer bond orders larger than 0.100000
B(  0-C ,  4-C ) :   1.4619 B(  0-C , 12-P ) :   0.7835 B(  0-C , 13-H ) :   0.9369
B(  1-B ,  2-O ) :   0.4261 B(  1-B ,  3-O ) :   0.4077 B(  1-B , 12-P ) :   0.9977
B(  2-O , 10-H ) :   0.8723 B(  3-O , 11-H ) :   0.9127 B(  4-C ,  5-C ) :   0.8080
B(  4-C ,  6-H ) :   0.8054 B(  4-C ,  8-H ) :  -0.1000 B(  4-C , 12-P ) :  -0.1459
B(  5-C ,  7-H ) :   0.9522 B(  5-C ,  8-H ) :   0.9989 B(  5-C ,  9-H ) :   0.9653
B( 12-P , 14-H ) :   0.9690

MP2 TOTAL ENERGY:     -634.983531688 Eh
FINAL SINGLE POINT ENERGY      -634.983531687866

DIPOLE MOMENT
-------------
                                X             Y             Z
Electronic contribution:     10.30867      -1.97199      -1.56495
Nuclear contribution   :    -11.28226       1.50713       1.83038
                        -----------------------------------------
Total Dipole Moment    :     -0.97359      -0.46485       0.26543
                        -----------------------------------------
Magnitude (a.u.)       :      1.11104
Magnitude (Debye)      :      2.82404

Rotational constants in cm-1:     0.145133     0.036076     0.030156
Rotational constants in MHz :  4350.979151  1081.520717   904.044218

                             ****ORCA TERMINATED NORMALLY****
TOTAL RUN TIME: 0 days 1 hours 5 minutes 37 seconds 375 msec
