                         Program Version 5.0.4 -  RELEASE  -
|  1> ! ri-mp2 aug-cc-pvdz aug-cc-pvdz/c tightscf
|  2> %pal nprocs 16 end
|  3> %maxcore 3800
|  4> %base "DZ_Si-Si_155_A"
|  5> %scf
|  6> STABPerform true
|  7> STABRestartUHFifUnstable true
|  8> end
|  9>
| 10> *xyz 0 2
| 11> Si         1.590604   -0.300801    0.031102
| 12> S        -0.497921    0.261221   -0.474571
| 13> H         2.414393    0.811397   -0.498424
| 14> H         1.618990   -0.295751    1.515329
| 15> O        -0.736601    1.383934    0.489833
| 16> C        -1.323654   -1.192977    0.204908
| 17> H        -1.101711   -2.057633   -0.419719
| 18> H        -2.390696   -0.979553    0.179496
| 19> H        -1.007960   -1.360390    1.232906
| 20> *
| 21>
| 22> $new_job
| 23> ! ri-mp2 aug-cc-pvtz aug-cc-pvtz/c tightscf
| 24> %pal nprocs 16 end
| 25> %maxcore 3800
| 26> %base "TZ_Si-Si_155_A"
| 27>
| 28> *xyz 0 2
| 29> Si         1.590604   -0.300801    0.031102
| 30> S        -0.497921    0.261221   -0.474571
| 31> H         2.414393    0.811397   -0.498424
| 32> H         1.618990   -0.295751    1.515329
| 33> O        -0.736601    1.383934    0.489833
| 34> C        -1.323654   -1.192977    0.204908
| 35> H        -1.101711   -2.057633   -0.419719
| 36> H        -2.390696   -0.979553    0.179496
| 37> H        -1.007960   -1.360390    1.232906
| 38> *
| 39>
| 40> $new_job
| 41> ! ri-mp2 aug-cc-pvqz aug-cc-pvqz/c tightscf
| 42> %pal nprocs 16 end
| 43> %maxcore 3800
| 44> %base "QZ_Si-Si_155_A"
| 45>
| 46> *xyz 0 2
| 47> Si         1.590604   -0.300801    0.031102
| 48> S        -0.497921    0.261221   -0.474571
| 49> H         2.414393    0.811397   -0.498424
| 50> H         1.618990   -0.295751    1.515329
| 51> O        -0.736601    1.383934    0.489833
| 52> C        -1.323654   -1.192977    0.204908
| 53> H        -1.101711   -2.057633   -0.419719
| 54> H        -2.390696   -0.979553    0.179496
| 55> H        -1.007960   -1.360390    1.232906
| 56> *
| 57>
| 58>
| 59>
| 60>
| 61>                          ****END OF INPUT****
 Total Charge           Charge          ....    0
 Multiplicity           Mult            ....    2
 Number of Electrons    NEL             ....   49
MP2 TOTAL ENERGY:     -802.609666797 Eh
FINAL SINGLE POINT ENERGY      -802.609666796910
MP2 TOTAL ENERGY:     -802.812202245 Eh
FINAL SINGLE POINT ENERGY      -802.812202245340

CARTESIAN COORDINATES (ANGSTROEM)
---------------------------------
  Si     1.590604   -0.300801    0.031102
  S     -0.497921    0.261221   -0.474571
  H      2.414393    0.811397   -0.498424
  H      1.618990   -0.295751    1.515329
  O     -0.736601    1.383934    0.489833
  C     -1.323654   -1.192977    0.204908
  H     -1.101711   -2.057633   -0.419719
  H     -2.390696   -0.979553    0.179496
  H     -1.007960   -1.360390    1.232906

 Multiplicity           Mult            ....    2
 Number of Electrons    NEL             ....   49
 Basis Dimension        Dim             ....  558

ORBITAL ENERGIES
----------------
                 SPIN UP ORBITALS
  NO   OCC          E(Eh)            E(eV)
   0   1.0000     -92.054295     -2504.9247
   1   1.0000     -68.818207     -1872.6386
   2   1.0000     -20.506928      -558.0219
   3   1.0000     -11.268146      -306.6218
   4   1.0000      -9.044675      -246.1181
   5   1.0000      -6.727127      -183.0544
   6   1.0000      -6.726351      -183.0333
   7   1.0000      -6.725113      -182.9996
   8   1.0000      -6.167217      -167.8185
   9   1.0000      -4.279302      -116.4457
  10   1.0000      -4.269623      -116.1823
  11   1.0000      -4.269273      -116.1728
  12   1.0000      -1.337930       -36.4069
  13   1.0000      -1.038455       -28.2578
  14   1.0000      -0.863847       -23.5065
  15   1.0000      -0.729799       -19.8589
  16   1.0000      -0.625074       -17.0091
  17   1.0000      -0.619408       -16.8549
  18   1.0000      -0.590461       -16.0673
  19   1.0000      -0.544483       -14.8161
  20   1.0000      -0.536749       -14.6057
  21   1.0000      -0.505971       -13.7682
  22   1.0000      -0.425787       -11.5863
  23   1.0000      -0.386975       -10.5301
  24   1.0000      -0.344149        -9.3648
  25   0.0000       0.020257         0.5512
  26   0.0000       0.030124         0.8197
  27   0.0000       0.033157         0.9022
  28   0.0000       0.039684         1.0799
  29   0.0000       0.048690         1.3249

                 SPIN DOWN ORBITALS
  NO   OCC          E(Eh)            E(eV)
   0   1.0000     -92.053927     -2504.9147
   1   1.0000     -68.812650     -1872.4874
   2   1.0000     -20.502947      -557.9135
   3   1.0000     -11.268253      -306.6248
   4   1.0000      -9.044273      -246.1072
   5   1.0000      -6.726325      -183.0326
   6   1.0000      -6.725569      -183.0120
   7   1.0000      -6.724705      -182.9885
   8   1.0000      -6.158620      -167.5846
   9   1.0000      -4.266294      -116.0918
  10   1.0000      -4.265691      -116.0754
  11   1.0000      -4.257148      -115.8429
  12   1.0000      -1.328924       -36.1619
  13   1.0000      -1.036107       -28.1939
  14   1.0000      -0.854342       -23.2478
  15   1.0000      -0.697916       -18.9913
  16   1.0000      -0.623513       -16.9667
  17   1.0000      -0.613477       -16.6936
  18   1.0000      -0.585134       -15.9223
  19   1.0000      -0.535583       -14.5740
  20   1.0000      -0.524335       -14.2679
  21   1.0000      -0.495888       -13.4938
  22   1.0000      -0.405631       -11.0378
  23   1.0000      -0.355669        -9.6783
  24   0.0000       0.002516         0.0685
  25   0.0000       0.026263         0.7147
  26   0.0000       0.031127         0.8470
  27   0.0000       0.034397         0.9360
  28   0.0000       0.043136         1.1738

MULLIKEN ATOMIC CHARGES AND SPIN POPULATIONS
--------------------------------------------
   0 Si:    0.683270    0.901572
   1 S :    0.783199   -0.007229
   2 H :   -0.194304    0.020637
   3 H :   -0.152258    0.026181
   4 O :   -1.132152    0.063876
   5 C :   -1.027668   -0.003891
   6 H :    0.329217    0.000663
   7 H :    0.400204   -0.003868
   8 H :    0.310493    0.002059
Sum of atomic charges         :   -0.0000000

LOEWDIN ATOMIC CHARGES AND SPIN POPULATIONS
-------------------------------------------
   0 Si:    0.834931    0.556085
   1 S :    0.439344    0.104982
   2 H :   -0.387771    0.123206
   3 H :   -0.357522    0.118858
   4 O :   -0.012841    0.069395
   5 C :    0.596671    0.019436
   6 H :   -0.372914    0.007125
   7 H :   -0.366241   -0.000699
   8 H :   -0.373657    0.001613

  Mayer bond orders larger than 0.100000
B(  0-Si,  1-S ) :   0.7520 B(  0-Si,  2-H ) :   0.8838 B(  0-Si,  3-H ) :   0.8809
B(  1-S ,  4-O ) :   1.2330 B(  1-S ,  5-C ) :   0.9576 B(  5-C ,  6-H ) :   0.8924
B(  5-C ,  7-H ) :   0.8176 B(  5-C ,  8-H ) :   0.8809

MP2 TOTAL ENERGY:     -802.877162675 Eh
FINAL SINGLE POINT ENERGY      -802.877162675059

DIPOLE MOMENT
-------------
                                X             Y             Z
Electronic contribution:      1.00702       2.17416      -2.40358
Nuclear contribution   :     -0.55276      -3.80156       2.00457
                        -----------------------------------------
Total Dipole Moment    :      0.45425      -1.62740      -0.39901
                        -----------------------------------------
Magnitude (a.u.)       :      1.73609
Magnitude (Debye)      :      4.41278

Rotational constants in cm-1:     0.224255     0.118824     0.090878
Rotational constants in MHz :  6723.005298  3562.267381  2724.456185

                             ****ORCA TERMINATED NORMALLY****
TOTAL RUN TIME: 0 days 0 hours 39 minutes 44 seconds 802 msec
