                         Program Version 5.0.4 -  RELEASE  -
|  1> ! ri-mp2 aug-cc-pvdz aug-cc-pvdz/c tightscf
|  2> %pal nprocs 16 end
|  3> %maxcore 3800
|  4> %base "DZ_Si-Cl_52_AB"
|  5> %scf
|  6> STABPerform true
|  7> STABRestartUHFifUnstable true
|  8> end
|  9>
| 10> *xyz 0 1
| 11> Si         0.000000    0.337519    0.000000
| 12> Cl         1.672771   -0.812416    0.009547
| 13> Cl        -1.672771   -0.812416   -0.009547
| 14> O        -0.080007    1.217517   -1.355954
| 15> H         0.693644    1.708305   -1.642584
| 16> O         0.080007    1.217517    1.355954
| 17> H        -0.693645    1.708302    1.642587
| 18> *
| 19>
| 20> $new_job
| 21> ! ri-mp2 aug-cc-pvtz aug-cc-pvtz/c tightscf
| 22> %pal nprocs 16 end
| 23> %maxcore 3800
| 24> %base "TZ_Si-Cl_52_AB"
| 25>
| 26> *xyz 0 1
| 27> Si         0.000000    0.337519    0.000000
| 28> Cl         1.672771   -0.812416    0.009547
| 29> Cl        -1.672771   -0.812416   -0.009547
| 30> O        -0.080007    1.217517   -1.355954
| 31> H         0.693644    1.708305   -1.642584
| 32> O         0.080007    1.217517    1.355954
| 33> H        -0.693645    1.708302    1.642587
| 34> *
| 35>
| 36> $new_job
| 37> ! ri-mp2 aug-cc-pvqz aug-cc-pvqz/c tightscf
| 38> %pal nprocs 16 end
| 39> %maxcore 3800
| 40> %base "QZ_Si-Cl_52_AB"
| 41>
| 42> *xyz 0 1
| 43> Si         0.000000    0.337519    0.000000
| 44> Cl         1.672771   -0.812416    0.009547
| 45> Cl        -1.672771   -0.812416   -0.009547
| 46> O        -0.080007    1.217517   -1.355954
| 47> H         0.693644    1.708305   -1.642584
| 48> O         0.080007    1.217517    1.355954
| 49> H        -0.693645    1.708302    1.642587
| 50> *
| 51>
| 52>
| 53>
| 54>
| 55>                          ****END OF INPUT****
 Total Charge           Charge          ....    0
 Multiplicity           Mult            ....    1
 Number of Electrons    NEL             ....   66
MP2 TOTAL ENERGY:    -1359.852896690 Eh
FINAL SINGLE POINT ENERGY     -1359.852896690271
MP2 TOTAL ENERGY:    -1360.159312200 Eh
FINAL SINGLE POINT ENERGY     -1360.159312199570

CARTESIAN COORDINATES (ANGSTROEM)
---------------------------------
  Si     0.000000    0.337519    0.000000
  Cl     1.672771   -0.812416    0.009547
  Cl    -1.672771   -0.812416   -0.009547
  O     -0.080007    1.217517   -1.355954
  H      0.693644    1.708305   -1.642584
  O      0.080007    1.217517    1.355954
  H     -0.693645    1.708302    1.642587

 Multiplicity           Mult            ....    1
 Number of Electrons    NEL             ....   66
 Basis Dimension        Dim             ....  504

ORBITAL ENERGIES
----------------

  NO   OCC          E(Eh)            E(eV)
   0   2.0000    -104.839320     -2852.8229
   1   2.0000    -104.839320     -2852.8229
   2   2.0000     -68.889494     -1874.5784
   3   2.0000     -20.585531      -560.1608
   4   2.0000     -20.585521      -560.1605
   5   2.0000     -10.567141      -287.5465
   6   2.0000     -10.567136      -287.5464
   7   2.0000      -8.033960      -218.6152
   8   2.0000      -8.033959      -218.6151
   9   2.0000      -8.032814      -218.5840
  10   2.0000      -8.032814      -218.5840
  11   2.0000      -8.032777      -218.5830
  12   2.0000      -8.032777      -218.5830
  13   2.0000      -6.223250      -169.3432
  14   2.0000      -4.332207      -117.8853
  15   2.0000      -4.331422      -117.8640
  16   2.0000      -4.330859      -117.8487
  17   2.0000      -1.389985       -37.8234
  18   2.0000      -1.366091       -37.1732
  19   2.0000      -1.123051       -30.5598
  20   2.0000      -1.099950       -29.9312
  21   2.0000      -0.790539       -21.5117
  22   2.0000      -0.746759       -20.3203
  23   2.0000      -0.631316       -17.1790
  24   2.0000      -0.615602       -16.7514
  25   2.0000      -0.611621       -16.6431
  26   2.0000      -0.551008       -14.9937
  27   2.0000      -0.540217       -14.7001
  28   2.0000      -0.532530       -14.4909
  29   2.0000      -0.500487       -13.6189
  30   2.0000      -0.481884       -13.1127
  31   2.0000      -0.475438       -12.9373
  32   2.0000      -0.465242       -12.6599
  33   0.0000       0.021712         0.5908
  34   0.0000       0.035063         0.9541
  35   0.0000       0.043539         1.1848
  36   0.0000       0.044860         1.2207
  37   0.0000       0.057041         1.5522

MULLIKEN ATOMIC CHARGES
-----------------------
   0 Si:    2.313046
   1 Cl:   -0.588292
   2 Cl:   -0.588292
   3 O :   -0.943666
   4 H :    0.375435
   5 O :   -0.943666
   6 H :    0.375435
Sum of atomic charges:    0.0000000

LOEWDIN ATOMIC CHARGES
----------------------
   0 Si:   -2.099471
   1 Cl:    0.926816
   2 Cl:    0.926816
   3 O :    1.019218
   4 H :   -0.896298
   5 O :    1.019218
   6 H :   -0.896298

  Mayer bond orders larger than 0.100000
B(  0-Si,  1-Cl) :   0.5020 B(  0-Si,  2-Cl) :   0.5020 B(  0-Si,  3-O ) :   0.7310
B(  0-Si,  5-O ) :   0.7310 B(  3-O ,  4-H ) :   0.8870 B(  5-O ,  6-H ) :   0.8870

MP2 TOTAL ENERGY:    -1360.261212082 Eh
FINAL SINGLE POINT ENERGY     -1360.261212082409

DIPOLE MOMENT
-------------
                                X             Y             Z
Electronic contribution:      0.00000      -4.51557      -0.00000
Nuclear contribution   :     -0.00000       5.36708       0.00000
                        -----------------------------------------
Total Dipole Moment    :     -0.00000       0.85151       0.00000
                        -----------------------------------------
Magnitude (a.u.)       :      0.85151
Magnitude (Debye)      :      2.16436

Rotational constants in cm-1:     0.100759     0.063889     0.055693
Rotational constants in MHz :  3020.681883  1915.338968  1669.634432

                             ****ORCA TERMINATED NORMALLY****
TOTAL RUN TIME: 0 days 0 hours 12 minutes 22 seconds 542 msec
