                         Program Version 5.0.4 -  RELEASE  -
|  1> ! ri-mp2 aug-cc-pvdz aug-cc-pvdz/c tightscf
|  2> %pal nprocs 16 end
|  3> %maxcore 3800
|  4> %base "DZ_B-F_11_A"
|  5> %scf
|  6> STABPerform true
|  7> STABRestartUHFifUnstable true
|  8> end
|  9>
| 10> *xyz 0 2
| 11> F        -2.192084    0.391847    0.000003
| 12> B        -1.263152   -0.509736   -0.000004
| 13> Si         0.739263   -0.492259   -0.000000
| 14> F         1.487189    0.928476    0.000000
| 15> H         1.155066   -1.221299    1.213791
| 16> H         1.155070   -1.221302   -1.213789
| 17> *
| 18>
| 19> $new_job
| 20> ! ri-mp2 aug-cc-pvtz aug-cc-pvtz/c tightscf
| 21> %pal nprocs 16 end
| 22> %maxcore 3800
| 23> %base "TZ_B-F_11_A"
| 24>
| 25> *xyz 0 2
| 26> F        -2.192084    0.391847    0.000003
| 27> B        -1.263152   -0.509736   -0.000004
| 28> Si         0.739263   -0.492259   -0.000000
| 29> F         1.487189    0.928476    0.000000
| 30> H         1.155066   -1.221299    1.213791
| 31> H         1.155070   -1.221302   -1.213789
| 32> *
| 33>
| 34> $new_job
| 35> ! ri-mp2 aug-cc-pvqz aug-cc-pvqz/c tightscf
| 36> %pal nprocs 16 end
| 37> %maxcore 3800
| 38> %base "QZ_B-F_11_A"
| 39>
| 40> *xyz 0 2
| 41> F        -2.192084    0.391847    0.000003
| 42> B        -1.263152   -0.509736   -0.000004
| 43> Si         0.739263   -0.492259   -0.000000
| 44> F         1.487189    0.928476    0.000000
| 45> H         1.155066   -1.221299    1.213791
| 46> H         1.155070   -1.221302   -1.213789
| 47> *
| 48>
| 49>
| 50>
| 51>
| 52>                          ****END OF INPUT****
 Total Charge           Charge          ....    0
 Multiplicity           Mult            ....    2
 Number of Electrons    NEL             ....   39
MP2 TOTAL ENERGY:     -514.283125380 Eh
FINAL SINGLE POINT ENERGY      -514.283125379899
MP2 TOTAL ENERGY:     -514.513510592 Eh
FINAL SINGLE POINT ENERGY      -514.513510592032

CARTESIAN COORDINATES (ANGSTROEM)
---------------------------------
  F     -2.192084    0.391847    0.000003
  B     -1.263152   -0.509736   -0.000004
  Si     0.739263   -0.492259   -0.000000
  F      1.487189    0.928476    0.000000
  H      1.155066   -1.221299    1.213791
  H      1.155070   -1.221302   -1.213789

 Multiplicity           Mult            ....    2
 Number of Electrons    NEL             ....   39
 Basis Dimension        Dim             ....  416

ORBITAL ENERGIES
----------------
                 SPIN UP ORBITALS
  NO   OCC          E(Eh)            E(eV)
   0   1.0000     -68.818996     -1872.6601
   1   1.0000     -26.341915      -716.8000
   2   1.0000     -26.286694      -715.2973
   3   1.0000      -7.696520      -209.4330
   4   1.0000      -6.163932      -167.7291
   5   1.0000      -4.271203      -116.2254
   6   1.0000      -4.269949      -116.1912
   7   1.0000      -4.269757      -116.1860
   8   1.0000      -1.660779       -45.1921
   9   1.0000      -1.589762       -43.2596
  10   1.0000      -0.827984       -22.5306
  11   1.0000      -0.782367       -21.2893
  12   1.0000      -0.739782       -20.1305
  13   1.0000      -0.709500       -19.3065
  14   1.0000      -0.672363       -18.2959
  15   1.0000      -0.671537       -18.2735
  16   1.0000      -0.658916       -17.9300
  17   1.0000      -0.517394       -14.0790
  18   1.0000      -0.497734       -13.5440
  19   1.0000      -0.335893        -9.1401
  20   0.0000       0.025108         0.6832
  21   0.0000       0.031553         0.8586
  22   0.0000       0.032143         0.8746
  23   0.0000       0.039947         1.0870
  24   0.0000       0.051851         1.4109

                 SPIN DOWN ORBITALS
  NO   OCC          E(Eh)            E(eV)
   0   1.0000     -68.817884     -1872.6298
   1   1.0000     -26.338186      -716.6985
   2   1.0000     -26.285087      -715.2536
   3   1.0000      -7.680989      -209.0103
   4   1.0000      -6.161950      -167.6752
   5   1.0000      -4.269934      -116.1908
   6   1.0000      -4.268783      -116.1595
   7   1.0000      -4.267509      -116.1248
   8   1.0000      -1.651272       -44.9334
   9   1.0000      -1.585040       -43.1311
  10   1.0000      -0.812439       -22.1076
  11   1.0000      -0.773431       -21.0461
  12   1.0000      -0.709023       -19.2935
  13   1.0000      -0.705210       -19.1897
  14   1.0000      -0.670185       -18.2367
  15   1.0000      -0.664727       -18.0881
  16   1.0000      -0.645304       -17.5596
  17   1.0000      -0.498555       -13.5664
  18   1.0000      -0.479593       -13.0504
  19   0.0000       0.022873         0.6224
  20   0.0000       0.031473         0.8564
  21   0.0000       0.034304         0.9335
  22   0.0000       0.035356         0.9621
  23   0.0000       0.053101         1.4449

MULLIKEN ATOMIC CHARGES AND SPIN POPULATIONS
--------------------------------------------
   0 F :   -0.698074    0.000256
   1 B :    0.569502    0.892519
   2 Si:    1.090048    0.111396
   3 F :   -0.647910    0.004182
   4 H :   -0.156783   -0.004177
   5 H :   -0.156784   -0.004177
Sum of atomic charges         :    0.0000000

LOEWDIN ATOMIC CHARGES AND SPIN POPULATIONS
-------------------------------------------
   0 F :    0.649278    0.162387
   1 B :   -0.715809    0.587282
   2 Si:    0.320035    0.198439
   3 F :    0.359463    0.032700
   4 H :   -0.306484    0.009596
   5 H :   -0.306484    0.009596

  Mayer bond orders larger than 0.100000
B(  0-F ,  1-B ) :   0.4170 B(  1-B ,  2-Si) :   0.8354 B(  2-Si,  3-F ) :   0.3568
B(  2-Si,  4-H ) :   0.9061 B(  2-Si,  5-H ) :   0.9061

MP2 TOTAL ENERGY:     -514.589089774 Eh
FINAL SINGLE POINT ENERGY      -514.589089774380

DIPOLE MOMENT
-------------
                                X             Y             Z
Electronic contribution:     -3.75813       2.65322      -0.00000
Nuclear contribution   :      3.69367      -3.06865       0.00000
                        -----------------------------------------
Total Dipole Moment    :     -0.06446      -0.41543      -0.00000
                        -----------------------------------------
Magnitude (a.u.)       :      0.42040
Magnitude (Debye)      :      1.06857

Rotational constants in cm-1:     0.486737     0.098305     0.084214
Rotational constants in MHz : 14592.020394  2947.117182  2524.671554

                             ****ORCA TERMINATED NORMALLY****
TOTAL RUN TIME: 0 days 0 hours 9 minutes 51 seconds 514 msec
