                         Program Version 5.0.4 -  RELEASE  -
|  1> ! ri-mp2 aug-cc-pvdz aug-cc-pvdz/c tightscf
|  2> %pal nprocs 16 end
|  3> %maxcore 3800
|  4> %base "DZ_S-Cl_29_A"
|  5> %scf
|  6> STABPerform true
|  7> STABRestartUHFifUnstable true
|  8> end
|  9>
| 10> *xyz 0 2
| 11> S        -0.279787   -1.275116    0.000000
| 12> C         0.000000    0.445422    0.000000
| 13> O        -0.904592    1.229529    0.000000
| 14> O         1.294740    0.769386    0.000000
| 15> H         1.355406    1.738005    0.000000
| 16> *
| 17>
| 18> $new_job
| 19> ! ri-mp2 aug-cc-pvtz aug-cc-pvtz/c tightscf
| 20> %pal nprocs 16 end
| 21> %maxcore 3800
| 22> %base "TZ_S-Cl_29_A"
| 23>
| 24> *xyz 0 2
| 25> S        -0.279787   -1.275116    0.000000
| 26> C         0.000000    0.445422    0.000000
| 27> O        -0.904592    1.229529    0.000000
| 28> O         1.294740    0.769386    0.000000
| 29> H         1.355406    1.738005    0.000000
| 30> *
| 31>
| 32> $new_job
| 33> ! ri-mp2 aug-cc-pvqz aug-cc-pvqz/c tightscf
| 34> %pal nprocs 16 end
| 35> %maxcore 3800
| 36> %base "QZ_S-Cl_29_A"
| 37>
| 38> *xyz 0 2
| 39> S        -0.279787   -1.275116    0.000000
| 40> C         0.000000    0.445422    0.000000
| 41> O        -0.904592    1.229529    0.000000
| 42> O         1.294740    0.769386    0.000000
| 43> H         1.355406    1.738005    0.000000
| 44> *
| 45>
| 46>
| 47>
| 48>
| 49>                          ****END OF INPUT****
 Total Charge           Charge          ....    0
 Multiplicity           Mult            ....    2
 Number of Electrons    NEL             ....   39
MP2 TOTAL ENERGY:     -586.365729807 Eh
FINAL SINGLE POINT ENERGY      -586.365729807001
MP2 TOTAL ENERGY:     -586.568403064 Eh
FINAL SINGLE POINT ENERGY      -586.568403064393

CARTESIAN COORDINATES (ANGSTROEM)
---------------------------------
  S     -0.279787   -1.275116    0.000000
  C      0.000000    0.445422    0.000000
  O     -0.904592    1.229529    0.000000
  O      1.294740    0.769386    0.000000
  H      1.355406    1.738005    0.000000

 Multiplicity           Mult            ....    2
 Number of Electrons    NEL             ....   39
 Basis Dimension        Dim             ....  370

ORBITAL ENERGIES
----------------
                 SPIN UP ORBITALS
  NO   OCC          E(Eh)            E(eV)
   0   1.0000     -92.017452     -2503.9222
   1   1.0000     -20.639421      -561.6272
   2   1.0000     -20.570299      -559.7463
   3   1.0000     -11.428889      -310.9959
   4   1.0000      -9.020100      -245.4494
   5   1.0000      -6.716235      -182.7580
   6   1.0000      -6.697111      -182.2377
   7   1.0000      -6.695791      -182.2017
   8   1.0000      -1.498165       -40.7671
   9   1.0000      -1.395448       -37.9721
  10   1.0000      -1.063651       -28.9434
  11   1.0000      -0.848944       -23.1009
  12   1.0000      -0.730487       -19.8776
  13   1.0000      -0.694244       -18.8913
  14   1.0000      -0.666407       -18.1339
  15   1.0000      -0.594203       -16.1691
  16   1.0000      -0.519277       -14.1303
  17   1.0000      -0.503290       -13.6952
  18   1.0000      -0.462794       -12.5933
  19   1.0000      -0.423311       -11.5189
  20   0.0000       0.023822         0.6482
  21   0.0000       0.045425         1.2361
  22   0.0000       0.069488         1.8909
  23   0.0000       0.072657         1.9771
  24   0.0000       0.084419         2.2972

                 SPIN DOWN ORBITALS
  NO   OCC          E(Eh)            E(eV)
   0   1.0000     -92.008004     -2503.6651
   1   1.0000     -20.639093      -561.6183
   2   1.0000     -20.568477      -559.6967
   3   1.0000     -11.429840      -311.0218
   4   1.0000      -9.009646      -245.1649
   5   1.0000      -6.692388      -182.1091
   6   1.0000      -6.690163      -182.0486
   7   1.0000      -6.673475      -181.5945
   8   1.0000      -1.496350       -40.7178
   9   1.0000      -1.391623       -37.8680
  10   1.0000      -1.000796       -27.2330
  11   1.0000      -0.825208       -22.4551
  12   1.0000      -0.726419       -19.7669
  13   1.0000      -0.674452       -18.3528
  14   1.0000      -0.666072       -18.1247
  15   1.0000      -0.582522       -15.8512
  16   1.0000      -0.517574       -14.0839
  17   1.0000      -0.464478       -12.6391
  18   1.0000      -0.403207       -10.9718
  19   0.0000      -0.011123        -0.3027
  20   0.0000       0.024435         0.6649
  21   0.0000       0.046300         1.2599
  22   0.0000       0.072745         1.9795
  23   0.0000       0.076014         2.0684

MULLIKEN ATOMIC CHARGES AND SPIN POPULATIONS
--------------------------------------------
   0 S :    0.226305    1.087709
   1 C :    0.584823   -0.099391
   2 O :   -0.594848    0.018172
   3 O :   -0.556069   -0.005059
   4 H :    0.339789   -0.001431
Sum of atomic charges         :    0.0000000

LOEWDIN ATOMIC CHARGES AND SPIN POPULATIONS
-------------------------------------------
   0 S :    0.984501    0.742950
   1 C :   -1.794190    0.204080
   2 O :    0.528826    0.033959
   3 O :    1.105754    0.018634
   4 H :   -0.824892    0.000377

  Mayer bond orders larger than 0.100000
B(  0-S ,  1-C ) :   0.9851 B(  1-C ,  2-O ) :   1.6980 B(  1-C ,  3-O ) :   1.0276
B(  3-O ,  4-H ) :   0.8727

MP2 TOTAL ENERGY:     -586.636896288 Eh
FINAL SINGLE POINT ENERGY      -586.636896287748

DIPOLE MOMENT
-------------
                                X             Y             Z
Electronic contribution:     -0.61973      -1.78232      -0.00000
Nuclear contribution   :      1.30207       1.71893       0.00000
                        -----------------------------------------
Total Dipole Moment    :      0.68233      -0.06339      -0.00000
                        -----------------------------------------
Magnitude (a.u.)       :      0.68527
Magnitude (Debye)      :      1.74182

Rotational constants in cm-1:     0.407258     0.179287     0.124485
Rotational constants in MHz : 12209.301730  5374.883598  3731.965649

                             ****ORCA TERMINATED NORMALLY****
TOTAL RUN TIME: 0 days 0 hours 9 minutes 16 seconds 151 msec
