                         Program Version 5.0.4 -  RELEASE  -
|  1> ! ri-mp2 aug-cc-pvdz aug-cc-pvdz/c tightscf
|  2> %pal nprocs 16 end
|  3> %maxcore 3800
|  4> %base "DZ_P-N_34_AB"
|  5> %scf
|  6> STABPerform true
|  7> STABRestartUHFifUnstable true
|  8> end
|  9>
| 10> *xyz 0 1
| 11> C         0.994757   -0.752494    1.718843
| 12> N         0.295287   -0.152913    0.601458
| 13> H         1.785744   -0.097664    2.093605
| 14> H         1.443109   -1.721237    1.473585
| 15> H         0.281339   -0.908865    2.524584
| 16> P        -1.401124   -0.164780    0.512092
| 17> N         1.047154    0.230261   -0.523139
| 18> C         1.786376   -0.860665   -1.125469
| 19> H         1.117759   -1.701143   -1.299596
| 20> H         2.631681   -1.206643   -0.513141
| 21> H         2.182682   -0.530630   -2.085892
| 22> C         1.873153    1.392953   -0.270904
| 23> H         2.300833    1.735016   -1.213745
| 24> H         1.256988    2.189398    0.140450
| 25> H         2.703396    1.196852    0.423211
| 26> C        -1.746449   -1.091873   -1.036725
| 27> H        -1.176155   -0.696318   -1.878025
| 28> H        -2.810538   -1.016006   -1.265265
| 29> H        -1.509068   -2.146856   -0.900686
| 30> C        -1.753631    1.519453   -0.119654
| 31> H        -2.811366    1.589910   -0.376903
| 32> H        -1.544668    2.255497    0.655968
| 33> H        -1.157204    1.744715   -1.004317
| 34> *
| 35>
| 36> $new_job
| 37> ! ri-mp2 aug-cc-pvtz aug-cc-pvtz/c tightscf
| 38> %pal nprocs 16 end
| 39> %maxcore 3800
| 40> %base "TZ_P-N_34_AB"
| 41>
| 42> *xyz 0 1
| 43> C         0.994757   -0.752494    1.718843
| 44> N         0.295287   -0.152913    0.601458
| 45> H         1.785744   -0.097664    2.093605
| 46> H         1.443109   -1.721237    1.473585
| 47> H         0.281339   -0.908865    2.524584
| 48> P        -1.401124   -0.164780    0.512092
| 49> N         1.047154    0.230261   -0.523139
| 50> C         1.786376   -0.860665   -1.125469
| 51> H         1.117759   -1.701143   -1.299596
| 52> H         2.631681   -1.206643   -0.513141
| 53> H         2.182682   -0.530630   -2.085892
| 54> C         1.873153    1.392953   -0.270904
| 55> H         2.300833    1.735016   -1.213745
| 56> H         1.256988    2.189398    0.140450
| 57> H         2.703396    1.196852    0.423211
| 58> C        -1.746449   -1.091873   -1.036725
| 59> H        -1.176155   -0.696318   -1.878025
| 60> H        -2.810538   -1.016006   -1.265265
| 61> H        -1.509068   -2.146856   -0.900686
| 62> C        -1.753631    1.519453   -0.119654
| 63> H        -2.811366    1.589910   -0.376903
| 64> H        -1.544668    2.255497    0.655968
| 65> H        -1.157204    1.744715   -1.004317
| 66> *
| 67>
| 68> $new_job
| 69> ! ri-mp2 aug-cc-pvqz aug-cc-pvqz/c tightscf
| 70> %pal nprocs 16 end
| 71> %maxcore 3800
| 72> %base "QZ_P-N_34_AB"
| 73>
| 74> *xyz 0 1
| 75> C         0.994757   -0.752494    1.718843
| 76> N         0.295287   -0.152913    0.601458
| 77> H         1.785744   -0.097664    2.093605
| 78> H         1.443109   -1.721237    1.473585
| 79> H         0.281339   -0.908865    2.524584
| 80> P        -1.401124   -0.164780    0.512092
| 81> N         1.047154    0.230261   -0.523139
| 82> C         1.786376   -0.860665   -1.125469
| 83> H         1.117759   -1.701143   -1.299596
| 84> H         2.631681   -1.206643   -0.513141
| 85> H         2.182682   -0.530630   -2.085892
| 86> C         1.873153    1.392953   -0.270904
| 87> H         2.300833    1.735016   -1.213745
| 88> H         1.256988    2.189398    0.140450
| 89> H         2.703396    1.196852    0.423211
| 90> C        -1.746449   -1.091873   -1.036725
| 91> H        -1.176155   -0.696318   -1.878025
| 92> H        -2.810538   -1.016006   -1.265265
| 93> H        -1.509068   -2.146856   -0.900686
| 94> C        -1.753631    1.519453   -0.119654
| 95> H        -2.811366    1.589910   -0.376903
| 96> H        -1.544668    2.255497    0.655968
| 97> H        -1.157204    1.744715   -1.004317
| 98> *
| 99>
|100>
|101>
|102>
|103>                          ****END OF INPUT****
 Total Charge           Charge          ....    0
 Multiplicity           Mult            ....    1
 Number of Electrons    NEL             ....   74
MP2 TOTAL ENERGY:     -648.940106915 Eh
FINAL SINGLE POINT ENERGY      -648.940106915254
MP2 TOTAL ENERGY:     -649.283481700 Eh
FINAL SINGLE POINT ENERGY      -649.283481699939

CARTESIAN COORDINATES (ANGSTROEM)
---------------------------------
  C      0.994757   -0.752494    1.718843
  N      0.295287   -0.152913    0.601458
  H      1.785744   -0.097664    2.093605
  H      1.443109   -1.721237    1.473585
  H      0.281339   -0.908865    2.524584
  P     -1.401124   -0.164780    0.512092
  N      1.047154    0.230261   -0.523139
  C      1.786376   -0.860665   -1.125469
  H      1.117759   -1.701143   -1.299596
  H      2.631681   -1.206643   -0.513141
  H      2.182682   -0.530630   -2.085892
  C      1.873153    1.392953   -0.270904
  H      2.300833    1.735016   -1.213745
  H      1.256988    2.189398    0.140450
  H      2.703396    1.196852    0.423211
  C     -1.746449   -1.091873   -1.036725
  H     -1.176155   -0.696318   -1.878025
  H     -2.810538   -1.016006   -1.265265
  H     -1.509068   -2.146856   -0.900686
  C     -1.753631    1.519453   -0.119654
  H     -2.811366    1.589910   -0.376903
  H     -1.544668    2.255497    0.655968
  H     -1.157204    1.744715   -1.004317

 Multiplicity           Mult            ....    1
 Number of Electrons    NEL             ....   74
 Basis Dimension        Dim             .... 1334

ORBITAL ENERGIES
----------------

  NO   OCC          E(Eh)            E(eV)
   0   2.0000     -79.935631     -2175.1591
   1   2.0000     -15.574611      -423.8067
   2   2.0000     -15.559770      -423.4029
   3   2.0000     -11.242866      -305.9339
   4   2.0000     -11.242335      -305.9195
   5   2.0000     -11.241010      -305.8834
   6   2.0000     -11.204085      -304.8787
   7   2.0000     -11.203337      -304.8583
   8   2.0000      -7.473610      -203.3673
   9   2.0000      -5.368124      -146.0741
  10   2.0000      -5.367510      -146.0574
  11   2.0000      -5.367026      -146.0442
  12   2.0000      -1.298641       -35.3378
  13   2.0000      -1.107208       -30.1287
  14   2.0000      -0.993506       -27.0347
  15   2.0000      -0.959754       -26.1162
  16   2.0000      -0.924289       -25.1512
  17   2.0000      -0.920489       -25.0478
  18   2.0000      -0.823413       -22.4062
  19   2.0000      -0.721524       -19.6337
  20   2.0000      -0.654834       -17.8189
  21   2.0000      -0.641890       -17.4667
  22   2.0000      -0.641107       -17.4454
  23   2.0000      -0.583657       -15.8821
  24   2.0000      -0.577966       -15.7273
  25   2.0000      -0.575653       -15.6643
  26   2.0000      -0.559217       -15.2171
  27   2.0000      -0.546389       -14.8680
  28   2.0000      -0.544198       -14.8084
  29   2.0000      -0.539706       -14.6861
  30   2.0000      -0.535616       -14.5749
  31   2.0000      -0.515836       -14.0366
  32   2.0000      -0.494121       -13.4457
  33   2.0000      -0.463934       -12.6243
  34   2.0000      -0.368011       -10.0141
  35   2.0000      -0.352616        -9.5952
  36   2.0000      -0.326646        -8.8885
  37   0.0000       0.025639         0.6977
  38   0.0000       0.031657         0.8614
  39   0.0000       0.032593         0.8869
  40   0.0000       0.034031         0.9260
  41   0.0000       0.044383         1.2077

MULLIKEN ATOMIC CHARGES
-----------------------
   0 C :   -1.068396
   1 N :   -0.006237
   2 H :    0.320541
   3 H :    0.318157
   4 H :    0.313319
   5 P :    0.578841
   6 N :    0.133643
   7 C :   -1.081961
   8 H :    0.315008
   9 H :    0.305662
  10 H :    0.356389
  11 C :   -1.072799
  12 H :    0.356909
  13 H :    0.323432
  14 H :    0.313094
  15 C :   -1.113164
  16 H :    0.322305
  17 H :    0.299782
  18 H :    0.279229
  19 C :   -1.141692
  20 H :    0.322278
  21 H :    0.289584
  22 H :    0.336076
Sum of atomic charges:   -0.0000000

LOEWDIN ATOMIC CHARGES
----------------------
   0 C :    0.662266
   1 N :    0.082809
   2 H :   -0.302823
   3 H :   -0.296112
   4 H :   -0.343278
   5 P :    0.825017
   6 N :    0.242897
   7 C :    0.719861
   8 H :   -0.308811
   9 H :   -0.281496
  10 H :   -0.288732
  11 C :    0.724935
  12 H :   -0.291735
  13 H :   -0.301427
  14 H :   -0.283314
  15 C :    0.791991
  16 H :   -0.359004
  17 H :   -0.357156
  18 H :   -0.354393
  19 C :    0.788705
  20 H :   -0.356801
  21 H :   -0.354374
  22 H :   -0.359025

  Mayer bond orders larger than 0.100000
B(  0-C ,  1-N ) :   0.7190 B(  0-C ,  2-H ) :   0.9750 B(  0-C ,  3-H ) :   0.9943
B(  0-C ,  4-H ) :   0.9666 B(  1-N ,  5-P ) :   0.4027 B(  1-N ,  6-N ) :   0.5776
B(  5-P , 15-C ) :   0.8347 B(  5-P , 19-C ) :   0.8404 B(  6-N ,  7-C ) :   0.8694
B(  6-N , 11-C ) :   0.8805 B(  7-C ,  8-H ) :   0.9229 B(  7-C ,  9-H ) :   0.9690
B(  7-C , 10-H ) :   0.9230 B( 11-C , 12-H ) :   0.9184 B( 11-C , 13-H ) :   0.9280
B( 11-C , 14-H ) :   0.9636 B( 15-C , 16-H ) :   0.8755 B( 15-C , 17-H ) :   0.9837
B( 15-C , 18-H ) :   0.9138 B( 19-C , 20-H ) :   0.9634 B( 19-C , 21-H ) :   0.9117
B( 19-C , 22-H ) :   0.8690

MP2 TOTAL ENERGY:     -649.387628750 Eh
FINAL SINGLE POINT ENERGY      -649.387628750166

DIPOLE MOMENT
-------------
                                X             Y             Z
Electronic contribution:     -5.64330      -0.83404       3.53749
Nuclear contribution   :      6.25343       0.87368      -3.84666
                        -----------------------------------------
Total Dipole Moment    :      0.61013       0.03964      -0.30917
                        -----------------------------------------
Magnitude (a.u.)       :      0.68514
Magnitude (Debye)      :      1.74150

Rotational constants in cm-1:     0.074047     0.041194     0.040401
Rotational constants in MHz :  2219.880449  1234.958457  1211.190985

                             ****ORCA TERMINATED NORMALLY****
TOTAL RUN TIME: 0 days 4 hours 2 minutes 53 seconds 477 msec
