                         Program Version 5.0.4 -  RELEASE  -
|  1> ! ri-mp2 aug-cc-pvdz aug-cc-pvdz/c tightscf
|  2> %pal nprocs 16 end
|  3> %maxcore 3800
|  4> %base "DZ_P-S_26_AB"
|  5> %scf
|  6> STABPerform true
|  7> STABRestartUHFifUnstable true
|  8> end
|  9>
| 10> *xyz 0 1
| 11> S        -0.079637   -0.378144   -1.246709
| 12> P         1.304359    0.047761    0.238897
| 13> O         1.146483   -0.687923    1.485556
| 14> C        -1.641595   -0.648956   -0.300325
| 15> C        -1.623746   -1.981167    0.428663
| 16> H        -1.389014   -2.798332   -0.251778
| 17> H        -2.607477   -2.169063    0.863320
| 18> H        -0.885194   -1.971917    1.227693
| 19> C        -2.024065    0.512899    0.607738
| 20> C        -2.257218    1.832451   -0.106546
| 21> H        -1.269851    0.624685    1.388707
| 22> H        -2.942802    0.214477    1.120404
| 23> H        -1.353913    2.183921   -0.602819
| 24> H        -2.570321    2.601654    0.598880
| 25> H        -3.036380    1.737686   -0.865445
| 26> H        -2.360231   -0.696788   -1.122570
| 27> O         2.673764   -0.147942   -0.552923
| 28> H         2.938852   -1.071755   -0.630680
| 29> O         1.314210    1.616762    0.467261
| 30> H         1.389232    2.140789   -0.338150
| 31> *
| 32>
| 33> $new_job
| 34> ! ri-mp2 aug-cc-pvtz aug-cc-pvtz/c tightscf
| 35> %pal nprocs 16 end
| 36> %maxcore 3800
| 37> %base "TZ_P-S_26_AB"
| 38>
| 39> *xyz 0 1
| 40> S        -0.079637   -0.378144   -1.246709
| 41> P         1.304359    0.047761    0.238897
| 42> O         1.146483   -0.687923    1.485556
| 43> C        -1.641595   -0.648956   -0.300325
| 44> C        -1.623746   -1.981167    0.428663
| 45> H        -1.389014   -2.798332   -0.251778
| 46> H        -2.607477   -2.169063    0.863320
| 47> H        -0.885194   -1.971917    1.227693
| 48> C        -2.024065    0.512899    0.607738
| 49> C        -2.257218    1.832451   -0.106546
| 50> H        -1.269851    0.624685    1.388707
| 51> H        -2.942802    0.214477    1.120404
| 52> H        -1.353913    2.183921   -0.602819
| 53> H        -2.570321    2.601654    0.598880
| 54> H        -3.036380    1.737686   -0.865445
| 55> H        -2.360231   -0.696788   -1.122570
| 56> O         2.673764   -0.147942   -0.552923
| 57> H         2.938852   -1.071755   -0.630680
| 58> O         1.314210    1.616762    0.467261
| 59> H         1.389232    2.140789   -0.338150
| 60> *
| 61>
| 62> $new_job
| 63> ! ri-mp2 aug-cc-pvqz aug-cc-pvqz/c tightscf
| 64> %pal nprocs 16 end
| 65> %maxcore 3800
| 66> %base "QZ_P-S_26_AB"
| 67>
| 68> *xyz 0 1
| 69> S        -0.079637   -0.378144   -1.246709
| 70> P         1.304359    0.047761    0.238897
| 71> O         1.146483   -0.687923    1.485556
| 72> C        -1.641595   -0.648956   -0.300325
| 73> C        -1.623746   -1.981167    0.428663
| 74> H        -1.389014   -2.798332   -0.251778
| 75> H        -2.607477   -2.169063    0.863320
| 76> H        -0.885194   -1.971917    1.227693
| 77> C        -2.024065    0.512899    0.607738
| 78> C        -2.257218    1.832451   -0.106546
| 79> H        -1.269851    0.624685    1.388707
| 80> H        -2.942802    0.214477    1.120404
| 81> H        -1.353913    2.183921   -0.602819
| 82> H        -2.570321    2.601654    0.598880
| 83> H        -3.036380    1.737686   -0.865445
| 84> H        -2.360231   -0.696788   -1.122570
| 85> O         2.673764   -0.147942   -0.552923
| 86> H         2.938852   -1.071755   -0.630680
| 87> O         1.314210    1.616762    0.467261
| 88> H         1.389232    2.140789   -0.338150
| 89> *
| 90>
| 91>
| 92>
| 93>
| 94>                          ****END OF INPUT****
 Total Charge           Charge          ....    0
 Multiplicity           Mult            ....    1
 Number of Electrons    NEL             ....   90
MP2 TOTAL ENERGY:    -1122.351123299 Eh
FINAL SINGLE POINT ENERGY     -1122.351123299418
MP2 TOTAL ENERGY:    -1122.823868349 Eh
FINAL SINGLE POINT ENERGY     -1122.823868349422

CARTESIAN COORDINATES (ANGSTROEM)
---------------------------------
  S     -0.079637   -0.378144   -1.246709
  P      1.304359    0.047761    0.238897
  O      1.146483   -0.687923    1.485556
  C     -1.641595   -0.648956   -0.300325
  C     -1.623746   -1.981167    0.428663
  H     -1.389014   -2.798332   -0.251778
  H     -2.607477   -2.169063    0.863320
  H     -0.885194   -1.971917    1.227693
  C     -2.024065    0.512899    0.607738
  C     -2.257218    1.832451   -0.106546
  H     -1.269851    0.624685    1.388707
  H     -2.942802    0.214477    1.120404
  H     -1.353913    2.183921   -0.602819
  H     -2.570321    2.601654    0.598880
  H     -3.036380    1.737686   -0.865445
  H     -2.360231   -0.696788   -1.122570
  O      2.673764   -0.147942   -0.552923
  H      2.938852   -1.071755   -0.630680
  O      1.314210    1.616762    0.467261
  H      1.389232    2.140789   -0.338150

 Multiplicity           Mult            ....    1
 Number of Electrons    NEL             ....   90
 Basis Dimension        Dim             .... 1234

ORBITAL ENERGIES
----------------

  NO   OCC          E(Eh)            E(eV)
   0   2.0000     -91.961894     -2502.4103
   1   2.0000     -80.088771     -2179.3263
   2   2.0000     -20.608504      -560.7859
   3   2.0000     -20.604778      -560.6845
   4   2.0000     -20.509999      -558.1055
   5   2.0000     -11.277861      -306.8862
   6   2.0000     -11.229709      -305.5759
   7   2.0000     -11.217684      -305.2487
   8   2.0000     -11.215548      -305.1906
   9   2.0000      -8.966301      -243.9855
  10   2.0000      -7.609007      -207.0516
  11   2.0000      -6.647727      -180.8938
  12   2.0000      -6.646734      -180.8668
  13   2.0000      -6.646108      -180.8498
  14   2.0000      -5.507433      -149.8649
  15   2.0000      -5.506905      -149.8505
  16   2.0000      -5.505882      -149.8227
  17   2.0000      -1.446947       -39.3734
  18   2.0000      -1.391481       -37.8641
  19   2.0000      -1.307770       -35.5862
  20   2.0000      -1.114932       -30.3389
  21   2.0000      -1.011572       -27.5263
  22   2.0000      -0.966763       -26.3070
  23   2.0000      -0.873568       -23.7710
  24   2.0000      -0.846861       -23.0443
  25   2.0000      -0.788750       -21.4630
  26   2.0000      -0.766158       -20.8482
  27   2.0000      -0.674896       -18.3648
  28   2.0000      -0.648782       -17.6542
  29   2.0000      -0.643184       -17.5019
  30   2.0000      -0.607126       -16.5207
  31   2.0000      -0.603366       -16.4184
  32   2.0000      -0.598631       -16.2896
  33   2.0000      -0.586125       -15.9493
  34   2.0000      -0.575387       -15.6571
  35   2.0000      -0.560430       -15.2501
  36   2.0000      -0.531749       -14.4696
  37   2.0000      -0.511925       -13.9302
  38   2.0000      -0.506880       -13.7929
  39   2.0000      -0.497146       -13.5280
  40   2.0000      -0.486690       -13.2435
  41   2.0000      -0.475810       -12.9475
  42   2.0000      -0.457054       -12.4371
  43   2.0000      -0.426622       -11.6090
  44   2.0000      -0.379735       -10.3331
  45   0.0000       0.022221         0.6047
  46   0.0000       0.028600         0.7782
  47   0.0000       0.029368         0.7991
  48   0.0000       0.035220         0.9584
  49   0.0000       0.041694         1.1346

MULLIKEN ATOMIC CHARGES
-----------------------
   0 S :   -0.404569
   1 P :    2.561000
   2 O :   -1.238625
   3 C :    0.315186
   4 C :   -1.023418
   5 H :    0.252558
   6 H :    0.285303
   7 H :    0.289868
   8 C :   -0.474972
   9 C :   -0.915997
  10 H :    0.257368
  11 H :    0.309496
  12 H :    0.277779
  13 H :    0.256494
  14 H :    0.236424
  15 H :    0.307477
  16 O :   -1.154240
  17 H :    0.393541
  18 O :   -0.929583
  19 H :    0.398912
Sum of atomic charges:   -0.0000000

LOEWDIN ATOMIC CHARGES
----------------------
   0 S :    1.251202
   1 P :   -1.067076
   2 O :    0.307465
   3 C :   -0.269861
   4 C :    0.841214
   5 H :   -0.293848
   6 H :   -0.277332
   7 H :   -0.355977
   8 C :    0.418512
   9 C :    0.905401
  10 H :   -0.318626
  11 H :   -0.275429
  12 H :   -0.325023
  13 H :   -0.274961
  14 H :   -0.278583
  15 H :   -0.380222
  16 O :    1.054488
  17 H :   -0.864473
  18 O :    1.071137
  19 H :   -0.868009

  Mayer bond orders larger than 0.100000
B(  0-S ,  1-P ) :   1.0862 B(  0-S ,  3-C ) :   0.5926 B(  1-P ,  2-O ) :   1.2371
B(  1-P ,  3-C ) :  -0.1020 B(  1-P , 16-O ) :   0.3199 B(  1-P , 18-O ) :   0.5641
B(  3-C ,  4-C ) :   0.7723 B(  3-C ,  8-C ) :   0.7892 B(  3-C , 15-H ) :   0.8099
B(  4-C ,  5-H ) :   1.0344 B(  4-C ,  6-H ) :   0.9404 B(  4-C ,  7-H ) :   0.9456
B(  8-C ,  9-C ) :   0.8949 B(  8-C , 10-H ) :   0.9110 B(  8-C , 11-H ) :   0.8397
B(  9-C , 12-H ) :   0.9171 B(  9-C , 13-H ) :   1.0263 B(  9-C , 14-H ) :   0.9743
B( 16-O , 17-H ) :   0.8901 B( 18-O , 19-H ) :   0.8251

MP2 TOTAL ENERGY:    -1122.974059259 Eh
FINAL SINGLE POINT ENERGY     -1122.974059259370

DIPOLE MOMENT
-------------
                                X             Y             Z
Electronic contribution:     14.64230      -0.60105      -2.33776
Nuclear contribution   :    -15.14412       0.76868       1.21243
                        -----------------------------------------
Total Dipole Moment    :     -0.50182       0.16763      -1.12533
                        -----------------------------------------
Magnitude (a.u.)       :      1.24350
Magnitude (Debye)      :      3.16072

Rotational constants in cm-1:     0.056228     0.030378     0.026703
Rotational constants in MHz :  1685.666184   910.694980   800.549588

                             ****ORCA TERMINATED NORMALLY****
TOTAL RUN TIME: 0 days 4 hours 27 minutes 6 seconds 513 msec
