                         Program Version 5.0.4 -  RELEASE  -
|  1> ! ri-mp2 aug-cc-pvdz aug-cc-pvdz/c tightscf
|  2> %pal nprocs 16 end
|  3> %maxcore 3800
|  4> %base "DZ_B-F_45_A"
|  5> %scf
|  6> STABPerform true
|  7> STABRestartUHFifUnstable true
|  8> end
|  9>
| 10> *xyz 0 2
| 11> F         2.329077   -0.148769    0.000003
| 12> B         1.195503    0.501851   -0.000003
| 13> C        -1.241714   -0.032233   -0.000001
| 14> O        -2.396042    0.008843    0.000002
| 15> N        -0.045799   -0.149669   -0.000003
| 16> *
| 17>
| 18> $new_job
| 19> ! ri-mp2 aug-cc-pvtz aug-cc-pvtz/c tightscf
| 20> %pal nprocs 16 end
| 21> %maxcore 3800
| 22> %base "TZ_B-F_45_A"
| 23>
| 24> *xyz 0 2
| 25> F         2.329077   -0.148769    0.000003
| 26> B         1.195503    0.501851   -0.000003
| 27> C        -1.241714   -0.032233   -0.000001
| 28> O        -2.396042    0.008843    0.000002
| 29> N        -0.045799   -0.149669   -0.000003
| 30> *
| 31>
| 32> $new_job
| 33> ! ri-mp2 aug-cc-pvqz aug-cc-pvqz/c tightscf
| 34> %pal nprocs 16 end
| 35> %maxcore 3800
| 36> %base "QZ_B-F_45_A"
| 37>
| 38> *xyz 0 2
| 39> F         2.329077   -0.148769    0.000003
| 40> B         1.195503    0.501851   -0.000003
| 41> C        -1.241714   -0.032233   -0.000001
| 42> O        -2.396042    0.008843    0.000002
| 43> N        -0.045799   -0.149669   -0.000003
| 44> *
| 45>
| 46>
| 47>
| 48>
| 49>                          ****END OF INPUT****
 Total Charge           Charge          ....    0
 Multiplicity           Mult            ....    2
 Number of Electrons    NEL             ....   35
MP2 TOTAL ENERGY:     -292.115302374 Eh
FINAL SINGLE POINT ENERGY      -292.115302374190
MP2 TOTAL ENERGY:     -292.359513457 Eh
FINAL SINGLE POINT ENERGY      -292.359513457243

CARTESIAN COORDINATES (ANGSTROEM)
---------------------------------
  F      2.329077   -0.148769    0.000003
  B      1.195503    0.501851   -0.000003
  C     -1.241714   -0.032233   -0.000001
  O     -2.396042    0.008843    0.000002
  N     -0.045799   -0.149669   -0.000003

 Multiplicity           Mult            ....    2
 Number of Electrons    NEL             ....   35
 Basis Dimension        Dim             ....  400

ORBITAL ENERGIES
----------------
                 SPIN UP ORBITALS
  NO   OCC          E(Eh)            E(eV)
   0   1.0000     -26.328384      -716.4317
   1   1.0000     -20.642547      -561.7123
   2   1.0000     -15.605968      -424.6600
   3   1.0000     -11.437292      -311.2245
   4   1.0000      -7.729182      -210.3217
   5   1.0000      -1.648556       -44.8595
   6   1.0000      -1.504303       -40.9342
   7   1.0000      -1.292919       -35.1821
   8   1.0000      -0.891380       -24.2557
   9   1.0000      -0.791183       -21.5292
  10   1.0000      -0.757579       -20.6148
  11   1.0000      -0.718540       -19.5525
  12   1.0000      -0.705718       -19.2036
  13   1.0000      -0.679157       -18.4808
  14   1.0000      -0.676898       -18.4193
  15   1.0000      -0.522425       -14.2159
  16   1.0000      -0.491008       -13.3610
  17   1.0000      -0.373920       -10.1749
  18   0.0000       0.032549         0.8857
  19   0.0000       0.033404         0.9090
  20   0.0000       0.038024         1.0347
  21   0.0000       0.039732         1.0811
  22   0.0000       0.074749         2.0340

                 SPIN DOWN ORBITALS
  NO   OCC          E(Eh)            E(eV)
   0   1.0000     -26.324974      -716.3390
   1   1.0000     -20.641281      -561.6778
   2   1.0000     -15.605085      -424.6359
   3   1.0000     -11.436557      -311.2045
   4   1.0000      -7.707387      -209.7287
   5   1.0000      -1.638446       -44.5844
   6   1.0000      -1.501728       -40.8641
   7   1.0000      -1.287764       -35.0418
   8   1.0000      -0.875419       -23.8214
   9   1.0000      -0.777157       -21.1475
  10   1.0000      -0.752418       -20.4743
  11   1.0000      -0.704617       -19.1736
  12   1.0000      -0.691920       -18.8281
  13   1.0000      -0.677922       -18.4472
  14   1.0000      -0.668177       -18.1820
  15   1.0000      -0.498404       -13.5622
  16   1.0000      -0.492065       -13.3898
  17   0.0000       0.022405         0.6097
  18   0.0000       0.035389         0.9630
  19   0.0000       0.035545         0.9672
  20   0.0000       0.038993         1.0611
  21   0.0000       0.070743         1.9250

MULLIKEN ATOMIC CHARGES AND SPIN POPULATIONS
--------------------------------------------
   0 F :   -0.669054   -0.013376
   1 B :    0.908086    0.960349
   2 C :    1.094910    0.024390
   3 O :   -0.530486    0.024703
   4 N :   -0.803456    0.003934
Sum of atomic charges         :    0.0000000

LOEWDIN ATOMIC CHARGES AND SPIN POPULATIONS
-------------------------------------------
   0 F :    0.699907    0.150449
   1 B :   -0.971285    0.595808
   2 C :   -0.796198    0.062603
   3 O :    0.624041    0.025695
   4 N :    0.443535    0.165445

  Mayer bond orders larger than 0.100000
B(  0-F ,  1-B ) :   0.5202 B(  1-B ,  4-N ) :   1.0748 B(  2-C ,  3-O ) :   1.8516
B(  2-C ,  4-N ) :   2.0149 B(  3-O ,  4-N ) :   0.2432

MP2 TOTAL ENERGY:     -292.439426965 Eh
FINAL SINGLE POINT ENERGY      -292.439426964518

DIPOLE MOMENT
-------------
                                X             Y             Z
Electronic contribution:      3.03783       0.39895      -0.00000
Nuclear contribution   :     -3.02150      -0.23631      -0.00000
                        -----------------------------------------
Total Dipole Moment    :      0.01633       0.16264      -0.00000
                        -----------------------------------------
Magnitude (a.u.)       :      0.16346
Magnitude (Debye)      :      0.41548

Rotational constants in cm-1:     4.858780     0.073693     0.072592
Rotational constants in MHz : 145662.573501  2209.253259  2176.246295

                             ****ORCA TERMINATED NORMALLY****
TOTAL RUN TIME: 0 days 0 hours 12 minutes 12 seconds 75 msec
