                         Program Version 5.0.4 -  RELEASE  -
|  1> ! ri-mp2 aug-cc-pvdz aug-cc-pvdz/c tightscf
|  2> %pal nprocs 16 end
|  3> %maxcore 3800
|  4> %base "DZ_B-Si_70_AB"
|  5> %scf
|  6> STABPerform true
|  7> STABRestartUHFifUnstable true
|  8> end
|  9>
| 10> *xyz 0 1
| 11> C        -2.580193    0.530394   -1.017577
| 12> C        -1.085820    0.301594   -1.218908
| 13> C        -2.914194    0.778528    0.448306
| 14> H        -3.128852   -0.350418   -1.367415
| 15> H        -2.915321    1.370812   -1.629262
| 16> C        -2.407254   -0.355381    1.330915
| 17> H        -3.991249    0.904845    0.575857
| 18> H        -2.448777    1.716753    0.767885
| 19> C        -0.912667   -0.586491    1.134421
| 20> H        -2.947141   -1.275014    1.082556
| 21> H        -2.618674   -0.142337    2.381074
| 22> C        -0.562337   -0.838603   -0.336671
| 23> H        -0.580319   -1.423092    1.754017
| 24> H        -0.370006    0.298009    1.486084
| 25> H        -0.545054    1.221591   -0.976705
| 26> H        -0.880395    0.089293   -2.270576
| 27> B         2.408011    0.430730    0.094582
| 28> O         3.619464    0.287644    0.711144
| 29> O         1.948413    1.699760   -0.070350
| 30> H         2.557833    2.363868    0.275791
| 31> H         3.902919   -0.621121    0.832554
| 32> Si         1.281896   -1.121991   -0.574755
| 33> H        -1.063697   -1.763816   -0.647792
| 34> H         1.573443   -1.361222   -2.012421
| 35> H         1.700454   -2.353403    0.152745
| 36> *
| 37>
| 38> $new_job
| 39> ! ri-mp2 aug-cc-pvtz aug-cc-pvtz/c tightscf
| 40> %pal nprocs 16 end
| 41> %maxcore 3800
| 42> %base "TZ_B-Si_70_AB"
| 43>
| 44> *xyz 0 1
| 45> C        -2.580193    0.530394   -1.017577
| 46> C        -1.085820    0.301594   -1.218908
| 47> C        -2.914194    0.778528    0.448306
| 48> H        -3.128852   -0.350418   -1.367415
| 49> H        -2.915321    1.370812   -1.629262
| 50> C        -2.407254   -0.355381    1.330915
| 51> H        -3.991249    0.904845    0.575857
| 52> H        -2.448777    1.716753    0.767885
| 53> C        -0.912667   -0.586491    1.134421
| 54> H        -2.947141   -1.275014    1.082556
| 55> H        -2.618674   -0.142337    2.381074
| 56> C        -0.562337   -0.838603   -0.336671
| 57> H        -0.580319   -1.423092    1.754017
| 58> H        -0.370006    0.298009    1.486084
| 59> H        -0.545054    1.221591   -0.976705
| 60> H        -0.880395    0.089293   -2.270576
| 61> B         2.408011    0.430730    0.094582
| 62> O         3.619464    0.287644    0.711144
| 63> O         1.948413    1.699760   -0.070350
| 64> H         2.557833    2.363868    0.275791
| 65> H         3.902919   -0.621121    0.832554
| 66> Si         1.281896   -1.121991   -0.574755
| 67> H        -1.063697   -1.763816   -0.647792
| 68> H         1.573443   -1.361222   -2.012421
| 69> H         1.700454   -2.353403    0.152745
| 70> *
| 71>
| 72> $new_job
| 73> ! ri-mp2 aug-cc-pvqz aug-cc-pvqz/c tightscf
| 74> %pal nprocs 16 end
| 75> %maxcore 3800
| 76> %base "QZ_B-Si_70_AB"
| 77>
| 78> *xyz 0 1
| 79> C        -2.580193    0.530394   -1.017577
| 80> C        -1.085820    0.301594   -1.218908
| 81> C        -2.914194    0.778528    0.448306
| 82> H        -3.128852   -0.350418   -1.367415
| 83> H        -2.915321    1.370812   -1.629262
| 84> C        -2.407254   -0.355381    1.330915
| 85> H        -3.991249    0.904845    0.575857
| 86> H        -2.448777    1.716753    0.767885
| 87> C        -0.912667   -0.586491    1.134421
| 88> H        -2.947141   -1.275014    1.082556
| 89> H        -2.618674   -0.142337    2.381074
| 90> C        -0.562337   -0.838603   -0.336671
| 91> H        -0.580319   -1.423092    1.754017
| 92> H        -0.370006    0.298009    1.486084
| 93> H        -0.545054    1.221591   -0.976705
| 94> H        -0.880395    0.089293   -2.270576
| 95> B         2.408011    0.430730    0.094582
| 96> O         3.619464    0.287644    0.711144
| 97> O         1.948413    1.699760   -0.070350
| 98> H         2.557833    2.363868    0.275791
| 99> H         3.902919   -0.621121    0.832554
|100> Si         1.281896   -1.121991   -0.574755
|101> H        -1.063697   -1.763816   -0.647792
|102> H         1.573443   -1.361222   -2.012421
|103> H         1.700454   -2.353403    0.152745
|104> *
|105>
|106>
|107>
|108>
|109>                          ****END OF INPUT****
 Total Charge           Charge          ....    0
 Multiplicity           Mult            ....    1
 Number of Electrons    NEL             ....   86
MP2 TOTAL ENERGY:     -700.925573633 Eh
FINAL SINGLE POINT ENERGY      -700.925573632596
MP2 TOTAL ENERGY:     -701.336598635 Eh
FINAL SINGLE POINT ENERGY      -701.336598635350

CARTESIAN COORDINATES (ANGSTROEM)
---------------------------------
  C     -2.580193    0.530394   -1.017577
  C     -1.085820    0.301594   -1.218908
  C     -2.914194    0.778528    0.448306
  H     -3.128852   -0.350418   -1.367415
  H     -2.915321    1.370812   -1.629262
  C     -2.407254   -0.355381    1.330915
  H     -3.991249    0.904845    0.575857
  H     -2.448777    1.716753    0.767885
  C     -0.912667   -0.586491    1.134421
  H     -2.947141   -1.275014    1.082556
  H     -2.618674   -0.142337    2.381074
  C     -0.562337   -0.838603   -0.336671
  H     -0.580319   -1.423092    1.754017
  H     -0.370006    0.298009    1.486084
  H     -0.545054    1.221591   -0.976705
  H     -0.880395    0.089293   -2.270576
  B      2.408011    0.430730    0.094582
  O      3.619464    0.287644    0.711144
  O      1.948413    1.699760   -0.070350
  H      2.557833    2.363868    0.275791
  H      3.902919   -0.621121    0.832554
  Si     1.281896   -1.121991   -0.574755
  H     -1.063697   -1.763816   -0.647792
  H      1.573443   -1.361222   -2.012421
  H      1.700454   -2.353403    0.152745

 Multiplicity           Mult            ....    1
 Number of Electrons    NEL             ....   86
 Basis Dimension        Dim             .... 1494

ORBITAL ENERGIES
----------------

  NO   OCC          E(Eh)            E(eV)
   0   2.0000     -68.742072     -1870.5669
   1   2.0000     -20.573432      -559.8316
   2   2.0000     -20.566557      -559.6445
   3   2.0000     -11.215048      -305.1770
   4   2.0000     -11.209717      -305.0319
   5   2.0000     -11.209707      -305.0316
   6   2.0000     -11.208197      -304.9905
   7   2.0000     -11.207402      -304.9689
   8   2.0000     -11.204403      -304.8873
   9   2.0000      -7.635935      -207.7844
  10   2.0000      -6.094314      -165.8347
  11   2.0000      -4.200680      -114.3063
  12   2.0000      -4.200342      -114.2971
  13   2.0000      -4.199891      -114.2849
  14   2.0000      -1.389006       -37.7968
  15   2.0000      -1.347038       -36.6548
  16   2.0000      -1.112805       -30.2810
  17   2.0000      -1.000900       -27.2359
  18   2.0000      -0.999307       -27.1925
  19   2.0000      -0.827860       -22.5272
  20   2.0000      -0.826633       -22.4938
  21   2.0000      -0.775987       -21.1157
  22   2.0000      -0.750450       -20.4208
  23   2.0000      -0.741531       -20.1781
  24   2.0000      -0.689910       -18.7734
  25   2.0000      -0.637495       -17.3471
  26   2.0000      -0.605961       -16.4890
  27   2.0000      -0.597844       -16.2682
  28   2.0000      -0.596189       -16.2231
  29   2.0000      -0.584258       -15.8985
  30   2.0000      -0.575065       -15.6483
  31   2.0000      -0.564569       -15.3627
  32   2.0000      -0.526206       -14.3188
  33   2.0000      -0.519959       -14.1488
  34   2.0000      -0.504789       -13.7360
  35   2.0000      -0.491788       -13.3822
  36   2.0000      -0.479937       -13.0598
  37   2.0000      -0.478968       -13.0334
  38   2.0000      -0.461466       -12.5571
  39   2.0000      -0.447638       -12.1808
  40   2.0000      -0.424340       -11.5469
  41   2.0000      -0.412190       -11.2163
  42   2.0000      -0.384378       -10.4595
  43   0.0000       0.021611         0.5881
  44   0.0000       0.027957         0.7608
  45   0.0000       0.028753         0.7824
  46   0.0000       0.030840         0.8392
  47   0.0000       0.038943         1.0597

MULLIKEN ATOMIC CHARGES
-----------------------
   0 C :   -0.511785
   1 C :   -0.467886
   2 C :   -0.445020
   3 H :    0.137188
   4 H :    0.223527
   5 C :   -0.513925
   6 H :    0.259437
   7 H :    0.123072
   8 C :   -0.415409
   9 H :    0.129659
  10 H :    0.215893
  11 C :    0.346810
  12 H :    0.250820
  13 H :    0.160961
  14 H :    0.205516
  15 H :    0.262051
  16 B :    1.368274
  17 O :   -1.227271
  18 O :   -0.977116
  19 H :    0.312951
  20 H :    0.350241
  21 Si:    0.612149
  22 H :    0.292102
  23 H :   -0.338148
  24 H :   -0.354093
Sum of atomic charges:    0.0000000

LOEWDIN ATOMIC CHARGES
----------------------
   0 C :    0.539992
   1 C :    0.466813
   2 C :    0.534066
   3 H :   -0.261956
   4 H :   -0.256644
   5 C :    0.540069
   6 H :   -0.258665
   7 H :   -0.261462
   8 C :    0.465470
   9 H :   -0.261588
  10 H :   -0.256611
  11 C :    0.114463
  12 H :   -0.265089
  13 H :   -0.276992
  14 H :   -0.290174
  15 H :   -0.267054
  16 B :   -1.176834
  17 O :    1.311229
  18 O :    1.296655
  19 H :   -0.795801
  20 H :   -0.818398
  21 Si:    0.923235
  22 H :   -0.320177
  23 H :   -0.211825
  24 H :   -0.212722

  Mayer bond orders larger than 0.100000
B(  0-C ,  1-C ) :   0.7724 B(  0-C ,  2-C ) :   0.8908 B(  0-C ,  3-H ) :   1.0605
B(  0-C ,  4-H ) :   1.0087 B(  1-C , 11-C ) :   0.7753 B(  1-C , 14-H ) :   0.9522
B(  1-C , 15-H ) :   0.9337 B(  2-C ,  5-C ) :   0.8956 B(  2-C ,  6-H ) :   0.9549
B(  2-C ,  7-H ) :   1.0456 B(  5-C ,  8-C ) :   0.7951 B(  5-C ,  9-H ) :   1.0561
B(  5-C , 10-H ) :   1.0129 B(  8-C , 11-C ) :   0.6825 B(  8-C , 12-H ) :   0.9453
B(  8-C , 13-H ) :   0.9895 B( 11-C , 21-Si) :   0.7061 B( 11-C , 22-H ) :   0.8769
B( 11-C , 23-H ) :  -0.1269 B( 11-C , 24-H ) :  -0.1084 B( 16-B , 17-O ) :   0.4681
B( 16-B , 18-O ) :   0.3453 B( 16-B , 21-Si) :   0.7210 B( 17-O , 18-O ) :  -0.1700
B( 17-O , 20-H ) :   0.9354 B( 17-O , 21-Si) :  -0.1344 B( 18-O , 19-H ) :   0.9822
B( 21-Si, 23-H ) :   0.6711 B( 21-Si, 24-H ) :   0.6493

MP2 TOTAL ENERGY:     -701.465767593 Eh
FINAL SINGLE POINT ENERGY      -701.465767593232

DIPOLE MOMENT
-------------
                                X             Y             Z
Electronic contribution:     14.14114       1.50125      -0.10473
Nuclear contribution   :    -13.98258      -1.60706       0.38128
                        -----------------------------------------
Total Dipole Moment    :      0.15857      -0.10582       0.27655
                        -----------------------------------------
Magnitude (a.u.)       :      0.33589
Magnitude (Debye)      :      0.85376

Rotational constants in cm-1:     0.065884     0.019572     0.019105
Rotational constants in MHz :  1975.152375   586.765135   572.755231

                             ****ORCA TERMINATED NORMALLY****
TOTAL RUN TIME: 0 days 9 hours 30 minutes 50 seconds 316 msec
