                         Program Version 5.0.4 -  RELEASE  -
|  1> ! ri-mp2 aug-cc-pvdz aug-cc-pvdz/c tightscf
|  2> %pal nprocs 16 end
|  3> %maxcore 3800
|  4> %base "DZ_Si-Si_16_AB"
|  5> %scf
|  6> STABPerform true
|  7> STABRestartUHFifUnstable true
|  8> end
|  9>
| 10> *xyz 0 1
| 11> Si        -0.869636   -0.777476   -0.000002
| 12> Si         0.869636    0.777477   -0.000002
| 13> H         0.831454    1.626287   -1.205968
| 14> Cl         2.649462   -0.270200    0.000001
| 15> H         0.831448    1.626285    1.205966
| 16> Cl        -2.649463    0.270200    0.000002
| 17> H        -0.831447   -1.626285    1.205966
| 18> H        -0.831454   -1.626287   -1.205968
| 19> *
| 20>
| 21> $new_job
| 22> ! ri-mp2 aug-cc-pvtz aug-cc-pvtz/c tightscf
| 23> %pal nprocs 16 end
| 24> %maxcore 3800
| 25> %base "TZ_Si-Si_16_AB"
| 26>
| 27> *xyz 0 1
| 28> Si        -0.869636   -0.777476   -0.000002
| 29> Si         0.869636    0.777477   -0.000002
| 30> H         0.831454    1.626287   -1.205968
| 31> Cl         2.649462   -0.270200    0.000001
| 32> H         0.831448    1.626285    1.205966
| 33> Cl        -2.649463    0.270200    0.000002
| 34> H        -0.831447   -1.626285    1.205966
| 35> H        -0.831454   -1.626287   -1.205968
| 36> *
| 37>
| 38> $new_job
| 39> ! ri-mp2 aug-cc-pvqz aug-cc-pvqz/c tightscf
| 40> %pal nprocs 16 end
| 41> %maxcore 3800
| 42> %base "QZ_Si-Si_16_AB"
| 43>
| 44> *xyz 0 1
| 45> Si        -0.869636   -0.777476   -0.000002
| 46> Si         0.869636    0.777477   -0.000002
| 47> H         0.831454    1.626287   -1.205968
| 48> Cl         2.649462   -0.270200    0.000001
| 49> H         0.831448    1.626285    1.205966
| 50> Cl        -2.649463    0.270200    0.000002
| 51> H        -0.831447   -1.626285    1.205966
| 52> H        -0.831454   -1.626287   -1.205968
| 53> *
| 54>
| 55>
| 56>
| 57>
| 58>                          ****END OF INPUT****
 Total Charge           Charge          ....    0
 Multiplicity           Mult            ....    1
 Number of Electrons    NEL             ....   66
MP2 TOTAL ENERGY:    -1499.798745018 Eh
FINAL SINGLE POINT ENERGY     -1499.798745018474
MP2 TOTAL ENERGY:    -1499.996887937 Eh
FINAL SINGLE POINT ENERGY     -1499.996887937008

CARTESIAN COORDINATES (ANGSTROEM)
---------------------------------
  Si    -0.869636   -0.777476   -0.000002
  Si     0.869636    0.777477   -0.000002
  H      0.831454    1.626287   -1.205968
  Cl     2.649462   -0.270200    0.000001
  H      0.831448    1.626285    1.205966
  Cl    -2.649463    0.270200    0.000002
  H     -0.831447   -1.626285    1.205966
  H     -0.831454   -1.626287   -1.205968

 Multiplicity           Mult            ....    1
 Number of Electrons    NEL             ....   66
 Basis Dimension        Dim             ....  520

ORBITAL ENERGIES
----------------

  NO   OCC          E(Eh)            E(eV)
   0   2.0000    -104.835401     -2852.7163
   1   2.0000    -104.835401     -2852.7163
   2   2.0000     -68.823030     -1872.7699
   3   2.0000     -68.823028     -1872.7698
   4   2.0000     -10.562667      -287.4248
   5   2.0000     -10.562667      -287.4248
   6   2.0000      -8.029467      -218.4929
   7   2.0000      -8.029467      -218.4929
   8   2.0000      -8.028331      -218.4620
   9   2.0000      -8.028331      -218.4620
  10   2.0000      -8.028329      -218.4619
  11   2.0000      -8.028329      -218.4619
  12   2.0000      -6.169280      -167.8746
  13   2.0000      -6.169129      -167.8705
  14   2.0000      -4.276009      -116.3561
  15   2.0000      -4.275982      -116.3554
  16   2.0000      -4.275219      -116.3346
  17   2.0000      -4.274923      -116.3266
  18   2.0000      -4.274839      -116.3243
  19   2.0000      -4.274572      -116.3170
  20   2.0000      -1.105046       -30.0698
  21   2.0000      -1.102746       -30.0073
  22   2.0000      -0.762332       -20.7441
  23   2.0000      -0.689497       -18.7622
  24   2.0000      -0.548429       -14.9235
  25   2.0000      -0.545092       -14.8327
  26   2.0000      -0.527444       -14.3525
  27   2.0000      -0.524526       -14.2731
  28   2.0000      -0.514024       -13.9873
  29   2.0000      -0.480345       -13.0708
  30   2.0000      -0.458977       -12.4894
  31   2.0000      -0.458471       -12.4756
  32   2.0000      -0.404757       -11.0140
  33   0.0000       0.028615         0.7787
  34   0.0000       0.029655         0.8070
  35   0.0000       0.035351         0.9619
  36   0.0000       0.040607         1.1050
  37   0.0000       0.048875         1.3299

MULLIKEN ATOMIC CHARGES
-----------------------
   0 Si:    0.931392
   1 Si:    0.931392
   2 H :   -0.173242
   3 Cl:   -0.584907
   4 H :   -0.173242
   5 Cl:   -0.584907
   6 H :   -0.173243
   7 H :   -0.173242
Sum of atomic charges:    0.0000000

LOEWDIN ATOMIC CHARGES
----------------------
   0 Si:   -0.143947
   1 Si:   -0.143947
   2 H :   -0.340624
   3 Cl:    0.825195
   4 H :   -0.340624
   5 Cl:    0.825194
   6 H :   -0.340623
   7 H :   -0.340624

  Mayer bond orders larger than 0.100000
B(  0-Si,  1-Si) :   0.8045 B(  0-Si,  5-Cl) :   0.5175 B(  0-Si,  6-H ) :   0.8589
B(  0-Si,  7-H ) :   0.8589 B(  1-Si,  2-H ) :   0.8589 B(  1-Si,  3-Cl) :   0.5175
B(  1-Si,  4-H ) :   0.8589

MP2 TOTAL ENERGY:    -1500.064107692 Eh
FINAL SINGLE POINT ENERGY     -1500.064107691948

DIPOLE MOMENT
-------------
                                X             Y             Z
Electronic contribution:     -0.00000       0.00000       0.00000
Nuclear contribution   :      0.00000      -0.00000      -0.00001
                        -----------------------------------------
Total Dipole Moment    :      0.00000       0.00000      -0.00000
                        -----------------------------------------
Magnitude (a.u.)       :      0.00000
Magnitude (Debye)      :      0.00001

Rotational constants in cm-1:     0.303468     0.030707     0.028437
Rotational constants in MHz :  9097.755641   920.584647   852.531455

                             ****ORCA TERMINATED NORMALLY****
TOTAL RUN TIME: 0 days 0 hours 14 minutes 39 seconds 46 msec
