                         Program Version 5.0.4 -  RELEASE  -
|  1> ! ri-mp2 aug-cc-pvdz aug-cc-pvdz/c tightscf
|  2> %pal nprocs 16 end
|  3> %maxcore 3800
|  4> %base "DZ_Si-Si_145_A"
|  5> %scf
|  6> STABPerform true
|  7> STABRestartUHFifUnstable true
|  8> end
|  9>
| 10> *xyz 0 2
| 11> Si        -2.411993    0.477661    0.094894
| 12> P         0.437722   -0.465376   -0.122151
| 13> O         0.703071    1.040272    0.267512
| 14> O         1.048459   -1.289128    1.091045
| 15> H         1.507644   -2.077916    0.782039
| 16> O         0.934195   -0.900832   -1.420058
| 17> O        -1.107081   -0.553525    0.106587
| 18> H        -2.270259    1.432973   -1.029689
| 19> H        -3.596955   -0.393466   -0.072227
| 20> C         1.998457    1.610881    0.066162
| 21> H         1.896514    2.679289    0.230912
| 22> H         2.340570    1.418372   -0.949381
| 23> H         2.704664    1.194553    0.784446
| 24> *
| 25>
| 26> $new_job
| 27> ! ri-mp2 aug-cc-pvtz aug-cc-pvtz/c tightscf
| 28> %pal nprocs 16 end
| 29> %maxcore 3800
| 30> %base "TZ_Si-Si_145_A"
| 31>
| 32> *xyz 0 2
| 33> Si        -2.411993    0.477661    0.094894
| 34> P         0.437722   -0.465376   -0.122151
| 35> O         0.703071    1.040272    0.267512
| 36> O         1.048459   -1.289128    1.091045
| 37> H         1.507644   -2.077916    0.782039
| 38> O         0.934195   -0.900832   -1.420058
| 39> O        -1.107081   -0.553525    0.106587
| 40> H        -2.270259    1.432973   -1.029689
| 41> H        -3.596955   -0.393466   -0.072227
| 42> C         1.998457    1.610881    0.066162
| 43> H         1.896514    2.679289    0.230912
| 44> H         2.340570    1.418372   -0.949381
| 45> H         2.704664    1.194553    0.784446
| 46> *
| 47>
| 48> $new_job
| 49> ! ri-mp2 aug-cc-pvqz aug-cc-pvqz/c tightscf
| 50> %pal nprocs 16 end
| 51> %maxcore 3800
| 52> %base "QZ_Si-Si_145_A"
| 53>
| 54> *xyz 0 2
| 55> Si        -2.411993    0.477661    0.094894
| 56> P         0.437722   -0.465376   -0.122151
| 57> O         0.703071    1.040272    0.267512
| 58> O         1.048459   -1.289128    1.091045
| 59> H         1.507644   -2.077916    0.782039
| 60> O         0.934195   -0.900832   -1.420058
| 61> O        -1.107081   -0.553525    0.106587
| 62> H        -2.270259    1.432973   -1.029689
| 63> H        -3.596955   -0.393466   -0.072227
| 64> C         1.998457    1.610881    0.066162
| 65> H         1.896514    2.679289    0.230912
| 66> H         2.340570    1.418372   -0.949381
| 67> H         2.704664    1.194553    0.784446
| 68> *
| 69>
| 70>
| 71>
| 72>
| 73>                          ****END OF INPUT****
 Total Charge           Charge          ....    0
 Multiplicity           Mult            ....    2
 Number of Electrons    NEL             ....   73
MP2 TOTAL ENERGY:     -971.759950078 Eh
FINAL SINGLE POINT ENERGY      -971.759950078235
MP2 TOTAL ENERGY:     -972.179910462 Eh
FINAL SINGLE POINT ENERGY      -972.179910462089

CARTESIAN COORDINATES (ANGSTROEM)
---------------------------------
  Si    -2.411993    0.477661    0.094894
  P      0.437722   -0.465376   -0.122151
  O      0.703071    1.040272    0.267512
  O      1.048459   -1.289128    1.091045
  H      1.507644   -2.077916    0.782039
  O      0.934195   -0.900832   -1.420058
  O     -1.107081   -0.553525    0.106587
  H     -2.270259    1.432973   -1.029689
  H     -3.596955   -0.393466   -0.072227
  C      1.998457    1.610881    0.066162
  H      1.896514    2.679289    0.230912
  H      2.340570    1.418372   -0.949381
  H      2.704664    1.194553    0.784446

 Multiplicity           Mult            ....    2
 Number of Electrons    NEL             ....   73
 Basis Dimension        Dim             ....  844

ORBITAL ENERGIES
----------------
                 SPIN UP ORBITALS
  NO   OCC          E(Eh)            E(eV)
   0   1.0000     -80.094379     -2179.4788
   1   1.0000     -68.824067     -1872.7981
   2   1.0000     -20.601319      -560.5904
   3   1.0000     -20.596477      -560.4586
   4   1.0000     -20.590790      -560.3039
   5   1.0000     -20.506484      -558.0098
   6   1.0000     -11.298516      -307.4483
   7   1.0000      -7.612057      -207.1346
   8   1.0000      -6.169040      -167.8681
   9   1.0000      -5.511144      -149.9658
  10   1.0000      -5.510859      -149.9581
  11   1.0000      -5.509563      -149.9228
  12   1.0000      -4.281000      -116.4919
  13   1.0000      -4.272469      -116.2598
  14   1.0000      -4.271449      -116.2320
  15   1.0000      -1.463923       -39.8354
  16   1.0000      -1.393906       -37.9301
  17   1.0000      -1.383465       -37.6460
  18   1.0000      -1.300812       -35.3969
  19   1.0000      -0.975997       -26.5582
  20   1.0000      -0.857770       -23.3411
  21   1.0000      -0.776914       -21.1409
  22   1.0000      -0.733948       -19.9717
  23   1.0000      -0.682274       -18.5656
  24   1.0000      -0.673513       -18.3272
  25   1.0000      -0.657069       -17.8798
  26   1.0000      -0.637184       -17.3387
  27   1.0000      -0.615144       -16.7389
  28   1.0000      -0.592169       -16.1137
  29   1.0000      -0.568162       -15.4605
  30   1.0000      -0.560170       -15.2430
  31   1.0000      -0.527803       -14.3623
  32   1.0000      -0.503051       -13.6887
  33   1.0000      -0.495144       -13.4736
  34   1.0000      -0.472000       -12.8438
  35   1.0000      -0.467190       -12.7129
  36   1.0000      -0.348663        -9.4876
  37   0.0000       0.022896         0.6230
  38   0.0000       0.029781         0.8104
  39   0.0000       0.032434         0.8826
  40   0.0000       0.043881         1.1941
  41   0.0000       0.045709         1.2438

                 SPIN DOWN ORBITALS
  NO   OCC          E(Eh)            E(eV)
   0   1.0000     -80.094405     -2179.4796
   1   1.0000     -68.818298     -1872.6411
   2   1.0000     -20.601358      -560.5914
   3   1.0000     -20.596499      -560.4592
   4   1.0000     -20.588047      -560.2292
   5   1.0000     -20.506378      -558.0069
   6   1.0000     -11.298530      -307.4486
   7   1.0000      -7.612091      -207.1355
   8   1.0000      -6.159818      -167.6172
   9   1.0000      -5.511173      -149.9666
  10   1.0000      -5.510888      -149.9589
  11   1.0000      -5.509598      -149.9238
  12   1.0000      -4.268867      -116.1618
  13   1.0000      -4.267930      -116.1363
  14   1.0000      -4.259528      -115.9076
  15   1.0000      -1.462281       -39.7907
  16   1.0000      -1.393970       -37.9318
  17   1.0000      -1.377849       -37.4932
  18   1.0000      -1.300183       -35.3798
  19   1.0000      -0.975884       -26.5552
  20   1.0000      -0.852034       -23.1850
  21   1.0000      -0.767493       -20.8845
  22   1.0000      -0.733381       -19.9563
  23   1.0000      -0.678316       -18.4579
  24   1.0000      -0.664858       -18.0917
  25   1.0000      -0.654068       -17.7981
  26   1.0000      -0.627387       -17.0721
  27   1.0000      -0.601237       -16.3605
  28   1.0000      -0.584399       -15.9023
  29   1.0000      -0.562350       -15.3023
  30   1.0000      -0.554495       -15.0886
  31   1.0000      -0.527015       -14.3408
  32   1.0000      -0.502918       -13.6851
  33   1.0000      -0.482465       -13.1285
  34   1.0000      -0.468511       -12.7488
  35   1.0000      -0.466602       -12.6969
  36   0.0000       0.020790         0.5657
  37   0.0000       0.028565         0.7773
  38   0.0000       0.031985         0.8703
  39   0.0000       0.032905         0.8954
  40   0.0000       0.046063         1.2535

MULLIKEN ATOMIC CHARGES AND SPIN POPULATIONS
--------------------------------------------
   0 Si:    0.833378    0.940129
   1 P :    2.785233   -0.003642
   2 O :   -0.909819   -0.002443
   3 O :   -0.930157   -0.000896
   4 H :    0.377482    0.000309
   5 O :   -1.133280    0.001959
   6 O :   -0.981805   -0.027736
   7 H :   -0.190998    0.046659
   8 H :   -0.219341    0.045279
   9 C :   -0.678134    0.000122
  10 H :    0.404977    0.000255
  11 H :    0.338757    0.000119
  12 H :    0.303707   -0.000113
Sum of atomic charges         :   -0.0000000

LOEWDIN ATOMIC CHARGES AND SPIN POPULATIONS
-------------------------------------------
   0 Si:    0.738527    0.573211
   1 P :   -1.178453    0.024796
   2 O :    0.654246    0.005602
   3 O :    1.097724   -0.000130
   4 H :   -0.870044    0.000143
   5 O :    0.313998    0.001894
   6 O :    0.357012    0.125719
   7 H :   -0.337677    0.133594
   8 H :   -0.360907    0.133858
   9 C :    0.547082    0.000906
  10 H :   -0.321639    0.000188
  11 H :   -0.329005    0.000093
  12 H :   -0.310865    0.000127

  Mayer bond orders larger than 0.100000
B(  0-Si,  6-O ) :   0.4563 B(  0-Si,  7-H ) :   0.9021 B(  0-Si,  8-H ) :   0.8965
B(  1-P ,  2-O ) :   0.6565 B(  1-P ,  3-O ) :   0.5386 B(  1-P ,  5-O ) :   1.3555
B(  1-P ,  6-O ) :   0.5115 B(  2-O ,  9-C ) :   0.9201 B(  3-O ,  4-H ) :   0.9313
B(  9-C , 10-H ) :   0.8466 B(  9-C , 11-H ) :   0.8736 B(  9-C , 12-H ) :   0.8918

MP2 TOTAL ENERGY:     -972.313876560 Eh
FINAL SINGLE POINT ENERGY      -972.313876559862

DIPOLE MOMENT
-------------
                                X             Y             Z
Electronic contribution:     -2.09181      -3.96658       0.88675
Nuclear contribution   :      2.27012       4.50910      -0.13856
                        -----------------------------------------
Total Dipole Moment    :      0.17831       0.54252       0.74819
                        -----------------------------------------
Magnitude (a.u.)       :      0.94123
Magnitude (Debye)      :      2.39241

Rotational constants in cm-1:     0.093887     0.045537     0.038597
Rotational constants in MHz :  2814.671414  1365.176302  1157.100504

                             ****ORCA TERMINATED NORMALLY****
TOTAL RUN TIME: 0 days 2 hours 5 minutes 4 seconds 437 msec
