                         Program Version 5.0.4 -  RELEASE  -
|  1> ! ri-mp2 aug-cc-pvdz aug-cc-pvdz/c tightscf
|  2> %pal nprocs 16 end
|  3> %maxcore 3800
|  4> %base "DZ_P-Si_58_AB"
|  5> %scf
|  6> STABPerform true
|  7> STABRestartUHFifUnstable true
|  8> end
|  9>
| 10> *xyz 0 1
| 11> P        -1.373741   -0.816400   -0.183798
| 12> C        -2.371026    0.721038    0.103984
| 13> H        -2.068700    1.559979   -0.519170
| 14> H        -2.265738    1.010031    1.149041
| 15> H        -3.423143    0.508802   -0.078296
| 16> Si         0.711857   -0.009498    0.040454
| 17> C         1.147985    1.503758   -0.922318
| 18> H         0.520010    2.347420   -0.636689
| 19> H         1.034048    1.331195   -1.992259
| 20> H         2.186574    1.775903   -0.728285
| 21> O         1.743049   -1.195328   -0.443891
| 22> H        -1.367369   -0.825337   -1.597802
| 23> H         1.541932   -2.108845   -0.234394
| 24> O         0.898565    0.403809    1.623135
| 25> H         0.687833   -0.236797    2.304515
| 26> *
| 27>
| 28> $new_job
| 29> ! ri-mp2 aug-cc-pvtz aug-cc-pvtz/c tightscf
| 30> %pal nprocs 16 end
| 31> %maxcore 3800
| 32> %base "TZ_P-Si_58_AB"
| 33>
| 34> *xyz 0 1
| 35> P        -1.373741   -0.816400   -0.183798
| 36> C        -2.371026    0.721038    0.103984
| 37> H        -2.068700    1.559979   -0.519170
| 38> H        -2.265738    1.010031    1.149041
| 39> H        -3.423143    0.508802   -0.078296
| 40> Si         0.711857   -0.009498    0.040454
| 41> C         1.147985    1.503758   -0.922318
| 42> H         0.520010    2.347420   -0.636689
| 43> H         1.034048    1.331195   -1.992259
| 44> H         2.186574    1.775903   -0.728285
| 45> O         1.743049   -1.195328   -0.443891
| 46> H        -1.367369   -0.825337   -1.597802
| 47> H         1.541932   -2.108845   -0.234394
| 48> O         0.898565    0.403809    1.623135
| 49> H         0.687833   -0.236797    2.304515
| 50> *
| 51>
| 52> $new_job
| 53> ! ri-mp2 aug-cc-pvqz aug-cc-pvqz/c tightscf
| 54> %pal nprocs 16 end
| 55> %maxcore 3800
| 56> %base "QZ_P-Si_58_AB"
| 57>
| 58> *xyz 0 1
| 59> P        -1.373741   -0.816400   -0.183798
| 60> C        -2.371026    0.721038    0.103984
| 61> H        -2.068700    1.559979   -0.519170
| 62> H        -2.265738    1.010031    1.149041
| 63> H        -3.423143    0.508802   -0.078296
| 64> Si         0.711857   -0.009498    0.040454
| 65> C         1.147985    1.503758   -0.922318
| 66> H         0.520010    2.347420   -0.636689
| 67> H         1.034048    1.331195   -1.992259
| 68> H         2.186574    1.775903   -0.728285
| 69> O         1.743049   -1.195328   -0.443891
| 70> H        -1.367369   -0.825337   -1.597802
| 71> H         1.541932   -2.108845   -0.234394
| 72> O         0.898565    0.403809    1.623135
| 73> H         0.687833   -0.236797    2.304515
| 74> *
| 75>
| 76>
| 77>
| 78>
| 79>                          ****END OF INPUT****
 Total Charge           Charge          ....    0
 Multiplicity           Mult            ....    1
 Number of Electrons    NEL             ....   66
MP2 TOTAL ENERGY:     -861.460446238 Eh
FINAL SINGLE POINT ENERGY      -861.460446238234
MP2 TOTAL ENERGY:     -861.764397675 Eh
FINAL SINGLE POINT ENERGY      -861.764397674559

CARTESIAN COORDINATES (ANGSTROEM)
---------------------------------
  P     -1.373741   -0.816400   -0.183798
  C     -2.371026    0.721038    0.103984
  H     -2.068700    1.559979   -0.519170
  H     -2.265738    1.010031    1.149041
  H     -3.423143    0.508802   -0.078296
  Si     0.711857   -0.009498    0.040454
  C      1.147985    1.503758   -0.922318
  H      0.520010    2.347420   -0.636689
  H      1.034048    1.331195   -1.992259
  H      2.186574    1.775903   -0.728285
  O      1.743049   -1.195328   -0.443891
  H     -1.367369   -0.825337   -1.597802
  H      1.541932   -2.108845   -0.234394
  O      0.898565    0.403809    1.623135
  H      0.687833   -0.236797    2.304515

 Multiplicity           Mult            ....    1
 Number of Electrons    NEL             ....   66
 Basis Dimension        Dim             ....  902

ORBITAL ENERGIES
----------------

  NO   OCC          E(Eh)            E(eV)
   0   2.0000     -79.921367     -2174.7710
   1   2.0000     -68.799856     -1872.1393
   2   2.0000     -20.554190      -559.3080
   3   2.0000     -20.553661      -559.2936
   4   2.0000     -11.230584      -305.5997
   5   2.0000     -11.199661      -304.7583
   6   2.0000      -7.466089      -203.1626
   7   2.0000      -6.141423      -167.1166
   8   2.0000      -5.360348      -145.8625
   9   2.0000      -5.359967      -145.8521
  10   2.0000      -5.359309      -145.8342
  11   2.0000      -4.248960      -115.6201
  12   2.0000      -4.248751      -115.6144
  13   2.0000      -4.248089      -115.5964
  14   2.0000      -1.351770       -36.7835
  15   2.0000      -1.330907       -36.2158
  16   2.0000      -0.981702       -26.7135
  17   2.0000      -0.947635       -25.7864
  18   2.0000      -0.795786       -21.6544
  19   2.0000      -0.744858       -20.2686
  20   2.0000      -0.704628       -19.1739
  21   2.0000      -0.609194       -16.5770
  22   2.0000      -0.584190       -15.8966
  23   2.0000      -0.581163       -15.8143
  24   2.0000      -0.561029       -15.2664
  25   2.0000      -0.551799       -15.0152
  26   2.0000      -0.549225       -14.9452
  27   2.0000      -0.539602       -14.6833
  28   2.0000      -0.502422       -13.6716
  29   2.0000      -0.489777       -13.3275
  30   2.0000      -0.484036       -13.1713
  31   2.0000      -0.421545       -11.4708
  32   2.0000      -0.340439        -9.2638
  33   0.0000       0.022350         0.6082
  34   0.0000       0.030668         0.8345
  35   0.0000       0.035228         0.9586
  36   0.0000       0.037398         1.0177
  37   0.0000       0.048033         1.3071

MULLIKEN ATOMIC CHARGES
-----------------------
   0 P :    0.076343
   1 C :   -1.091996
   2 H :    0.297624
   3 H :    0.260646
   4 H :    0.394951
   5 Si:    1.755957
   6 C :   -1.042036
   7 H :    0.270020
   8 H :    0.272968
   9 H :    0.302361
  10 O :   -1.097423
  11 H :   -0.099746
  12 H :    0.356118
  13 O :   -1.010589
  14 H :    0.354801
Sum of atomic charges:   -0.0000000

LOEWDIN ATOMIC CHARGES
----------------------
   0 P :    1.225031
   1 C :    0.677607
   2 H :   -0.364703
   3 H :   -0.373073
   4 H :   -0.371661
   5 Si:   -0.648220
   6 C :    0.946005
   7 H :   -0.354742
   8 H :   -0.350335
   9 H :   -0.343917
  10 O :    1.112339
  11 H :   -0.491075
  12 H :   -0.894011
  13 O :    1.116093
  14 H :   -0.885339

  Mayer bond orders larger than 0.100000
B(  0-P ,  1-C ) :   0.8628 B(  0-P ,  5-Si) :   0.9382 B(  0-P , 11-H ) :   0.9480
B(  1-C ,  2-H ) :   0.8942 B(  1-C ,  3-H ) :   0.9202 B(  1-C ,  4-H ) :   0.8434
B(  5-Si,  6-C ) :   0.7984 B(  5-Si, 10-O ) :   0.4456 B(  5-Si, 13-O ) :   0.6138
B(  6-C ,  7-H ) :   0.9546 B(  6-C ,  8-H ) :   0.9625 B(  6-C ,  9-H ) :   0.9293
B( 10-O , 12-H ) :   0.9077 B( 13-O , 14-H ) :   0.9157

MP2 TOTAL ENERGY:     -861.860187461 Eh
FINAL SINGLE POINT ENERGY      -861.860187461392

DIPOLE MOMENT
-------------
                                X             Y             Z
Electronic contribution:      1.41893      -6.22226       2.25140
Nuclear contribution   :     -1.84485       6.11814      -2.13872
                        -----------------------------------------
Total Dipole Moment    :     -0.42592      -0.10412       0.11267
                        -----------------------------------------
Magnitude (a.u.)       :      0.45271
Magnitude (Debye)      :      1.15070

Rotational constants in cm-1:     0.099275     0.052590     0.048292
Rotational constants in MHz :  2976.203785  1576.607976  1447.772024

                             ****ORCA TERMINATED NORMALLY****
TOTAL RUN TIME: 0 days 1 hours 13 minutes 0 seconds 474 msec
