                         Program Version 5.0.4 -  RELEASE  -
|  1> ! ri-mp2 aug-cc-pvdz aug-cc-pvdz/c tightscf
|  2> %pal nprocs 16 end
|  3> %maxcore 3800
|  4> %base "DZ_P-Cl_21_AB"
|  5>
|  6> *xyz 0 1
|  7> Cl         3.353148    0.193978    0.049785
|  8> P         1.492971    0.142609   -0.880454
|  9> C         0.511117   -0.218454    0.675136
| 10> N         0.689418   -1.559651    1.181684
| 11> H         1.645160   -1.867967    1.073508
| 12> H         0.435215   -1.635202    2.158044
| 13> C        -0.976818   -0.015226    0.480545
| 14> F        -1.646495   -0.199850    1.616815
| 15> N        -1.336981    1.405132    0.020486
| 16> O        -2.153887    1.520461   -0.851940
| 17> O        -0.782423    2.283126    0.630867
| 18> N        -1.541412   -0.969167   -0.565492
| 19> O        -2.524307   -1.587692   -0.293048
| 20> O        -0.907323   -0.996978   -1.595665
| 21> H         1.591480   -1.196104   -1.300544
| 22> H         0.809051    0.577712    1.365591
| 23> *
| 24>
| 25> $new_job
| 26> ! ri-mp2 aug-cc-pvtz aug-cc-pvtz/c tightscf
| 27> %pal nprocs 16 end
| 28> %maxcore 3800
| 29> %base "TZ_P-Cl_21_AB"
| 30>
| 31> *xyz 0 1
| 32> Cl         3.353148    0.193978    0.049785
| 33> P         1.492971    0.142609   -0.880454
| 34> C         0.511117   -0.218454    0.675136
| 35> N         0.689418   -1.559651    1.181684
| 36> H         1.645160   -1.867967    1.073508
| 37> H         0.435215   -1.635202    2.158044
| 38> C        -0.976818   -0.015226    0.480545
| 39> F        -1.646495   -0.199850    1.616815
| 40> N        -1.336981    1.405132    0.020486
| 41> O        -2.153887    1.520461   -0.851940
| 42> O        -0.782423    2.283126    0.630867
| 43> N        -1.541412   -0.969167   -0.565492
| 44> O        -2.524307   -1.587692   -0.293048
| 45> O        -0.907323   -0.996978   -1.595665
| 46> H         1.591480   -1.196104   -1.300544
| 47> H         0.809051    0.577712    1.365591
| 48> *
| 49>
| 50> $new_job
| 51> ! ri-mp2 aug-cc-pvqz aug-cc-pvqz/c tightscf
| 52> %pal nprocs 16 end
| 53> %maxcore 3800
| 54> %base "QZ_P-Cl_21_AB"
| 55>
| 56> *xyz 0 1
| 57> Cl         3.353148    0.193978    0.049785
| 58> P         1.492971    0.142609   -0.880454
| 59> C         0.511117   -0.218454    0.675136
| 60> N         0.689418   -1.559651    1.181684
| 61> H         1.645160   -1.867967    1.073508
| 62> H         0.435215   -1.635202    2.158044
| 63> C        -0.976818   -0.015226    0.480545
| 64> F        -1.646495   -0.199850    1.616815
| 65> N        -1.336981    1.405132    0.020486
| 66> O        -2.153887    1.520461   -0.851940
| 67> O        -0.782423    2.283126    0.630867
| 68> N        -1.541412   -0.969167   -0.565492
| 69> O        -2.524307   -1.587692   -0.293048
| 70> O        -0.907323   -0.996978   -1.595665
| 71> H         1.591480   -1.196104   -1.300544
| 72> H         0.809051    0.577712    1.365591
| 73> *
| 74>
| 75>
| 76>
| 77>
| 78>                          ****END OF INPUT****
 Total Charge           Charge          ....    0
 Multiplicity           Mult            ....    1
 Number of Electrons    NEL             ....  110
MP2 TOTAL ENERGY:    -1442.488368144 Eh
FINAL SINGLE POINT ENERGY     -1442.488368143626
MP2 TOTAL ENERGY:    -1443.116257373 Eh
FINAL SINGLE POINT ENERGY     -1443.116257373461

CARTESIAN COORDINATES (ANGSTROEM)
---------------------------------
  Cl     3.353148    0.193978    0.049785
  P      1.492971    0.142609   -0.880454
  C      0.511117   -0.218454    0.675136
  N      0.689418   -1.559651    1.181684
  H      1.645160   -1.867967    1.073508
  H      0.435215   -1.635202    2.158044
  C     -0.976818   -0.015226    0.480545
  F     -1.646495   -0.199850    1.616815
  N     -1.336981    1.405132    0.020486
  O     -2.153887    1.520461   -0.851940
  O     -0.782423    2.283126    0.630867
  N     -1.541412   -0.969167   -0.565492
  O     -2.524307   -1.587692   -0.293048
  O     -0.907323   -0.996978   -1.595665
  H      1.591480   -1.196104   -1.300544
  H      0.809051    0.577712    1.365591

 Multiplicity           Mult            ....    1
 Number of Electrons    NEL             ....  110
 Basis Dimension        Dim             .... 1152

ORBITAL ENERGIES
----------------

  NO   OCC          E(Eh)            E(eV)
   0   2.0000    -104.851869     -2853.1644
   1   2.0000     -80.025675     -2177.6093
   2   2.0000     -26.390640      -718.1258
   3   2.0000     -20.655427      -562.0627
   4   2.0000     -20.655373      -562.0613
   5   2.0000     -20.650716      -561.9346
   6   2.0000     -20.643058      -561.7262
   7   2.0000     -15.900874      -432.6848
   8   2.0000     -15.896453      -432.5645
   9   2.0000     -15.597335      -424.4251
  10   2.0000     -11.498000      -312.8765
  11   2.0000     -11.337106      -308.4983
  12   2.0000     -10.578212      -287.8478
  13   2.0000      -8.045065      -218.9174
  14   2.0000      -8.043668      -218.8793
  15   2.0000      -8.043571      -218.8767
  16   2.0000      -7.563278      -205.8073
  17   2.0000      -5.456640      -148.4827
  18   2.0000      -5.455708      -148.4574
  19   2.0000      -5.454705      -148.4301
  20   2.0000      -1.732902       -47.1547
  21   2.0000      -1.670306       -45.4513
  22   2.0000      -1.663970       -45.2789
  23   2.0000      -1.468576       -39.9620
  24   2.0000      -1.465255       -39.8716
  25   2.0000      -1.262129       -34.3443
  26   2.0000      -1.172975       -31.9183
  27   2.0000      -1.128829       -30.7170
  28   2.0000      -1.015880       -27.6435
  29   2.0000      -0.999997       -27.2113
  30   2.0000      -0.893824       -24.3222
  31   2.0000      -0.865717       -23.5573
  32   2.0000      -0.855544       -23.2805
  33   2.0000      -0.832805       -22.6618
  34   2.0000      -0.782361       -21.2891
  35   2.0000      -0.778940       -21.1960
  36   2.0000      -0.774185       -21.0667
  37   2.0000      -0.762787       -20.7565
  38   2.0000      -0.749473       -20.3942
  39   2.0000      -0.733366       -19.9559
  40   2.0000      -0.705354       -19.1937
  41   2.0000      -0.690370       -18.7859
  42   2.0000      -0.657635       -17.8952
  43   2.0000      -0.575193       -15.6518
  44   2.0000      -0.566416       -15.4130
  45   2.0000      -0.557715       -15.1762
  46   2.0000      -0.544402       -14.8139
  47   2.0000      -0.537944       -14.6382
  48   2.0000      -0.521705       -14.1963
  49   2.0000      -0.509369       -13.8606
  50   2.0000      -0.502689       -13.6789
  51   2.0000      -0.493315       -13.4238
  52   2.0000      -0.473305       -12.8793
  53   2.0000      -0.456234       -12.4148
  54   2.0000      -0.402593       -10.9551
  55   0.0000       0.018712         0.5092
  56   0.0000       0.032421         0.8822
  57   0.0000       0.035984         0.9792
  58   0.0000       0.040374         1.0986
  59   0.0000       0.044951         1.2232

MULLIKEN ATOMIC CHARGES
-----------------------
   0 Cl:   -0.572560
   1 P :    0.668776
   2 C :    0.100754
   3 N :   -0.829161
   4 H :    0.209348
   5 H :    0.216174
   6 C :    1.143596
   7 F :   -0.725130
   8 N :    0.936022
   9 O :   -0.599907
  10 O :   -0.631467
  11 N :    1.036548
  12 O :   -0.632935
  13 O :   -0.652878
  14 H :   -0.080359
  15 H :    0.413180
Sum of atomic charges:    0.0000000

LOEWDIN ATOMIC CHARGES
----------------------
   0 Cl:    0.748313
   1 P :    0.457965
   2 C :   -0.417150
   3 N :    1.217786
   4 H :   -0.564792
   5 H :   -0.489944
   6 C :   -1.395421
   7 F :    0.893104
   8 N :   -0.888079
   9 O :    0.574083
  10 O :    0.580768
  11 N :   -0.904920
  12 O :    0.587614
  13 O :    0.558233
  14 H :   -0.520893
  15 H :   -0.436666

  Mayer bond orders larger than 0.100000
B(  0-Cl,  1-P ) :   0.7634 B(  0-Cl,  2-C ) :  -0.1784 B(  1-P ,  2-C ) :   0.5538
B(  1-P , 14-H ) :   0.9689 B(  2-C ,  3-N ) :   0.6267 B(  2-C ,  6-C ) :   0.9830
B(  2-C ,  7-F ) :   0.2117 B(  2-C , 15-H ) :   0.7752 B(  3-N ,  4-H ) :   0.9836
B(  3-N ,  5-H ) :   0.9662 B(  6-C ,  8-N ) :   0.8790 B(  6-C ,  9-O ) :   0.1342
B(  6-C , 11-N ) :   0.7999 B(  6-C , 12-O ) :   0.1016 B(  8-N ,  9-O ) :   1.2416
B(  8-N , 10-O ) :   1.2069 B(  9-O , 10-O ) :   0.1295 B( 11-N , 12-O ) :   1.1575
B( 11-N , 13-O ) :   1.1199 B( 12-O , 13-O ) :   0.1548

MP2 TOTAL ENERGY:    -1443.327069551 Eh
FINAL SINGLE POINT ENERGY     -1443.327069551106

DIPOLE MOMENT
-------------
                                X             Y             Z
Electronic contribution:      1.09395       3.51312      -1.31673
Nuclear contribution   :     -0.21208      -4.07057       2.29427
                        -----------------------------------------
Total Dipole Moment    :      0.88188      -0.55745       0.97754
                        -----------------------------------------
Magnitude (a.u.)       :      1.42970
Magnitude (Debye)      :      3.63402

Rotational constants in cm-1:     0.038476     0.017210     0.015801
Rotational constants in MHz :  1153.477819   515.930384   473.713180

                             ****ORCA TERMINATED NORMALLY****
TOTAL RUN TIME: 0 days 0 hours 43 minutes 49 seconds 191 msec
