                         Program Version 5.0.4 -  RELEASE  -
|  1> ! ri-mp2 aug-cc-pvdz aug-cc-pvdz/c tightscf
|  2> %pal nprocs 16 end
|  3> %maxcore 3800
|  4> %base "DZ_P-S_1_AB"
|  5> %scf
|  6> STABPerform true
|  7> STABRestartUHFifUnstable true
|  8> end
|  9>
| 10> *xyz 0 1
| 11> S        -0.148336    1.298749   -0.564817
| 12> P        -1.326622   -0.248012    0.246814
| 13> O        -0.973459   -0.540598    1.628350
| 14> O        -1.307638   -1.459820   -0.769227
| 15> O         1.264633    0.979683    0.241318
| 16> C         2.059066   -0.078694   -0.136502
| 17> C         1.903350   -0.798084   -1.239348
| 18> C         3.107846   -0.279951    0.899159
| 19> H         3.772927   -1.093553    0.621636
| 20> H         2.638434   -0.503178    1.857624
| 21> H         3.691045    0.633423    1.021528
| 22> H         1.147193   -0.571088   -1.975665
| 23> H         2.597654   -1.597326   -1.446125
| 24> H        -0.447564   -1.902541   -0.784588
| 25> O        -2.783529    0.283964   -0.069475
| 26> H        -3.148593    0.808992    0.652863
| 27> *
| 28>
| 29> $new_job
| 30> ! ri-mp2 aug-cc-pvtz aug-cc-pvtz/c tightscf
| 31> %pal nprocs 16 end
| 32> %maxcore 3800
| 33> %base "TZ_P-S_1_AB"
| 34>
| 35> *xyz 0 1
| 36> S        -0.148336    1.298749   -0.564817
| 37> P        -1.326622   -0.248012    0.246814
| 38> O        -0.973459   -0.540598    1.628350
| 39> O        -1.307638   -1.459820   -0.769227
| 40> O         1.264633    0.979683    0.241318
| 41> C         2.059066   -0.078694   -0.136502
| 42> C         1.903350   -0.798084   -1.239348
| 43> C         3.107846   -0.279951    0.899159
| 44> H         3.772927   -1.093553    0.621636
| 45> H         2.638434   -0.503178    1.857624
| 46> H         3.691045    0.633423    1.021528
| 47> H         1.147193   -0.571088   -1.975665
| 48> H         2.597654   -1.597326   -1.446125
| 49> H        -0.447564   -1.902541   -0.784588
| 50> O        -2.783529    0.283964   -0.069475
| 51> H        -3.148593    0.808992    0.652863
| 52> *
| 53>
| 54> $new_job
| 55> ! ri-mp2 aug-cc-pvqz aug-cc-pvqz/c tightscf
| 56> %pal nprocs 16 end
| 57> %maxcore 3800
| 58> %base "QZ_P-S_1_AB"
| 59>
| 60> *xyz 0 1
| 61> S        -0.148336    1.298749   -0.564817
| 62> P        -1.326622   -0.248012    0.246814
| 63> O        -0.973459   -0.540598    1.628350
| 64> O        -1.307638   -1.459820   -0.769227
| 65> O         1.264633    0.979683    0.241318
| 66> C         2.059066   -0.078694   -0.136502
| 67> C         1.903350   -0.798084   -1.239348
| 68> C         3.107846   -0.279951    0.899159
| 69> H         3.772927   -1.093553    0.621636
| 70> H         2.638434   -0.503178    1.857624
| 71> H         3.691045    0.633423    1.021528
| 72> H         1.147193   -0.571088   -1.975665
| 73> H         2.597654   -1.597326   -1.446125
| 74> H        -0.447564   -1.902541   -0.784588
| 75> O        -2.783529    0.283964   -0.069475
| 76> H        -3.148593    0.808992    0.652863
| 77> *
| 78>
| 79>
| 80>
| 81>
| 82>                          ****END OF INPUT****
 Total Charge           Charge          ....    0
 Multiplicity           Mult            ....    1
 Number of Electrons    NEL             ....   88
MP2 TOTAL ENERGY:    -1156.971584460 Eh
FINAL SINGLE POINT ENERGY     -1156.971584460010
MP2 TOTAL ENERGY:    -1157.467477947 Eh
FINAL SINGLE POINT ENERGY     -1157.467477947148

CARTESIAN COORDINATES (ANGSTROEM)
---------------------------------
  S     -0.148336    1.298749   -0.564817
  P     -1.326622   -0.248012    0.246814
  O     -0.973459   -0.540598    1.628350
  O     -1.307638   -1.459820   -0.769227
  O      1.264633    0.979683    0.241318
  C      2.059066   -0.078694   -0.136502
  C      1.903350   -0.798084   -1.239348
  C      3.107846   -0.279951    0.899159
  H      3.772927   -1.093553    0.621636
  H      2.638434   -0.503178    1.857624
  H      3.691045    0.633423    1.021528
  H      1.147193   -0.571088   -1.975665
  H      2.597654   -1.597326   -1.446125
  H     -0.447564   -1.902541   -0.784588
  O     -2.783529    0.283964   -0.069475
  H     -3.148593    0.808992    0.652863

 Multiplicity           Mult            ....    1
 Number of Electrons    NEL             ....   88
 Basis Dimension        Dim             .... 1050

ORBITAL ENERGIES
----------------

  NO   OCC          E(Eh)            E(eV)
   0   2.0000     -92.022624     -2504.0629
   1   2.0000     -80.098017     -2179.5779
   2   2.0000     -20.623581      -561.1962
   3   2.0000     -20.620906      -561.1234
   4   2.0000     -20.611118      -560.8570
   5   2.0000     -20.521945      -558.4305
   6   2.0000     -11.322534      -308.1018
   7   2.0000     -11.235148      -305.7239
   8   2.0000     -11.224189      -305.4257
   9   2.0000      -9.020415      -245.4580
  10   2.0000      -7.618619      -207.3132
  11   2.0000      -6.701778      -182.3646
  12   2.0000      -6.700280      -182.3239
  13   2.0000      -6.699347      -182.2985
  14   2.0000      -5.517098      -150.1279
  15   2.0000      -5.516423      -150.1095
  16   2.0000      -5.515423      -150.0823
  17   2.0000      -1.458922       -39.6993
  18   2.0000      -1.433810       -39.0160
  19   2.0000      -1.401864       -38.1467
  20   2.0000      -1.316609       -35.8267
  21   2.0000      -1.088712       -29.6254
  22   2.0000      -0.990148       -26.9433
  23   2.0000      -0.958913       -26.0933
  24   2.0000      -0.868964       -23.6457
  25   2.0000      -0.776789       -21.1375
  26   2.0000      -0.732645       -19.9363
  27   2.0000      -0.708950       -19.2915
  28   2.0000      -0.682494       -18.5716
  29   2.0000      -0.670812       -18.2537
  30   2.0000      -0.659159       -17.9366
  31   2.0000      -0.642514       -17.4837
  32   2.0000      -0.620653       -16.8888
  33   2.0000      -0.588443       -16.0123
  34   2.0000      -0.579825       -15.7778
  35   2.0000      -0.575411       -15.6577
  36   2.0000      -0.564793       -15.3688
  37   2.0000      -0.548689       -14.9306
  38   2.0000      -0.528816       -14.3898
  39   2.0000      -0.503090       -13.6898
  40   2.0000      -0.484634       -13.1876
  41   2.0000      -0.446571       -12.1518
  42   2.0000      -0.395766       -10.7693
  43   2.0000      -0.366190        -9.9645
  44   0.0000       0.023897         0.6503
  45   0.0000       0.028379         0.7722
  46   0.0000       0.032082         0.8730
  47   0.0000       0.039071         1.0632
  48   0.0000       0.045242         1.2311

MULLIKEN ATOMIC CHARGES
-----------------------
   0 S :    0.132269
   1 P :    2.379677
   2 O :   -1.137677
   3 O :   -0.890951
   4 O :   -0.803932
   5 C :    0.701511
   6 C :   -0.925830
   7 C :   -0.746422
   8 H :    0.242890
   9 H :    0.281298
  10 H :    0.294047
  11 H :    0.410510
  12 H :    0.313296
  13 H :    0.383847
  14 O :   -1.036289
  15 H :    0.401757
Sum of atomic charges:   -0.0000000

LOEWDIN ATOMIC CHARGES
----------------------
   0 S :    0.853805
   1 P :   -1.053557
   2 O :    0.264983
   3 O :    1.067990
   4 O :    0.316083
   5 C :   -0.601393
   6 C :    0.704298
   7 C :    0.860465
   8 H :   -0.311617
   9 H :   -0.290076
  10 H :   -0.291607
  11 H :   -0.431421
  12 H :   -0.358815
  13 H :   -0.910598
  14 O :    1.046698
  15 H :   -0.865237

  Mayer bond orders larger than 0.100000
B(  0-S ,  1-P ) :   0.9821 B(  0-S ,  4-O ) :   0.7455 B(  0-S , 11-H ) :  -0.1054
B(  1-P ,  2-O ) :   1.3870 B(  1-P ,  3-O ) :   0.6588 B(  1-P , 14-O ) :   0.4770
B(  3-O , 13-H ) :   0.8596 B(  4-O ,  5-C ) :   0.4515 B(  4-O ,  6-C ) :   0.1608
B(  5-C ,  6-C ) :   1.5710 B(  5-C ,  7-C ) :   0.6551 B(  6-C , 11-H ) :   0.8985
B(  6-C , 12-H ) :   1.0049 B(  7-C ,  8-H ) :   1.0220 B(  7-C ,  9-H ) :   0.9316
B(  7-C , 10-H ) :   0.9680 B( 14-O , 15-H ) :   0.9021

MP2 TOTAL ENERGY:    -1157.627237701 Eh
FINAL SINGLE POINT ENERGY     -1157.627237701149

DIPOLE MOMENT
-------------
                                X             Y             Z
Electronic contribution:    -10.73724       3.97636      -0.30466
Nuclear contribution   :     11.13261      -3.92559      -0.24686
                        -----------------------------------------
Total Dipole Moment    :      0.39537       0.05076      -0.55152
                        -----------------------------------------
Magnitude (a.u.)       :      0.68049
Magnitude (Debye)      :      1.72968

Rotational constants in cm-1:     0.071995     0.027400     0.026328
Rotational constants in MHz :  2158.346950   821.432028   789.299084

                             ****ORCA TERMINATED NORMALLY****
TOTAL RUN TIME: 0 days 2 hours 7 minutes 7 seconds 909 msec
