                         Program Version 5.0.4 -  RELEASE  -
|  1> ! ri-mp2 aug-cc-pvdz aug-cc-pvdz/c tightscf
|  2> %pal nprocs 16 end
|  3> %maxcore 3800
|  4> %base "DZ_S-F_77_AB"
|  5>
|  6> *xyz 0 1
|  7> F        -2.486253    0.851727    0.000003
|  8> S        -1.812339   -0.621780   -0.000002
|  9> C        -0.118969   -0.176288   -0.000001
| 10> C         0.347038    1.129874   -0.000002
| 11> N         0.656442   -1.246626    0.000001
| 12> C         1.969133   -1.057837    0.000002
| 13> C         1.716784    1.305092   -0.000001
| 14> C         2.549220    0.197769    0.000002
| 15> H        -0.338228    1.963478   -0.000004
| 16> H         2.132634    2.304052   -0.000002
| 17> H         3.624491    0.302683    0.000003
| 18> H         2.580479   -1.952549    0.000005
| 19> *
| 20>
| 21> $new_job
| 22> ! ri-mp2 aug-cc-pvtz aug-cc-pvtz/c tightscf
| 23> %pal nprocs 16 end
| 24> %maxcore 3800
| 25> %base "TZ_S-F_77_AB"
| 26>
| 27> *xyz 0 1
| 28> F        -2.486253    0.851727    0.000003
| 29> S        -1.812339   -0.621780   -0.000002
| 30> C        -0.118969   -0.176288   -0.000001
| 31> C         0.347038    1.129874   -0.000002
| 32> N         0.656442   -1.246626    0.000001
| 33> C         1.969133   -1.057837    0.000002
| 34> C         1.716784    1.305092   -0.000001
| 35> C         2.549220    0.197769    0.000002
| 36> H        -0.338228    1.963478   -0.000004
| 37> H         2.132634    2.304052   -0.000002
| 38> H         3.624491    0.302683    0.000003
| 39> H         2.580479   -1.952549    0.000005
| 40> *
| 41>
| 42> $new_job
| 43> ! ri-mp2 aug-cc-pvqz aug-cc-pvqz/c tightscf
| 44> %pal nprocs 16 end
| 45> %maxcore 3800
| 46> %base "QZ_S-F_77_AB"
| 47>
| 48> *xyz 0 1
| 49> F        -2.486253    0.851727    0.000003
| 50> S        -1.812339   -0.621780   -0.000002
| 51> C        -0.118969   -0.176288   -0.000001
| 52> C         0.347038    1.129874   -0.000002
| 53> N         0.656442   -1.246626    0.000001
| 54> C         1.969133   -1.057837    0.000002
| 55> C         1.716784    1.305092   -0.000001
| 56> C         2.549220    0.197769    0.000002
| 57> H        -0.338228    1.963478   -0.000004
| 58> H         2.132634    2.304052   -0.000002
| 59> H         3.624491    0.302683    0.000003
| 60> H         2.580479   -1.952549    0.000005
| 61> *
| 62>
| 63>
| 64>
| 65>
| 66>                          ****END OF INPUT****
 Total Charge           Charge          ....    0
 Multiplicity           Mult            ....    1
 Number of Electrons    NEL             ....   66
MP2 TOTAL ENERGY:     -744.268671738 Eh
FINAL SINGLE POINT ENERGY      -744.268671737726
MP2 TOTAL ENERGY:     -744.616177723 Eh
FINAL SINGLE POINT ENERGY      -744.616177723444

CARTESIAN COORDINATES (ANGSTROEM)
---------------------------------
  F     -2.486253    0.851727    0.000003
  S     -1.812339   -0.621780   -0.000002
  C     -0.118969   -0.176288   -0.000001
  C      0.347038    1.129874   -0.000002
  N      0.656442   -1.246626    0.000001
  C      1.969133   -1.057837    0.000002
  C      1.716784    1.305092   -0.000001
  C      2.549220    0.197769    0.000002
  H     -0.338228    1.963478   -0.000004
  H      2.132634    2.304052   -0.000002
  H      3.624491    0.302683    0.000003
  H      2.580479   -1.952549    0.000005

 Multiplicity           Mult            ....    1
 Number of Electrons    NEL             ....   66
 Basis Dimension        Dim             ....  828

ORBITAL ENERGIES
----------------

  NO   OCC          E(Eh)            E(eV)
   0   2.0000     -92.041123     -2504.5663
   1   2.0000     -26.315749      -716.0879
   2   2.0000     -15.578469      -423.9117
   3   2.0000     -11.321231      -308.0664
   4   2.0000     -11.289542      -307.2041
   5   2.0000     -11.271389      -306.7101
   6   2.0000     -11.251860      -306.1787
   7   2.0000     -11.246830      -306.0418
   8   2.0000      -9.035780      -245.8761
   9   2.0000      -6.717350      -182.7884
  10   2.0000      -6.715225      -182.7306
  11   2.0000      -6.713958      -182.6961
  12   2.0000      -1.616393       -43.9843
  13   2.0000      -1.292185       -35.1622
  14   2.0000      -1.108515       -30.1642
  15   2.0000      -1.080952       -29.4142
  16   2.0000      -0.974048       -26.5052
  17   2.0000      -0.881376       -23.9835
  18   2.0000      -0.847968       -23.0744
  19   2.0000      -0.743795       -20.2397
  20   2.0000      -0.703335       -19.1387
  21   2.0000      -0.698471       -19.0064
  22   2.0000      -0.679229       -18.4828
  23   2.0000      -0.667664       -18.1681
  24   2.0000      -0.639966       -17.4144
  25   2.0000      -0.594805       -16.1855
  26   2.0000      -0.576880       -15.6977
  27   2.0000      -0.560591       -15.2544
  28   2.0000      -0.506223       -13.7750
  29   2.0000      -0.436320       -11.8729
  30   2.0000      -0.431898       -11.7525
  31   2.0000      -0.397573       -10.8185
  32   2.0000      -0.329069        -8.9544
  33   0.0000       0.021200         0.5769
  34   0.0000       0.028633         0.7791
  35   0.0000       0.035218         0.9583
  36   0.0000       0.045569         1.2400
  37   0.0000       0.055823         1.5190

MULLIKEN ATOMIC CHARGES
-----------------------
   0 F :   -0.673508
   1 S :    0.624833
   2 C :   -0.017824
   3 C :   -0.185394
   4 N :   -0.428683
   5 C :   -0.271060
   6 C :   -0.206488
   7 C :   -0.321660
   8 H :    0.387439
   9 H :    0.276481
  10 H :    0.333430
  11 H :    0.482434
Sum of atomic charges:    0.0000000

LOEWDIN ATOMIC CHARGES
----------------------
   0 F :    0.105632
   1 S :    0.724569
   2 C :   -0.874290
   3 C :    0.228952
   4 N :    0.450480
   5 C :    0.065406
   6 C :    0.322971
   7 C :    0.330032
   8 H :   -0.371889
   9 H :   -0.308468
  10 H :   -0.328412
  11 H :   -0.344983

  Mayer bond orders larger than 0.100000
B(  0-F ,  1-S ) :   0.5821 B(  0-F ,  2-C ) :  -0.1669 B(  1-S ,  2-C ) :   0.9293
B(  1-S ,  3-C ) :  -0.1919 B(  2-C ,  3-C ) :   1.0317 B(  2-C ,  4-N ) :   1.0939
B(  2-C ,  6-C ) :  -0.2106 B(  3-C ,  5-C ) :   0.1400 B(  3-C ,  6-C ) :   1.2089
B(  3-C ,  8-H ) :   0.8437 B(  4-N ,  5-C ) :   1.2599 B(  5-C ,  7-C ) :   1.2591
B(  5-C , 11-H ) :   0.8536 B(  6-C ,  7-C ) :   1.1810 B(  6-C ,  9-H ) :   1.0568
B(  7-C , 10-H ) :   0.9774

MP2 TOTAL ENERGY:     -744.729782319 Eh
FINAL SINGLE POINT ENERGY      -744.729782319067

DIPOLE MOMENT
-------------
                                X             Y             Z
Electronic contribution:     -9.01218      -1.19817      -0.00000
Nuclear contribution   :     10.09127       1.71638      -0.00000
                        -----------------------------------------
Total Dipole Moment    :      1.07909       0.51821      -0.00000
                        -----------------------------------------
Magnitude (a.u.)       :      1.19707
Magnitude (Debye)      :      3.04272

Rotational constants in cm-1:     0.151670     0.040695     0.032086
Rotational constants in MHz :  4546.942309  1219.996035   961.905825

                             ****ORCA TERMINATED NORMALLY****
TOTAL RUN TIME: 0 days 0 hours 14 minutes 0 seconds 632 msec
