                         Program Version 5.0.4 -  RELEASE  -
|  1> ! ri-mp2 aug-cc-pvdz aug-cc-pvdz/c tightscf
|  2> %pal nprocs 16 end
|  3> %maxcore 3800
|  4> %base "DZ_B-Si_23_AB"
|  5>
|  6> *xyz 0 1
|  7> Si         0.134527    0.690811    0.461387
|  8> B        -1.616864   -0.228015    0.019572
|  9> N         1.454956   -0.597209    0.031596
| 10> O        -1.678538   -1.544583   -0.261107
| 11> O        -2.737577    0.537023    0.022098
| 12> O         1.106083   -1.771640   -0.077693
| 13> O         2.602980   -0.235925   -0.096638
| 14> C         0.595761    2.211836   -0.486803
| 15> H         0.528159    2.041585   -1.561143
| 16> H         1.610145    2.525845   -0.246437
| 17> H        -0.091316    3.020461   -0.231873
| 18> H        -0.801837   -1.965161   -0.235601
| 19> H        -3.537392    0.037204   -0.184179
| 20> H         0.390339    0.839234    1.908326
| 21> *
| 22>
| 23> $new_job
| 24> ! ri-mp2 aug-cc-pvtz aug-cc-pvtz/c tightscf
| 25> %pal nprocs 16 end
| 26> %maxcore 3800
| 27> %base "TZ_B-Si_23_AB"
| 28>
| 29> *xyz 0 1
| 30> Si         0.134527    0.690811    0.461387
| 31> B        -1.616864   -0.228015    0.019572
| 32> N         1.454956   -0.597209    0.031596
| 33> O        -1.678538   -1.544583   -0.261107
| 34> O        -2.737577    0.537023    0.022098
| 35> O         1.106083   -1.771640   -0.077693
| 36> O         2.602980   -0.235925   -0.096638
| 37> C         0.595761    2.211836   -0.486803
| 38> H         0.528159    2.041585   -1.561143
| 39> H         1.610145    2.525845   -0.246437
| 40> H        -0.091316    3.020461   -0.231873
| 41> H        -0.801837   -1.965161   -0.235601
| 42> H        -3.537392    0.037204   -0.184179
| 43> H         0.390339    0.839234    1.908326
| 44> *
| 45>
| 46> $new_job
| 47> ! ri-mp2 aug-cc-pvqz aug-cc-pvqz/c tightscf
| 48> %pal nprocs 16 end
| 49> %maxcore 3800
| 50> %base "QZ_B-Si_23_AB"
| 51>
| 52> *xyz 0 1
| 53> Si         0.134527    0.690811    0.461387
| 54> B        -1.616864   -0.228015    0.019572
| 55> N         1.454956   -0.597209    0.031596
| 56> O        -1.678538   -1.544583   -0.261107
| 57> O        -2.737577    0.537023    0.022098
| 58> O         1.106083   -1.771640   -0.077693
| 59> O         2.602980   -0.235925   -0.096638
| 60> C         0.595761    2.211836   -0.486803
| 61> H         0.528159    2.041585   -1.561143
| 62> H         1.610145    2.525845   -0.246437
| 63> H        -0.091316    3.020461   -0.231873
| 64> H        -0.801837   -1.965161   -0.235601
| 65> H        -3.537392    0.037204   -0.184179
| 66> H         0.390339    0.839234    1.908326
| 67> *
| 68>
| 69>
| 70>
| 71>
| 72>                          ****END OF INPUT****
 Total Charge           Charge          ....    0
 Multiplicity           Mult            ....    1
 Number of Electrons    NEL             ....   70
MP2 TOTAL ENERGY:     -710.277624085 Eh
FINAL SINGLE POINT ENERGY      -710.277624084790
MP2 TOTAL ENERGY:     -710.673227215 Eh
FINAL SINGLE POINT ENERGY      -710.673227215022

CARTESIAN COORDINATES (ANGSTROEM)
---------------------------------
  Si     0.134527    0.690811    0.461387
  B     -1.616864   -0.228015    0.019572
  N      1.454956   -0.597209    0.031596
  O     -1.678538   -1.544583   -0.261107
  O     -2.737577    0.537023    0.022098
  O      1.106083   -1.771640   -0.077693
  O      2.602980   -0.235925   -0.096638
  C      0.595761    2.211836   -0.486803
  H      0.528159    2.041585   -1.561143
  H      1.610145    2.525845   -0.246437
  H     -0.091316    3.020461   -0.231873
  H     -0.801837   -1.965161   -0.235601
  H     -3.537392    0.037204   -0.184179
  H      0.390339    0.839234    1.908326

 Multiplicity           Mult            ....    1
 Number of Electrons    NEL             ....   70
 Basis Dimension        Dim             ....  920

ORBITAL ENERGIES
----------------

  NO   OCC          E(Eh)            E(eV)
   0   2.0000     -68.815480     -1872.5644
   1   2.0000     -20.609175      -560.8042
   2   2.0000     -20.600976      -560.5810
   3   2.0000     -20.586870      -560.1972
   4   2.0000     -20.575719      -559.8938
   5   2.0000     -15.816119      -430.3785
   6   2.0000     -11.233847      -305.6885
   7   2.0000      -7.658731      -208.4047
   8   2.0000      -6.165113      -167.7612
   9   2.0000      -4.271994      -116.2469
  10   2.0000      -4.270446      -116.2047
  11   2.0000      -4.270007      -116.1928
  12   2.0000      -1.600643       -43.5557
  13   2.0000      -1.403143       -38.1815
  14   2.0000      -1.396555       -38.0022
  15   2.0000      -1.361551       -37.0497
  16   2.0000      -0.989401       -26.9230
  17   2.0000      -0.942556       -25.6482
  18   2.0000      -0.802309       -21.8319
  19   2.0000      -0.788940       -21.4681
  20   2.0000      -0.745562       -20.2878
  21   2.0000      -0.725506       -19.7420
  22   2.0000      -0.708752       -19.2861
  23   2.0000      -0.663545       -18.0560
  24   2.0000      -0.623290       -16.9606
  25   2.0000      -0.592868       -16.1327
  26   2.0000      -0.586637       -15.9632
  27   2.0000      -0.585743       -15.9389
  28   2.0000      -0.583215       -15.8701
  29   2.0000      -0.516175       -14.0458
  30   2.0000      -0.505451       -13.7540
  31   2.0000      -0.494938       -13.4680
  32   2.0000      -0.466844       -12.7035
  33   2.0000      -0.459749       -12.5104
  34   2.0000      -0.440674       -11.9914
  35   0.0000       0.018976         0.5163
  36   0.0000       0.027545         0.7495
  37   0.0000       0.032592         0.8869
  38   0.0000       0.037012         1.0072
  39   0.0000       0.046818         1.2740

MULLIKEN ATOMIC CHARGES
-----------------------
   0 Si:    1.089494
   1 B :    1.377605
   2 N :    0.704583
   3 O :   -1.182234
   4 O :   -1.026246
   5 O :   -0.676519
   6 O :   -0.596473
   7 C :   -1.006365
   8 H :    0.235178
   9 H :    0.311150
  10 H :    0.288102
  11 H :    0.376250
  12 H :    0.337054
  13 H :   -0.231579
Sum of atomic charges:    0.0000000

LOEWDIN ATOMIC CHARGES
----------------------
   0 Si:    0.518387
   1 B :   -1.163996
   2 N :   -0.829777
   3 O :    1.319445
   4 O :    1.287312
   5 O :    0.529257
   6 O :    0.464868
   7 C :    0.938134
   8 H :   -0.342165
   9 H :   -0.352309
  10 H :   -0.344307
  11 H :   -1.035484
  12 H :   -0.794183
  13 H :   -0.195181

  Mayer bond orders larger than 0.100000
B(  0-Si,  1-B ) :   0.9118 B(  0-Si,  2-N ) :   0.3381 B(  0-Si,  4-O ) :  -0.1185
B(  0-Si,  7-C ) :   0.9082 B(  0-Si, 13-H ) :   0.8592 B(  1-B ,  3-O ) :   0.4958
B(  1-B ,  4-O ) :   0.4095 B(  2-N ,  5-O ) :   1.1544 B(  2-N ,  6-O ) :   1.3261
B(  3-O ,  4-O ) :  -0.1378 B(  3-O , 11-H ) :   0.8809 B(  4-O , 12-H ) :   0.9370
B(  5-O ,  6-O ) :   0.1460 B(  7-C ,  8-H ) :   0.9694 B(  7-C ,  9-H ) :   0.8986
B(  7-C , 10-H ) :   0.9237

MP2 TOTAL ENERGY:     -710.804086813 Eh
FINAL SINGLE POINT ENERGY      -710.804086812509

DIPOLE MOMENT
-------------
                                X             Y             Z
Electronic contribution:     -0.41033      -5.36105       0.67161
Nuclear contribution   :     -0.59402       6.41937      -0.58546
                        -----------------------------------------
Total Dipole Moment    :     -1.00435       1.05833       0.08615
                        -----------------------------------------
Magnitude (a.u.)       :      1.46157
Magnitude (Debye)      :      3.71503

Rotational constants in cm-1:     0.079509     0.043374     0.029694
Rotational constants in MHz :  2383.605887  1300.323054   890.203794

                             ****ORCA TERMINATED NORMALLY****
TOTAL RUN TIME: 0 days 0 hours 17 minutes 3 seconds 812 msec
