                         Program Version 5.0.4 -  RELEASE  -
|  1> ! ri-mp2 aug-cc-pvdz aug-cc-pvdz/c tightscf
|  2> %pal nprocs 16 end
|  3> %maxcore 3800
|  4> %base "DZ_B-Cl_75_A"
|  5> %scf
|  6> STABPerform true
|  7> STABRestartUHFifUnstable true
|  8> end
|  9>
| 10> *xyz 0 2
| 11> C        -1.350217    1.366724   -0.177900
| 12> C        -2.517372    0.602844   -0.791462
| 13> C        -2.851029   -0.645695    0.015831
| 14> C        -1.624779   -1.533595    0.188063
| 15> C        -0.461204   -0.762464    0.798791
| 16> C         1.039086    1.263114    0.633687
| 17> C        -0.113996    0.486411   -0.008916
| 18> B         2.448977    0.629832    0.614405
| 19> Cl         3.037507   -0.562595   -0.491850
| 20> H        -1.644935    1.752924    0.804532
| 21> H        -1.103055    2.236356   -0.791797
| 22> H        -2.256887    0.310629   -1.813933
| 23> H        -3.392202    1.251621   -0.867091
| 24> H        -3.658161   -1.202644   -0.463893
| 25> H        -3.220241   -0.347610    1.002708
| 26> H        -1.322037   -1.924094   -0.788833
| 27> H        -1.866519   -2.399446    0.807416
| 28> H         0.414076   -1.410230    0.882407
| 29> H        -0.723737   -0.457447    1.818340
| 30> H         0.775447    1.561617    1.652933
| 31> H         1.187602    2.217232    0.103502
| 32> H         0.205209    0.162008   -1.005431
| 33> *
| 34>
| 35> $new_job
| 36> ! ri-mp2 aug-cc-pvtz aug-cc-pvtz/c tightscf
| 37> %pal nprocs 16 end
| 38> %maxcore 3800
| 39> %base "TZ_B-Cl_75_A"
| 40>
| 41> *xyz 0 2
| 42> C        -1.350217    1.366724   -0.177900
| 43> C        -2.517372    0.602844   -0.791462
| 44> C        -2.851029   -0.645695    0.015831
| 45> C        -1.624779   -1.533595    0.188063
| 46> C        -0.461204   -0.762464    0.798791
| 47> C         1.039086    1.263114    0.633687
| 48> C        -0.113996    0.486411   -0.008916
| 49> B         2.448977    0.629832    0.614405
| 50> Cl         3.037507   -0.562595   -0.491850
| 51> H        -1.644935    1.752924    0.804532
| 52> H        -1.103055    2.236356   -0.791797
| 53> H        -2.256887    0.310629   -1.813933
| 54> H        -3.392202    1.251621   -0.867091
| 55> H        -3.658161   -1.202644   -0.463893
| 56> H        -3.220241   -0.347610    1.002708
| 57> H        -1.322037   -1.924094   -0.788833
| 58> H        -1.866519   -2.399446    0.807416
| 59> H         0.414076   -1.410230    0.882407
| 60> H        -0.723737   -0.457447    1.818340
| 61> H         0.775447    1.561617    1.652933
| 62> H         1.187602    2.217232    0.103502
| 63> H         0.205209    0.162008   -1.005431
| 64> *
| 65>
| 66> $new_job
| 67> ! ri-mp2 aug-cc-pvqz aug-cc-pvqz/c tightscf
| 68> %pal nprocs 16 end
| 69> %maxcore 3800
| 70> %base "QZ_B-Cl_75_A"
| 71>
| 72> *xyz 0 2
| 73> C        -1.350217    1.366724   -0.177900
| 74> C        -2.517372    0.602844   -0.791462
| 75> C        -2.851029   -0.645695    0.015831
| 76> C        -1.624779   -1.533595    0.188063
| 77> C        -0.461204   -0.762464    0.798791
| 78> C         1.039086    1.263114    0.633687
| 79> C        -0.113996    0.486411   -0.008916
| 80> B         2.448977    0.629832    0.614405
| 81> Cl         3.037507   -0.562595   -0.491850
| 82> H        -1.644935    1.752924    0.804532
| 83> H        -1.103055    2.236356   -0.791797
| 84> H        -2.256887    0.310629   -1.813933
| 85> H        -3.392202    1.251621   -0.867091
| 86> H        -3.658161   -1.202644   -0.463893
| 87> H        -3.220241   -0.347610    1.002708
| 88> H        -1.322037   -1.924094   -0.788833
| 89> H        -1.866519   -2.399446    0.807416
| 90> H         0.414076   -1.410230    0.882407
| 91> H        -0.723737   -0.457447    1.818340
| 92> H         0.775447    1.561617    1.652933
| 93> H         1.187602    2.217232    0.103502
| 94> H         0.205209    0.162008   -1.005431
| 95> *
| 96>
| 97>
| 98>
| 99>
|100>                          ****END OF INPUT****
 Total Charge           Charge          ....    0
 Multiplicity           Mult            ....    2
 Number of Electrons    NEL             ....   77
MP2 TOTAL ENERGY:     -758.102916073 Eh
FINAL SINGLE POINT ENERGY      -758.102916072854
MP2 TOTAL ENERGY:     -758.437338034 Eh
FINAL SINGLE POINT ENERGY      -758.437338033820

CARTESIAN COORDINATES (ANGSTROEM)
---------------------------------
  C     -1.350217    1.366724   -0.177900
  C     -2.517372    0.602844   -0.791462
  C     -2.851029   -0.645695    0.015831
  C     -1.624779   -1.533595    0.188063
  C     -0.461204   -0.762464    0.798791
  C      1.039086    1.263114    0.633687
  C     -0.113996    0.486411   -0.008916
  B      2.448977    0.629832    0.614405
  Cl     3.037507   -0.562595   -0.491850
  H     -1.644935    1.752924    0.804532
  H     -1.103055    2.236356   -0.791797
  H     -2.256887    0.310629   -1.813933
  H     -3.392202    1.251621   -0.867091
  H     -3.658161   -1.202644   -0.463893
  H     -3.220241   -0.347610    1.002708
  H     -1.322037   -1.924094   -0.788833
  H     -1.866519   -2.399446    0.807416
  H      0.414076   -1.410230    0.882407
  H     -0.723737   -0.457447    1.818340
  H      0.775447    1.561617    1.652933
  H      1.187602    2.217232    0.103502
  H      0.205209    0.162008   -1.005431

 Multiplicity           Mult            ....    2
 Number of Electrons    NEL             ....   77
 Basis Dimension        Dim             .... 1322

ORBITAL ENERGIES
----------------
                 SPIN UP ORBITALS
  NO   OCC          E(Eh)            E(eV)
   0   1.0000    -104.836848     -2852.7557
   1   1.0000     -11.226613      -305.4917
   2   1.0000     -11.214993      -305.1755
   3   1.0000     -11.214975      -305.1750
   4   1.0000     -11.214112      -305.1515
   5   1.0000     -11.213896      -305.1456
   6   1.0000     -11.213795      -305.1429
   7   1.0000     -11.213089      -305.1237
   8   1.0000     -10.564614      -287.4778
   9   1.0000      -8.032362      -218.5717
  10   1.0000      -8.030187      -218.5125
  11   1.0000      -8.029916      -218.5051
  12   1.0000      -7.667480      -208.6427
  13   1.0000      -1.132735       -30.8233
  14   1.0000      -1.118358       -30.4321
  15   1.0000      -1.040486       -28.3131
  16   1.0000      -1.006893       -27.3990
  17   1.0000      -0.934534       -25.4300
  18   1.0000      -0.835610       -22.7381
  19   1.0000      -0.810947       -22.0670
  20   1.0000      -0.756998       -20.5990
  21   1.0000      -0.663779       -18.0624
  22   1.0000      -0.650374       -17.6976
  23   1.0000      -0.614520       -16.7219
  24   1.0000      -0.607682       -16.5359
  25   1.0000      -0.600526       -16.3411
  26   1.0000      -0.566891       -15.4259
  27   1.0000      -0.550622       -14.9832
  28   1.0000      -0.529478       -14.4078
  29   1.0000      -0.526310       -14.3216
  30   1.0000      -0.499062       -13.5802
  31   1.0000      -0.485624       -13.2145
  32   1.0000      -0.483819       -13.1654
  33   1.0000      -0.479599       -13.0505
  34   1.0000      -0.472506       -12.8575
  35   1.0000      -0.454445       -12.3661
  36   1.0000      -0.437866       -11.9149
  37   1.0000      -0.426669       -11.6102
  38   1.0000      -0.325403        -8.8547
  39   0.0000       0.023416         0.6372
  40   0.0000       0.028160         0.7663
  41   0.0000       0.028817         0.7842
  42   0.0000       0.030660         0.8343
  43   0.0000       0.041564         1.1310

                 SPIN DOWN ORBITALS
  NO   OCC          E(Eh)            E(eV)
   0   1.0000    -104.836036     -2852.7336
   1   1.0000     -11.225499      -305.4614
   2   1.0000     -11.215057      -305.1772
   3   1.0000     -11.214883      -305.1725
   4   1.0000     -11.214062      -305.1501
   5   1.0000     -11.213767      -305.1421
   6   1.0000     -11.213084      -305.1235
   7   1.0000     -11.212715      -305.1135
   8   1.0000     -10.563650      -287.4515
   9   1.0000      -8.030633      -218.5246
  10   1.0000      -8.030030      -218.5082
  11   1.0000      -8.027878      -218.4497
  12   1.0000      -7.647688      -208.1042
  13   1.0000      -1.129847       -30.7447
  14   1.0000      -1.110841       -30.2275
  15   1.0000      -1.037821       -28.2405
  16   1.0000      -1.006709       -27.3939
  17   1.0000      -0.929413       -25.2906
  18   1.0000      -0.835378       -22.7318
  19   1.0000      -0.807633       -21.9768
  20   1.0000      -0.756436       -20.5837
  21   1.0000      -0.650923       -17.7125
  22   1.0000      -0.637259       -17.3407
  23   1.0000      -0.611605       -16.6426
  24   1.0000      -0.606191       -16.4953
  25   1.0000      -0.596550       -16.2330
  26   1.0000      -0.562938       -15.3183
  27   1.0000      -0.535058       -14.5597
  28   1.0000      -0.529003       -14.3949
  29   1.0000      -0.520621       -14.1668
  30   1.0000      -0.492840       -13.4109
  31   1.0000      -0.483366       -13.1531
  32   1.0000      -0.481846       -13.1117
  33   1.0000      -0.472475       -12.8567
  34   1.0000      -0.462748       -12.5920
  35   1.0000      -0.453364       -12.3367
  36   1.0000      -0.432332       -11.7644
  37   1.0000      -0.425029       -11.5656
  38   0.0000       0.022551         0.6136
  39   0.0000       0.027363         0.7446
  40   0.0000       0.028586         0.7779
  41   0.0000       0.030244         0.8230
  42   0.0000       0.041513         1.1296

MULLIKEN ATOMIC CHARGES AND SPIN POPULATIONS
--------------------------------------------
   0 C :   -0.462284   -0.001384
   1 C :   -0.507770    0.002488
   2 C :   -0.453054   -0.000687
   3 C :   -0.488708    0.004180
   4 C :   -0.382630   -0.007129
   5 C :   -0.525131   -0.149127
   6 C :    0.404137    0.067848
   7 B :    0.198715    1.108413
   8 Cl:   -0.331185    0.008096
   9 H :    0.138067   -0.001249
  10 H :    0.243812    0.000854
  11 H :    0.133423    0.000070
  12 H :    0.225787    0.001093
  13 H :    0.249979    0.000067
  14 H :    0.098364   -0.000159
  15 H :    0.127113    0.000557
  16 H :    0.223399   -0.000132
  17 H :    0.277940   -0.005485
  18 H :    0.188113    0.000134
  19 H :    0.221202    0.003137
  20 H :    0.200533   -0.027613
  21 H :    0.220175   -0.003972
Sum of atomic charges         :    0.0000000

LOEWDIN ATOMIC CHARGES AND SPIN POPULATIONS
-------------------------------------------
   0 C :    0.529537    0.004368
   1 C :    0.543199    0.001284
   2 C :    0.535909    0.000192
   3 C :    0.545631    0.000356
   4 C :    0.508043    0.004319
   5 C :    0.494014    0.162836
   6 C :    0.050056    0.023304
   7 B :   -0.935282    0.569755
   8 Cl:    1.266102    0.173465
   9 H :   -0.257448    0.000102
  10 H :   -0.254901    0.000401
  11 H :   -0.260217    0.000204
  12 H :   -0.256956    0.000416
  13 H :   -0.258284    0.000032
  14 H :   -0.262053   -0.000004
  15 H :   -0.258628    0.000110
  16 H :   -0.255715    0.000039
  17 H :   -0.281706    0.001445
  18 H :   -0.256156    0.000228
  19 H :   -0.319414    0.029522
  20 H :   -0.321122    0.023309
  21 H :   -0.294610    0.004316

  Mayer bond orders larger than 0.100000
B(  0-C ,  1-C ) :   0.8873 B(  0-C ,  5-C ) :   0.1029 B(  0-C ,  6-C ) :   0.5185
B(  0-C ,  9-H ) :   1.0480 B(  0-C , 10-H ) :   0.9731 B(  1-C ,  2-C ) :   0.8802
B(  1-C ,  6-C ) :  -0.1014 B(  1-C , 11-H ) :   1.0463 B(  1-C , 12-H ) :   1.0108
B(  2-C ,  3-C ) :   0.8610 B(  2-C , 13-H ) :   0.9546 B(  2-C , 14-H ) :   1.0690
B(  3-C ,  4-C ) :   0.8367 B(  3-C , 15-H ) :   1.0497 B(  3-C , 16-H ) :   1.0099
B(  4-C ,  6-C ) :   0.6967 B(  4-C , 17-H ) :   0.9479 B(  4-C , 18-H ) :   0.9600
B(  5-C ,  6-C ) :   0.6591 B(  5-C ,  7-B ) :   0.7175 B(  5-C , 19-H ) :   0.9428
B(  5-C , 20-H ) :   1.0287 B(  6-C ,  9-H ) :  -0.1000 B(  6-C , 21-H ) :   0.9740
B(  7-B ,  8-Cl) :   1.0397

MP2 TOTAL ENERGY:     -758.541628852 Eh
FINAL SINGLE POINT ENERGY      -758.541628852039

DIPOLE MOMENT
-------------
                                X             Y             Z
Electronic contribution:     22.51891      -1.83626      -1.52407
Nuclear contribution   :    -23.11106       2.06495       1.56205
                        -----------------------------------------
Total Dipole Moment    :     -0.59215       0.22869       0.03798
                        -----------------------------------------
Magnitude (a.u.)       :      0.63591
Magnitude (Debye)      :      1.61636

Rotational constants in cm-1:     0.091510     0.022989     0.020577
Rotational constants in MHz :  2743.393603   689.202316   616.887519

                             ****ORCA TERMINATED NORMALLY****
TOTAL RUN TIME: 0 days 17 hours 17 minutes 32 seconds 430 msec
