                         Program Version 5.0.4 -  RELEASE  -
|  1> ! ri-mp2 aug-cc-pvdz aug-cc-pvdz/c tightscf
|  2> %pal nprocs 16 end
|  3> %maxcore 3800
|  4> %base "DZ_P-N_17_AB"
|  5> %scf
|  6> STABPerform true
|  7> STABRestartUHFifUnstable true
|  8> end
|  9>
| 10> *xyz 0 1
| 11> P         0.054475   -0.906239   -0.140552
| 12> N        -1.433538   -0.285013    0.439495
| 13> O        -1.822542    0.983030   -0.083026
| 14> C         1.168769    0.527814   -0.208071
| 15> C         2.418523    0.435852    0.219597
| 16> H         0.792021    1.465030   -0.602344
| 17> H         2.810863   -0.489793    0.625586
| 18> H         3.101432    1.276196    0.178234
| 19> H        -2.661768    0.800658   -0.518965
| 20> H        -0.315840   -0.910480   -1.503789
| 21> H        -1.452485   -0.199171    1.448151
| 22> *
| 23>
| 24> $new_job
| 25> ! ri-mp2 aug-cc-pvtz aug-cc-pvtz/c tightscf
| 26> %pal nprocs 16 end
| 27> %maxcore 3800
| 28> %base "TZ_P-N_17_AB"
| 29>
| 30> *xyz 0 1
| 31> P         0.054475   -0.906239   -0.140552
| 32> N        -1.433538   -0.285013    0.439495
| 33> O        -1.822542    0.983030   -0.083026
| 34> C         1.168769    0.527814   -0.208071
| 35> C         2.418523    0.435852    0.219597
| 36> H         0.792021    1.465030   -0.602344
| 37> H         2.810863   -0.489793    0.625586
| 38> H         3.101432    1.276196    0.178234
| 39> H        -2.661768    0.800658   -0.518965
| 40> H        -0.315840   -0.910480   -1.503789
| 41> H        -1.452485   -0.199171    1.448151
| 42> *
| 43>
| 44> $new_job
| 45> ! ri-mp2 aug-cc-pvqz aug-cc-pvqz/c tightscf
| 46> %pal nprocs 16 end
| 47> %maxcore 3800
| 48> %base "QZ_P-N_17_AB"
| 49>
| 50> *xyz 0 1
| 51> P         0.054475   -0.906239   -0.140552
| 52> N        -1.433538   -0.285013    0.439495
| 53> O        -1.822542    0.983030   -0.083026
| 54> C         1.168769    0.527814   -0.208071
| 55> C         2.418523    0.435852    0.219597
| 56> H         0.792021    1.465030   -0.602344
| 57> H         2.810863   -0.489793    0.625586
| 58> H         3.101432    1.276196    0.178234
| 59> H        -2.661768    0.800658   -0.518965
| 60> H        -0.315840   -0.910480   -1.503789
| 61> H        -1.452485   -0.199171    1.448151
| 62> *
| 63>
| 64>
| 65>
| 66>
| 67>                          ****END OF INPUT****
 Total Charge           Charge          ....    0
 Multiplicity           Mult            ....    1
 Number of Electrons    NEL             ....   48
MP2 TOTAL ENERGY:     -550.001315376 Eh
FINAL SINGLE POINT ENERGY      -550.001315375602
MP2 TOTAL ENERGY:     -550.233286719 Eh
FINAL SINGLE POINT ENERGY      -550.233286718692

CARTESIAN COORDINATES (ANGSTROEM)
---------------------------------
  P      0.054475   -0.906239   -0.140552
  N     -1.433538   -0.285013    0.439495
  O     -1.822542    0.983030   -0.083026
  C      1.168769    0.527814   -0.208071
  C      2.418523    0.435852    0.219597
  H      0.792021    1.465030   -0.602344
  H      2.810863   -0.489793    0.625586
  H      3.101432    1.276196    0.178234
  H     -2.661768    0.800658   -0.518965
  H     -0.315840   -0.910480   -1.503789
  H     -1.452485   -0.199171    1.448151

 Multiplicity           Mult            ....    1
 Number of Electrons    NEL             ....   48
 Basis Dimension        Dim             ....  680

ORBITAL ENERGIES
----------------

  NO   OCC          E(Eh)            E(eV)
   0   2.0000     -79.956919     -2175.7384
   1   2.0000     -20.596360      -560.4554
   2   2.0000     -15.606294      -424.6688
   3   2.0000     -11.241011      -305.8835
   4   2.0000     -11.230517      -305.5979
   5   2.0000      -7.496301      -203.9847
   6   2.0000      -5.390536      -146.6839
   7   2.0000      -5.390038      -146.6704
   8   2.0000      -5.389479      -146.6552
   9   2.0000      -1.407542       -38.3012
  10   2.0000      -1.102690       -30.0057
  11   2.0000      -1.047854       -28.5136
  12   2.0000      -0.849437       -23.1144
  13   2.0000      -0.754991       -20.5443
  14   2.0000      -0.699438       -19.0327
  15   2.0000      -0.665767       -18.1164
  16   2.0000      -0.636689       -17.3252
  17   2.0000      -0.597971       -16.2716
  18   2.0000      -0.568935       -15.4815
  19   2.0000      -0.506145       -13.7729
  20   2.0000      -0.487753       -13.2724
  21   2.0000      -0.409700       -11.1485
  22   2.0000      -0.389017       -10.5857
  23   2.0000      -0.360938        -9.8216
  24   0.0000       0.026002         0.7076
  25   0.0000       0.032232         0.8771
  26   0.0000       0.038188         1.0391
  27   0.0000       0.041762         1.1364
  28   0.0000       0.050613         1.3772

MULLIKEN ATOMIC CHARGES
-----------------------
   0 P :    0.841346
   1 N :   -0.446716
   2 O :   -0.597677
   3 C :   -0.706086
   4 C :   -0.852897
   5 H :    0.477683
   6 H :    0.394716
   7 H :    0.387390
   8 H :    0.343063
   9 H :   -0.108120
  10 H :    0.267298
Sum of atomic charges:   -0.0000000

LOEWDIN ATOMIC CHARGES
----------------------
   0 P :    1.014275
   1 N :    0.284777
   2 O :    1.031284
   3 C :    0.131713
   4 C :    0.670543
   5 H :   -0.418068
   6 H :   -0.388463
   7 H :   -0.356031
   8 H :   -0.848482
   9 H :   -0.441454
  10 H :   -0.680095

  Mayer bond orders larger than 0.100000
B(  0-P ,  1-N ) :   0.7155 B(  0-P ,  3-C ) :   0.6692 B(  0-P ,  9-H ) :   0.9484
B(  1-N ,  2-O ) :   0.7725 B(  1-N , 10-H ) :   0.9115 B(  2-O ,  8-H ) :   0.9043
B(  3-C ,  4-C ) :   1.7844 B(  3-C ,  5-H ) :   0.7543 B(  4-C ,  6-H ) :   0.8440
B(  4-C ,  7-H ) :   0.9116

MP2 TOTAL ENERGY:     -550.307858911 Eh
FINAL SINGLE POINT ENERGY      -550.307858910933

DIPOLE MOMENT
-------------
                                X             Y             Z
Electronic contribution:     -2.22641      -2.55193       0.22462
Nuclear contribution   :      2.16354       2.79140      -0.23564
                        -----------------------------------------
Total Dipole Moment    :     -0.06288       0.23947      -0.01102
                        -----------------------------------------
Magnitude (a.u.)       :      0.24783
Magnitude (Debye)      :      0.62993

Rotational constants in cm-1:     0.267238     0.081711     0.067578
Rotational constants in MHz :  8011.598206  2449.643067  2025.927155

                             ****ORCA TERMINATED NORMALLY****
TOTAL RUN TIME: 0 days 0 hours 22 minutes 47 seconds 689 msec
