                         Program Version 5.0.4 -  RELEASE  -
|  1> ! ri-mp2 aug-cc-pvdz aug-cc-pvdz/c tightscf
|  2> %pal nprocs 16 end
|  3> %maxcore 3800
|  4> %base "DZ_S-Cl_10_A"
|  5> %scf
|  6> STABPerform true
|  7> STABRestartUHFifUnstable true
|  8> end
|  9>
| 10> *xyz 0 2
| 11> S         1.051256    1.676361   -0.176680
| 12> Si        -0.033420    0.008130    0.519111
| 13> Cl        -1.941545    0.034266   -0.196665
| 14> Cl         0.986841   -1.613712   -0.180895
| 15> H        -0.122239   -0.085018    1.977835
| 16> *
| 17>
| 18> $new_job
| 19> ! ri-mp2 aug-cc-pvtz aug-cc-pvtz/c tightscf
| 20> %pal nprocs 16 end
| 21> %maxcore 3800
| 22> %base "TZ_S-Cl_10_A"
| 23>
| 24> *xyz 0 2
| 25> S         1.051256    1.676361   -0.176680
| 26> Si        -0.033420    0.008130    0.519111
| 27> Cl        -1.941545    0.034266   -0.196665
| 28> Cl         0.986841   -1.613712   -0.180895
| 29> H        -0.122239   -0.085018    1.977835
| 30> *
| 31>
| 32> $new_job
| 33> ! ri-mp2 aug-cc-pvqz aug-cc-pvqz/c tightscf
| 34> %pal nprocs 16 end
| 35> %maxcore 3800
| 36> %base "QZ_S-Cl_10_A"
| 37>
| 38> *xyz 0 2
| 39> S         1.051256    1.676361   -0.176680
| 40> Si        -0.033420    0.008130    0.519111
| 41> Cl        -1.941545    0.034266   -0.196665
| 42> Cl         0.986841   -1.613712   -0.180895
| 43> H        -0.122239   -0.085018    1.977835
| 44> *
| 45>
| 46>
| 47>
| 48>
| 49>                          ****END OF INPUT****
 Total Charge           Charge          ....    0
 Multiplicity           Mult            ....    2
 Number of Electrons    NEL             ....   65
MP2 TOTAL ENERGY:    -1606.668495667 Eh
FINAL SINGLE POINT ENERGY     -1606.668495666840
MP2 TOTAL ENERGY:    -1606.877930548 Eh
FINAL SINGLE POINT ENERGY     -1606.877930548397

CARTESIAN COORDINATES (ANGSTROEM)
---------------------------------
  S      1.051256    1.676361   -0.176680
  Si    -0.033420    0.008130    0.519111
  Cl    -1.941545    0.034266   -0.196665
  Cl     0.986841   -1.613712   -0.180895
  H     -0.122239   -0.085018    1.977835

 Multiplicity           Mult            ....    2
 Number of Electrons    NEL             ....   65
 Basis Dimension        Dim             ....  382

ORBITAL ENERGIES
----------------
                 SPIN UP ORBITALS
  NO   OCC          E(Eh)            E(eV)
   0   1.0000    -104.850547     -2853.1284
   1   1.0000    -104.848499     -2853.0727
   2   1.0000     -91.995499     -2503.3248
   3   1.0000     -68.887815     -1874.5327
   4   1.0000     -10.578042      -287.8432
   5   1.0000     -10.576047      -287.7889
   6   1.0000      -8.998938      -244.8736
   7   1.0000      -8.045089      -218.9180
   8   1.0000      -8.043797      -218.8828
   9   1.0000      -8.043500      -218.8748
  10   1.0000      -8.042817      -218.8562
  11   1.0000      -8.041755      -218.8273
  12   1.0000      -8.041559      -218.8219
  13   1.0000      -6.694486      -182.1662
  14   1.0000      -6.676098      -181.6658
  15   1.0000      -6.675073      -181.6380
  16   1.0000      -6.225672      -169.4092
  17   1.0000      -4.333195      -117.9122
  18   1.0000      -4.332614      -117.8964
  19   1.0000      -4.331397      -117.8633
  20   1.0000      -1.138238       -30.9730
  21   1.0000      -1.108175       -30.1550
  22   1.0000      -0.997789       -27.1512
  23   1.0000      -0.711212       -19.3531
  24   1.0000      -0.578968       -15.7545
  25   1.0000      -0.572601       -15.5813
  26   1.0000      -0.542975       -14.7751
  27   1.0000      -0.505630       -13.7589
  28   1.0000      -0.490451       -13.3459
  29   1.0000      -0.479784       -13.0556
  30   1.0000      -0.463940       -12.6244
  31   1.0000      -0.459197       -12.4954
  32   1.0000      -0.417564       -11.3625
  33   0.0000       0.032798         0.8925
  34   0.0000       0.038849         1.0571
  35   0.0000       0.040938         1.1140
  36   0.0000       0.042232         1.1492
  37   0.0000       0.065411         1.7799

                 SPIN DOWN ORBITALS
  NO   OCC          E(Eh)            E(eV)
   0   1.0000    -104.850148     -2853.1176
   1   1.0000    -104.848407     -2853.0702
   2   1.0000     -91.986696     -2503.0852
   3   1.0000     -68.888077     -1874.5399
   4   1.0000     -10.577607      -287.8313
   5   1.0000     -10.575951      -287.7863
   6   1.0000      -8.989288      -244.6110
   7   1.0000      -8.044256      -218.8953
   8   1.0000      -8.043263      -218.8683
   9   1.0000      -8.042840      -218.8568
  10   1.0000      -8.042695      -218.8529
  11   1.0000      -8.041543      -218.8215
  12   1.0000      -8.041418      -218.8181
  13   1.0000      -6.671283      -181.5348
  14   1.0000      -6.669932      -181.4981
  15   1.0000      -6.654460      -181.0771
  16   1.0000      -6.226072      -169.4200
  17   1.0000      -4.333460      -117.9194
  18   1.0000      -4.333140      -117.9107
  19   1.0000      -4.331827      -117.8750
  20   1.0000      -1.135413       -30.8961
  21   1.0000      -1.106267       -30.1031
  22   1.0000      -0.907182       -24.6857
  23   1.0000      -0.702119       -19.1056
  24   1.0000      -0.573085       -15.5944
  25   1.0000      -0.566792       -15.4232
  26   1.0000      -0.534869       -14.5545
  27   1.0000      -0.490829       -13.3561
  28   1.0000      -0.486133       -13.2283
  29   1.0000      -0.475621       -12.9423
  30   1.0000      -0.451818       -12.2946
  31   1.0000      -0.398351       -10.8397
  32   0.0000      -0.026606        -0.7240
  33   0.0000       0.033188         0.9031
  34   0.0000       0.039355         1.0709
  35   0.0000       0.041485         1.1289
  36   0.0000       0.044719         1.2169

MULLIKEN ATOMIC CHARGES AND SPIN POPULATIONS
--------------------------------------------
   0 S :   -0.348116    1.062222
   1 Si:    1.583021   -0.081082
   2 Cl:   -0.520388    0.004057
   3 Cl:   -0.524671    0.016641
   4 H :   -0.189846   -0.001838
Sum of atomic charges         :    0.0000000

LOEWDIN ATOMIC CHARGES AND SPIN POPULATIONS
-------------------------------------------
   0 S :    0.682061    0.754378
   1 Si:   -1.916590    0.208478
   2 Cl:    0.819409    0.008841
   3 Cl:    0.820315    0.028228
   4 H :   -0.405195    0.000076

  Mayer bond orders larger than 0.100000
B(  0-S ,  1-Si) :   0.8260 B(  1-Si,  2-Cl) :   0.6400 B(  1-Si,  3-Cl) :   0.6377
B(  1-Si,  4-H ) :   0.9491

MP2 TOTAL ENERGY:    -1606.948899862 Eh
FINAL SINGLE POINT ENERGY     -1606.948899862257

DIPOLE MOMENT
-------------
                                X             Y             Z
Electronic contribution:     -1.08289      -1.82187      -1.94391
Nuclear contribution   :      1.12147       1.96193       2.30351
                        -----------------------------------------
Total Dipole Moment    :      0.03858       0.14006       0.35961
                        -----------------------------------------
Magnitude (a.u.)       :      0.38784
Magnitude (Debye)      :      0.98581

Rotational constants in cm-1:     0.085495     0.077016     0.043664
Rotational constants in MHz :  2563.088913  2308.880284  1309.027686

                             ****ORCA TERMINATED NORMALLY****
TOTAL RUN TIME: 0 days 0 hours 12 minutes 29 seconds 913 msec
