                         Program Version 5.0.4 -  RELEASE  -
|  1> ! ri-mp2 aug-cc-pvdz aug-cc-pvdz/c tightscf
|  2> %pal nprocs 16 end
|  3> %maxcore 3800
|  4> %base "DZ_P-N_52_AB"
|  5> %scf
|  6> STABPerform true
|  7> STABRestartUHFifUnstable true
|  8> end
|  9>
| 10> *xyz 0 1
| 11> P        -0.593818   -0.124947   -0.016982
| 12> N         1.092913    0.038069   -0.061165
| 13> H        -0.958088    0.949501   -0.862400
| 14> H        -0.960611    0.582688    1.161027
| 15> H         1.620553   -0.796644    0.124840
| 16> H         1.555032    0.872180    0.259416
| 17> *
| 18>
| 19> $new_job
| 20> ! ri-mp2 aug-cc-pvtz aug-cc-pvtz/c tightscf
| 21> %pal nprocs 16 end
| 22> %maxcore 3800
| 23> %base "TZ_P-N_52_AB"
| 24>
| 25> *xyz 0 1
| 26> P        -0.593818   -0.124947   -0.016982
| 27> N         1.092913    0.038069   -0.061165
| 28> H        -0.958088    0.949501   -0.862400
| 29> H        -0.960611    0.582688    1.161027
| 30> H         1.620553   -0.796644    0.124840
| 31> H         1.555032    0.872180    0.259416
| 32> *
| 33>
| 34> $new_job
| 35> ! ri-mp2 aug-cc-pvqz aug-cc-pvqz/c tightscf
| 36> %pal nprocs 16 end
| 37> %maxcore 3800
| 38> %base "QZ_P-N_52_AB"
| 39>
| 40> *xyz 0 1
| 41> P        -0.593818   -0.124947   -0.016982
| 42> N         1.092913    0.038069   -0.061165
| 43> H        -0.958088    0.949501   -0.862400
| 44> H        -0.960611    0.582688    1.161027
| 45> H         1.620553   -0.796644    0.124840
| 46> H         1.555032    0.872180    0.259416
| 47> *
| 48>
| 49>
| 50>
| 51>
| 52>                          ****END OF INPUT****
 Total Charge           Charge          ....    0
 Multiplicity           Mult            ....    1
 Number of Electrons    NEL             ....   26
MP2 TOTAL ENERGY:     -397.835047830 Eh
FINAL SINGLE POINT ENERGY      -397.835047830046
MP2 TOTAL ENERGY:     -397.937314045 Eh
FINAL SINGLE POINT ENERGY      -397.937314045136

CARTESIAN COORDINATES (ANGSTROEM)
---------------------------------
  P     -0.593818   -0.124947   -0.016982
  N      1.092913    0.038069   -0.061165
  H     -0.958088    0.949501   -0.862400
  H     -0.960611    0.582688    1.161027
  H      1.620553   -0.796644    0.124840
  H      1.555032    0.872180    0.259416

 Multiplicity           Mult            ....    1
 Number of Electrons    NEL             ....   26
 Basis Dimension        Dim             ....  348

ORBITAL ENERGIES
----------------

  NO   OCC          E(Eh)            E(eV)
   0   2.0000     -79.954362     -2175.6688
   1   2.0000     -15.551844      -423.1872
   2   2.0000      -7.493130      -203.8984
   3   2.0000      -5.387340      -146.5970
   4   2.0000      -5.386950      -146.5864
   5   2.0000      -5.386418      -146.5719
   6   2.0000      -1.163375       -31.6570
   7   2.0000      -0.823697       -22.4139
   8   2.0000      -0.677467       -18.4348
   9   2.0000      -0.585209       -15.9244
  10   2.0000      -0.537186       -14.6176
  11   2.0000      -0.406392       -11.0585
  12   2.0000      -0.366747        -9.9797
  13   0.0000       0.024182         0.6580
  14   0.0000       0.037933         1.0322
  15   0.0000       0.043107         1.1730
  16   0.0000       0.049995         1.3604
  17   0.0000       0.067717         1.8427

MULLIKEN ATOMIC CHARGES
-----------------------
   0 P :    0.471333
   1 N :   -0.836395
   2 H :   -0.072801
   3 H :   -0.078831
   4 H :    0.258139
   5 H :    0.258554
Sum of atomic charges:    0.0000000

LOEWDIN ATOMIC CHARGES
----------------------
   0 P :    1.300692
   1 N :    0.932997
   2 H :   -0.499317
   3 H :   -0.493610
   4 H :   -0.637810
   5 H :   -0.602951

  Mayer bond orders larger than 0.100000
B(  0-P ,  1-N ) :   0.8931 B(  0-P ,  2-H ) :   0.9047 B(  0-P ,  3-H ) :   0.8767
B(  1-N ,  4-H ) :   0.9702 B(  1-N ,  5-H ) :   0.9555

MP2 TOTAL ENERGY:     -397.969445787 Eh
FINAL SINGLE POINT ENERGY      -397.969445787402

DIPOLE MOMENT
-------------
                                X             Y             Z
Electronic contribution:     -1.36936      -1.43924      -0.35588
Nuclear contribution   :      1.82200       1.72049       0.69609
                        -----------------------------------------
Total Dipole Moment    :      0.45265       0.28125       0.34021
                        -----------------------------------------
Magnitude (a.u.)       :      0.63225
Magnitude (Debye)      :      1.60704

Rotational constants in cm-1:     3.193359     0.457698     0.447981
Rotational constants in MHz : 95734.503770 13721.443494 13430.136909

                             ****ORCA TERMINATED NORMALLY****
TOTAL RUN TIME: 0 days 0 hours 3 minutes 55 seconds 58 msec
