                         Program Version 5.0.4 -  RELEASE  -
|  1> ! ri-mp2 aug-cc-pvdz aug-cc-pvdz/c tightscf
|  2> %pal nprocs 16 end
|  3> %maxcore 3800
|  4> %base "DZ_P-P_12_AB"
|  5> %scf
|  6> STABPerform true
|  7> STABRestartUHFifUnstable true
|  8> end
|  9>
| 10> *xyz 0 1
| 11> P        -1.147559    0.024140   -0.714618
| 12> P         0.906532   -0.119767   -0.027198
| 13> C        -1.818661   -1.401412    0.234814
| 14> C        -1.716015    1.448601    0.302837
| 15> H        -1.642585   -1.312537    1.306000
| 16> H        -1.359208   -2.318771   -0.129847
| 17> H        -2.891551   -1.463524    0.053392
| 18> O         1.605933   -1.339849   -0.439289
| 19> O         1.607602    1.227653   -0.542675
| 20> H        -1.207679    2.353476   -0.026964
| 21> H        -1.535639    1.304758    1.366559
| 22> H        -2.784412    1.583497    0.133474
| 23> H         2.118111    1.074431   -1.346556
| 24> O         0.849450    0.131134    1.549165
| 25> H         1.622547   -0.221562    2.007669
| 26> *
| 27>
| 28> $new_job
| 29> ! ri-mp2 aug-cc-pvtz aug-cc-pvtz/c tightscf
| 30> %pal nprocs 16 end
| 31> %maxcore 3800
| 32> %base "TZ_P-P_12_AB"
| 33>
| 34> *xyz 0 1
| 35> P        -1.147559    0.024140   -0.714618
| 36> P         0.906532   -0.119767   -0.027198
| 37> C        -1.818661   -1.401412    0.234814
| 38> C        -1.716015    1.448601    0.302837
| 39> H        -1.642585   -1.312537    1.306000
| 40> H        -1.359208   -2.318771   -0.129847
| 41> H        -2.891551   -1.463524    0.053392
| 42> O         1.605933   -1.339849   -0.439289
| 43> O         1.607602    1.227653   -0.542675
| 44> H        -1.207679    2.353476   -0.026964
| 45> H        -1.535639    1.304758    1.366559
| 46> H        -2.784412    1.583497    0.133474
| 47> H         2.118111    1.074431   -1.346556
| 48> O         0.849450    0.131134    1.549165
| 49> H         1.622547   -0.221562    2.007669
| 50> *
| 51>
| 52> $new_job
| 53> ! ri-mp2 aug-cc-pvqz aug-cc-pvqz/c tightscf
| 54> %pal nprocs 16 end
| 55> %maxcore 3800
| 56> %base "QZ_P-P_12_AB"
| 57>
| 58> *xyz 0 1
| 59> P        -1.147559    0.024140   -0.714618
| 60> P         0.906532   -0.119767   -0.027198
| 61> C        -1.818661   -1.401412    0.234814
| 62> C        -1.716015    1.448601    0.302837
| 63> H        -1.642585   -1.312537    1.306000
| 64> H        -1.359208   -2.318771   -0.129847
| 65> H        -2.891551   -1.463524    0.053392
| 66> O         1.605933   -1.339849   -0.439289
| 67> O         1.607602    1.227653   -0.542675
| 68> H        -1.207679    2.353476   -0.026964
| 69> H        -1.535639    1.304758    1.366559
| 70> H        -2.784412    1.583497    0.133474
| 71> H         2.118111    1.074431   -1.346556
| 72> O         0.849450    0.131134    1.549165
| 73> H         1.622547   -0.221562    2.007669
| 74> *
| 75>
| 76>
| 77>
| 78>
| 79>                          ****END OF INPUT****
 Total Charge           Charge          ....    0
 Multiplicity           Mult            ....    1
 Number of Electrons    NEL             ....   74
MP2 TOTAL ENERGY:     -987.740367275 Eh
FINAL SINGLE POINT ENERGY      -987.740367275287
MP2 TOTAL ENERGY:     -988.132496473 Eh
FINAL SINGLE POINT ENERGY      -988.132496472813

CARTESIAN COORDINATES (ANGSTROEM)
---------------------------------
  P     -1.147559    0.024140   -0.714618
  P      0.906532   -0.119767   -0.027198
  C     -1.818661   -1.401412    0.234814
  C     -1.716015    1.448601    0.302837
  H     -1.642585   -1.312537    1.306000
  H     -1.359208   -2.318771   -0.129847
  H     -2.891551   -1.463524    0.053392
  O      1.605933   -1.339849   -0.439289
  O      1.607602    1.227653   -0.542675
  H     -1.207679    2.353476   -0.026964
  H     -1.535639    1.304758    1.366559
  H     -2.784412    1.583497    0.133474
  H      2.118111    1.074431   -1.346556
  O      0.849450    0.131134    1.549165
  H      1.622547   -0.221562    2.007669

 Multiplicity           Mult            ....    1
 Number of Electrons    NEL             ....   74
 Basis Dimension        Dim             ....  936

ORBITAL ENERGIES
----------------

  NO   OCC          E(Eh)            E(eV)
   0   2.0000     -80.065040     -2178.6805
   1   2.0000     -79.949896     -2175.5473
   2   2.0000     -20.600144      -560.5584
   3   2.0000     -20.597036      -560.4738
   4   2.0000     -20.504513      -557.9562
   5   2.0000     -11.234129      -305.6962
   6   2.0000     -11.233343      -305.6748
   7   2.0000      -7.588157      -206.4842
   8   2.0000      -7.492633      -203.8849
   9   2.0000      -5.486119      -149.2849
  10   2.0000      -5.485465      -149.2671
  11   2.0000      -5.484533      -149.2417
  12   2.0000      -5.386755      -146.5811
  13   2.0000      -5.386332      -146.5695
  14   2.0000      -5.385397      -146.5441
  15   2.0000      -1.434490       -39.0345
  16   2.0000      -1.383237       -37.6398
  17   2.0000      -1.296196       -35.2713
  18   2.0000      -1.022804       -27.8319
  19   2.0000      -0.951710       -25.8973
  20   2.0000      -0.865420       -23.5493
  21   2.0000      -0.759695       -20.6723
  22   2.0000      -0.738556       -20.0971
  23   2.0000      -0.671032       -18.2597
  24   2.0000      -0.644943       -17.5498
  25   2.0000      -0.621580       -16.9140
  26   2.0000      -0.599464       -16.3123
  27   2.0000      -0.583230       -15.8705
  28   2.0000      -0.574562       -15.6346
  29   2.0000      -0.567402       -15.4398
  30   2.0000      -0.559711       -15.2305
  31   2.0000      -0.549236       -14.9455
  32   2.0000      -0.499829       -13.6010
  33   2.0000      -0.477513       -12.9938
  34   2.0000      -0.465447       -12.6654
  35   2.0000      -0.429902       -11.6982
  36   2.0000      -0.358384        -9.7521
  37   0.0000       0.023768         0.6468
  38   0.0000       0.030095         0.8189
  39   0.0000       0.032235         0.8772
  40   0.0000       0.037306         1.0151
  41   0.0000       0.048818         1.3284

MULLIKEN ATOMIC CHARGES
-----------------------
   0 P :    0.497261
   1 P :    2.231152
   2 C :   -1.160573
   3 C :   -1.170264
   4 H :    0.287765
   5 H :    0.352747
   6 H :    0.357812
   7 O :   -1.270001
   8 O :   -0.986396
   9 H :    0.346210
  10 H :    0.322783
  11 H :    0.353333
  12 H :    0.380579
  13 O :   -0.874199
  14 H :    0.331789
Sum of atomic charges:    0.0000000

LOEWDIN ATOMIC CHARGES
----------------------
   0 P :    0.875556
   1 P :   -0.826153
   2 C :    0.730337
   3 C :    0.732173
   4 H :   -0.355916
   5 H :   -0.364941
   6 H :   -0.357523
   7 O :    0.258684
   8 O :    1.058380
   9 H :   -0.364082
  10 H :   -0.367328
  11 H :   -0.358564
  12 H :   -0.879274
  13 O :    1.069511
  14 H :   -0.850860

  Mayer bond orders larger than 0.100000
B(  0-P ,  1-P ) :   0.9868 B(  0-P ,  2-C ) :   0.8841 B(  0-P ,  3-C ) :   0.8797
B(  1-P ,  7-O ) :   1.2327 B(  1-P ,  8-O ) :   0.5331 B(  1-P , 13-O ) :   0.5752
B(  2-C ,  4-H ) :   0.8981 B(  2-C ,  5-H ) :   0.8726 B(  2-C ,  6-H ) :   0.8762
B(  3-C ,  9-H ) :   0.8878 B(  3-C , 10-H ) :   0.8884 B(  3-C , 11-H ) :   0.8738
B(  8-O , 12-H ) :   0.9216 B( 13-O , 14-H ) :   0.9488

MP2 TOTAL ENERGY:     -988.257168994 Eh
FINAL SINGLE POINT ENERGY      -988.257168993900

DIPOLE MOMENT
-------------
                                X             Y             Z
Electronic contribution:      6.68037      -0.40167      -3.44216
Nuclear contribution   :     -7.22801       1.06768       3.99145
                        -----------------------------------------
Total Dipole Moment    :     -0.54764       0.66601       0.54929
                        -----------------------------------------
Magnitude (a.u.)       :      1.02235
Magnitude (Debye)      :      2.59860

Rotational constants in cm-1:     0.086114     0.049557     0.043241
Rotational constants in MHz :  2581.647163  1485.675571  1296.343361

                             ****ORCA TERMINATED NORMALLY****
TOTAL RUN TIME: 0 days 1 hours 39 minutes 5 seconds 971 msec
