                         Program Version 5.0.4 -  RELEASE  -
|  1> ! ri-mp2 aug-cc-pvdz aug-cc-pvdz/c tightscf
|  2> %pal nprocs 16 end
|  3> %maxcore 3800
|  4> %base "DZ_Si-S_1_AB"
|  5> %scf
|  6> STABPerform true
|  7> STABRestartUHFifUnstable true
|  8> end
|  9>
| 10> *xyz 0 1
| 11> S        -1.914892   -0.918128   -0.104371
| 12> Si        -0.901230    0.959646    0.125886
| 13> C         0.863533    0.696591   -0.417911
| 14> H        -3.107889   -0.471812    0.311145
| 15> C         1.641043   -0.342409    0.390352
| 16> H         1.368314    1.666675   -0.359341
| 17> H         0.861496    0.423865   -1.477482
| 18> C         3.082818   -0.487951   -0.072042
| 19> H         1.139418   -1.310573    0.323479
| 20> H         1.623903   -0.069179    1.448794
| 21> H         3.127774   -0.794030   -1.118808
| 22> H         3.616773   -1.234164    0.517384
| 23> H         3.620475    0.457724    0.018777
| 24> H        -0.958260    1.393403    1.540476
| 25> H        -1.560874    1.995705   -0.699290
| 26> *
| 27>
| 28> $new_job
| 29> ! ri-mp2 aug-cc-pvtz aug-cc-pvtz/c tightscf
| 30> %pal nprocs 16 end
| 31> %maxcore 3800
| 32> %base "TZ_Si-S_1_AB"
| 33>
| 34> *xyz 0 1
| 35> S        -1.914892   -0.918128   -0.104371
| 36> Si        -0.901230    0.959646    0.125886
| 37> C         0.863533    0.696591   -0.417911
| 38> H        -3.107889   -0.471812    0.311145
| 39> C         1.641043   -0.342409    0.390352
| 40> H         1.368314    1.666675   -0.359341
| 41> H         0.861496    0.423865   -1.477482
| 42> C         3.082818   -0.487951   -0.072042
| 43> H         1.139418   -1.310573    0.323479
| 44> H         1.623903   -0.069179    1.448794
| 45> H         3.127774   -0.794030   -1.118808
| 46> H         3.616773   -1.234164    0.517384
| 47> H         3.620475    0.457724    0.018777
| 48> H        -0.958260    1.393403    1.540476
| 49> H        -1.560874    1.995705   -0.699290
| 50> *
| 51>
| 52> $new_job
| 53> ! ri-mp2 aug-cc-pvqz aug-cc-pvqz/c tightscf
| 54> %pal nprocs 16 end
| 55> %maxcore 3800
| 56> %base "QZ_Si-S_1_AB"
| 57>
| 58> *xyz 0 1
| 59> S        -1.914892   -0.918128   -0.104371
| 60> Si        -0.901230    0.959646    0.125886
| 61> C         0.863533    0.696591   -0.417911
| 62> H        -3.107889   -0.471812    0.311145
| 63> C         1.641043   -0.342409    0.390352
| 64> H         1.368314    1.666675   -0.359341
| 65> H         0.861496    0.423865   -1.477482
| 66> C         3.082818   -0.487951   -0.072042
| 67> H         1.139418   -1.310573    0.323479
| 68> H         1.623903   -0.069179    1.448794
| 69> H         3.127774   -0.794030   -1.118808
| 70> H         3.616773   -1.234164    0.517384
| 71> H         3.620475    0.457724    0.018777
| 72> H        -0.958260    1.393403    1.540476
| 73> H        -1.560874    1.995705   -0.699290
| 74> *
| 75>
| 76>
| 77>
| 78>
| 79>                          ****END OF INPUT****
 Total Charge           Charge          ....    0
 Multiplicity           Mult            ....    1
 Number of Electrons    NEL             ....   58
MP2 TOTAL ENERGY:     -806.644716137 Eh
FINAL SINGLE POINT ENERGY      -806.644716136576
MP2 TOTAL ENERGY:     -806.854500152 Eh
FINAL SINGLE POINT ENERGY      -806.854500151547

CARTESIAN COORDINATES (ANGSTROEM)
---------------------------------
  S     -1.914892   -0.918128   -0.104371
  Si    -0.901230    0.959646    0.125886
  C      0.863533    0.696591   -0.417911
  H     -3.107889   -0.471812    0.311145
  C      1.641043   -0.342409    0.390352
  H      1.368314    1.666675   -0.359341
  H      0.861496    0.423865   -1.477482
  C      3.082818   -0.487951   -0.072042
  H      1.139418   -1.310573    0.323479
  H      1.623903   -0.069179    1.448794
  H      3.127774   -0.794030   -1.118808
  H      3.616773   -1.234164    0.517384
  H      3.620475    0.457724    0.018777
  H     -0.958260    1.393403    1.540476
  H     -1.560874    1.995705   -0.699290

 Multiplicity           Mult            ....    1
 Number of Electrons    NEL             ....   58
 Basis Dimension        Dim             ....  868

ORBITAL ENERGIES
----------------

  NO   OCC          E(Eh)            E(eV)
   0   2.0000     -91.942452     -2501.8813
   1   2.0000     -68.786094     -1871.7648
   2   2.0000     -11.227062      -305.5039
   3   2.0000     -11.214325      -305.1573
   4   2.0000     -11.213295      -305.1293
   5   2.0000      -8.947219      -243.4662
   6   2.0000      -6.628772      -180.3781
   7   2.0000      -6.627980      -180.3565
   8   2.0000      -6.627162      -180.3342
   9   2.0000      -6.133663      -166.9055
  10   2.0000      -4.240377      -115.3865
  11   2.0000      -4.239674      -115.3674
  12   2.0000      -4.239493      -115.3625
  13   2.0000      -1.064467       -28.9656
  14   2.0000      -0.967830       -26.3360
  15   2.0000      -0.930012       -25.3069
  16   2.0000      -0.812175       -22.1004
  17   2.0000      -0.687846       -18.7172
  18   2.0000      -0.638551       -17.3758
  19   2.0000      -0.580601       -15.7990
  20   2.0000      -0.563237       -15.3264
  21   2.0000      -0.548692       -14.9307
  22   2.0000      -0.529350       -14.4043
  23   2.0000      -0.496861       -13.5203
  24   2.0000      -0.481547       -13.1036
  25   2.0000      -0.475346       -12.9348
  26   2.0000      -0.438617       -11.9354
  27   2.0000      -0.430985       -11.7277
  28   2.0000      -0.371918       -10.1204
  29   0.0000       0.024609         0.6696
  30   0.0000       0.030698         0.8353
  31   0.0000       0.033001         0.8980
  32   0.0000       0.034868         0.9488
  33   0.0000       0.046936         1.2772

MULLIKEN ATOMIC CHARGES
-----------------------
   0 S :   -0.480344
   1 Si:    0.922984
   2 C :   -0.528942
   3 H :    0.048190
   4 C :   -0.336970
   5 H :    0.250672
   6 H :    0.212510
   7 C :   -0.854487
   8 H :    0.259969
   9 H :    0.249528
  10 H :    0.228992
  11 H :    0.259550
  12 H :    0.222539
  13 H :   -0.200919
  14 H :   -0.253271
Sum of atomic charges:   -0.0000000

LOEWDIN ATOMIC CHARGES
----------------------
   0 S :    1.450599
   1 Si:    0.296976
   2 C :    0.440774
   3 H :   -0.888847
   4 C :    0.411597
   5 H :   -0.339545
   6 H :   -0.341681
   7 C :    0.921996
   8 H :   -0.306356
   9 H :   -0.286769
  10 H :   -0.284631
  11 H :   -0.281389
  12 H :   -0.285425
  13 H :   -0.248960
  14 H :   -0.258339

  Mayer bond orders larger than 0.100000
B(  0-S ,  1-Si) :   0.6870 B(  0-S ,  3-H ) :   1.0620 B(  1-Si,  2-C ) :   0.9205
B(  1-Si, 13-H ) :   0.7721 B(  1-Si, 14-H ) :   0.7963 B(  2-C ,  4-C ) :   0.8574
B(  2-C ,  5-H ) :   0.9197 B(  2-C ,  6-H ) :   0.9391 B(  4-C ,  7-C ) :   0.9396
B(  4-C ,  8-H ) :   0.8695 B(  4-C ,  9-H ) :   0.8857 B(  7-C , 10-H ) :   0.9521
B(  7-C , 11-H ) :   1.0030 B(  7-C , 12-H ) :   0.9599

MP2 TOTAL ENERGY:     -806.919170255 Eh
FINAL SINGLE POINT ENERGY      -806.919170255142

DIPOLE MOMENT
-------------
                                X             Y             Z
Electronic contribution:     -9.84660      -1.68982      -0.43683
Nuclear contribution   :     10.09223       2.07862       0.51329
                        -----------------------------------------
Total Dipole Moment    :      0.24563       0.38880       0.07646
                        -----------------------------------------
Magnitude (a.u.)       :      0.46620
Magnitude (Debye)      :      1.18499

Rotational constants in cm-1:     0.187510     0.046196     0.039464
Rotational constants in MHz :  5621.396476  1384.918146  1183.097522

                             ****ORCA TERMINATED NORMALLY****
TOTAL RUN TIME: 0 days 1 hours 17 minutes 48 seconds 590 msec
