                         Program Version 5.0.4 -  RELEASE  -
|  1> ! ri-mp2 aug-cc-pvdz aug-cc-pvdz/c tightscf
|  2> %pal nprocs 16 end
|  3> %maxcore 3800
|  4> %base "DZ_P-Si_26_A"
|  5> %scf
|  6> STABPerform true
|  7> STABRestartUHFifUnstable true
|  8> end
|  9>
| 10> *xyz 0 2
| 11> Si         1.522216    0.000000    0.072048
| 12> C         0.438620    1.490857   -0.301786
| 13> C        -0.972566    1.284085    0.274380
| 14> C        -1.649971    0.000000   -0.200597
| 15> C        -0.972566   -1.284085    0.274380
| 16> C         0.438620   -1.490857   -0.301786
| 17> H         0.371291    1.617577   -1.386056
| 18> H         0.883974    2.406796    0.089752
| 19> H        -1.600013    2.138809    0.008226
| 20> H        -0.922254    1.272534    1.367557
| 21> H        -1.695283    0.000000   -1.295145
| 22> H        -2.685174    0.000000    0.147629
| 23> H        -1.600013   -2.138809    0.008226
| 24> H        -0.922254   -1.272534    1.367557
| 25> H         0.371291   -1.617577   -1.386056
| 26> H         0.883973   -2.406796    0.089752
| 27> H         1.910616    0.000000    1.512346
| 28> *
| 29>
| 30> $new_job
| 31> ! ri-mp2 aug-cc-pvtz aug-cc-pvtz/c tightscf
| 32> %pal nprocs 16 end
| 33> %maxcore 3800
| 34> %base "TZ_P-Si_26_A"
| 35>
| 36> *xyz 0 2
| 37> Si         1.522216    0.000000    0.072048
| 38> C         0.438620    1.490857   -0.301786
| 39> C        -0.972566    1.284085    0.274380
| 40> C        -1.649971    0.000000   -0.200597
| 41> C        -0.972566   -1.284085    0.274380
| 42> C         0.438620   -1.490857   -0.301786
| 43> H         0.371291    1.617577   -1.386056
| 44> H         0.883974    2.406796    0.089752
| 45> H        -1.600013    2.138809    0.008226
| 46> H        -0.922254    1.272534    1.367557
| 47> H        -1.695283    0.000000   -1.295145
| 48> H        -2.685174    0.000000    0.147629
| 49> H        -1.600013   -2.138809    0.008226
| 50> H        -0.922254   -1.272534    1.367557
| 51> H         0.371291   -1.617577   -1.386056
| 52> H         0.883973   -2.406796    0.089752
| 53> H         1.910616    0.000000    1.512346
| 54> *
| 55>
| 56> $new_job
| 57> ! ri-mp2 aug-cc-pvqz aug-cc-pvqz/c tightscf
| 58> %pal nprocs 16 end
| 59> %maxcore 3800
| 60> %base "QZ_P-Si_26_A"
| 61>
| 62> *xyz 0 2
| 63> Si         1.522216    0.000000    0.072048
| 64> C         0.438620    1.490857   -0.301786
| 65> C        -0.972566    1.284085    0.274380
| 66> C        -1.649971    0.000000   -0.200597
| 67> C        -0.972566   -1.284085    0.274380
| 68> C         0.438620   -1.490857   -0.301786
| 69> H         0.371291    1.617577   -1.386056
| 70> H         0.883974    2.406796    0.089752
| 71> H        -1.600013    2.138809    0.008226
| 72> H        -0.922254    1.272534    1.367557
| 73> H        -1.695283    0.000000   -1.295145
| 74> H        -2.685174    0.000000    0.147629
| 75> H        -1.600013   -2.138809    0.008226
| 76> H        -0.922254   -1.272534    1.367557
| 77> H         0.371291   -1.617577   -1.386056
| 78> H         0.883973   -2.406796    0.089752
| 79> H         1.910616    0.000000    1.512346
| 80> *
| 81>
| 82>
| 83>
| 84>
| 85>                          ****END OF INPUT****
 Total Charge           Charge          ....    0
 Multiplicity           Mult            ....    2
 Number of Electrons    NEL             ....   55
MP2 TOTAL ENERGY:     -485.493375682 Eh
FINAL SINGLE POINT ENERGY      -485.493375681931
MP2 TOTAL ENERGY:     -485.714538111 Eh
FINAL SINGLE POINT ENERGY      -485.714538111015

CARTESIAN COORDINATES (ANGSTROEM)
---------------------------------
  Si     1.522216    0.000000    0.072048
  C      0.438620    1.490857   -0.301786
  C     -0.972566    1.284085    0.274380
  C     -1.649971    0.000000   -0.200597
  C     -0.972566   -1.284085    0.274380
  C      0.438620   -1.490857   -0.301786
  H      0.371291    1.617577   -1.386056
  H      0.883974    2.406796    0.089752
  H     -1.600013    2.138809    0.008226
  H     -0.922254    1.272534    1.367557
  H     -1.695283    0.000000   -1.295145
  H     -2.685174    0.000000    0.147629
  H     -1.600013   -2.138809    0.008226
  H     -0.922254   -1.272534    1.367557
  H      0.371291   -1.617577   -1.386056
  H      0.883973   -2.406796    0.089752
  H      1.910616    0.000000    1.512346

 Multiplicity           Mult            ....    2
 Number of Electrons    NEL             ....   55
 Basis Dimension        Dim             ....  990

ORBITAL ENERGIES
----------------
                 SPIN UP ORBITALS
  NO   OCC          E(Eh)            E(eV)
   0   1.0000     -68.756925     -1870.9710
   1   1.0000     -11.221604      -305.3554
   2   1.0000     -11.221581      -305.3547
   3   1.0000     -11.216031      -305.2037
   4   1.0000     -11.203945      -304.8748
   5   1.0000     -11.203938      -304.8746
   6   1.0000      -6.107865      -166.2035
   7   1.0000      -4.220440      -114.8440
   8   1.0000      -4.210695      -114.5788
   9   1.0000      -4.210479      -114.5730
  10   1.0000      -1.090162       -29.6648
  11   1.0000      -1.004920       -27.3453
  12   1.0000      -0.934616       -25.4322
  13   1.0000      -0.826588       -22.4926
  14   1.0000      -0.777174       -21.1480
  15   1.0000      -0.680082       -18.5060
  16   1.0000      -0.628771       -17.1097
  17   1.0000      -0.599438       -16.3115
  18   1.0000      -0.586948       -15.9717
  19   1.0000      -0.556805       -15.1514
  20   1.0000      -0.538319       -14.6484
  21   1.0000      -0.499224       -13.5846
  22   1.0000      -0.483391       -13.1537
  23   1.0000      -0.476162       -12.9570
  24   1.0000      -0.466846       -12.7035
  25   1.0000      -0.436124       -11.8675
  26   1.0000      -0.399036       -10.8583
  27   1.0000      -0.308256        -8.3881
  28   0.0000       0.023147         0.6299
  29   0.0000       0.030713         0.8357
  30   0.0000       0.032076         0.8728
  31   0.0000       0.033378         0.9083
  32   0.0000       0.044904         1.2219

                 SPIN DOWN ORBITALS
  NO   OCC          E(Eh)            E(eV)
   0   1.0000     -68.751406     -1870.8209
   1   1.0000     -11.220851      -305.3349
   2   1.0000     -11.220823      -305.3341
   3   1.0000     -11.216099      -305.2056
   4   1.0000     -11.203221      -304.8551
   5   1.0000     -11.203212      -304.8549
   6   1.0000      -6.099342      -165.9715
   7   1.0000      -4.207149      -114.4824
   8   1.0000      -4.206798      -114.4728
   9   1.0000      -4.198666      -114.2515
  10   1.0000      -1.087687       -29.5975
  11   1.0000      -1.001669       -27.2568
  12   1.0000      -0.929570       -25.2949
  13   1.0000      -0.824553       -22.4372
  14   1.0000      -0.772626       -21.0242
  15   1.0000      -0.660930       -17.9848
  16   1.0000      -0.625002       -17.0072
  17   1.0000      -0.598111       -16.2754
  18   1.0000      -0.572021       -15.5655
  19   1.0000      -0.549439       -14.9510
  20   1.0000      -0.536184       -14.5903
  21   1.0000      -0.493937       -13.4407
  22   1.0000      -0.482145       -13.1198
  23   1.0000      -0.470807       -12.8113
  24   1.0000      -0.464523       -12.6403
  25   1.0000      -0.425512       -11.5788
  26   1.0000      -0.392882       -10.6909
  27   0.0000       0.023034         0.6268
  28   0.0000       0.028943         0.7876
  29   0.0000       0.030819         0.8386
  30   0.0000       0.033027         0.8987
  31   0.0000       0.044763         1.2181

MULLIKEN ATOMIC CHARGES AND SPIN POPULATIONS
--------------------------------------------
   0 Si:    0.534583    1.031556
   1 C :   -0.672941   -0.036473
   2 C :   -0.457229    0.028105
   3 C :   -0.397981   -0.006693
   4 C :   -0.457199    0.028105
   5 C :   -0.672951   -0.036475
   6 H :    0.184859    0.000088
   7 H :    0.261938   -0.010434
   8 H :    0.276004    0.006649
   9 H :    0.230341   -0.004433
  10 H :    0.210935    0.002006
  11 H :    0.272933   -0.004944
  12 H :    0.276008    0.006650
  13 H :    0.230343   -0.004433
  14 H :    0.184843    0.000086
  15 H :    0.261962   -0.010433
  16 H :   -0.266447    0.011070
Sum of atomic charges         :    0.0000000

LOEWDIN ATOMIC CHARGES AND SPIN POPULATIONS
-------------------------------------------
   0 Si:    0.862284    0.524209
   1 C :    0.496458    0.121184
   2 C :    0.455253    0.018745
   3 C :    0.500106    0.005374
   4 C :    0.455253    0.018745
   5 C :    0.496458    0.121184
   6 H :   -0.345198    0.014854
   7 H :   -0.343697    0.009327
   8 H :   -0.267669    0.004616
   9 H :   -0.280111    0.005172
  10 H :   -0.267732   -0.000071
  11 H :   -0.265814    0.000653
  12 H :   -0.267669    0.004616
  13 H :   -0.280111    0.005172
  14 H :   -0.345198    0.014854
  15 H :   -0.343698    0.009327
  16 H :   -0.258914    0.122039

  Mayer bond orders larger than 0.100000
B(  0-Si,  1-C ) :   0.7271 B(  0-Si,  5-C ) :   0.7271 B(  0-Si, 16-H ) :   0.8466
B(  1-C ,  2-C ) :   0.9724 B(  1-C ,  6-H ) :   0.9653 B(  1-C ,  7-H ) :   0.9745
B(  2-C ,  3-C ) :   0.8790 B(  2-C ,  8-H ) :   0.9076 B(  2-C ,  9-H ) :   0.9085
B(  3-C ,  4-C ) :   0.8789 B(  3-C , 10-H ) :   0.9265 B(  3-C , 11-H ) :   0.9296
B(  4-C ,  5-C ) :   0.9724 B(  4-C , 12-H ) :   0.9076 B(  4-C , 13-H ) :   0.9085
B(  5-C , 14-H ) :   0.9653 B(  5-C , 15-H ) :   0.9745

MP2 TOTAL ENERGY:     -485.781394759 Eh
FINAL SINGLE POINT ENERGY      -485.781394758950

DIPOLE MOMENT
-------------
                                X             Y             Z
Electronic contribution:      4.94889      -0.00000      -0.64741
Nuclear contribution   :     -5.30503       0.00000       0.54069
                        -----------------------------------------
Total Dipole Moment    :     -0.35614      -0.00000      -0.10672
                        -----------------------------------------
Magnitude (a.u.)       :      0.37179
Magnitude (Debye)      :      0.94502

Rotational constants in cm-1:     0.121513     0.102955     0.062461
Rotational constants in MHz :  3642.876492  3086.526219  1872.540636

                             ****ORCA TERMINATED NORMALLY****
TOTAL RUN TIME: 0 days 5 hours 7 minutes 24 seconds 760 msec
