                         Program Version 5.0.4 -  RELEASE  -
|  1> ! ri-mp2 aug-cc-pvdz aug-cc-pvdz/c tightscf
|  2> %pal nprocs 16 end
|  3> %maxcore 3800
|  4> %base "DZ_P-S_1_A"
|  5> %scf
|  6> STABPerform true
|  7> STABRestartUHFifUnstable true
|  8> end
|  9>
| 10> *xyz 0 2
| 11> S         1.795318   -0.074377    0.000001
| 12> O         0.288377   -0.662948   -0.000006
| 13> C        -0.847168    0.145886   -0.000001
| 14> C        -0.818797    1.464769   -0.000001
| 15> C        -2.054203   -0.723507    0.000004
| 16> H        -2.958455   -0.120119    0.000006
| 17> H        -2.056686   -1.368566    0.879598
| 18> H        -2.056691   -1.368568   -0.879589
| 19> H         0.108918    2.015537   -0.000005
| 20> H        -1.748189    2.012451    0.000002
| 21> *
| 22>
| 23> $new_job
| 24> ! ri-mp2 aug-cc-pvtz aug-cc-pvtz/c tightscf
| 25> %pal nprocs 16 end
| 26> %maxcore 3800
| 27> %base "TZ_P-S_1_A"
| 28>
| 29> *xyz 0 2
| 30> S         1.795318   -0.074377    0.000001
| 31> O         0.288377   -0.662948   -0.000006
| 32> C        -0.847168    0.145886   -0.000001
| 33> C        -0.818797    1.464769   -0.000001
| 34> C        -2.054203   -0.723507    0.000004
| 35> H        -2.958455   -0.120119    0.000006
| 36> H        -2.056686   -1.368566    0.879598
| 37> H        -2.056691   -1.368568   -0.879589
| 38> H         0.108918    2.015537   -0.000005
| 39> H        -1.748189    2.012451    0.000002
| 40> *
| 41>
| 42> $new_job
| 43> ! ri-mp2 aug-cc-pvqz aug-cc-pvqz/c tightscf
| 44> %pal nprocs 16 end
| 45> %maxcore 3800
| 46> %base "QZ_P-S_1_A"
| 47>
| 48> *xyz 0 2
| 49> S         1.795318   -0.074377    0.000001
| 50> O         0.288377   -0.662948   -0.000006
| 51> C        -0.847168    0.145886   -0.000001
| 52> C        -0.818797    1.464769   -0.000001
| 53> C        -2.054203   -0.723507    0.000004
| 54> H        -2.958455   -0.120119    0.000006
| 55> H        -2.056686   -1.368566    0.879598
| 56> H        -2.056691   -1.368568   -0.879589
| 57> H         0.108918    2.015537   -0.000005
| 58> H        -1.748189    2.012451    0.000002
| 59> *
| 60>
| 61>
| 62>
| 63>
| 64>                          ****END OF INPUT****
 Total Charge           Charge          ....    0
 Multiplicity           Mult            ....    2
 Number of Electrons    NEL             ....   47
MP2 TOTAL ENERGY:     -589.601735430 Eh
FINAL SINGLE POINT ENERGY      -589.601735429782
MP2 TOTAL ENERGY:     -589.825318158 Eh
FINAL SINGLE POINT ENERGY      -589.825318158219

CARTESIAN COORDINATES (ANGSTROEM)
---------------------------------
  S      1.795318   -0.074377    0.000001
  O      0.288377   -0.662948   -0.000006
  C     -0.847168    0.145886   -0.000001
  C     -0.818797    1.464769   -0.000001
  C     -2.054203   -0.723507    0.000004
  H     -2.958455   -0.120119    0.000006
  H     -2.056686   -1.368566    0.879598
  H     -2.056691   -1.368568   -0.879589
  H      0.108918    2.015537   -0.000005
  H     -1.748189    2.012451    0.000002

 Multiplicity           Mult            ....    2
 Number of Electrons    NEL             ....   47
 Basis Dimension        Dim             ....  634

ORBITAL ENERGIES
----------------
                 SPIN UP ORBITALS
  NO   OCC          E(Eh)            E(eV)
   0   1.0000     -92.017321     -2503.9186
   1   1.0000     -20.627031      -561.2900
   2   1.0000     -11.306969      -307.6783
   3   1.0000     -11.233505      -305.6792
   4   1.0000     -11.218601      -305.2736
   5   1.0000      -9.014020      -245.2840
   6   1.0000      -6.708606      -182.5505
   7   1.0000      -6.691534      -182.0859
   8   1.0000      -6.689426      -182.0285
   9   1.0000      -1.439269       -39.1645
  10   1.0000      -1.084065       -29.4989
  11   1.0000      -0.971544       -26.4370
  12   1.0000      -0.943338       -25.6695
  13   1.0000      -0.751774       -20.4568
  14   1.0000      -0.673363       -18.3231
  15   1.0000      -0.661627       -18.0038
  16   1.0000      -0.656326       -17.8595
  17   1.0000      -0.572660       -15.5829
  18   1.0000      -0.571104       -15.5405
  19   1.0000      -0.548234       -14.9182
  20   1.0000      -0.527129       -14.3439
  21   1.0000      -0.432231       -11.7616
  22   1.0000      -0.378266       -10.2931
  23   1.0000      -0.361917        -9.8483
  24   0.0000       0.026455         0.7199
  25   0.0000       0.033051         0.8994
  26   0.0000       0.038561         1.0493
  27   0.0000       0.042776         1.1640
  28   0.0000       0.052911         1.4398

                 SPIN DOWN ORBITALS
  NO   OCC          E(Eh)            E(eV)
   0   1.0000     -92.008762     -2503.6857
   1   1.0000     -20.619984      -561.0983
   2   1.0000     -11.309883      -307.7576
   3   1.0000     -11.233186      -305.6705
   4   1.0000     -11.216059      -305.2045
   5   1.0000      -9.004590      -245.0273
   6   1.0000      -6.688114      -181.9928
   7   1.0000      -6.684546      -181.8957
   8   1.0000      -6.668893      -181.4698
   9   1.0000      -1.421091       -38.6698
  10   1.0000      -1.080261       -29.3954
  11   1.0000      -0.960750       -26.1433
  12   1.0000      -0.896605       -24.3979
  13   1.0000      -0.729481       -19.8502
  14   1.0000      -0.670759       -18.2523
  15   1.0000      -0.639794       -17.4097
  16   1.0000      -0.621415       -16.9096
  17   1.0000      -0.568727       -15.4759
  18   1.0000      -0.551163       -14.9979
  19   1.0000      -0.544990       -14.8299
  20   1.0000      -0.521828       -14.1997
  21   1.0000      -0.361490        -9.8366
  22   1.0000      -0.358870        -9.7653
  23   0.0000       0.016493         0.4488
  24   0.0000       0.026570         0.7230
  25   0.0000       0.033257         0.9050
  26   0.0000       0.038976         1.0606
  27   0.0000       0.045308         1.2329

MULLIKEN ATOMIC CHARGES AND SPIN POPULATIONS
--------------------------------------------
   0 S :    0.223075    0.962769
   1 O :   -0.677942    0.034316
   2 C :    0.475935   -0.123649
   3 C :   -0.880939    0.137190
   4 C :   -0.674819    0.013192
   5 H :    0.249444   -0.000835
   6 H :    0.278169   -0.005041
   7 H :    0.278172   -0.005041
   8 H :    0.423180   -0.006975
   9 H :    0.305726   -0.005925
Sum of atomic charges         :   -0.0000000

LOEWDIN ATOMIC CHARGES AND SPIN POPULATIONS
-------------------------------------------
   0 S :    0.694461    0.748534
   1 O :    0.109196    0.216057
   2 C :   -0.614201   -0.012452
   3 C :    0.693711    0.032998
   4 C :    0.843614   -0.010996
   5 H :   -0.316438   -0.000741
   6 H :   -0.296183   -0.002146
   7 H :   -0.296183   -0.002146
   8 H :   -0.450466    0.016589
   9 H :   -0.367511    0.014301

  Mayer bond orders larger than 0.100000
B(  0-S ,  1-O ) :   0.9020 B(  1-O ,  2-C ) :   0.5991 B(  1-O ,  3-C ) :   0.1127
B(  2-C ,  3-C ) :   1.6162 B(  2-C ,  4-C ) :   0.7418 B(  3-C ,  8-H ) :   0.8828
B(  3-C ,  9-H ) :   1.0013 B(  4-C ,  5-H ) :   1.0036 B(  4-C ,  6-H ) :   0.9331
B(  4-C ,  7-H ) :   0.9331

MP2 TOTAL ENERGY:     -589.895732315 Eh
FINAL SINGLE POINT ENERGY      -589.895732314747

DIPOLE MOMENT
-------------
                                X             Y             Z
Electronic contribution:      8.17312      -0.95316      -0.00001
Nuclear contribution   :     -8.67716       1.15133       0.00001
                        -----------------------------------------
Total Dipole Moment    :     -0.50404       0.19817       0.00000
                        -----------------------------------------
Magnitude (a.u.)       :      0.54160
Magnitude (Debye)      :      1.37663

Rotational constants in cm-1:     0.318142     0.087246     0.069348
Rotational constants in MHz :  9537.650096  2615.568840  2078.997512

                             ****ORCA TERMINATED NORMALLY****
TOTAL RUN TIME: 0 days 0 hours 49 minutes 47 seconds 247 msec
