                         Program Version 5.0.4 -  RELEASE  -
|  1> ! ri-mp2 aug-cc-pvdz aug-cc-pvdz/c tightscf
|  2> %pal nprocs 16 end
|  3> %maxcore 3800
|  4> %base "DZ_P-N_18_AB"
|  5>
|  6> *xyz 0 1
|  7> C        -0.430600    1.101574   -0.224436
|  8> C        -1.795642    1.280770   -0.111461
|  9> C        -2.596429    0.171305    0.099208
| 10> N        -2.112614   -1.059309    0.209731
| 11> C        -0.800187   -1.217394    0.109251
| 12> C         0.096871   -0.177642   -0.112177
| 13> H        -2.237605    2.264847   -0.187989
| 14> H        -3.671981    0.275691    0.187481
| 15> H         0.227833    1.945334   -0.387071
| 16> N         2.580061    0.763832    0.501110
| 17> H        -0.437415   -2.234930    0.219765
| 18> P         1.875962   -0.499525   -0.371316
| 19> H         1.934849   -1.595549    0.529185
| 20> H         3.469246    1.097419    0.173299
| 21> H         2.459439    0.856725    1.496866
| 22> *
| 23>
| 24> $new_job
| 25> ! ri-mp2 aug-cc-pvtz aug-cc-pvtz/c tightscf
| 26> %pal nprocs 16 end
| 27> %maxcore 3800
| 28> %base "TZ_P-N_18_AB"
| 29>
| 30> *xyz 0 1
| 31> C        -0.430600    1.101574   -0.224436
| 32> C        -1.795642    1.280770   -0.111461
| 33> C        -2.596429    0.171305    0.099208
| 34> N        -2.112614   -1.059309    0.209731
| 35> C        -0.800187   -1.217394    0.109251
| 36> C         0.096871   -0.177642   -0.112177
| 37> H        -2.237605    2.264847   -0.187989
| 38> H        -3.671981    0.275691    0.187481
| 39> H         0.227833    1.945334   -0.387071
| 40> N         2.580061    0.763832    0.501110
| 41> H        -0.437415   -2.234930    0.219765
| 42> P         1.875962   -0.499525   -0.371316
| 43> H         1.934849   -1.595549    0.529185
| 44> H         3.469246    1.097419    0.173299
| 45> H         2.459439    0.856725    1.496866
| 46> *
| 47>
| 48> $new_job
| 49> ! ri-mp2 aug-cc-pvqz aug-cc-pvqz/c tightscf
| 50> %pal nprocs 16 end
| 51> %maxcore 3800
| 52> %base "QZ_P-N_18_AB"
| 53>
| 54> *xyz 0 1
| 55> C        -0.430600    1.101574   -0.224436
| 56> C        -1.795642    1.280770   -0.111461
| 57> C        -2.596429    0.171305    0.099208
| 58> N        -2.112614   -1.059309    0.209731
| 59> C        -0.800187   -1.217394    0.109251
| 60> C         0.096871   -0.177642   -0.112177
| 61> H        -2.237605    2.264847   -0.187989
| 62> H        -3.671981    0.275691    0.187481
| 63> H         0.227833    1.945334   -0.387071
| 64> N         2.580061    0.763832    0.501110
| 65> H        -0.437415   -2.234930    0.219765
| 66> P         1.875962   -0.499525   -0.371316
| 67> H         1.934849   -1.595549    0.529185
| 68> H         3.469246    1.097419    0.173299
| 69> H         2.459439    0.856725    1.496866
| 70> *
| 71>
| 72>
| 73>
| 74>
| 75>                          ****END OF INPUT****
 Total Charge           Charge          ....    0
 Multiplicity           Mult            ....    1
 Number of Electrons    NEL             ....   66
MP2 TOTAL ENERGY:     -644.231055798 Eh
FINAL SINGLE POINT ENERGY      -644.231055798232
MP2 TOTAL ENERGY:     -644.541948194 Eh
FINAL SINGLE POINT ENERGY      -644.541948193640

CARTESIAN COORDINATES (ANGSTROEM)
---------------------------------
  C     -0.430600    1.101574   -0.224436
  C     -1.795642    1.280770   -0.111461
  C     -2.596429    0.171305    0.099208
  N     -2.112614   -1.059309    0.209731
  C     -0.800187   -1.217394    0.109251
  C      0.096871   -0.177642   -0.112177
  H     -2.237605    2.264847   -0.187989
  H     -3.671981    0.275691    0.187481
  H      0.227833    1.945334   -0.387071
  N      2.580061    0.763832    0.501110
  H     -0.437415   -2.234930    0.219765
  P      1.875962   -0.499525   -0.371316
  H      1.934849   -1.595549    0.529185
  H      3.469246    1.097419    0.173299
  H      2.459439    0.856725    1.496866

 Multiplicity           Mult            ....    1
 Number of Electrons    NEL             ....   66
 Basis Dimension        Dim             ....  966

ORBITAL ENERGIES
----------------

  NO   OCC          E(Eh)            E(eV)
   0   2.0000     -79.963083     -2175.9061
   1   2.0000     -15.561193      -423.4416
   2   2.0000     -15.558714      -423.3741
   3   2.0000     -11.272476      -306.7397
   4   2.0000     -11.270296      -306.6803
   5   2.0000     -11.253930      -306.2350
   6   2.0000     -11.238728      -305.8213
   7   2.0000     -11.237617      -305.7911
   8   2.0000      -7.501378      -204.1229
   9   2.0000      -5.395806      -146.8273
  10   2.0000      -5.395351      -146.8150
  11   2.0000      -5.394648      -146.7958
  12   2.0000      -1.264095       -34.3978
  13   2.0000      -1.174618       -31.9630
  14   2.0000      -1.091450       -29.6999
  15   2.0000      -1.039222       -28.2787
  16   2.0000      -0.879234       -23.9252
  17   2.0000      -0.860676       -23.4202
  18   2.0000      -0.797389       -21.6981
  19   2.0000      -0.713505       -19.4155
  20   2.0000      -0.685356       -18.6495
  21   2.0000      -0.671388       -18.2694
  22   2.0000      -0.629574       -17.1316
  23   2.0000      -0.591530       -16.0963
  24   2.0000      -0.576265       -15.6810
  25   2.0000      -0.567785       -15.4502
  26   2.0000      -0.549049       -14.9404
  27   2.0000      -0.506821       -13.7913
  28   2.0000      -0.426414       -11.6033
  29   2.0000      -0.419361       -11.4114
  30   2.0000      -0.396991       -10.8027
  31   2.0000      -0.373462       -10.1624
  32   2.0000      -0.322703        -8.7812
  33   0.0000       0.021006         0.5716
  34   0.0000       0.027829         0.7573
  35   0.0000       0.032511         0.8847
  36   0.0000       0.039354         1.0709
  37   0.0000       0.040901         1.1130

MULLIKEN ATOMIC CHARGES
-----------------------
   0 C :   -0.283296
   1 C :   -0.295855
   2 C :   -0.372025
   3 N :   -0.663360
   4 C :   -0.127376
   5 C :   -0.209043
   6 H :    0.311859
   7 H :    0.518128
   8 H :    0.394450
   9 N :   -0.893362
  10 H :    0.507855
  11 P :    0.730644
  12 H :   -0.120781
  13 H :    0.234759
  14 H :    0.267404
Sum of atomic charges:   -0.0000000

LOEWDIN ATOMIC CHARGES
----------------------
   0 C :    0.234981
   1 C :    0.329794
   2 C :    0.067125
   3 N :    0.593073
   4 C :   -0.026131
   5 C :   -0.291826
   6 H :   -0.325837
   7 H :   -0.350775
   8 H :   -0.335455
   9 N :    1.006798
  10 H :   -0.374235
  11 P :    1.074879
  12 H :   -0.421647
  13 H :   -0.609886
  14 H :   -0.570857

  Mayer bond orders larger than 0.100000
B(  0-C ,  1-C ) :   1.2372 B(  0-C ,  5-C ) :   0.9140 B(  0-C ,  6-H ) :  -0.1084
B(  0-C ,  8-H ) :   0.8962 B(  0-C , 11-P ) :  -0.1611 B(  1-C ,  2-C ) :   1.2546
B(  1-C ,  4-C ) :   0.1000 B(  1-C ,  5-C ) :  -0.2629 B(  1-C ,  6-H ) :   1.0109
B(  2-C ,  3-N ) :   1.3245 B(  2-C ,  7-H ) :   0.7943 B(  3-N ,  4-C ) :   1.2939
B(  3-N , 10-H ) :  -0.1107 B(  4-C ,  5-C ) :   1.0505 B(  4-C , 10-H ) :   0.7550
B(  4-C , 11-P ) :  -0.1078 B(  5-C , 11-P ) :   0.8537 B(  9-N , 11-P ) :   0.8045
B(  9-N , 13-H ) :   1.0186 B(  9-N , 14-H ) :   0.9470 B( 11-P , 12-H ) :   0.9244

MP2 TOTAL ENERGY:     -644.641549480 Eh
FINAL SINGLE POINT ENERGY      -644.641549479622

DIPOLE MOMENT
-------------
                                X             Y             Z
Electronic contribution:      0.72268      -2.16854      -1.89957
Nuclear contribution   :     -0.03883       3.03106       2.34867
                        -----------------------------------------
Total Dipole Moment    :      0.68385       0.86251       0.44911
                        -----------------------------------------
Magnitude (a.u.)       :      1.18881
Magnitude (Debye)      :      3.02172

Rotational constants in cm-1:     0.146251     0.037651     0.031309
Rotational constants in MHz :  4384.493294  1128.752332   938.614156

                             ****ORCA TERMINATED NORMALLY****
TOTAL RUN TIME: 0 days 0 hours 21 minutes 14 seconds 847 msec
