                         Program Version 5.0.4 -  RELEASE  -
|  1> ! ri-mp2 aug-cc-pvdz aug-cc-pvdz/c tightscf
|  2> %pal nprocs 16 end
|  3> %maxcore 3800
|  4> %base "DZ_Si-S_14_AB"
|  5>
|  6> *xyz 0 1
|  7> S         2.603792   -0.405524   -0.250175
|  8> Si         1.125877    1.100657   -0.514774
|  9> C        -0.590843    0.426318   -0.244619
| 10> C        -0.996669   -0.772663   -0.829553
| 11> C        -2.274712   -1.263022   -0.632502
| 12> C        -1.503515    1.114099    0.551114
| 13> C        -2.785218    0.627146    0.751092
| 14> C        -3.171796   -0.561828    0.158162
| 15> H        -4.171402   -0.945768    0.314316
| 16> H        -2.573200   -2.195044   -1.094275
| 17> H        -0.299419   -1.335246   -1.438898
| 18> H        -1.210804    2.043053    1.025811
| 19> H        -3.480854    1.174995    1.373105
| 20> C         2.199950   -0.946102    1.439034
| 21> H         2.342624   -0.137666    2.152659
| 22> H         2.881132   -1.756686    1.685329
| 23> H         1.177576   -1.312112    1.496390
| 24> H         1.334923    1.579015   -1.897224
| 25> H         1.313287    2.220951    0.436060
| 26> *
| 27>
| 28> $new_job
| 29> ! ri-mp2 aug-cc-pvtz aug-cc-pvtz/c tightscf
| 30> %pal nprocs 16 end
| 31> %maxcore 3800
| 32> %base "TZ_Si-S_14_AB"
| 33>
| 34> *xyz 0 1
| 35> S         2.603792   -0.405524   -0.250175
| 36> Si         1.125877    1.100657   -0.514774
| 37> C        -0.590843    0.426318   -0.244619
| 38> C        -0.996669   -0.772663   -0.829553
| 39> C        -2.274712   -1.263022   -0.632502
| 40> C        -1.503515    1.114099    0.551114
| 41> C        -2.785218    0.627146    0.751092
| 42> C        -3.171796   -0.561828    0.158162
| 43> H        -4.171402   -0.945768    0.314316
| 44> H        -2.573200   -2.195044   -1.094275
| 45> H        -0.299419   -1.335246   -1.438898
| 46> H        -1.210804    2.043053    1.025811
| 47> H        -3.480854    1.174995    1.373105
| 48> C         2.199950   -0.946102    1.439034
| 49> H         2.342624   -0.137666    2.152659
| 50> H         2.881132   -1.756686    1.685329
| 51> H         1.177576   -1.312112    1.496390
| 52> H         1.334923    1.579015   -1.897224
| 53> H         1.313287    2.220951    0.436060
| 54> *
| 55>
| 56> $new_job
| 57> ! ri-mp2 aug-cc-pvqz aug-cc-pvqz/c tightscf
| 58> %pal nprocs 16 end
| 59> %maxcore 3800
| 60> %base "QZ_Si-S_14_AB"
| 61>
| 62> *xyz 0 1
| 63> S         2.603792   -0.405524   -0.250175
| 64> Si         1.125877    1.100657   -0.514774
| 65> C        -0.590843    0.426318   -0.244619
| 66> C        -0.996669   -0.772663   -0.829553
| 67> C        -2.274712   -1.263022   -0.632502
| 68> C        -1.503515    1.114099    0.551114
| 69> C        -2.785218    0.627146    0.751092
| 70> C        -3.171796   -0.561828    0.158162
| 71> H        -4.171402   -0.945768    0.314316
| 72> H        -2.573200   -2.195044   -1.094275
| 73> H        -0.299419   -1.335246   -1.438898
| 74> H        -1.210804    2.043053    1.025811
| 75> H        -3.480854    1.174995    1.373105
| 76> C         2.199950   -0.946102    1.439034
| 77> H         2.342624   -0.137666    2.152659
| 78> H         2.881132   -1.756686    1.685329
| 79> H         1.177576   -1.312112    1.496390
| 80> H         1.334923    1.579015   -1.897224
| 81> H         1.313287    2.220951    0.436060
| 82> *
| 83>
| 84>
| 85>
| 86>
| 87>                          ****END OF INPUT****
 Total Charge           Charge          ....    0
 Multiplicity           Mult            ....    1
 Number of Electrons    NEL             ....   82
MP2 TOTAL ENERGY:     -958.631377662 Eh
FINAL SINGLE POINT ENERGY      -958.631377661907
MP2 TOTAL ENERGY:     -958.965131889 Eh
FINAL SINGLE POINT ENERGY      -958.965131889152

CARTESIAN COORDINATES (ANGSTROEM)
---------------------------------
  S      2.603792   -0.405524   -0.250175
  Si     1.125877    1.100657   -0.514774
  C     -0.590843    0.426318   -0.244619
  C     -0.996669   -0.772663   -0.829553
  C     -2.274712   -1.263022   -0.632502
  C     -1.503515    1.114099    0.551114
  C     -2.785218    0.627146    0.751092
  C     -3.171796   -0.561828    0.158162
  H     -4.171402   -0.945768    0.314316
  H     -2.573200   -2.195044   -1.094275
  H     -0.299419   -1.335246   -1.438898
  H     -1.210804    2.043053    1.025811
  H     -3.480854    1.174995    1.373105
  C      2.199950   -0.946102    1.439034
  H      2.342624   -0.137666    2.152659
  H      2.881132   -1.756686    1.685329
  H      1.177576   -1.312112    1.496390
  H      1.334923    1.579015   -1.897224
  H      1.313287    2.220951    0.436060

 Multiplicity           Mult            ....    1
 Number of Electrons    NEL             ....   82
 Basis Dimension        Dim             .... 1188

ORBITAL ENERGIES
----------------

  NO   OCC          E(Eh)            E(eV)
   0   2.0000     -91.934186     -2501.6564
   1   2.0000     -68.784873     -1871.7316
   2   2.0000     -11.254717      -306.2564
   3   2.0000     -11.242325      -305.9192
   4   2.0000     -11.241639      -305.9005
   5   2.0000     -11.240433      -305.8677
   6   2.0000     -11.236894      -305.7714
   7   2.0000     -11.236612      -305.7637
   8   2.0000     -11.224648      -305.4382
   9   2.0000      -8.938369      -243.2254
  10   2.0000      -6.619860      -180.1355
  11   2.0000      -6.619132      -180.1157
  12   2.0000      -6.618394      -180.0957
  13   2.0000      -6.132447      -166.8724
  14   2.0000      -4.239159      -115.3534
  15   2.0000      -4.238704      -115.3410
  16   2.0000      -4.238302      -115.3301
  17   2.0000      -1.160806       -31.5871
  18   2.0000      -1.035362       -28.1736
  19   2.0000      -1.023748       -27.8576
  20   2.0000      -1.019111       -27.7314
  21   2.0000      -0.864520       -23.5248
  22   2.0000      -0.832410       -22.6510
  23   2.0000      -0.826910       -22.5014
  24   2.0000      -0.725793       -19.7498
  25   2.0000      -0.676186       -18.4000
  26   2.0000      -0.632817       -17.2198
  27   2.0000      -0.630190       -17.1484
  28   2.0000      -0.595301       -16.1990
  29   2.0000      -0.591729       -16.1018
  30   2.0000      -0.590900       -16.0792
  31   2.0000      -0.557009       -15.1570
  32   2.0000      -0.517038       -14.0693
  33   2.0000      -0.506455       -13.7813
  34   2.0000      -0.498551       -13.5663
  35   2.0000      -0.471385       -12.8270
  36   2.0000      -0.458894       -12.4871
  37   2.0000      -0.417854       -11.3704
  38   2.0000      -0.356521        -9.7014
  39   2.0000      -0.345658        -9.4058
  40   2.0000      -0.342226        -9.3124
  41   0.0000       0.020656         0.5621
  42   0.0000       0.027887         0.7589
  43   0.0000       0.029610         0.8057
  44   0.0000       0.034191         0.9304
  45   0.0000       0.041583         1.1315

MULLIKEN ATOMIC CHARGES
-----------------------
   0 S :   -0.367372
   1 Si:    1.313778
   2 C :    0.154815
   3 C :   -0.468895
   4 C :   -0.196247
   5 C :   -0.541261
   6 C :   -0.278175
   7 C :   -0.414438
   8 H :    0.341784
   9 H :    0.254504
  10 H :    0.307300
  11 H :    0.336863
  12 H :    0.253548
  13 C :   -1.034082
  14 H :    0.257876
  15 H :    0.446061
  16 H :    0.326398
  17 H :   -0.363758
  18 H :   -0.328701
Sum of atomic charges:   -0.0000000

LOEWDIN ATOMIC CHARGES
----------------------
   0 S :    1.159170
   1 Si:    0.283712
   2 C :   -0.144484
   3 C :    0.239264
   4 C :    0.341841
   5 C :    0.247422
   6 C :    0.340102
   7 C :    0.336327
   8 H :   -0.318368
   9 H :   -0.319068
  10 H :   -0.340072
  11 H :   -0.344779
  12 H :   -0.319931
  13 C :    0.476647
  14 H :   -0.371376
  15 H :   -0.388298
  16 H :   -0.380973
  17 H :   -0.261445
  18 H :   -0.235692

  Mayer bond orders larger than 0.100000
B(  0-S ,  1-Si) :   0.7191 B(  0-S ,  2-C ) :  -0.1114 B(  0-S , 13-C ) :   0.9857
B(  1-Si,  2-C ) :   1.0780 B(  1-Si,  3-C ) :  -0.1501 B(  1-Si,  5-C ) :  -0.1328
B(  1-Si, 17-H ) :   0.7028 B(  1-Si, 18-H ) :   0.7367 B(  2-C ,  3-C ) :   0.9512
B(  2-C ,  4-C ) :  -0.3180 B(  2-C ,  5-C ) :   0.8053 B(  2-C ,  6-C ) :  -0.3305
B(  2-C , 10-H ) :  -0.1372 B(  2-C , 11-H ) :  -0.1375 B(  2-C , 18-H ) :  -0.1540
B(  3-C ,  4-C ) :   1.2761 B(  3-C ,  6-C ) :   0.1283 B(  3-C ,  7-C ) :   0.1563
B(  3-C ,  9-H ) :  -0.1483 B(  3-C , 10-H ) :   0.9415 B(  4-C ,  5-C ) :   0.1341
B(  4-C ,  6-C ) :  -0.1056 B(  4-C ,  7-C ) :   1.1500 B(  4-C ,  9-H ) :   1.1069
B(  5-C ,  6-C ) :   1.3510 B(  5-C ,  7-C ) :   0.1676 B(  5-C , 11-H ) :   0.9079
B(  5-C , 12-H ) :  -0.1523 B(  6-C ,  7-C ) :   1.1343 B(  6-C , 12-H ) :   1.1204
B(  7-C ,  8-H ) :   0.9865 B( 13-C , 14-H ) :   0.9197 B( 13-C , 15-H ) :   0.8018
B( 13-C , 16-H ) :   0.8650

MP2 TOTAL ENERGY:     -959.070702631 Eh
FINAL SINGLE POINT ENERGY      -959.070702631131

DIPOLE MOMENT
-------------
                                X             Y             Z
Electronic contribution:      2.13438       0.57409      -3.52597
Nuclear contribution   :     -2.82930      -0.71741       4.08426
                        -----------------------------------------
Total Dipole Moment    :     -0.69492      -0.14332       0.55829
                        -----------------------------------------
Magnitude (a.u.)       :      0.90285
Magnitude (Debye)      :      2.29487

Rotational constants in cm-1:     0.081783     0.022008     0.020688
Rotational constants in MHz :  2451.789679   659.771034   620.216986

                             ****ORCA TERMINATED NORMALLY****
TOTAL RUN TIME: 0 days 0 hours 47 minutes 53 seconds 462 msec
