                         Program Version 5.0.4 -  RELEASE  -
|  1> ! ri-mp2 aug-cc-pvdz aug-cc-pvdz/c tightscf
|  2> %pal nprocs 16 end
|  3> %maxcore 3800
|  4> %base "DZ_S-S_38_AB"
|  5>
|  6> *xyz 0 1
|  7> S         0.759624    0.940884   -0.568855
|  8> S        -0.923040    0.964889    0.493293
|  9> N        -1.860908   -0.447913   -0.209894
| 10> C         1.759566   -0.315117    0.326766
| 11> C         3.093646   -0.521157   -0.321583
| 12> O         1.345794   -0.889907    1.277333
| 13> O        -1.358663   -1.137099   -1.046601
| 14> O        -2.951993   -0.547611    0.284463
| 15> H         3.550670    0.429927   -0.593112
| 16> H         2.950613   -1.098168   -1.236851
| 17> H         3.739353   -1.074146    0.355558
| 18> *
| 19>
| 20> $new_job
| 21> ! ri-mp2 aug-cc-pvtz aug-cc-pvtz/c tightscf
| 22> %pal nprocs 16 end
| 23> %maxcore 3800
| 24> %base "TZ_S-S_38_AB"
| 25>
| 26> *xyz 0 1
| 27> S         0.759624    0.940884   -0.568855
| 28> S        -0.923040    0.964889    0.493293
| 29> N        -1.860908   -0.447913   -0.209894
| 30> C         1.759566   -0.315117    0.326766
| 31> C         3.093646   -0.521157   -0.321583
| 32> O         1.345794   -0.889907    1.277333
| 33> O        -1.358663   -1.137099   -1.046601
| 34> O        -2.951993   -0.547611    0.284463
| 35> H         3.550670    0.429927   -0.593112
| 36> H         2.950613   -1.098168   -1.236851
| 37> H         3.739353   -1.074146    0.355558
| 38> *
| 39>
| 40> $new_job
| 41> ! ri-mp2 aug-cc-pvqz aug-cc-pvqz/c tightscf
| 42> %pal nprocs 16 end
| 43> %maxcore 3800
| 44> %base "QZ_S-S_38_AB"
| 45>
| 46> *xyz 0 1
| 47> S         0.759624    0.940884   -0.568855
| 48> S        -0.923040    0.964889    0.493293
| 49> N        -1.860908   -0.447913   -0.209894
| 50> C         1.759566   -0.315117    0.326766
| 51> C         3.093646   -0.521157   -0.321583
| 52> O         1.345794   -0.889907    1.277333
| 53> O        -1.358663   -1.137099   -1.046601
| 54> O        -2.951993   -0.547611    0.284463
| 55> H         3.550670    0.429927   -0.593112
| 56> H         2.950613   -1.098168   -1.236851
| 57> H         3.739353   -1.074146    0.355558
| 58> *
| 59>
| 60>
| 61>
| 62>
| 63>                          ****END OF INPUT****
 Total Charge           Charge          ....    0
 Multiplicity           Mult            ....    1
 Number of Electrons    NEL             ....   78
MP2 TOTAL ENERGY:    -1152.841525658 Eh
FINAL SINGLE POINT ENERGY     -1152.841525657613
MP2 TOTAL ENERGY:    -1153.242869082 Eh
FINAL SINGLE POINT ENERGY     -1153.242869081544

CARTESIAN COORDINATES (ANGSTROEM)
---------------------------------
  S      0.759624    0.940884   -0.568855
  S     -0.923040    0.964889    0.493293
  N     -1.860908   -0.447913   -0.209894
  C      1.759566   -0.315117    0.326766
  C      3.093646   -0.521157   -0.321583
  O      1.345794   -0.889907    1.277333
  O     -1.358663   -1.137099   -1.046601
  O     -2.951993   -0.547611    0.284463
  H      3.550670    0.429927   -0.593112
  H      2.950613   -1.098168   -1.236851
  H      3.739353   -1.074146    0.355558

 Multiplicity           Mult            ....    1
 Number of Electrons    NEL             ....   78
 Basis Dimension        Dim             ....  786

ORBITAL ENERGIES
----------------

  NO   OCC          E(Eh)            E(eV)
   0   2.0000     -92.058455     -2505.0379
   1   2.0000     -92.025917     -2504.1525
   2   2.0000     -20.623581      -561.1962
   3   2.0000     -20.618772      -561.0653
   4   2.0000     -20.592989      -560.3637
   5   2.0000     -15.872169      -431.9037
   6   2.0000     -11.394719      -310.0661
   7   2.0000     -11.271090      -306.7019
   8   2.0000      -9.055946      -246.4248
   9   2.0000      -9.027490      -245.6505
  10   2.0000      -6.736616      -183.3126
  11   2.0000      -6.735232      -183.2750
  12   2.0000      -6.733965      -183.2405
  13   2.0000      -6.708692      -182.5528
  14   2.0000      -6.707197      -182.5121
  15   2.0000      -6.706739      -182.4997
  16   2.0000      -1.638325       -44.5811
  17   2.0000      -1.449659       -39.4472
  18   2.0000      -1.437858       -39.1261
  19   2.0000      -1.135875       -30.9087
  20   2.0000      -1.063990       -28.9526
  21   2.0000      -0.984564       -26.7913
  22   2.0000      -0.863107       -23.4863
  23   2.0000      -0.791221       -21.5302
  24   2.0000      -0.748376       -20.3643
  25   2.0000      -0.744539       -20.2599
  26   2.0000      -0.742783       -20.2122
  27   2.0000      -0.677558       -18.4373
  28   2.0000      -0.667612       -18.1666
  29   2.0000      -0.647390       -17.6164
  30   2.0000      -0.591190       -16.0871
  31   2.0000      -0.558068       -15.1858
  32   2.0000      -0.544605       -14.8194
  33   2.0000      -0.505460       -13.7543
  34   2.0000      -0.485652       -13.2153
  35   2.0000      -0.478004       -13.0072
  36   2.0000      -0.464153       -12.6302
  37   2.0000      -0.423081       -11.5126
  38   2.0000      -0.408707       -11.1215
  39   0.0000       0.018543         0.5046
  40   0.0000       0.035125         0.9558
  41   0.0000       0.037515         1.0208
  42   0.0000       0.042838         1.1657
  43   0.0000       0.057556         1.5662

MULLIKEN ATOMIC CHARGES
-----------------------
   0 S :    0.113192
   1 S :    0.187296
   2 N :    0.765046
   3 C :    0.631852
   4 C :   -0.818136
   5 O :   -0.697773
   6 O :   -0.535993
   7 O :   -0.545396
   8 H :    0.274879
   9 H :    0.300114
  10 H :    0.324919
Sum of atomic charges:   -0.0000000

LOEWDIN ATOMIC CHARGES
----------------------
   0 S :    0.685939
   1 S :    0.533757
   2 N :   -1.327080
   3 C :   -1.137807
   4 C :    0.780615
   5 O :    0.629167
   6 O :    0.399696
   7 O :    0.389436
   8 H :   -0.329944
   9 H :   -0.307576
  10 H :   -0.316202

  Mayer bond orders larger than 0.100000
B(  0-S ,  1-S ) :   1.1958 B(  0-S ,  3-C ) :   0.8641 B(  1-S ,  2-N ) :   0.8192
B(  2-N ,  6-O ) :   1.4223 B(  2-N ,  7-O ) :   1.3764 B(  3-C ,  4-C ) :   0.9199
B(  3-C ,  5-O ) :   1.5166 B(  4-C ,  8-H ) :   0.9522 B(  4-C ,  9-H ) :   0.8931
B(  4-C , 10-H ) :   0.9330 B(  6-O ,  7-O ) :   0.1422

MP2 TOTAL ENERGY:    -1153.377073738 Eh
FINAL SINGLE POINT ENERGY     -1153.377073737700

DIPOLE MOMENT
-------------
                                X             Y             Z
Electronic contribution:     -7.90980       2.61621       0.96099
Nuclear contribution   :      9.74368      -1.76397      -1.40128
                        -----------------------------------------
Total Dipole Moment    :      1.83388       0.85225      -0.44029
                        -----------------------------------------
Magnitude (a.u.)       :      2.06961
Magnitude (Debye)      :      5.26053

Rotational constants in cm-1:     0.096713     0.030783     0.028789
Rotational constants in MHz :  2899.372452   922.860206   863.075489

                             ****ORCA TERMINATED NORMALLY****
TOTAL RUN TIME: 0 days 0 hours 10 minutes 38 seconds 597 msec
