                         Program Version 5.0.4 -  RELEASE  -
|  1> ! ri-mp2 aug-cc-pvdz aug-cc-pvdz/c tightscf
|  2> %pal nprocs 16 end
|  3> %maxcore 3800
|  4> %base "DZ_P-C_32_AB"
|  5> %scf
|  6> STABPerform true
|  7> STABRestartUHFifUnstable true
|  8> end
|  9>
| 10> *xyz 0 1
| 11> P        -1.844713   -0.108008   -0.333392
| 12> C        -0.373171    0.008520    0.797146
| 13> C         0.558864    1.202676    0.574460
| 14> C         0.571095   -1.184244    0.599797
| 15> C         1.476790   -0.774015   -0.570083
| 16> H         0.050419   -2.125704    0.423796
| 17> H         1.167586   -1.310952    1.506074
| 18> C         1.501156    0.771656   -0.561711
| 19> H         1.069645   -1.141886   -1.511991
| 20> H         2.472832   -1.203877   -0.473523
| 21> H         2.505661    1.163849   -0.408680
| 22> H         1.156992    1.163600   -1.518097
| 23> H         1.134837    1.369766    1.488583
| 24> H         0.027515    2.127963    0.356035
| 25> H        -0.795173    0.010875    1.803959
| 26> H        -1.200099    0.209398   -1.552836
| 27> H        -2.327927    1.209539   -0.150095
| 28> *
| 29>
| 30> $new_job
| 31> ! ri-mp2 aug-cc-pvtz aug-cc-pvtz/c tightscf
| 32> %pal nprocs 16 end
| 33> %maxcore 3800
| 34> %base "TZ_P-C_32_AB"
| 35>
| 36> *xyz 0 1
| 37> P        -1.844713   -0.108008   -0.333392
| 38> C        -0.373171    0.008520    0.797146
| 39> C         0.558864    1.202676    0.574460
| 40> C         0.571095   -1.184244    0.599797
| 41> C         1.476790   -0.774015   -0.570083
| 42> H         0.050419   -2.125704    0.423796
| 43> H         1.167586   -1.310952    1.506074
| 44> C         1.501156    0.771656   -0.561711
| 45> H         1.069645   -1.141886   -1.511991
| 46> H         2.472832   -1.203877   -0.473523
| 47> H         2.505661    1.163849   -0.408680
| 48> H         1.156992    1.163600   -1.518097
| 49> H         1.134837    1.369766    1.488583
| 50> H         0.027515    2.127963    0.356035
| 51> H        -0.795173    0.010875    1.803959
| 52> H        -1.200099    0.209398   -1.552836
| 53> H        -2.327927    1.209539   -0.150095
| 54> *
| 55>
| 56> $new_job
| 57> ! ri-mp2 aug-cc-pvqz aug-cc-pvqz/c tightscf
| 58> %pal nprocs 16 end
| 59> %maxcore 3800
| 60> %base "QZ_P-C_32_AB"
| 61>
| 62> *xyz 0 1
| 63> P        -1.844713   -0.108008   -0.333392
| 64> C        -0.373171    0.008520    0.797146
| 65> C         0.558864    1.202676    0.574460
| 66> C         0.571095   -1.184244    0.599797
| 67> C         1.476790   -0.774015   -0.570083
| 68> H         0.050419   -2.125704    0.423796
| 69> H         1.167586   -1.310952    1.506074
| 70> C         1.501156    0.771656   -0.561711
| 71> H         1.069645   -1.141886   -1.511991
| 72> H         2.472832   -1.203877   -0.473523
| 73> H         2.505661    1.163849   -0.408680
| 74> H         1.156992    1.163600   -1.518097
| 75> H         1.134837    1.369766    1.488583
| 76> H         0.027515    2.127963    0.356035
| 77> H        -0.795173    0.010875    1.803959
| 78> H        -1.200099    0.209398   -1.552836
| 79> H        -2.327927    1.209539   -0.150095
| 80> *
| 81>
| 82>
| 83>
| 84>
| 85>                          ****END OF INPUT****
 Total Charge           Charge          ....    0
 Multiplicity           Mult            ....    1
 Number of Electrons    NEL             ....   56
MP2 TOTAL ENERGY:     -537.362861090 Eh
FINAL SINGLE POINT ENERGY      -537.362861089614
MP2 TOTAL ENERGY:     -537.592333518 Eh
FINAL SINGLE POINT ENERGY      -537.592333517573

CARTESIAN COORDINATES (ANGSTROEM)
---------------------------------
  P     -1.844713   -0.108008   -0.333392
  C     -0.373171    0.008520    0.797146
  C      0.558864    1.202676    0.574460
  C      0.571095   -1.184244    0.599797
  C      1.476790   -0.774015   -0.570083
  H      0.050419   -2.125704    0.423796
  H      1.167586   -1.310952    1.506074
  C      1.501156    0.771656   -0.561711
  H      1.069645   -1.141886   -1.511991
  H      2.472832   -1.203877   -0.473523
  H      2.505661    1.163849   -0.408680
  H      1.156992    1.163600   -1.518097
  H      1.134837    1.369766    1.488583
  H      0.027515    2.127963    0.356035
  H     -0.795173    0.010875    1.803959
  H     -1.200099    0.209398   -1.552836
  H     -2.327927    1.209539   -0.150095

 Multiplicity           Mult            ....    1
 Number of Electrons    NEL             ....   56
 Basis Dimension        Dim             ....  990

ORBITAL ENERGIES
----------------

  NO   OCC          E(Eh)            E(eV)
   0   2.0000     -79.928280     -2174.9591
   1   2.0000     -11.230036      -305.5848
   2   2.0000     -11.220313      -305.3202
   3   2.0000     -11.219125      -305.2879
   4   2.0000     -11.216176      -305.2077
   5   2.0000     -11.215338      -305.1849
   6   2.0000      -7.471579      -203.3120
   7   2.0000      -5.365556      -146.0042
   8   2.0000      -5.365342      -145.9984
   9   2.0000      -5.364283      -145.9696
  10   2.0000      -1.127411       -30.6784
  11   2.0000      -0.975550       -26.5461
  12   2.0000      -0.967233       -26.3197
  13   2.0000      -0.846012       -23.0212
  14   2.0000      -0.776971       -21.1424
  15   2.0000      -0.741843       -20.1866
  16   2.0000      -0.661363       -17.9966
  17   2.0000      -0.645172       -17.5560
  18   2.0000      -0.583488       -15.8775
  19   2.0000      -0.556020       -15.1301
  20   2.0000      -0.519939       -14.1483
  21   2.0000      -0.487995       -13.2790
  22   2.0000      -0.481977       -13.1153
  23   2.0000      -0.474594       -12.9144
  24   2.0000      -0.467789       -12.7292
  25   2.0000      -0.456867       -12.4320
  26   2.0000      -0.434682       -11.8283
  27   2.0000      -0.354126        -9.6363
  28   0.0000       0.024857         0.6764
  29   0.0000       0.032301         0.8790
  30   0.0000       0.033090         0.9004
  31   0.0000       0.035304         0.9607
  32   0.0000       0.048920         1.3312

MULLIKEN ATOMIC CHARGES
-----------------------
   0 P :    0.271115
   1 C :   -0.224052
   2 C :   -0.685981
   3 C :   -0.620866
   4 C :   -0.507786
   5 H :    0.286747
   6 H :    0.224131
   7 C :   -0.502499
   8 H :    0.222270
   9 H :    0.326390
  10 H :    0.312719
  11 H :    0.203883
  12 H :    0.221887
  13 H :    0.312054
  14 H :    0.388424
  15 H :   -0.087718
  16 H :   -0.140719
Sum of atomic charges:   -0.0000000

LOEWDIN ATOMIC CHARGES
----------------------
   0 P :    1.552895
   1 C :   -0.092039
   2 C :    0.459720
   3 C :    0.443435
   4 C :    0.522991
   5 H :   -0.278838
   6 H :   -0.263553
   7 C :    0.526395
   8 H :   -0.278412
   9 H :   -0.260821
  10 H :   -0.262755
  11 H :   -0.278902
  12 H :   -0.264112
  13 H :   -0.280665
  14 H :   -0.340131
  15 H :   -0.450463
  16 H :   -0.454747

  Mayer bond orders larger than 0.100000
B(  0-P ,  1-C ) :   0.7600 B(  0-P , 15-H ) :   0.9163 B(  0-P , 16-H ) :   0.9675
B(  1-C ,  2-C ) :   0.9144 B(  1-C ,  3-C ) :   0.8645 B(  1-C , 14-H ) :   0.7920
B(  2-C ,  7-C ) :   1.0097 B(  2-C , 12-H ) :   0.9737 B(  2-C , 13-H ) :   0.8749
B(  3-C ,  4-C ) :   0.9971 B(  3-C ,  5-H ) :   0.8800 B(  3-C ,  6-H ) :   0.9720
B(  4-C ,  7-C ) :   0.9398 B(  4-C ,  8-H ) :   0.9728 B(  4-C ,  9-H ) :   0.8688
B(  7-C , 10-H ) :   0.8819 B(  7-C , 11-H ) :   0.9714

MP2 TOTAL ENERGY:     -537.662585280 Eh
FINAL SINGLE POINT ENERGY      -537.662585279973

DIPOLE MOMENT
-------------
                                X             Y             Z
Electronic contribution:     -6.73158      -1.38282      -0.11135
Nuclear contribution   :      7.22914       1.62257       0.28914
                        -----------------------------------------
Total Dipole Moment    :      0.49756       0.23975       0.17779
                        -----------------------------------------
Magnitude (a.u.)       :      0.58022
Magnitude (Debye)      :      1.47480

Rotational constants in cm-1:     0.151589     0.071596     0.064476
Rotational constants in MHz :  4544.512016  2146.380864  1932.944879

                             ****ORCA TERMINATED NORMALLY****
TOTAL RUN TIME: 0 days 1 hours 58 minutes 2 seconds 343 msec
