                         Program Version 5.0.4 -  RELEASE  -
|  1> ! ri-mp2 aug-cc-pvdz aug-cc-pvdz/c tightscf
|  2> %pal nprocs 16 end
|  3> %maxcore 3800
|  4> %base "DZ_B-Cl_25_A"
|  5> %scf
|  6> STABPerform true
|  7> STABRestartUHFifUnstable true
|  8> end
|  9>
| 10> *xyz 0 2
| 11> Cl         2.364532   -0.226070    0.184331
| 12> B         0.950515    0.060944   -0.709620
| 13> C        -0.495081    0.336710   -0.198984
| 14> O        -0.836933    1.450921    0.112395
| 15> O        -1.301503   -0.727793   -0.193909
| 16> C        -2.652710   -0.489767    0.218256
| 17> H        -3.152592   -1.450468    0.151814
| 18> H        -3.125557    0.236334   -0.440151
| 19> H        -2.677238   -0.114066    1.239292
| 20> *
| 21>
| 22> $new_job
| 23> ! ri-mp2 aug-cc-pvtz aug-cc-pvtz/c tightscf
| 24> %pal nprocs 16 end
| 25> %maxcore 3800
| 26> %base "TZ_B-Cl_25_A"
| 27>
| 28> *xyz 0 2
| 29> Cl         2.364532   -0.226070    0.184331
| 30> B         0.950515    0.060944   -0.709620
| 31> C        -0.495081    0.336710   -0.198984
| 32> O        -0.836933    1.450921    0.112395
| 33> O        -1.301503   -0.727793   -0.193909
| 34> C        -2.652710   -0.489767    0.218256
| 35> H        -3.152592   -1.450468    0.151814
| 36> H        -3.125557    0.236334   -0.440151
| 37> H        -2.677238   -0.114066    1.239292
| 38> *
| 39>
| 40> $new_job
| 41> ! ri-mp2 aug-cc-pvqz aug-cc-pvqz/c tightscf
| 42> %pal nprocs 16 end
| 43> %maxcore 3800
| 44> %base "QZ_B-Cl_25_A"
| 45>
| 46> *xyz 0 2
| 47> Cl         2.364532   -0.226070    0.184331
| 48> B         0.950515    0.060944   -0.709620
| 49> C        -0.495081    0.336710   -0.198984
| 50> O        -0.836933    1.450921    0.112395
| 51> O        -1.301503   -0.727793   -0.193909
| 52> C        -2.652710   -0.489767    0.218256
| 53> H        -3.152592   -1.450468    0.151814
| 54> H        -3.125557    0.236334   -0.440151
| 55> H        -2.677238   -0.114066    1.239292
| 56> *
| 57>
| 58>
| 59>
| 60>
| 61>                          ****END OF INPUT****
 Total Charge           Charge          ....    0
 Multiplicity           Mult            ....    2
 Number of Electrons    NEL             ....   53
MP2 TOTAL ENERGY:     -712.277834760 Eh
FINAL SINGLE POINT ENERGY      -712.277834760188
MP2 TOTAL ENERGY:     -712.550119678 Eh
FINAL SINGLE POINT ENERGY      -712.550119677764

CARTESIAN COORDINATES (ANGSTROEM)
---------------------------------
  Cl     2.364532   -0.226070    0.184331
  B      0.950515    0.060944   -0.709620
  C     -0.495081    0.336710   -0.198984
  O     -0.836933    1.450921    0.112395
  O     -1.301503   -0.727793   -0.193909
  C     -2.652710   -0.489767    0.218256
  H     -3.152592   -1.450468    0.151814
  H     -3.125557    0.236334   -0.440151
  H     -2.677238   -0.114066    1.239292

 Multiplicity           Mult            ....    2
 Number of Electrons    NEL             ....   53
 Basis Dimension        Dim             ....  622

ORBITAL ENERGIES
----------------
                 SPIN UP ORBITALS
  NO   OCC          E(Eh)            E(eV)
   0   1.0000    -104.868714     -2853.6228
   1   1.0000     -20.615128      -560.9662
   2   1.0000     -20.560060      -559.4677
   3   1.0000     -11.376504      -309.5704
   4   1.0000     -11.293004      -307.2983
   5   1.0000     -10.596141      -288.3357
   6   1.0000      -8.063732      -219.4253
   7   1.0000      -8.061822      -219.3733
   8   1.0000      -8.061314      -219.3595
   9   1.0000      -7.705570      -209.6792
  10   1.0000      -1.475415       -40.1481
  11   1.0000      -1.376800       -37.4646
  12   1.0000      -1.153399       -31.3856
  13   1.0000      -0.996279       -27.1101
  14   1.0000      -0.837581       -22.7917
  15   1.0000      -0.758560       -20.6415
  16   1.0000      -0.688951       -18.7473
  17   1.0000      -0.685094       -18.6424
  18   1.0000      -0.652546       -17.7567
  19   1.0000      -0.594660       -16.1815
  20   1.0000      -0.575894       -15.6709
  21   1.0000      -0.540956       -14.7202
  22   1.0000      -0.527224       -14.3465
  23   1.0000      -0.514334       -13.9957
  24   1.0000      -0.483165       -13.1476
  25   1.0000      -0.467721       -12.7273
  26   1.0000      -0.360157        -9.8004
  27   0.0000       0.024835         0.6758
  28   0.0000       0.034176         0.9300
  29   0.0000       0.035297         0.9605
  30   0.0000       0.036287         0.9874
  31   0.0000       0.048828         1.3287

                 SPIN DOWN ORBITALS
  NO   OCC          E(Eh)            E(eV)
   0   1.0000    -104.868031     -2853.6042
   1   1.0000     -20.615183      -560.9677
   2   1.0000     -20.555920      -559.3550
   3   1.0000     -11.376578      -309.5724
   4   1.0000     -11.293017      -307.2986
   5   1.0000     -10.595347      -288.3140
   6   1.0000      -8.062564      -219.3935
   7   1.0000      -8.061700      -219.3700
   8   1.0000      -8.059232      -219.3028
   9   1.0000      -7.685500      -209.1331
  10   1.0000      -1.473292       -40.0903
  11   1.0000      -1.369763       -37.2732
  12   1.0000      -1.145238       -31.1635
  13   1.0000      -0.994156       -27.0524
  14   1.0000      -0.822903       -22.3923
  15   1.0000      -0.749601       -20.3977
  16   1.0000      -0.685117       -18.6430
  17   1.0000      -0.682896       -18.5825
  18   1.0000      -0.634722       -17.2717
  19   1.0000      -0.589896       -16.0519
  20   1.0000      -0.556435       -15.1414
  21   1.0000      -0.538254       -14.6466
  22   1.0000      -0.515401       -14.0248
  23   1.0000      -0.501945       -13.6586
  24   1.0000      -0.466714       -12.6999
  25   1.0000      -0.453756       -12.3473
  26   0.0000       0.022922         0.6237
  27   0.0000       0.030946         0.8421
  28   0.0000       0.035914         0.9773
  29   0.0000       0.037089         1.0092
  30   0.0000       0.049060         1.3350

MULLIKEN ATOMIC CHARGES AND SPIN POPULATIONS
--------------------------------------------
   0 Cl:   -0.199940    0.028129
   1 B :    0.490407    0.980200
   2 C :    0.797533   -0.086216
   3 O :   -0.753991    0.089314
   4 O :   -0.682201   -0.008618
   5 C :   -0.648854   -0.002755
   6 H :    0.422296    0.000237
   7 H :    0.287351   -0.000464
   8 H :    0.287399    0.000172
Sum of atomic charges         :    0.0000000

LOEWDIN ATOMIC CHARGES AND SPIN POPULATIONS
-------------------------------------------
   0 Cl:    1.233476    0.175650
   1 B :   -1.129678    0.565371
   2 C :   -1.154943    0.169447
   3 O :    0.654001    0.075620
   4 O :    0.783671    0.011672
   5 C :    0.570729    0.001185
   6 H :   -0.323836    0.000521
   7 H :   -0.317533    0.000498
   8 H :   -0.315886    0.000036

  Mayer bond orders larger than 0.100000
B(  0-Cl,  1-B ) :   1.2355 B(  1-B ,  2-C ) :   0.8685 B(  2-C ,  3-O ) :   1.4940
B(  2-C ,  4-O ) :   0.9701 B(  4-O ,  5-C ) :   0.8595 B(  5-C ,  6-H ) :   0.8267
B(  5-C ,  7-H ) :   0.9142 B(  5-C ,  8-H ) :   0.9175

MP2 TOTAL ENERGY:     -712.640431347 Eh
FINAL SINGLE POINT ENERGY      -712.640431347308

DIPOLE MOMENT
-------------
                                X             Y             Z
Electronic contribution:     12.08317       0.26491      -1.18500
Nuclear contribution   :    -12.41811      -0.98537       1.18886
                        -----------------------------------------
Total Dipole Moment    :     -0.33494      -0.72046       0.00386
                        -----------------------------------------
Magnitude (a.u.)       :      0.79452
Magnitude (Debye)      :      2.01952

Rotational constants in cm-1:     0.278262     0.045616     0.041148
Rotational constants in MHz :  8342.080740  1367.538846  1233.590478

                             ****ORCA TERMINATED NORMALLY****
TOTAL RUN TIME: 0 days 0 hours 56 minutes 26 seconds 39 msec
