                         Program Version 5.0.4 -  RELEASE  -
|  1> ! ri-mp2 aug-cc-pvdz aug-cc-pvdz/c tightscf
|  2> %pal nprocs 16 end
|  3> %maxcore 3800
|  4> %base "DZ_P-N_35_AB"
|  5> %scf
|  6> STABPerform true
|  7> STABRestartUHFifUnstable true
|  8> end
|  9>
| 10> *xyz 0 1
| 11> N         2.028786    0.063369    1.143856
| 12> C        -0.037305    0.001688   -0.682476
| 13> C        -0.728443    1.188832   -0.009960
| 14> C        -0.778219   -1.238359   -0.137163
| 15> C        -2.111835   -0.719066    0.444335
| 16> H        -0.189166   -1.723724    0.641283
| 17> H        -0.931151   -1.975020   -0.924883
| 18> C        -2.189961    0.757172    0.041631
| 19> H        -2.099886   -0.801693    1.532123
| 20> H        -2.970518   -1.290292    0.093037
| 21> H        -2.793667    1.352145    0.727403
| 22> H        -2.633056    0.855309   -0.952644
| 23> H        -0.565105    2.125539   -0.543320
| 24> H        -0.354899    1.314099    1.010245
| 25> P         1.792202   -0.133153   -0.526026
| 26> H        -0.210819    0.075340   -1.761605
| 27> H         2.071042    1.171602   -1.019153
| 28> H         1.862009    0.944366    1.601475
| 29> H         2.805258   -0.435564    1.541229
| 30> *
| 31>
| 32> $new_job
| 33> ! ri-mp2 aug-cc-pvtz aug-cc-pvtz/c tightscf
| 34> %pal nprocs 16 end
| 35> %maxcore 3800
| 36> %base "TZ_P-N_35_AB"
| 37>
| 38> *xyz 0 1
| 39> N         2.028786    0.063369    1.143856
| 40> C        -0.037305    0.001688   -0.682476
| 41> C        -0.728443    1.188832   -0.009960
| 42> C        -0.778219   -1.238359   -0.137163
| 43> C        -2.111835   -0.719066    0.444335
| 44> H        -0.189166   -1.723724    0.641283
| 45> H        -0.931151   -1.975020   -0.924883
| 46> C        -2.189961    0.757172    0.041631
| 47> H        -2.099886   -0.801693    1.532123
| 48> H        -2.970518   -1.290292    0.093037
| 49> H        -2.793667    1.352145    0.727403
| 50> H        -2.633056    0.855309   -0.952644
| 51> H        -0.565105    2.125539   -0.543320
| 52> H        -0.354899    1.314099    1.010245
| 53> P         1.792202   -0.133153   -0.526026
| 54> H        -0.210819    0.075340   -1.761605
| 55> H         2.071042    1.171602   -1.019153
| 56> H         1.862009    0.944366    1.601475
| 57> H         2.805258   -0.435564    1.541229
| 58> *
| 59>
| 60> $new_job
| 61> ! ri-mp2 aug-cc-pvqz aug-cc-pvqz/c tightscf
| 62> %pal nprocs 16 end
| 63> %maxcore 3800
| 64> %base "QZ_P-N_35_AB"
| 65>
| 66> *xyz 0 1
| 67> N         2.028786    0.063369    1.143856
| 68> C        -0.037305    0.001688   -0.682476
| 69> C        -0.728443    1.188832   -0.009960
| 70> C        -0.778219   -1.238359   -0.137163
| 71> C        -2.111835   -0.719066    0.444335
| 72> H        -0.189166   -1.723724    0.641283
| 73> H        -0.931151   -1.975020   -0.924883
| 74> C        -2.189961    0.757172    0.041631
| 75> H        -2.099886   -0.801693    1.532123
| 76> H        -2.970518   -1.290292    0.093037
| 77> H        -2.793667    1.352145    0.727403
| 78> H        -2.633056    0.855309   -0.952644
| 79> H        -0.565105    2.125539   -0.543320
| 80> H        -0.354899    1.314099    1.010245
| 81> P         1.792202   -0.133153   -0.526026
| 82> H        -0.210819    0.075340   -1.761605
| 83> H         2.071042    1.171602   -1.019153
| 84> H         1.862009    0.944366    1.601475
| 85> H         2.805258   -0.435564    1.541229
| 86> *
| 87>
| 88>
| 89>
| 90>
| 91>                          ****END OF INPUT****
 Total Charge           Charge          ....    0
 Multiplicity           Mult            ....    1
 Number of Electrons    NEL             ....   64
MP2 TOTAL ENERGY:     -592.592728556 Eh
FINAL SINGLE POINT ENERGY      -592.592728556002
MP2 TOTAL ENERGY:     -592.876208136 Eh
FINAL SINGLE POINT ENERGY      -592.876208135819

CARTESIAN COORDINATES (ANGSTROEM)
---------------------------------
  N      2.028786    0.063369    1.143856
  C     -0.037305    0.001688   -0.682476
  C     -0.728443    1.188832   -0.009960
  C     -0.778219   -1.238359   -0.137163
  C     -2.111835   -0.719066    0.444335
  H     -0.189166   -1.723724    0.641283
  H     -0.931151   -1.975020   -0.924883
  C     -2.189961    0.757172    0.041631
  H     -2.099886   -0.801693    1.532123
  H     -2.970518   -1.290292    0.093037
  H     -2.793667    1.352145    0.727403
  H     -2.633056    0.855309   -0.952644
  H     -0.565105    2.125539   -0.543320
  H     -0.354899    1.314099    1.010245
  P      1.792202   -0.133153   -0.526026
  H     -0.210819    0.075340   -1.761605
  H      2.071042    1.171602   -1.019153
  H      1.862009    0.944366    1.601475
  H      2.805258   -0.435564    1.541229

 Multiplicity           Mult            ....    1
 Number of Electrons    NEL             ....   64
 Basis Dimension        Dim             .... 1116

ORBITAL ENERGIES
----------------

  NO   OCC          E(Eh)            E(eV)
   0   2.0000     -79.941773     -2175.3262
   1   2.0000     -15.544152      -422.9779
   2   2.0000     -11.218246      -305.2640
   3   2.0000     -11.215288      -305.1835
   4   2.0000     -11.212237      -305.1005
   5   2.0000     -11.211395      -305.0776
   6   2.0000     -11.210595      -305.0558
   7   2.0000      -7.480525      -203.5554
   8   2.0000      -5.374932      -146.2593
   9   2.0000      -5.374371      -146.2441
  10   2.0000      -5.373681      -146.2253
  11   2.0000      -1.160295       -31.5732
  12   2.0000      -1.119021       -30.4501
  13   2.0000      -0.969684       -26.3865
  14   2.0000      -0.961378       -26.1604
  15   2.0000      -0.819897       -22.3105
  16   2.0000      -0.778552       -21.1855
  17   2.0000      -0.740885       -20.1605
  18   2.0000      -0.671150       -18.2629
  19   2.0000      -0.655544       -17.8382
  20   2.0000      -0.629128       -17.1194
  21   2.0000      -0.579723       -15.7751
  22   2.0000      -0.574016       -15.6198
  23   2.0000      -0.553108       -15.0508
  24   2.0000      -0.490699       -13.3526
  25   2.0000      -0.478350       -13.0166
  26   2.0000      -0.469090       -12.7646
  27   2.0000      -0.466329       -12.6895
  28   2.0000      -0.457897       -12.4600
  29   2.0000      -0.446083       -12.1385
  30   2.0000      -0.393726       -10.7138
  31   2.0000      -0.340515        -9.2659
  32   0.0000       0.024246         0.6598
  33   0.0000       0.029918         0.8141
  34   0.0000       0.032800         0.8925
  35   0.0000       0.034255         0.9321
  36   0.0000       0.046563         1.2671

MULLIKEN ATOMIC CHARGES
-----------------------
   0 N :   -0.934295
   1 C :   -0.124883
   2 C :   -0.560401
   3 C :   -0.506173
   4 C :   -0.532605
   5 H :    0.242478
   6 H :    0.283233
   7 C :   -0.620481
   8 H :    0.134250
   9 H :    0.333043
  10 H :    0.327580
  11 H :    0.178714
  12 H :    0.401059
  13 H :    0.225308
  14 P :    0.580156
  15 H :    0.282063
  16 H :   -0.161280
  17 H :    0.275015
  18 H :    0.177220
Sum of atomic charges:    0.0000000

LOEWDIN ATOMIC CHARGES
----------------------
   0 N :    1.030458
   1 C :   -0.057591
   2 C :    0.456756
   3 C :    0.475590
   4 C :    0.546958
   5 H :   -0.300214
   6 H :   -0.264586
   7 C :    0.531609
   8 H :   -0.267450
   9 H :   -0.260260
  10 H :   -0.254597
  11 H :   -0.263006
  12 H :   -0.255898
  13 H :   -0.298189
  14 P :    1.123372
  15 H :   -0.348362
  16 H :   -0.402335
  17 H :   -0.585430
  18 H :   -0.606825

  Mayer bond orders larger than 0.100000
B(  0-N ,  1-C ) :  -0.1667 B(  0-N , 14-P ) :   0.7755 B(  0-N , 17-H ) :   0.9614
B(  0-N , 18-H ) :   1.0789 B(  1-C ,  2-C ) :   0.8379 B(  1-C ,  3-C ) :   0.8537
B(  1-C , 14-P ) :   0.6464 B(  1-C , 15-H ) :   0.9197 B(  2-C ,  7-C ) :   0.9628
B(  2-C , 12-H ) :   0.7739 B(  2-C , 13-H ) :   0.9457 B(  3-C ,  4-C ) :   0.9974
B(  3-C ,  5-H ) :   0.9457 B(  3-C ,  6-H ) :   0.8953 B(  4-C ,  7-C ) :   0.9763
B(  4-C ,  8-H ) :   1.0440 B(  4-C ,  9-H ) :   0.8559 B(  7-C , 10-H ) :   0.8534
B(  7-C , 11-H ) :   1.0083 B( 14-P , 16-H ) :   0.9506

MP2 TOTAL ENERGY:     -592.963554773 Eh
FINAL SINGLE POINT ENERGY      -592.963554772560

DIPOLE MOMENT
-------------
                                X             Y             Z
Electronic contribution:      7.75635      -1.35145      -2.15036
Nuclear contribution   :     -7.90649       1.78480       2.51706
                        -----------------------------------------
Total Dipole Moment    :     -0.15014       0.43335       0.36670
                        -----------------------------------------
Magnitude (a.u.)       :      0.58720
Magnitude (Debye)      :      1.49253

Rotational constants in cm-1:     0.140215     0.044659     0.042507
Rotational constants in MHz :  4203.540929  1338.852338  1274.313057

                             ****ORCA TERMINATED NORMALLY****
TOTAL RUN TIME: 0 days 2 hours 51 minutes 30 seconds 909 msec
