                         Program Version 5.0.4 -  RELEASE  -
|  1> ! ri-mp2 aug-cc-pvdz aug-cc-pvdz/c tightscf
|  2> %pal nprocs 16 end
|  3> %maxcore 3800
|  4> %base "DZ_B-S_49_AB"
|  5>
|  6> *xyz 0 1
|  7> B         1.389354   -0.012721   -0.000004
|  8> S         2.689692   -1.278997    0.000006
|  9> S         1.790841    1.745688   -0.000014
| 10> C        -0.080412   -0.529906   -0.000003
| 11> C        -1.204826    0.315854    0.000003
| 12> H        -1.575865    3.545481    0.000016
| 13> H        -2.648881    2.443907   -0.891933
| 14> H        -2.648875    2.443900    0.891962
| 15> O        -0.957741    1.641952    0.000006
| 16> C        -2.028624    2.558030    0.000013
| 17> C        -2.495743   -0.198185    0.000004
| 18> H        -3.349795    0.460904    0.000009
| 19> C        -2.691438   -1.567082    0.000001
| 20> H        -3.700901   -1.957330    0.000003
| 21> C        -1.611009   -2.429210   -0.000004
| 22> H        -1.760559   -3.499770   -0.000007
| 23> C        -0.333748   -1.903647   -0.000006
| 24> H         0.501692   -2.591099   -0.000010
| 25> H         3.125419    1.616982    0.000005
| 26> H         3.759187   -0.477180    0.000014
| 27> *
| 28>
| 29> $new_job
| 30> ! ri-mp2 aug-cc-pvtz aug-cc-pvtz/c tightscf
| 31> %pal nprocs 16 end
| 32> %maxcore 3800
| 33> %base "TZ_B-S_49_AB"
| 34>
| 35> *xyz 0 1
| 36> B         1.389354   -0.012721   -0.000004
| 37> S         2.689692   -1.278997    0.000006
| 38> S         1.790841    1.745688   -0.000014
| 39> C        -0.080412   -0.529906   -0.000003
| 40> C        -1.204826    0.315854    0.000003
| 41> H        -1.575865    3.545481    0.000016
| 42> H        -2.648881    2.443907   -0.891933
| 43> H        -2.648875    2.443900    0.891962
| 44> O        -0.957741    1.641952    0.000006
| 45> C        -2.028624    2.558030    0.000013
| 46> C        -2.495743   -0.198185    0.000004
| 47> H        -3.349795    0.460904    0.000009
| 48> C        -2.691438   -1.567082    0.000001
| 49> H        -3.700901   -1.957330    0.000003
| 50> C        -1.611009   -2.429210   -0.000004
| 51> H        -1.760559   -3.499770   -0.000007
| 52> C        -0.333748   -1.903647   -0.000006
| 53> H         0.501692   -2.591099   -0.000010
| 54> H         3.125419    1.616982    0.000005
| 55> H         3.759187   -0.477180    0.000014
| 56> *
| 57>
| 58> $new_job
| 59> ! ri-mp2 aug-cc-pvqz aug-cc-pvqz/c tightscf
| 60> %pal nprocs 16 end
| 61> %maxcore 3800
| 62> %base "QZ_B-S_49_AB"
| 63>
| 64> *xyz 0 1
| 65> B         1.389354   -0.012721   -0.000004
| 66> S         2.689692   -1.278997    0.000006
| 67> S         1.790841    1.745688   -0.000014
| 68> C        -0.080412   -0.529906   -0.000003
| 69> C        -1.204826    0.315854    0.000003
| 70> H        -1.575865    3.545481    0.000016
| 71> H        -2.648881    2.443907   -0.891933
| 72> H        -2.648875    2.443900    0.891962
| 73> O        -0.957741    1.641952    0.000006
| 74> C        -2.028624    2.558030    0.000013
| 75> C        -2.495743   -0.198185    0.000004
| 76> H        -3.349795    0.460904    0.000009
| 77> C        -2.691438   -1.567082    0.000001
| 78> H        -3.700901   -1.957330    0.000003
| 79> C        -1.611009   -2.429210   -0.000004
| 80> H        -1.760559   -3.499770   -0.000007
| 81> C        -0.333748   -1.903647   -0.000006
| 82> H         0.501692   -2.591099   -0.000010
| 83> H         3.125419    1.616982    0.000005
| 84> H         3.759187   -0.477180    0.000014
| 85> *
| 86>
| 87>
| 88>
| 89>
| 90>                          ****END OF INPUT****
 Total Charge           Charge          ....    0
 Multiplicity           Mult            ....    1
 Number of Electrons    NEL             ....   96
MP2 TOTAL ENERGY:    -1166.556957719 Eh
FINAL SINGLE POINT ENERGY     -1166.556957719118
MP2 TOTAL ENERGY:    -1166.982242907 Eh
FINAL SINGLE POINT ENERGY     -1166.982242906743

CARTESIAN COORDINATES (ANGSTROEM)
---------------------------------
  B      1.389354   -0.012721   -0.000004
  S      2.689692   -1.278997    0.000006
  S      1.790841    1.745688   -0.000014
  C     -0.080412   -0.529906   -0.000003
  C     -1.204826    0.315854    0.000003
  H     -1.575865    3.545481    0.000016
  H     -2.648881    2.443907   -0.891933
  H     -2.648875    2.443900    0.891962
  O     -0.957741    1.641952    0.000006
  C     -2.028624    2.558030    0.000013
  C     -2.495743   -0.198185    0.000004
  H     -3.349795    0.460904    0.000009
  C     -2.691438   -1.567082    0.000001
  H     -3.700901   -1.957330    0.000003
  C     -1.611009   -2.429210   -0.000004
  H     -1.760559   -3.499770   -0.000007
  C     -0.333748   -1.903647   -0.000006
  H      0.501692   -2.591099   -0.000010
  H      3.125419    1.616982    0.000005
  H      3.759187   -0.477180    0.000014

 Multiplicity           Mult            ....    1
 Number of Electrons    NEL             ....   96
 Basis Dimension        Dim             .... 1302

ORBITAL ENERGIES
----------------

  NO   OCC          E(Eh)            E(eV)
   0   2.0000     -91.946809     -2501.9999
   1   2.0000     -91.944717     -2501.9429
   2   2.0000     -20.589981      -560.2819
   3   2.0000     -11.312182      -307.8201
   4   2.0000     -11.288815      -307.1843
   5   2.0000     -11.249288      -306.1087
   6   2.0000     -11.245247      -305.9987
   7   2.0000     -11.231381      -305.6214
   8   2.0000     -11.225598      -305.4641
   9   2.0000     -11.218699      -305.2763
  10   2.0000      -8.952092      -243.5988
  11   2.0000      -8.949314      -243.5232
  12   2.0000      -7.644322      -208.0126
  13   2.0000      -6.633745      -180.5134
  14   2.0000      -6.632665      -180.4840
  15   2.0000      -6.632239      -180.4724
  16   2.0000      -6.630791      -180.4330
  17   2.0000      -6.629624      -180.4013
  18   2.0000      -6.629208      -180.3899
  19   2.0000      -1.427509       -38.8445
  20   2.0000      -1.158878       -31.5347
  21   2.0000      -1.041714       -28.3465
  22   2.0000      -1.026321       -27.9276
  23   2.0000      -0.996024       -27.1032
  24   2.0000      -0.955928       -26.0121
  25   2.0000      -0.944088       -25.6899
  26   2.0000      -0.844986       -22.9933
  27   2.0000      -0.815879       -22.2012
  28   2.0000      -0.737105       -20.0576
  29   2.0000      -0.684088       -18.6150
  30   2.0000      -0.679712       -18.4959
  31   2.0000      -0.667014       -18.1504
  32   2.0000      -0.638276       -17.3684
  33   2.0000      -0.624094       -16.9825
  34   2.0000      -0.589336       -16.0367
  35   2.0000      -0.561447       -15.2778
  36   2.0000      -0.551851       -15.0166
  37   2.0000      -0.538569       -14.6552
  38   2.0000      -0.534359       -14.5406
  39   2.0000      -0.514459       -13.9992
  40   2.0000      -0.502957       -13.6861
  41   2.0000      -0.478671       -13.0253
  42   2.0000      -0.469661       -12.7801
  43   2.0000      -0.427134       -11.6229
  44   2.0000      -0.414852       -11.2887
  45   2.0000      -0.360739        -9.8162
  46   2.0000      -0.345185        -9.3930
  47   2.0000      -0.320234        -8.7140
  48   0.0000       0.020386         0.5547
  49   0.0000       0.027469         0.7475
  50   0.0000       0.029885         0.8132
  51   0.0000       0.036960         1.0057
  52   0.0000       0.037305         1.0151

MULLIKEN ATOMIC CHARGES
-----------------------
   0 B :    0.425088
   1 S :   -0.040629
   2 S :    0.006424
   3 C :    0.132983
   4 C :    1.241097
   5 H :    0.406113
   6 H :    0.288207
   7 H :    0.288207
   8 O :   -0.806811
   9 C :   -0.678855
  10 C :   -0.502801
  11 H :    0.252806
  12 C :   -0.341883
  13 H :    0.309922
  14 C :   -0.420883
  15 H :    0.209042
  16 C :   -0.694706
  17 H :    0.125969
  18 H :   -0.101246
  19 H :   -0.098046
Sum of atomic charges:    0.0000000

LOEWDIN ATOMIC CHARGES
----------------------
   0 B :   -1.596543
   1 S :    1.729692
   2 S :    1.712057
   3 C :   -0.114730
   4 C :   -0.499298
   5 H :   -0.310832
   6 H :   -0.300784
   7 H :   -0.300785
   8 O :    0.832541
   9 C :    0.585635
  10 C :    0.335052
  11 H :   -0.365509
  12 C :    0.349928
  13 H :   -0.309704
  14 C :    0.361181
  15 H :   -0.322813
  16 C :    0.254179
  17 H :   -0.408437
  18 H :   -0.819199
  19 H :   -0.811629

  Mayer bond orders larger than 0.100000
B(  0-B ,  1-S ) :   1.1583 B(  0-B ,  2-S ) :   1.1332 B(  0-B ,  3-C ) :   1.0295
B(  0-B , 18-H ) :  -0.1476 B(  0-B , 19-H ) :  -0.1363 B(  1-S , 19-H ) :   1.1134
B(  2-S , 18-H ) :   1.1145 B(  3-C ,  4-C ) :   0.9354 B(  3-C ,  8-O ) :   0.2581
B(  3-C , 10-C ) :  -0.2518 B(  3-C , 14-C ) :  -0.3341 B(  3-C , 16-C ) :   0.9566
B(  3-C , 17-H ) :  -0.1132 B(  4-C ,  8-O ) :   0.1673 B(  4-C ,  9-C ) :  -0.1397
B(  4-C , 10-C ) :   1.1944 B(  4-C , 11-H ) :  -0.1110 B(  4-C , 12-C ) :  -0.2209
B(  4-C , 16-C ) :  -0.2061 B(  5-H ,  9-C ) :   0.8747 B(  6-H ,  9-C ) :   0.9054
B(  7-H ,  9-C ) :   0.9054 B(  8-O ,  9-C ) :   0.9248 B(  8-O , 10-C ) :   0.1264
B( 10-C , 11-H ) :   1.0408 B( 10-C , 12-C ) :   1.0426 B( 10-C , 13-H ) :  -0.1738
B( 12-C , 13-H ) :   1.0844 B( 12-C , 14-C ) :   1.2010 B( 12-C , 15-H ) :  -0.1070
B( 12-C , 16-C ) :   0.1293 B( 14-C , 15-H ) :   1.1890 B( 14-C , 16-C ) :   1.2003
B( 15-H , 16-C ) :  -0.1725 B( 16-C , 17-H ) :   1.0975

MP2 TOTAL ENERGY:    -1167.118616847 Eh
FINAL SINGLE POINT ENERGY     -1167.118616846556

DIPOLE MOMENT
-------------
                                X             Y             Z
Electronic contribution:      8.57233      -1.65639      -0.00005
Nuclear contribution   :     -9.37477       1.96627       0.00006
                        -----------------------------------------
Total Dipole Moment    :     -0.80244       0.30988       0.00001
                        -----------------------------------------
Magnitude (a.u.)       :      0.86020
Magnitude (Debye)      :      2.18644

Rotational constants in cm-1:     0.035635     0.024013     0.014385
Rotational constants in MHz :  1068.306153   719.896318   431.256991

                             ****ORCA TERMINATED NORMALLY****
TOTAL RUN TIME: 0 days 1 hours 5 minutes 51 seconds 378 msec
