                         Program Version 5.0.4 -  RELEASE  -
|  1> ! ri-mp2 aug-cc-pvdz aug-cc-pvdz/c tightscf
|  2> %pal nprocs 16 end
|  3> %maxcore 3800
|  4> %base "DZ_S-Cl_44_A"
|  5> %scf
|  6> STABPerform true
|  7> STABRestartUHFifUnstable true
|  8> end
|  9>
| 10> *xyz 0 2
| 11> S        -1.839066    0.359902   -0.000003
| 12> C        -0.305208   -0.491609   -0.000003
| 13> O        -0.437130   -1.702756   -0.000007
| 14> N         0.867084    0.163836   -0.000004
| 15> C         0.970551    1.600881    0.000008
| 16> H        -0.020240    2.050603   -0.000034
| 17> H         1.504575    1.947226   -0.887541
| 18> H         1.504502    1.947222    0.887602
| 19> C         2.102941   -0.589219    0.000007
| 20> H         1.868361   -1.649007   -0.000010
| 21> H         2.692787   -0.349814    0.887291
| 22> H         2.692814   -0.349792   -0.887254
| 23> *
| 24>
| 25> $new_job
| 26> ! ri-mp2 aug-cc-pvtz aug-cc-pvtz/c tightscf
| 27> %pal nprocs 16 end
| 28> %maxcore 3800
| 29> %base "TZ_S-Cl_44_A"
| 30>
| 31> *xyz 0 2
| 32> S        -1.839066    0.359902   -0.000003
| 33> C        -0.305208   -0.491609   -0.000003
| 34> O        -0.437130   -1.702756   -0.000007
| 35> N         0.867084    0.163836   -0.000004
| 36> C         0.970551    1.600881    0.000008
| 37> H        -0.020240    2.050603   -0.000034
| 38> H         1.504575    1.947226   -0.887541
| 39> H         1.504502    1.947222    0.887602
| 40> C         2.102941   -0.589219    0.000007
| 41> H         1.868361   -1.649007   -0.000010
| 42> H         2.692787   -0.349814    0.887291
| 43> H         2.692814   -0.349792   -0.887254
| 44> *
| 45>
| 46> $new_job
| 47> ! ri-mp2 aug-cc-pvqz aug-cc-pvqz/c tightscf
| 48> %pal nprocs 16 end
| 49> %maxcore 3800
| 50> %base "QZ_S-Cl_44_A"
| 51>
| 52> *xyz 0 2
| 53> S        -1.839066    0.359902   -0.000003
| 54> C        -0.305208   -0.491609   -0.000003
| 55> O        -0.437130   -1.702756   -0.000007
| 56> N         0.867084    0.163836   -0.000004
| 57> C         0.970551    1.600881    0.000008
| 58> H        -0.020240    2.050603   -0.000034
| 59> H         1.504575    1.947226   -0.887541
| 60> H         1.504502    1.947222    0.887602
| 61> C         2.102941   -0.589219    0.000007
| 62> H         1.868361   -1.649007   -0.000010
| 63> H         2.692787   -0.349814    0.887291
| 64> H         2.692814   -0.349792   -0.887254
| 65> *
| 66>
| 67>
| 68>
| 69>
| 70>                          ****END OF INPUT****
 Total Charge           Charge          ....    0
 Multiplicity           Mult            ....    2
 Number of Electrons    NEL             ....   55
MP2 TOTAL ENERGY:     -644.873107642 Eh
FINAL SINGLE POINT ENERGY      -644.873107642467
MP2 TOTAL ENERGY:     -645.139106211 Eh
FINAL SINGLE POINT ENERGY      -645.139106211440

CARTESIAN COORDINATES (ANGSTROEM)
---------------------------------
  S     -1.839066    0.359902   -0.000003
  C     -0.305208   -0.491609   -0.000003
  O     -0.437130   -1.702756   -0.000007
  N      0.867084    0.163836   -0.000004
  C      0.970551    1.600881    0.000008
  H     -0.020240    2.050603   -0.000034
  H      1.504575    1.947226   -0.887541
  H      1.504502    1.947222    0.887602
  C      2.102941   -0.589219    0.000007
  H      1.868361   -1.649007   -0.000010
  H      2.692787   -0.349814    0.887291
  H      2.692814   -0.349792   -0.887254

 Multiplicity           Mult            ....    2
 Number of Electrons    NEL             ....   55
 Basis Dimension        Dim             ....  760

ORBITAL ENERGIES
----------------
                 SPIN UP ORBITALS
  NO   OCC          E(Eh)            E(eV)
   0   1.0000     -91.993169     -2503.2614
   1   1.0000     -20.529345      -558.6319
   2   1.0000     -15.606071      -424.6628
   3   1.0000     -11.381698      -309.7118
   4   1.0000     -11.282827      -307.0213
   5   1.0000     -11.267153      -306.5948
   6   1.0000      -8.996196      -244.7989
   7   1.0000      -6.692289      -182.1064
   8   1.0000      -6.673218      -181.5875
   9   1.0000      -6.671967      -181.5534
  10   1.0000      -1.405523       -38.2462
  11   1.0000      -1.274682       -34.6859
  12   1.0000      -1.041421       -28.3385
  13   1.0000      -0.991759       -26.9871
  14   1.0000      -0.942597       -25.6494
  15   1.0000      -0.754544       -20.5322
  16   1.0000      -0.686529       -18.6814
  17   1.0000      -0.677076       -18.4242
  18   1.0000      -0.671292       -18.2668
  19   1.0000      -0.586682       -15.9644
  20   1.0000      -0.578186       -15.7332
  21   1.0000      -0.570071       -15.5124
  22   1.0000      -0.564491       -15.3606
  23   1.0000      -0.553556       -15.0630
  24   1.0000      -0.476852       -12.9758
  25   1.0000      -0.421787       -11.4774
  26   1.0000      -0.401999       -10.9389
  27   1.0000      -0.392040       -10.6680
  28   0.0000       0.020488         0.5575
  29   0.0000       0.031809         0.8656
  30   0.0000       0.034942         0.9508
  31   0.0000       0.042304         1.1511
  32   0.0000       0.053405         1.4532

                 SPIN DOWN ORBITALS
  NO   OCC          E(Eh)            E(eV)
   0   1.0000     -91.983807     -2503.0066
   1   1.0000     -20.525823      -558.5360
   2   1.0000     -15.606412      -424.6721
   3   1.0000     -11.382649      -309.7376
   4   1.0000     -11.282011      -306.9991
   5   1.0000     -11.267146      -306.5946
   6   1.0000      -8.985835      -244.5170
   7   1.0000      -6.668465      -181.4582
   8   1.0000      -6.666393      -181.4018
   9   1.0000      -6.649997      -180.9556
  10   1.0000      -1.398304       -38.0498
  11   1.0000      -1.272871       -34.6366
  12   1.0000      -1.006171       -27.3793
  13   1.0000      -0.981393       -26.7051
  14   1.0000      -0.909488       -24.7484
  15   1.0000      -0.747838       -20.3497
  16   1.0000      -0.677214       -18.4279
  17   1.0000      -0.669770       -18.2254
  18   1.0000      -0.658565       -17.9205
  19   1.0000      -0.580573       -15.7982
  20   1.0000      -0.577709       -15.7202
  21   1.0000      -0.562005       -15.2929
  22   1.0000      -0.558088       -15.1863
  23   1.0000      -0.550361       -14.9761
  24   1.0000      -0.419747       -11.4219
  25   1.0000      -0.394583       -10.7371
  26   1.0000      -0.378872       -10.3096
  27   0.0000       0.007541         0.2052
  28   0.0000       0.021578         0.5872
  29   0.0000       0.033278         0.9056
  30   0.0000       0.034983         0.9519
  31   0.0000       0.042700         1.1619

MULLIKEN ATOMIC CHARGES AND SPIN POPULATIONS
--------------------------------------------
   0 S :    0.025553    1.098537
   1 C :    0.807264   -0.130518
   2 O :   -0.774501    0.046504
   3 N :   -0.329910   -0.003000
   4 C :   -0.773182    0.018511
   5 H :    0.318746   -0.026617
   6 H :    0.285860    0.000284
   7 H :    0.285869    0.000284
   8 C :   -0.765469   -0.003452
   9 H :    0.333534   -0.000003
  10 H :    0.293119   -0.000265
  11 H :    0.293117   -0.000265
Sum of atomic charges         :   -0.0000000

LOEWDIN ATOMIC CHARGES AND SPIN POPULATIONS
-------------------------------------------
   0 S :    1.068074    0.685579
   1 C :   -1.520313    0.170789
   2 O :    0.564552    0.060392
   3 N :    0.287631    0.003651
   4 C :    0.710995    0.024229
   5 H :   -0.415638    0.049781
   6 H :   -0.273541    0.002617
   7 H :   -0.273539    0.002617
   8 C :    0.757752   -0.000000
   9 H :   -0.355902    0.000348
  10 H :   -0.275034   -0.000001
  11 H :   -0.275035   -0.000001

  Mayer bond orders larger than 0.100000
B(  0-S ,  1-C ) :   0.8412 B(  1-C ,  2-O ) :   1.3463 B(  1-C ,  3-N ) :   1.2403
B(  2-O ,  3-N ) :   0.2683 B(  3-N ,  4-C ) :   0.7309 B(  3-N ,  8-C ) :   0.7972
B(  4-C ,  5-H ) :   0.8909 B(  4-C ,  6-H ) :   0.9588 B(  4-C ,  7-H ) :   0.9588
B(  8-C ,  9-H ) :   0.8857 B(  8-C , 10-H ) :   0.9525 B(  8-C , 11-H ) :   0.9525

MP2 TOTAL ENERGY:     -645.224782081 Eh
FINAL SINGLE POINT ENERGY      -645.224782080805

DIPOLE MOMENT
-------------
                                X             Y             Z
Electronic contribution:     -9.15354      -2.16157      -0.00004
Nuclear contribution   :     10.21340       3.53030       0.00005
                        -----------------------------------------
Total Dipole Moment    :      1.05986       1.36873       0.00001
                        -----------------------------------------
Magnitude (a.u.)       :      1.73111
Magnitude (Debye)      :      4.40012

Rotational constants in cm-1:     0.158018     0.079347     0.053895
Rotational constants in MHz :  4737.260260  2378.761498  1615.734899

                             ****ORCA TERMINATED NORMALLY****
TOTAL RUN TIME: 0 days 1 hours 57 minutes 9 seconds 858 msec
