                         Program Version 5.0.4 -  RELEASE  -
|  1> ! ri-mp2 aug-cc-pvdz aug-cc-pvdz/c tightscf
|  2> %pal nprocs 16 end
|  3> %maxcore 3800
|  4> %base "DZ_B-S_14_AB"
|  5> %scf
|  6> STABPerform true
|  7> STABRestartUHFifUnstable true
|  8> end
|  9>
| 10> *xyz 0 1
| 11> S        -0.027446   -1.283981   -0.210821
| 12> B         1.228084    0.022732   -0.088606
| 13> S         1.031675    1.733337   -0.568307
| 14> S         2.836380   -0.477222    0.558480
| 15> S        -1.752404   -0.428981   -0.931108
| 16> C        -2.708531   -0.145563    0.587490
| 17> C        -2.166871    0.932489    1.501159
| 18> H        -2.801451   -1.099319    1.104826
| 19> H        -3.698631    0.116783    0.208776
| 20> H        -1.163499    0.687095    1.846726
| 21> H        -2.807004    1.032530    2.379048
| 22> H        -2.125550    1.896983    0.996774
| 23> H         2.534453   -1.761791    0.797524
| 24> H        -0.237616    1.602064   -0.994439
| 25> *
| 26>
| 27> $new_job
| 28> ! ri-mp2 aug-cc-pvtz aug-cc-pvtz/c tightscf
| 29> %pal nprocs 16 end
| 30> %maxcore 3800
| 31> %base "TZ_B-S_14_AB"
| 32>
| 33> *xyz 0 1
| 34> S        -0.027446   -1.283981   -0.210821
| 35> B         1.228084    0.022732   -0.088606
| 36> S         1.031675    1.733337   -0.568307
| 37> S         2.836380   -0.477222    0.558480
| 38> S        -1.752404   -0.428981   -0.931108
| 39> C        -2.708531   -0.145563    0.587490
| 40> C        -2.166871    0.932489    1.501159
| 41> H        -2.801451   -1.099319    1.104826
| 42> H        -3.698631    0.116783    0.208776
| 43> H        -1.163499    0.687095    1.846726
| 44> H        -2.807004    1.032530    2.379048
| 45> H        -2.125550    1.896983    0.996774
| 46> H         2.534453   -1.761791    0.797524
| 47> H        -0.237616    1.602064   -0.994439
| 48> *
| 49>
| 50> $new_job
| 51> ! ri-mp2 aug-cc-pvqz aug-cc-pvqz/c tightscf
| 52> %pal nprocs 16 end
| 53> %maxcore 3800
| 54> %base "QZ_B-S_14_AB"
| 55>
| 56> *xyz 0 1
| 57> S        -0.027446   -1.283981   -0.210821
| 58> B         1.228084    0.022732   -0.088606
| 59> S         1.031675    1.733337   -0.568307
| 60> S         2.836380   -0.477222    0.558480
| 61> S        -1.752404   -0.428981   -0.931108
| 62> C        -2.708531   -0.145563    0.587490
| 63> C        -2.166871    0.932489    1.501159
| 64> H        -2.801451   -1.099319    1.104826
| 65> H        -3.698631    0.116783    0.208776
| 66> H        -1.163499    0.687095    1.846726
| 67> H        -2.807004    1.032530    2.379048
| 68> H        -2.125550    1.896983    0.996774
| 69> H         2.534453   -1.761791    0.797524
| 70> H        -0.237616    1.602064   -0.994439
| 71> *
| 72>
| 73>
| 74>
| 75>
| 76>                          ****END OF INPUT****
 Total Charge           Charge          ....    0
 Multiplicity           Mult            ....    1
 Number of Electrons    NEL             ....   88
MP2 TOTAL ENERGY:    -1695.695522545 Eh
FINAL SINGLE POINT ENERGY     -1695.695522544506
MP2 TOTAL ENERGY:    -1696.001159362 Eh
FINAL SINGLE POINT ENERGY     -1696.001159361885

CARTESIAN COORDINATES (ANGSTROEM)
---------------------------------
  S     -0.027446   -1.283981   -0.210821
  B      1.228084    0.022732   -0.088606
  S      1.031675    1.733337   -0.568307
  S      2.836380   -0.477222    0.558480
  S     -1.752404   -0.428981   -0.931108
  C     -2.708531   -0.145563    0.587490
  C     -2.166871    0.932489    1.501159
  H     -2.801451   -1.099319    1.104826
  H     -3.698631    0.116783    0.208776
  H     -1.163499    0.687095    1.846726
  H     -2.807004    1.032530    2.379048
  H     -2.125550    1.896983    0.996774
  H      2.534453   -1.761791    0.797524
  H     -0.237616    1.602064   -0.994439

 Multiplicity           Mult            ....    1
 Number of Electrons    NEL             ....   88
 Basis Dimension        Dim             ....  898

ORBITAL ENERGIES
----------------

  NO   OCC          E(Eh)            E(eV)
   0   2.0000     -91.984745     -2503.0322
   1   2.0000     -91.980068     -2502.9049
   2   2.0000     -91.961988     -2502.4129
   3   2.0000     -91.957533     -2502.2917
   4   2.0000     -11.274045      -306.7824
   5   2.0000     -11.231948      -305.6369
   6   2.0000      -8.985488      -244.5076
   7   2.0000      -8.982715      -244.4321
   8   2.0000      -8.966900      -244.0018
   9   2.0000      -8.962956      -243.8944
  10   2.0000      -7.679637      -208.9735
  11   2.0000      -6.666846      -181.4141
  12   2.0000      -6.665571      -181.3794
  13   2.0000      -6.664811      -181.3587
  14   2.0000      -6.664109      -181.3396
  15   2.0000      -6.662814      -181.3044
  16   2.0000      -6.662497      -181.2958
  17   2.0000      -6.648425      -180.9128
  18   2.0000      -6.647533      -180.8886
  19   2.0000      -6.646956      -180.8729
  20   2.0000      -6.644445      -180.8045
  21   2.0000      -6.643662      -180.7832
  22   2.0000      -6.643115      -180.7684
  23   2.0000      -1.105304       -30.0769
  24   2.0000      -1.038489       -28.2587
  25   2.0000      -0.997400       -27.1406
  26   2.0000      -0.971062       -26.4239
  27   2.0000      -0.907520       -24.6949
  28   2.0000      -0.808470       -21.9996
  29   2.0000      -0.658276       -17.9126
  30   2.0000      -0.646680       -17.5971
  31   2.0000      -0.613496       -16.6941
  32   2.0000      -0.577787       -15.7224
  33   2.0000      -0.563107       -15.3229
  34   2.0000      -0.535291       -14.5660
  35   2.0000      -0.524105       -14.2616
  36   2.0000      -0.515146       -14.0178
  37   2.0000      -0.490511       -13.3475
  38   2.0000      -0.458767       -12.4837
  39   2.0000      -0.448409       -12.2018
  40   2.0000      -0.435549       -11.8519
  41   2.0000      -0.375985       -10.2311
  42   2.0000      -0.373152       -10.1540
  43   2.0000      -0.362257        -9.8575
  44   0.0000       0.022556         0.6138
  45   0.0000       0.030344         0.8257
  46   0.0000       0.033683         0.9166
  47   0.0000       0.034585         0.9411
  48   0.0000       0.045324         1.2333

MULLIKEN ATOMIC CHARGES
-----------------------
   0 S :    0.012599
   1 B :    0.017192
   2 S :   -0.007997
   3 S :   -0.084930
   4 S :   -0.170547
   5 C :   -0.491552
   6 C :   -0.861684
   7 H :    0.293244
   8 H :    0.335676
   9 H :    0.306678
  10 H :    0.332098
  11 H :    0.232598
  12 H :    0.034427
  13 H :    0.052199
Sum of atomic charges:   -0.0000000

LOEWDIN ATOMIC CHARGES
----------------------
   0 S :    0.840067
   1 B :   -2.283924
   2 S :    1.593155
   3 S :    1.544297
   4 S :    0.837283
   5 C :    0.083142
   6 C :    0.812769
   7 H :   -0.376999
   8 H :   -0.385929
   9 H :   -0.335520
  10 H :   -0.282496
  11 H :   -0.309200
  12 H :   -0.827902
  13 H :   -0.908741

  Mayer bond orders larger than 0.100000
B(  0-S ,  1-B ) :   1.2342 B(  0-S ,  4-S ) :   1.1570 B(  1-B ,  2-S ) :   1.1839
B(  1-B ,  3-S ) :   1.0206 B(  2-S , 13-H ) :   1.0336 B(  3-S , 12-H ) :   1.0788
B(  4-S ,  5-C ) :   0.9145 B(  5-C ,  6-C ) :   1.0000 B(  5-C ,  7-H ) :   0.8803
B(  5-C ,  8-H ) :   0.8090 B(  6-C ,  9-H ) :   0.8745 B(  6-C , 10-H ) :   0.9007
B(  6-C , 11-H ) :   0.9439

MP2 TOTAL ENERGY:    -1696.099508989 Eh
FINAL SINGLE POINT ENERGY     -1696.099508989269

DIPOLE MOMENT
-------------
                                X             Y             Z
Electronic contribution:     10.06933      -2.44907      -5.75193
Nuclear contribution   :    -11.02916       2.39960       6.26212
                        -----------------------------------------
Total Dipole Moment    :     -0.95983      -0.04947       0.51019
                        -----------------------------------------
Magnitude (a.u.)       :      1.08813
Magnitude (Debye)      :      2.76580

Rotational constants in cm-1:     0.060578     0.024553     0.021662
Rotational constants in MHz :  1816.092988   736.080403   649.400786

                             ****ORCA TERMINATED NORMALLY****
TOTAL RUN TIME: 0 days 1 hours 54 minutes 50 seconds 570 msec
