                         Program Version 5.0.4 -  RELEASE  -
|  1> ! ri-mp2 aug-cc-pvdz aug-cc-pvdz/c tightscf
|  2> %pal nprocs 16 end
|  3> %maxcore 3800
|  4> %base "DZ_Si-Cl_15_A"
|  5> %scf
|  6> STABPerform true
|  7> STABRestartUHFifUnstable true
|  8> end
|  9>
| 10> *xyz 0 2
| 11> Si        -1.992483   -0.511355    0.233402
| 12> C        -0.256346   -0.906664   -0.371737
| 13> C         0.823350    0.034082    0.169908
| 14> H        -0.252057   -0.882637   -1.465495
| 15> H        -0.020528   -1.937489   -0.093094
| 16> C        -2.527370    1.220069   -0.252433
| 17> H        -1.869740    1.968996    0.195807
| 18> H        -3.543497    1.425659    0.083772
| 19> H        -2.497770    1.350779   -1.334694
| 20> C         2.224691   -0.321395   -0.309270
| 21> H         0.806933    0.023157    1.264127
| 22> H         0.599670    1.063888   -0.124410
| 23> C         3.291235    0.618968    0.229196
| 24> H         2.240852   -0.311270   -1.402870
| 25> H         2.453133   -1.348653   -0.011507
| 26> H         3.100565    1.648075   -0.081462
| 27> H         4.284432    0.343639   -0.126819
| 28> H         3.313365    0.603531    1.320551
| 29> H        -2.053946   -0.659066    1.714481
| 30> *
| 31>
| 32> $new_job
| 33> ! ri-mp2 aug-cc-pvtz aug-cc-pvtz/c tightscf
| 34> %pal nprocs 16 end
| 35> %maxcore 3800
| 36> %base "TZ_Si-Cl_15_A"
| 37>
| 38> *xyz 0 2
| 39> Si        -1.992483   -0.511355    0.233402
| 40> C        -0.256346   -0.906664   -0.371737
| 41> C         0.823350    0.034082    0.169908
| 42> H        -0.252057   -0.882637   -1.465495
| 43> H        -0.020528   -1.937489   -0.093094
| 44> C        -2.527370    1.220069   -0.252433
| 45> H        -1.869740    1.968996    0.195807
| 46> H        -3.543497    1.425659    0.083772
| 47> H        -2.497770    1.350779   -1.334694
| 48> C         2.224691   -0.321395   -0.309270
| 49> H         0.806933    0.023157    1.264127
| 50> H         0.599670    1.063888   -0.124410
| 51> C         3.291235    0.618968    0.229196
| 52> H         2.240852   -0.311270   -1.402870
| 53> H         2.453133   -1.348653   -0.011507
| 54> H         3.100565    1.648075   -0.081462
| 55> H         4.284432    0.343639   -0.126819
| 56> H         3.313365    0.603531    1.320551
| 57> H        -2.053946   -0.659066    1.714481
| 58> *
| 59>
| 60> $new_job
| 61> ! ri-mp2 aug-cc-pvqz aug-cc-pvqz/c tightscf
| 62> %pal nprocs 16 end
| 63> %maxcore 3800
| 64> %base "QZ_Si-Cl_15_A"
| 65>
| 66> *xyz 0 2
| 67> Si        -1.992483   -0.511355    0.233402
| 68> C        -0.256346   -0.906664   -0.371737
| 69> C         0.823350    0.034082    0.169908
| 70> H        -0.252057   -0.882637   -1.465495
| 71> H        -0.020528   -1.937489   -0.093094
| 72> C        -2.527370    1.220069   -0.252433
| 73> H        -1.869740    1.968996    0.195807
| 74> H        -3.543497    1.425659    0.083772
| 75> H        -2.497770    1.350779   -1.334694
| 76> C         2.224691   -0.321395   -0.309270
| 77> H         0.806933    0.023157    1.264127
| 78> H         0.599670    1.063888   -0.124410
| 79> C         3.291235    0.618968    0.229196
| 80> H         2.240852   -0.311270   -1.402870
| 81> H         2.453133   -1.348653   -0.011507
| 82> H         3.100565    1.648075   -0.081462
| 83> H         4.284432    0.343639   -0.126819
| 84> H         3.313365    0.603531    1.320551
| 85> H        -2.053946   -0.659066    1.714481
| 86> *
| 87>
| 88>
| 89>
| 90>
| 91>                          ****END OF INPUT****
 Total Charge           Charge          ....    0
 Multiplicity           Mult            ....    2
 Number of Electrons    NEL             ....   57
MP2 TOTAL ENERGY:     -486.679616055 Eh
FINAL SINGLE POINT ENERGY      -486.679616055301
MP2 TOTAL ENERGY:     -486.909418130 Eh
FINAL SINGLE POINT ENERGY      -486.909418129801

CARTESIAN COORDINATES (ANGSTROEM)
---------------------------------
  Si    -1.992483   -0.511355    0.233402
  C     -0.256346   -0.906664   -0.371737
  C      0.823350    0.034082    0.169908
  H     -0.252057   -0.882637   -1.465495
  H     -0.020528   -1.937489   -0.093094
  C     -2.527370    1.220069   -0.252433
  H     -1.869740    1.968996    0.195807
  H     -3.543497    1.425659    0.083772
  H     -2.497770    1.350779   -1.334694
  C      2.224691   -0.321395   -0.309270
  H      0.806933    0.023157    1.264127
  H      0.599670    1.063888   -0.124410
  C      3.291235    0.618968    0.229196
  H      2.240852   -0.311270   -1.402870
  H      2.453133   -1.348653   -0.011507
  H      3.100565    1.648075   -0.081462
  H      4.284432    0.343639   -0.126819
  H      3.313365    0.603531    1.320551
  H     -2.053946   -0.659066    1.714481

 Multiplicity           Mult            ....    2
 Number of Electrons    NEL             ....   57
 Basis Dimension        Dim             .... 1082

ORBITAL ENERGIES
----------------
                 SPIN UP ORBITALS
  NO   OCC          E(Eh)            E(eV)
   0   1.0000     -68.759738     -1871.0476
   1   1.0000     -11.221109      -305.3419
   2   1.0000     -11.215373      -305.1858
   3   1.0000     -11.209455      -305.0248
   4   1.0000     -11.205705      -304.9227
   5   1.0000     -11.203695      -304.8680
   6   1.0000      -6.110174      -166.2663
   7   1.0000      -4.222904      -114.9111
   8   1.0000      -4.213176      -114.6464
   9   1.0000      -4.212863      -114.6378
  10   1.0000      -1.076123       -29.2828
  11   1.0000      -0.986244       -26.8371
  12   1.0000      -0.943858       -25.6837
  13   1.0000      -0.862595       -23.4724
  14   1.0000      -0.793539       -21.5933
  15   1.0000      -0.663786       -18.0625
  16   1.0000      -0.644362       -17.5340
  17   1.0000      -0.588580       -16.0161
  18   1.0000      -0.577976       -15.7275
  19   1.0000      -0.559541       -15.2259
  20   1.0000      -0.558411       -15.1951
  21   1.0000      -0.540087       -14.6965
  22   1.0000      -0.502165       -13.6646
  23   1.0000      -0.497240       -13.5306
  24   1.0000      -0.475574       -12.9410
  25   1.0000      -0.466292       -12.6884
  26   1.0000      -0.449962       -12.2441
  27   1.0000      -0.419324       -11.4104
  28   1.0000      -0.305505        -8.3132
  29   0.0000       0.022912         0.6235
  30   0.0000       0.030142         0.8202
  31   0.0000       0.031839         0.8664
  32   0.0000       0.032787         0.8922
  33   0.0000       0.042561         1.1582

                 SPIN DOWN ORBITALS
  NO   OCC          E(Eh)            E(eV)
   0   1.0000     -68.754227     -1870.8976
   1   1.0000     -11.220214      -305.3176
   2   1.0000     -11.215128      -305.1791
   3   1.0000     -11.209414      -305.0237
   4   1.0000     -11.205031      -304.9044
   5   1.0000     -11.203069      -304.8510
   6   1.0000      -6.101703      -166.0358
   7   1.0000      -4.209563      -114.5480
   8   1.0000      -4.209205      -114.5383
   9   1.0000      -4.201069      -114.3169
  10   1.0000      -1.074138       -29.2288
  11   1.0000      -0.982916       -26.7465
  12   1.0000      -0.938953       -25.5502
  13   1.0000      -0.859754       -23.3951
  14   1.0000      -0.792324       -21.5602
  15   1.0000      -0.644931       -17.5495
  16   1.0000      -0.629041       -17.1171
  17   1.0000      -0.584755       -15.9120
  18   1.0000      -0.576663       -15.6918
  19   1.0000      -0.556526       -15.1438
  20   1.0000      -0.549769       -14.9600
  21   1.0000      -0.537603       -14.6289
  22   1.0000      -0.501138       -13.6367
  23   1.0000      -0.492389       -13.3986
  24   1.0000      -0.473321       -12.8797
  25   1.0000      -0.465928       -12.6786
  26   1.0000      -0.442095       -12.0300
  27   1.0000      -0.411353       -11.1935
  28   0.0000       0.022205         0.6042
  29   0.0000       0.028652         0.7797
  30   0.0000       0.031574         0.8592
  31   0.0000       0.032952         0.8967
  32   0.0000       0.042750         1.1633

MULLIKEN ATOMIC CHARGES AND SPIN POPULATIONS
--------------------------------------------
   0 Si:    0.614960    1.017831
   1 C :   -0.629894   -0.059822
   2 C :   -0.235474    0.023633
   3 H :    0.198078    0.003118
   4 H :    0.263577   -0.003215
   5 C :   -1.123266   -0.006607
   6 H :    0.254894    0.023575
   7 H :    0.326170   -0.008875
   8 H :    0.238019   -0.002075
   9 C :   -0.421493    0.004442
  10 H :    0.242115   -0.001172
  11 H :    0.211980    0.003059
  12 C :   -0.880638    0.000801
  13 H :    0.230170   -0.000849
  14 H :    0.233283   -0.000754
  15 H :    0.218645   -0.000099
  16 H :    0.277298    0.000581
  17 H :    0.226535   -0.000255
  18 H :   -0.244957    0.006682
Sum of atomic charges         :   -0.0000000

LOEWDIN ATOMIC CHARGES AND SPIN POPULATIONS
-------------------------------------------
   0 Si:    0.852038    0.516038
   1 C :    0.476358    0.126564
   2 C :    0.422370    0.018165
   3 H :   -0.347166    0.013909
   4 H :   -0.353973    0.015060
   5 C :    0.873027    0.130993
   6 H :   -0.363658    0.016879
   7 H :   -0.377583    0.014584
   8 H :   -0.367927    0.012850
   9 C :    0.499646    0.004050
  10 H :   -0.282196    0.005807
  11 H :   -0.289579    0.003437
  12 C :    0.925981    0.001075
  13 H :   -0.272661    0.000330
  14 H :   -0.273147    0.000291
  15 H :   -0.283964    0.000128
  16 H :   -0.282975    0.000389
  17 H :   -0.283832    0.000103
  18 H :   -0.270758    0.119349

  Mayer bond orders larger than 0.100000
B(  0-Si,  1-C ) :   0.8372 B(  0-Si,  5-C ) :   0.7884 B(  0-Si, 18-H ) :   0.8773
B(  1-C ,  2-C ) :   0.8763 B(  1-C ,  3-H ) :   0.9350 B(  1-C ,  4-H ) :   0.9272
B(  2-C ,  9-C ) :   0.8888 B(  2-C , 10-H ) :   0.8744 B(  2-C , 11-H ) :   0.8793
B(  5-C ,  6-H ) :   0.9209 B(  5-C ,  7-H ) :   0.9421 B(  5-C ,  8-H ) :   0.9541
B(  9-C , 12-C ) :   0.9806 B(  9-C , 13-H ) :   0.8840 B(  9-C , 14-H ) :   0.8968
B( 12-C , 15-H ) :   0.9540 B( 12-C , 16-H ) :   1.0123 B( 12-C , 17-H ) :   0.9527

MP2 TOTAL ENERGY:     -486.977915751 Eh
FINAL SINGLE POINT ENERGY      -486.977915751110

DIPOLE MOMENT
-------------
                                X             Y             Z
Electronic contribution:     -6.81801      -3.31833      -0.08674
Nuclear contribution   :      7.06552       3.50999      -0.08013
                        -----------------------------------------
Total Dipole Moment    :      0.24751       0.19166      -0.16687
                        -----------------------------------------
Magnitude (a.u.)       :      0.35474
Magnitude (Debye)      :      0.90168

Rotational constants in cm-1:     0.215212     0.034904     0.032146
Rotational constants in MHz :  6451.898846  1046.384853   963.711739

                             ****ORCA TERMINATED NORMALLY****
TOTAL RUN TIME: 0 days 4 hours 40 minutes 25 seconds 510 msec
