                         Program Version 5.0.4 -  RELEASE  -
|  1> ! ri-mp2 aug-cc-pvdz aug-cc-pvdz/c tightscf
|  2> %pal nprocs 16 end
|  3> %maxcore 3800
|  4> %base "DZ_Si-Si_53_A"
|  5> %scf
|  6> STABPerform true
|  7> STABRestartUHFifUnstable true
|  8> end
|  9>
| 10> *xyz 0 2
| 11> Si         1.360493   -0.011938   -0.085758
| 12> C        -0.528484    0.141768    0.010108
| 13> O        -1.179526    1.124293    0.024822
| 14> H         1.974921    1.247505    0.367227
| 15> H         1.839392   -1.217116    0.613890
| 16> F        -1.139346   -1.078690   -0.004415
| 17> *
| 18>
| 19> $new_job
| 20> ! ri-mp2 aug-cc-pvtz aug-cc-pvtz/c tightscf
| 21> %pal nprocs 16 end
| 22> %maxcore 3800
| 23> %base "TZ_Si-Si_53_A"
| 24>
| 25> *xyz 0 2
| 26> Si         1.360493   -0.011938   -0.085758
| 27> C        -0.528484    0.141768    0.010108
| 28> O        -1.179526    1.124293    0.024822
| 29> H         1.974921    1.247505    0.367227
| 30> H         1.839392   -1.217116    0.613890
| 31> F        -1.139346   -1.078690   -0.004415
| 32> *
| 33>
| 34> $new_job
| 35> ! ri-mp2 aug-cc-pvqz aug-cc-pvqz/c tightscf
| 36> %pal nprocs 16 end
| 37> %maxcore 3800
| 38> %base "QZ_Si-Si_53_A"
| 39>
| 40> *xyz 0 2
| 41> Si         1.360493   -0.011938   -0.085758
| 42> C        -0.528484    0.141768    0.010108
| 43> O        -1.179526    1.124293    0.024822
| 44> H         1.974921    1.247505    0.367227
| 45> H         1.839392   -1.217116    0.613890
| 46> F        -1.139346   -1.078690   -0.004415
| 47> *
| 48>
| 49>
| 50>
| 51>
| 52>                          ****END OF INPUT****
 Total Charge           Charge          ....    0
 Multiplicity           Mult            ....    2
 Number of Electrons    NEL             ....   39
MP2 TOTAL ENERGY:     -502.863561033 Eh
FINAL SINGLE POINT ENERGY      -502.863561032561
MP2 TOTAL ENERGY:     -503.070920236 Eh
FINAL SINGLE POINT ENERGY      -503.070920236155

CARTESIAN COORDINATES (ANGSTROEM)
---------------------------------
  Si     1.360493   -0.011938   -0.085758
  C     -0.528484    0.141768    0.010108
  O     -1.179526    1.124293    0.024822
  H      1.974921    1.247505    0.367227
  H      1.839392   -1.217116    0.613890
  F     -1.139346   -1.078690   -0.004415

 Multiplicity           Mult            ....    2
 Number of Electrons    NEL             ....   39
 Basis Dimension        Dim             ....  416

ORBITAL ENERGIES
----------------
                 SPIN UP ORBITALS
  NO   OCC          E(Eh)            E(eV)
   0   1.0000     -68.824402     -1872.8072
   1   1.0000     -26.323320      -716.2940
   2   1.0000     -20.595311      -560.4269
   3   1.0000     -11.410626      -310.4989
   4   1.0000      -6.175326      -168.0392
   5   1.0000      -4.288381      -116.6928
   6   1.0000      -4.278245      -116.4170
   7   1.0000      -4.277808      -116.4051
   8   1.0000      -1.646150       -44.7940
   9   1.0000      -1.445405       -39.3315
  10   1.0000      -0.891242       -24.2519
  11   1.0000      -0.792936       -21.5769
  12   1.0000      -0.722573       -19.6622
  13   1.0000      -0.713593       -19.4179
  14   1.0000      -0.689199       -18.7541
  15   1.0000      -0.595768       -16.2117
  16   1.0000      -0.568708       -15.4753
  17   1.0000      -0.528177       -14.3724
  18   1.0000      -0.477235       -12.9862
  19   1.0000      -0.370391       -10.0789
  20   0.0000       0.023083         0.6281
  21   0.0000       0.037876         1.0307
  22   0.0000       0.038609         1.0506
  23   0.0000       0.039447         1.0734
  24   0.0000       0.060666         1.6508

                 SPIN DOWN ORBITALS
  NO   OCC          E(Eh)            E(eV)
   0   1.0000     -68.818388     -1872.6435
   1   1.0000     -26.323723      -716.3049
   2   1.0000     -20.590017      -560.2828
   3   1.0000     -11.412714      -310.5557
   4   1.0000      -6.166147      -167.7894
   5   1.0000      -4.274021      -116.3020
   6   1.0000      -4.273668      -116.2924
   7   1.0000      -4.264991      -116.0563
   8   1.0000      -1.647188       -44.8223
   9   1.0000      -1.434246       -39.0278
  10   1.0000      -0.883111       -24.0307
  11   1.0000      -0.777850       -21.1664
  12   1.0000      -0.718065       -19.5395
  13   1.0000      -0.714395       -19.4397
  14   1.0000      -0.668409       -18.1883
  15   1.0000      -0.590758       -16.0753
  16   1.0000      -0.538930       -14.6650
  17   1.0000      -0.521616       -14.1939
  18   1.0000      -0.470273       -12.7968
  19   0.0000      -0.000812        -0.0221
  20   0.0000       0.025019         0.6808
  21   0.0000       0.038386         1.0445
  22   0.0000       0.039435         1.0731
  23   0.0000       0.048208         1.3118

MULLIKEN ATOMIC CHARGES AND SPIN POPULATIONS
--------------------------------------------
   0 Si:    0.861811    0.964001
   1 C :    0.651915   -0.086098
   2 O :   -0.585943    0.116623
   3 H :   -0.182509    0.004446
   4 H :   -0.181799    0.003590
   5 F :   -0.563474   -0.002562
Sum of atomic charges         :    0.0000000

LOEWDIN ATOMIC CHARGES AND SPIN POPULATIONS
-------------------------------------------
   0 Si:    1.034233    0.524453
   1 C :   -1.425510    0.139363
   2 O :    0.522213    0.079117
   3 H :   -0.362010    0.128784
   4 H :   -0.365102    0.131825
   5 F :    0.596177   -0.003542

  Mayer bond orders larger than 0.100000
B(  0-Si,  1-C ) :   0.7768 B(  0-Si,  3-H ) :   0.9163 B(  0-Si,  4-H ) :   0.8935
B(  1-C ,  2-O ) :   1.7987 B(  1-C ,  5-F ) :   0.6974

MP2 TOTAL ENERGY:     -503.140576380 Eh
FINAL SINGLE POINT ENERGY      -503.140576379619

DIPOLE MOMENT
-------------
                                X             Y             Z
Electronic contribution:     -3.37115      -1.31128      -0.92739
Nuclear contribution   :      4.59581       1.05829       0.94140
                        -----------------------------------------
Total Dipole Moment    :      1.22466      -0.25299       0.01401
                        -----------------------------------------
Magnitude (a.u.)       :      1.25059
Magnitude (Debye)      :      3.17875

Rotational constants in cm-1:     0.364139     0.153202     0.108788
Rotational constants in MHz : 10916.610051  4592.869119  3261.386338

                             ****ORCA TERMINATED NORMALLY****
TOTAL RUN TIME: 0 days 0 hours 12 minutes 6 seconds 490 msec
