                         Program Version 5.0.4 -  RELEASE  -
|  1> ! ri-mp2 aug-cc-pvdz aug-cc-pvdz/c tightscf
|  2> %pal nprocs 16 end
|  3> %maxcore 3800
|  4> %base "DZ_B-B_71_A"
|  5> %scf
|  6> STABPerform true
|  7> STABRestartUHFifUnstable true
|  8> end
|  9>
| 10> *xyz 0 2
| 11> B         2.436441   -0.768011   -0.626492
| 12> C         1.308138   -0.085875    0.109295
| 13> O         1.532934    0.926861    0.719731
| 14> O         0.058709   -0.672471    0.045613
| 15> C        -1.070738    0.104934   -0.156464
| 16> O        -1.027341    1.181268   -0.652187
| 17> C        -2.288175   -0.633144    0.292888
| 18> H        -2.305551   -1.629649   -0.145980
| 19> H        -3.175416   -0.076365    0.008914
| 20> H        -2.253492   -0.751634    1.376129
| 21> H         3.342498   -1.503053   -0.486178
| 22> *
| 23>
| 24> $new_job
| 25> ! ri-mp2 aug-cc-pvtz aug-cc-pvtz/c tightscf
| 26> %pal nprocs 16 end
| 27> %maxcore 3800
| 28> %base "TZ_B-B_71_A"
| 29>
| 30> *xyz 0 2
| 31> B         2.436441   -0.768011   -0.626492
| 32> C         1.308138   -0.085875    0.109295
| 33> O         1.532934    0.926861    0.719731
| 34> O         0.058709   -0.672471    0.045613
| 35> C        -1.070738    0.104934   -0.156464
| 36> O        -1.027341    1.181268   -0.652187
| 37> C        -2.288175   -0.633144    0.292888
| 38> H        -2.305551   -1.629649   -0.145980
| 39> H        -3.175416   -0.076365    0.008914
| 40> H        -2.253492   -0.751634    1.376129
| 41> H         3.342498   -1.503053   -0.486178
| 42> *
| 43>
| 44> $new_job
| 45> ! ri-mp2 aug-cc-pvqz aug-cc-pvqz/c tightscf
| 46> %pal nprocs 16 end
| 47> %maxcore 3800
| 48> %base "QZ_B-B_71_A"
| 49>
| 50> *xyz 0 2
| 51> B         2.436441   -0.768011   -0.626492
| 52> C         1.308138   -0.085875    0.109295
| 53> O         1.532934    0.926861    0.719731
| 54> O         0.058709   -0.672471    0.045613
| 55> C        -1.070738    0.104934   -0.156464
| 56> O        -1.027341    1.181268   -0.652187
| 57> C        -2.288175   -0.633144    0.292888
| 58> H        -2.305551   -1.629649   -0.145980
| 59> H        -3.175416   -0.076365    0.008914
| 60> H        -2.253492   -0.751634    1.376129
| 61> H         3.342498   -1.503053   -0.486178
| 62> *
| 63>
| 64>
| 65>
| 66>
| 67>                          ****END OF INPUT****
 Total Charge           Charge          ....    0
 Multiplicity           Mult            ....    2
 Number of Electrons    NEL             ....   51
MP2 TOTAL ENERGY:     -366.227552026 Eh
FINAL SINGLE POINT ENERGY      -366.227552026231
MP2 TOTAL ENERGY:     -366.533796842 Eh
FINAL SINGLE POINT ENERGY      -366.533796842351

CARTESIAN COORDINATES (ANGSTROEM)
---------------------------------
  B      2.436441   -0.768011   -0.626492
  C      1.308138   -0.085875    0.109295
  O      1.532934    0.926861    0.719731
  O      0.058709   -0.672471    0.045613
  C     -1.070738    0.104934   -0.156464
  O     -1.027341    1.181268   -0.652187
  C     -2.288175   -0.633144    0.292888
  H     -2.305551   -1.629649   -0.145980
  H     -3.175416   -0.076365    0.008914
  H     -2.253492   -0.751634    1.376129
  H      3.342498   -1.503053   -0.486178

 Multiplicity           Mult            ....    2
 Number of Electrons    NEL             ....   51
 Basis Dimension        Dim             ....  744

ORBITAL ENERGIES
----------------
                 SPIN UP ORBITALS
  NO   OCC          E(Eh)            E(eV)
   0   1.0000     -20.626593      -561.2781
   1   1.0000     -20.582281      -560.0723
   2   1.0000     -20.563684      -559.5663
   3   1.0000     -11.400887      -310.2339
   4   1.0000     -11.378675      -309.6295
   5   1.0000     -11.253501      -306.2233
   6   1.0000      -7.672479      -208.7788
   7   1.0000      -1.500420       -40.8285
   8   1.0000      -1.429374       -38.8952
   9   1.0000      -1.380999       -37.5789
  10   1.0000      -1.048308       -28.5259
  11   1.0000      -0.926579       -25.2135
  12   1.0000      -0.802230       -21.8298
  13   1.0000      -0.739893       -20.1335
  14   1.0000      -0.709107       -19.2958
  15   1.0000      -0.694869       -18.9084
  16   1.0000      -0.663839       -18.0640
  17   1.0000      -0.624319       -16.9886
  18   1.0000      -0.621026       -16.8990
  19   1.0000      -0.592031       -16.1100
  20   1.0000      -0.577727       -15.7207
  21   1.0000      -0.557225       -15.1629
  22   1.0000      -0.500668       -13.6239
  23   1.0000      -0.490359       -13.3434
  24   1.0000      -0.457246       -12.4423
  25   1.0000      -0.365427        -9.9438
  26   0.0000       0.017568         0.4780
  27   0.0000       0.026620         0.7244
  28   0.0000       0.030318         0.8250
  29   0.0000       0.034295         0.9332
  30   0.0000       0.043918         1.1951

                 SPIN DOWN ORBITALS
  NO   OCC          E(Eh)            E(eV)
   0   1.0000     -20.627365      -561.2991
   1   1.0000     -20.568466      -559.6964
   2   1.0000     -20.563869      -559.5713
   3   1.0000     -11.400801      -310.2316
   4   1.0000     -11.384387      -309.7849
   5   1.0000     -11.253499      -306.2233
   6   1.0000      -7.655526      -208.3175
   7   1.0000      -1.499121       -40.7931
   8   1.0000      -1.415535       -38.5187
   9   1.0000      -1.369490       -37.2657
  10   1.0000      -1.047826       -28.5128
  11   1.0000      -0.918821       -25.0024
  12   1.0000      -0.783548       -21.3214
  13   1.0000      -0.735682       -20.0189
  14   1.0000      -0.707451       -19.2507
  15   1.0000      -0.690466       -18.7885
  16   1.0000      -0.649378       -17.6705
  17   1.0000      -0.615202       -16.7405
  18   1.0000      -0.610489       -16.6123
  19   1.0000      -0.591357       -16.0916
  20   1.0000      -0.565194       -15.3797
  21   1.0000      -0.524350       -14.2683
  22   1.0000      -0.486770       -13.2457
  23   1.0000      -0.473449       -12.8832
  24   1.0000      -0.447358       -12.1732
  25   0.0000       0.019209         0.5227
  26   0.0000       0.027387         0.7453
  27   0.0000       0.030818         0.8386
  28   0.0000       0.032036         0.8717
  29   0.0000       0.043729         1.1899

MULLIKEN ATOMIC CHARGES AND SPIN POPULATIONS
--------------------------------------------
   0 B :    0.512049    0.936153
   1 C :    0.754558   -0.221989
   2 O :   -0.707021    0.308570
   3 O :   -0.671047   -0.009682
   4 C :    0.857642    0.007961
   5 O :   -0.681015   -0.002302
   6 C :   -0.759791   -0.000527
   7 H :    0.293319    0.000083
   8 H :    0.307025    0.000086
   9 H :    0.287036   -0.000147
  10 H :   -0.192755   -0.018206
Sum of atomic charges         :   -0.0000000

LOEWDIN ATOMIC CHARGES AND SPIN POPULATIONS
-------------------------------------------
   0 B :    0.293624    0.468637
   1 C :   -1.044017    0.166816
   2 O :    0.668393    0.213552
   3 O :    0.750012   -0.012097
   4 C :   -1.072215    0.000934
   5 O :    0.716659   -0.003166
   6 C :    0.869800    0.000511
   7 H :   -0.303359    0.000041
   8 H :   -0.317031    0.000086
   9 H :   -0.296470    0.000093
  10 H :   -0.265397    0.164592

  Mayer bond orders larger than 0.100000
B(  0-B ,  1-C ) :   1.0679 B(  0-B ,  2-O ) :   0.1208 B(  0-B , 10-H ) :   0.9271
B(  1-C ,  2-O ) :   1.4229 B(  1-C ,  3-O ) :   0.8857 B(  3-O ,  4-C ) :   0.9189
B(  4-C ,  5-O ) :   1.5312 B(  4-C ,  6-C ) :   0.9529 B(  6-C ,  7-H ) :   0.9156
B(  6-C ,  8-H ) :   0.9561 B(  6-C ,  9-H ) :   0.9064

MP2 TOTAL ENERGY:     -366.634820599 Eh
FINAL SINGLE POINT ENERGY      -366.634820599343

DIPOLE MOMENT
-------------
                                X             Y             Z
Electronic contribution:      5.89303       1.57428      -1.20036
Nuclear contribution   :     -6.14800      -3.21546       1.22013
                        -----------------------------------------
Total Dipole Moment    :     -0.25497      -1.64118       0.01978
                        -----------------------------------------
Magnitude (a.u.)       :      1.66099
Magnitude (Debye)      :      4.22190

Rotational constants in cm-1:     0.202984     0.062336     0.054802
Rotational constants in MHz :  6085.307374  1868.797321  1642.935707

                             ****ORCA TERMINATED NORMALLY****
TOTAL RUN TIME: 0 days 1 hours 44 minutes 33 seconds 450 msec
