                         Program Version 5.0.4 -  RELEASE  -
|  1> ! ri-mp2 aug-cc-pvdz aug-cc-pvdz/c tightscf
|  2> %pal nprocs 16 end
|  3> %maxcore 3800
|  4> %base "DZ_P-N_14_AB"
|  5> %scf
|  6> STABPerform true
|  7> STABRestartUHFifUnstable true
|  8> end
|  9>
| 10> *xyz 0 1
| 11> P        -0.563410    0.004747   -0.654601
| 12> N         1.148440   -0.130435   -0.631198
| 13> O         1.782760    0.091908    0.629157
| 14> C        -0.917060    1.413958    0.467698
| 15> H        -0.626213    2.348372   -0.011925
| 16> H        -0.390432    1.320053    1.416371
| 17> C        -0.987713   -1.378029    0.463913
| 18> H        -0.475227   -1.297348    1.422655
| 19> H        -0.724762   -2.322542   -0.010416
| 20> H        -2.063606   -1.374616    0.640426
| 21> H        -1.991059    1.455277    0.654492
| 22> H         2.254471   -0.730667    0.794613
| 23> H         1.595458    0.492470   -1.291727
| 24> *
| 25>
| 26> $new_job
| 27> ! ri-mp2 aug-cc-pvtz aug-cc-pvtz/c tightscf
| 28> %pal nprocs 16 end
| 29> %maxcore 3800
| 30> %base "TZ_P-N_14_AB"
| 31>
| 32> *xyz 0 1
| 33> P        -0.563410    0.004747   -0.654601
| 34> N         1.148440   -0.130435   -0.631198
| 35> O         1.782760    0.091908    0.629157
| 36> C        -0.917060    1.413958    0.467698
| 37> H        -0.626213    2.348372   -0.011925
| 38> H        -0.390432    1.320053    1.416371
| 39> C        -0.987713   -1.378029    0.463913
| 40> H        -0.475227   -1.297348    1.422655
| 41> H        -0.724762   -2.322542   -0.010416
| 42> H        -2.063606   -1.374616    0.640426
| 43> H        -1.991059    1.455277    0.654492
| 44> H         2.254471   -0.730667    0.794613
| 45> H         1.595458    0.492470   -1.291727
| 46> *
| 47>
| 48> $new_job
| 49> ! ri-mp2 aug-cc-pvqz aug-cc-pvqz/c tightscf
| 50> %pal nprocs 16 end
| 51> %maxcore 3800
| 52> %base "QZ_P-N_14_AB"
| 53>
| 54> *xyz 0 1
| 55> P        -0.563410    0.004747   -0.654601
| 56> N         1.148440   -0.130435   -0.631198
| 57> O         1.782760    0.091908    0.629157
| 58> C        -0.917060    1.413958    0.467698
| 59> H        -0.626213    2.348372   -0.011925
| 60> H        -0.390432    1.320053    1.416371
| 61> C        -0.987713   -1.378029    0.463913
| 62> H        -0.475227   -1.297348    1.422655
| 63> H        -0.724762   -2.322542   -0.010416
| 64> H        -2.063606   -1.374616    0.640426
| 65> H        -1.991059    1.455277    0.654492
| 66> H         2.254471   -0.730667    0.794613
| 67> H         1.595458    0.492470   -1.291727
| 68> *
| 69>
| 70>
| 71>
| 72>
| 73>                          ****END OF INPUT****
 Total Charge           Charge          ....    0
 Multiplicity           Mult            ....    1
 Number of Electrons    NEL             ....   50
MP2 TOTAL ENERGY:     -551.232652804 Eh
FINAL SINGLE POINT ENERGY      -551.232652803585
MP2 TOTAL ENERGY:     -551.475247637 Eh
FINAL SINGLE POINT ENERGY      -551.475247637448

CARTESIAN COORDINATES (ANGSTROEM)
---------------------------------
  P     -0.563410    0.004747   -0.654601
  N      1.148440   -0.130435   -0.631198
  O      1.782760    0.091908    0.629157
  C     -0.917060    1.413958    0.467698
  H     -0.626213    2.348372   -0.011925
  H     -0.390432    1.320053    1.416371
  C     -0.987713   -1.378029    0.463913
  H     -0.475227   -1.297348    1.422655
  H     -0.724762   -2.322542   -0.010416
  H     -2.063606   -1.374616    0.640426
  H     -1.991059    1.455277    0.654492
  H      2.254471   -0.730667    0.794613
  H      1.595458    0.492470   -1.291727

 Multiplicity           Mult            ....    1
 Number of Electrons    NEL             ....   50
 Basis Dimension        Dim             ....  772

ORBITAL ENERGIES
----------------

  NO   OCC          E(Eh)            E(eV)
   0   2.0000     -79.947053     -2175.4699
   1   2.0000     -20.592610      -560.3534
   2   2.0000     -15.599967      -424.4967
   3   2.0000     -11.215862      -305.1991
   4   2.0000     -11.212228      -305.1002
   5   2.0000      -7.486004      -203.7045
   6   2.0000      -5.380524      -146.4115
   7   2.0000      -5.379821      -146.3924
   8   2.0000      -5.379116      -146.3732
   9   2.0000      -1.402697       -38.1693
  10   2.0000      -1.098792       -29.8997
  11   2.0000      -0.987652       -26.8754
  12   2.0000      -0.935656       -25.4605
  13   2.0000      -0.751374       -20.4459
  14   2.0000      -0.697615       -18.9831
  15   2.0000      -0.650790       -17.7089
  16   2.0000      -0.606668       -16.5083
  17   2.0000      -0.583091       -15.8667
  18   2.0000      -0.556703       -15.1487
  19   2.0000      -0.548300       -14.9200
  20   2.0000      -0.546947       -14.8832
  21   2.0000      -0.486699       -13.2438
  22   2.0000      -0.467639       -12.7251
  23   2.0000      -0.399852       -10.8805
  24   2.0000      -0.341758        -9.2997
  25   0.0000       0.026361         0.7173
  26   0.0000       0.033576         0.9136
  27   0.0000       0.034135         0.9289
  28   0.0000       0.040116         1.0916
  29   0.0000       0.052569         1.4305

MULLIKEN ATOMIC CHARGES
-----------------------
   0 P :    0.808795
   1 N :   -0.469012
   2 O :   -0.612661
   3 C :   -1.117768
   4 H :    0.315589
   5 H :    0.304234
   6 C :   -1.122754
   7 H :    0.290043
   8 H :    0.357332
   9 H :    0.326494
  10 H :    0.324562
  11 H :    0.351454
  12 H :    0.243693
Sum of atomic charges:    0.0000000

LOEWDIN ATOMIC CHARGES
----------------------
   0 P :    0.778264
   1 N :    0.346192
   2 O :    1.047097
   3 C :    0.769680
   4 H :   -0.363559
   5 H :   -0.368240
   6 C :    0.758750
   7 H :   -0.359570
   8 H :   -0.363646
   9 H :   -0.362901
  10 H :   -0.364049
  11 H :   -0.843521
  12 H :   -0.674498

  Mayer bond orders larger than 0.100000
B(  0-P ,  1-N ) :   0.7063 B(  0-P ,  3-C ) :   0.8620 B(  0-P ,  6-C ) :   0.8582
B(  1-N ,  2-O ) :   0.7715 B(  1-N , 12-H ) :   0.9564 B(  2-O , 11-H ) :   0.8979
B(  3-C ,  4-H ) :   0.9100 B(  3-C ,  5-H ) :   0.8940 B(  3-C , 10-H ) :   0.9062
B(  6-C ,  7-H ) :   0.9116 B(  6-C ,  8-H ) :   0.8825 B(  6-C ,  9-H ) :   0.9099

MP2 TOTAL ENERGY:     -551.551097613 Eh
FINAL SINGLE POINT ENERGY      -551.551097612746

DIPOLE MOMENT
-------------
                                X             Y             Z
Electronic contribution:      1.99243      -0.04159      -3.96184
Nuclear contribution   :     -1.86660      -0.11385       4.28232
                        -----------------------------------------
Total Dipole Moment    :      0.12583      -0.15545       0.32048
                        -----------------------------------------
Magnitude (a.u.)       :      0.37777
Magnitude (Debye)      :      0.96020

Rotational constants in cm-1:     0.162653     0.108324     0.091133
Rotational constants in MHz :  4876.203973  3247.468435  2732.099663

                             ****ORCA TERMINATED NORMALLY****
TOTAL RUN TIME: 0 days 0 hours 52 minutes 22 seconds 397 msec
