                         Program Version 5.0.4 -  RELEASE  -
|  1> ! ri-mp2 aug-cc-pvdz aug-cc-pvdz/c tightscf
|  2> %pal nprocs 16 end
|  3> %maxcore 3800
|  4> %base "DZ_B-F_49_AB"
|  5> %scf
|  6> STABPerform true
|  7> STABRestartUHFifUnstable true
|  8> end
|  9>
| 10> *xyz 0 1
| 11> F        -1.635734    1.128105   -0.006277
| 12> B        -0.961456    0.000000   -0.010180
| 13> F        -1.635734   -1.128105   -0.006277
| 14> C         0.637954    0.000000   -0.020646
| 15> O         1.175097   -1.091582   -0.694831
| 16> H         0.806006   -1.896264   -0.315064
| 17> O         1.004636    0.000000    1.333065
| 18> H         1.972118    0.000000    1.370666
| 19> O         1.175097    1.091582   -0.694831
| 20> H         0.806006    1.896263   -0.315064
| 21> *
| 22>
| 23> $new_job
| 24> ! ri-mp2 aug-cc-pvtz aug-cc-pvtz/c tightscf
| 25> %pal nprocs 16 end
| 26> %maxcore 3800
| 27> %base "TZ_B-F_49_AB"
| 28>
| 29> *xyz 0 1
| 30> F        -1.635734    1.128105   -0.006277
| 31> B        -0.961456    0.000000   -0.010180
| 32> F        -1.635734   -1.128105   -0.006277
| 33> C         0.637954    0.000000   -0.020646
| 34> O         1.175097   -1.091582   -0.694831
| 35> H         0.806006   -1.896264   -0.315064
| 36> O         1.004636    0.000000    1.333065
| 37> H         1.972118    0.000000    1.370666
| 38> O         1.175097    1.091582   -0.694831
| 39> H         0.806006    1.896263   -0.315064
| 40> *
| 41>
| 42> $new_job
| 43> ! ri-mp2 aug-cc-pvqz aug-cc-pvqz/c tightscf
| 44> %pal nprocs 16 end
| 45> %maxcore 3800
| 46> %base "QZ_B-F_49_AB"
| 47>
| 48> *xyz 0 1
| 49> F        -1.635734    1.128105   -0.006277
| 50> B        -0.961456    0.000000   -0.010180
| 51> F        -1.635734   -1.128105   -0.006277
| 52> C         0.637954    0.000000   -0.020646
| 53> O         1.175097   -1.091582   -0.694831
| 54> H         0.806006   -1.896264   -0.315064
| 55> O         1.004636    0.000000    1.333065
| 56> H         1.972118    0.000000    1.370666
| 57> O         1.175097    1.091582   -0.694831
| 58> H         0.806006    1.896263   -0.315064
| 59> *
| 60>
| 61>
| 62>
| 63>
| 64>                          ****END OF INPUT****
 Total Charge           Charge          ....    0
 Multiplicity           Mult            ....    1
 Number of Electrons    NEL             ....   56
MP2 TOTAL ENERGY:     -489.180537929 Eh
FINAL SINGLE POINT ENERGY      -489.180537929209
MP2 TOTAL ENERGY:     -489.600533674 Eh
FINAL SINGLE POINT ENERGY      -489.600533674119

CARTESIAN COORDINATES (ANGSTROEM)
---------------------------------
  F     -1.635734    1.128105   -0.006277
  B     -0.961456    0.000000   -0.010180
  F     -1.635734   -1.128105   -0.006277
  C      0.637954    0.000000   -0.020646
  O      1.175097   -1.091582   -0.694831
  H      0.806006   -1.896264   -0.315064
  O      1.004636    0.000000    1.333065
  H      1.972118    0.000000    1.370666
  O      1.175097    1.091582   -0.694831
  H      0.806006    1.896263   -0.315064

 Multiplicity           Mult            ....    1
 Number of Electrons    NEL             ....   56
 Basis Dimension        Dim             ....  698

ORBITAL ENERGIES
----------------

  NO   OCC          E(Eh)            E(eV)
   0   2.0000     -26.333653      -716.5751
   1   2.0000     -26.333637      -716.5747
   2   2.0000     -20.590378      -560.2927
   3   2.0000     -20.587221      -560.2068
   4   2.0000     -20.587207      -560.2064
   5   2.0000     -11.398960      -310.1815
   6   2.0000      -7.728779      -210.3108
   7   2.0000      -1.667941       -45.3870
   8   2.0000      -1.636790       -44.5393
   9   2.0000      -1.476969       -40.1904
  10   2.0000      -1.365316       -37.1521
  11   2.0000      -1.365114       -37.1467
  12   2.0000      -0.925452       -25.1828
  13   2.0000      -0.842600       -22.9283
  14   2.0000      -0.815565       -22.1927
  15   2.0000      -0.785955       -21.3869
  16   2.0000      -0.750968       -20.4349
  17   2.0000      -0.729936       -19.8626
  18   2.0000      -0.692867       -18.8539
  19   2.0000      -0.681151       -18.5351
  20   2.0000      -0.677378       -18.4324
  21   2.0000      -0.675095       -18.3703
  22   2.0000      -0.643515       -17.5109
  23   2.0000      -0.624509       -16.9938
  24   2.0000      -0.551391       -15.0041
  25   2.0000      -0.533569       -14.5192
  26   2.0000      -0.497539       -13.5387
  27   2.0000      -0.471397       -12.8274
  28   0.0000       0.022981         0.6253
  29   0.0000       0.033567         0.9134
  30   0.0000       0.034450         0.9374
  31   0.0000       0.039489         1.0745
  32   0.0000       0.052764         1.4358

MULLIKEN ATOMIC CHARGES
-----------------------
   0 F :   -0.820034
   1 B :    1.590143
   2 F :   -0.820034
   3 C :    1.553005
   4 O :   -0.831334
   5 H :    0.342911
   6 O :   -0.835160
   7 H :    0.308926
   8 O :   -0.831333
   9 H :    0.342910
Sum of atomic charges:    0.0000000

LOEWDIN ATOMIC CHARGES
----------------------
   0 F :    0.844815
   1 B :   -1.790647
   2 F :    0.844815
   3 C :   -1.251897
   4 O :    1.246257
   5 H :   -0.804163
   6 O :    1.250598
   7 H :   -0.781870
   8 O :    1.246258
   9 H :   -0.804165

  Mayer bond orders larger than 0.100000
B(  0-F ,  1-B ) :   0.3149 B(  0-F ,  3-C ) :  -0.1080 B(  1-B ,  2-F ) :   0.3149
B(  1-B ,  3-C ) :   0.8489 B(  1-B ,  6-O ) :   0.1306 B(  2-F ,  3-C ) :  -0.1080
B(  3-C ,  4-O ) :   0.6186 B(  3-C ,  6-O ) :   0.5647 B(  3-C ,  8-O ) :   0.6186
B(  4-O ,  5-H ) :   0.8745 B(  6-O ,  7-H ) :   0.8761 B(  8-O ,  9-H ) :   0.8745

MP2 TOTAL ENERGY:     -489.738273522 Eh
FINAL SINGLE POINT ENERGY      -489.738273521563

DIPOLE MOMENT
-------------
                                X             Y             Z
Electronic contribution:     -7.08420       0.00000      -0.23939
Nuclear contribution   :      7.18710      -0.00000       0.71493
                        -----------------------------------------
Total Dipole Moment    :      0.10290      -0.00000       0.47554
                        -----------------------------------------
Magnitude (a.u.)       :      0.48655
Magnitude (Debye)      :      1.23670

Rotational constants in cm-1:     0.120695     0.074078     0.061221
Rotational constants in MHz :  3618.349405  2220.798346  1835.359931

                             ****ORCA TERMINATED NORMALLY****
TOTAL RUN TIME: 0 days 0 hours 25 minutes 44 seconds 687 msec
