                         Program Version 5.0.4 -  RELEASE  -
|  1> ! ri-mp2 aug-cc-pvdz aug-cc-pvdz/c tightscf
|  2> %pal nprocs 16 end
|  3> %maxcore 3800
|  4> %base "DZ_P-Cl_24_AB"
|  5> %scf
|  6> STABPerform true
|  7> STABRestartUHFifUnstable true
|  8> end
|  9>
| 10> *xyz 0 1
| 11> S        -1.034796   -0.038555    0.099047
| 12> Cl         2.169287   -0.443588    0.006181
| 13> O        -0.945873   -1.070873   -1.109820
| 14> O        -2.027505    0.915880   -0.260555
| 15> O        -1.102900   -0.795327    1.306758
| 16> P         0.814390    1.093930    0.062238
| 17> H        -0.624800   -1.923662   -0.781044
| 18> H         0.698020    1.275145   -1.333426
| 19> *
| 20>
| 21> $new_job
| 22> ! ri-mp2 aug-cc-pvtz aug-cc-pvtz/c tightscf
| 23> %pal nprocs 16 end
| 24> %maxcore 3800
| 25> %base "TZ_P-Cl_24_AB"
| 26>
| 27> *xyz 0 1
| 28> S        -1.034796   -0.038555    0.099047
| 29> Cl         2.169287   -0.443588    0.006181
| 30> O        -0.945873   -1.070873   -1.109820
| 31> O        -2.027505    0.915880   -0.260555
| 32> O        -1.102900   -0.795327    1.306758
| 33> P         0.814390    1.093930    0.062238
| 34> H        -0.624800   -1.923662   -0.781044
| 35> H         0.698020    1.275145   -1.333426
| 36> *
| 37>
| 38> $new_job
| 39> ! ri-mp2 aug-cc-pvqz aug-cc-pvqz/c tightscf
| 40> %pal nprocs 16 end
| 41> %maxcore 3800
| 42> %base "QZ_P-Cl_24_AB"
| 43>
| 44> *xyz 0 1
| 45> S        -1.034796   -0.038555    0.099047
| 46> Cl         2.169287   -0.443588    0.006181
| 47> O        -0.945873   -1.070873   -1.109820
| 48> O        -2.027505    0.915880   -0.260555
| 49> O        -1.102900   -0.795327    1.306758
| 50> P         0.814390    1.093930    0.062238
| 51> H        -0.624800   -1.923662   -0.781044
| 52> H         0.698020    1.275145   -1.333426
| 53> *
| 54>
| 55>
| 56>
| 57>
| 58>                          ****END OF INPUT****
 Total Charge           Charge          ....    0
 Multiplicity           Mult            ....    1
 Number of Electrons    NEL             ....   74
MP2 TOTAL ENERGY:    -1424.507173967 Eh
FINAL SINGLE POINT ENERGY     -1424.507173966750
MP2 TOTAL ENERGY:    -1424.902357167 Eh
FINAL SINGLE POINT ENERGY     -1424.902357166594

CARTESIAN COORDINATES (ANGSTROEM)
---------------------------------
  S     -1.034796   -0.038555    0.099047
  Cl     2.169287   -0.443588    0.006181
  O     -0.945873   -1.070873   -1.109820
  O     -2.027505    0.915880   -0.260555
  O     -1.102900   -0.795327    1.306758
  P      0.814390    1.093930    0.062238
  H     -0.624800   -1.923662   -0.781044
  H      0.698020    1.275145   -1.333426

 Multiplicity           Mult            ....    1
 Number of Electrons    NEL             ....   74
 Basis Dimension        Dim             ....  584

ORBITAL ENERGIES
----------------

  NO   OCC          E(Eh)            E(eV)
   0   2.0000    -104.875153     -2853.7980
   1   2.0000     -92.224211     -2509.5484
   2   2.0000     -80.055112     -2178.4103
   3   2.0000     -20.649144      -561.8918
   4   2.0000     -20.577221      -559.9347
   5   2.0000     -20.576350      -559.9109
   6   2.0000     -10.601218      -288.4738
   7   2.0000      -9.189891      -250.0696
   8   2.0000      -8.068092      -219.5440
   9   2.0000      -8.066554      -219.5021
  10   2.0000      -8.066414      -219.4983
  11   2.0000      -7.592138      -206.5926
  12   2.0000      -6.875975      -187.1048
  13   2.0000      -6.874603      -187.0675
  14   2.0000      -6.874335      -187.0602
  15   2.0000      -5.485011      -149.2547
  16   2.0000      -5.484367      -149.2372
  17   2.0000      -5.483306      -149.2083
  18   2.0000      -1.532799       -41.7096
  19   2.0000      -1.414442       -38.4889
  20   2.0000      -1.384029       -37.6613
  21   2.0000      -1.154519       -31.4160
  22   2.0000      -0.954820       -25.9820
  23   2.0000      -0.856906       -23.3176
  24   2.0000      -0.764374       -20.7997
  25   2.0000      -0.712527       -19.3888
  26   2.0000      -0.706788       -19.2327
  27   2.0000      -0.650881       -17.7114
  28   2.0000      -0.606990       -16.5170
  29   2.0000      -0.593513       -16.1503
  30   2.0000      -0.557094       -15.1593
  31   2.0000      -0.536486       -14.5985
  32   2.0000      -0.525399       -14.2968
  33   2.0000      -0.522528       -14.2187
  34   2.0000      -0.506573       -13.7846
  35   2.0000      -0.468081       -12.7371
  36   2.0000      -0.420870       -11.4524
  37   0.0000       0.021605         0.5879
  38   0.0000       0.031736         0.8636
  39   0.0000       0.040793         1.1100
  40   0.0000       0.050929         1.3859
  41   0.0000       0.058603         1.5947

MULLIKEN ATOMIC CHARGES
-----------------------
   0 S :    2.385311
   1 Cl:   -0.407426
   2 O :   -0.744907
   3 O :   -1.147243
   4 O :   -1.122432
   5 P :    0.729619
   6 H :    0.348649
   7 H :   -0.041571
Sum of atomic charges:   -0.0000000

LOEWDIN ATOMIC CHARGES
----------------------
   0 S :   -0.872734
   1 Cl:    0.669970
   2 O :    0.982104
   3 O :    0.215004
   4 O :    0.224753
   5 P :    0.269991
   6 H :   -0.903114
   7 H :   -0.585973

  Mayer bond orders larger than 0.100000
B(  0-S ,  2-O ) :   0.6682 B(  0-S ,  3-O ) :   1.2175 B(  0-S ,  4-O ) :   1.1915
B(  0-S ,  5-P ) :   0.8176 B(  1-Cl,  5-P ) :   0.8069 B(  2-O ,  6-H ) :   0.8857
B(  5-P ,  7-H ) :   0.9123

MP2 TOTAL ENERGY:    -1425.033482518 Eh
FINAL SINGLE POINT ENERGY     -1425.033482518349

DIPOLE MOMENT
-------------
                                X             Y             Z
Electronic contribution:      4.83347       0.82892       1.37350
Nuclear contribution   :     -3.59209      -1.00093      -2.04643
                        -----------------------------------------
Total Dipole Moment    :      1.24139      -0.17201      -0.67292
                        -----------------------------------------
Magnitude (a.u.)       :      1.42248
Magnitude (Debye)      :      3.61566

Rotational constants in cm-1:     0.118522     0.045196     0.040780
Rotational constants in MHz :  3553.208988  1354.942415  1222.557255

                             ****ORCA TERMINATED NORMALLY****
TOTAL RUN TIME: 0 days 0 hours 18 minutes 52 seconds 54 msec
