                         Program Version 5.0.4 -  RELEASE  -
|  1> ! ri-mp2 aug-cc-pvdz aug-cc-pvdz/c tightscf
|  2> %pal nprocs 16 end
|  3> %maxcore 3800
|  4> %base "DZ_B-S_51_AB"
|  5> %scf
|  6> STABPerform true
|  7> STABRestartUHFifUnstable true
|  8> end
|  9>
| 10> *xyz 0 1
| 11> S         1.730402   -1.083856   -0.000004
| 12> N         0.049204   -0.952245   -0.000003
| 13> B         2.261136    0.646041    0.000003
| 14> F         1.406720    1.643988   -0.000007
| 15> F         3.552792    0.911009    0.000011
| 16> C        -0.643942   -0.749441    1.196206
| 17> C        -1.909380   -0.356636    1.228368
| 18> C        -2.707153   -0.014902    0.000001
| 19> C        -1.909380   -0.356625   -1.228370
| 20> C        -0.643942   -0.749431   -1.196211
| 21> C        -3.134421    1.456464    0.000007
| 22> H        -0.076880   -0.968212   -2.089323
| 23> H        -0.076880   -0.968229    2.089317
| 24> H        -2.389294   -0.262593    2.193632
| 25> H        -3.732542    1.687333   -0.883259
| 26> H        -2.258471    2.105549    0.000010
| 27> H        -2.389293   -0.262574   -2.193632
| 28> H        -3.732542    1.687326    0.883276
| 29> H        -3.626926   -0.612937   -0.000002
| 30> *
| 31>
| 32> $new_job
| 33> ! ri-mp2 aug-cc-pvtz aug-cc-pvtz/c tightscf
| 34> %pal nprocs 16 end
| 35> %maxcore 3800
| 36> %base "TZ_B-S_51_AB"
| 37>
| 38> *xyz 0 1
| 39> S         1.730402   -1.083856   -0.000004
| 40> N         0.049204   -0.952245   -0.000003
| 41> B         2.261136    0.646041    0.000003
| 42> F         1.406720    1.643988   -0.000007
| 43> F         3.552792    0.911009    0.000011
| 44> C        -0.643942   -0.749441    1.196206
| 45> C        -1.909380   -0.356636    1.228368
| 46> C        -2.707153   -0.014902    0.000001
| 47> C        -1.909380   -0.356625   -1.228370
| 48> C        -0.643942   -0.749431   -1.196211
| 49> C        -3.134421    1.456464    0.000007
| 50> H        -0.076880   -0.968212   -2.089323
| 51> H        -0.076880   -0.968229    2.089317
| 52> H        -2.389294   -0.262593    2.193632
| 53> H        -3.732542    1.687333   -0.883259
| 54> H        -2.258471    2.105549    0.000010
| 55> H        -2.389293   -0.262574   -2.193632
| 56> H        -3.732542    1.687326    0.883276
| 57> H        -3.626926   -0.612937   -0.000002
| 58> *
| 59>
| 60> $new_job
| 61> ! ri-mp2 aug-cc-pvqz aug-cc-pvqz/c tightscf
| 62> %pal nprocs 16 end
| 63> %maxcore 3800
| 64> %base "QZ_B-S_51_AB"
| 65>
| 66> *xyz 0 1
| 67> S         1.730402   -1.083856   -0.000004
| 68> N         0.049204   -0.952245   -0.000003
| 69> B         2.261136    0.646041    0.000003
| 70> F         1.406720    1.643988   -0.000007
| 71> F         3.552792    0.911009    0.000011
| 72> C        -0.643942   -0.749441    1.196206
| 73> C        -1.909380   -0.356636    1.228368
| 74> C        -2.707153   -0.014902    0.000001
| 75> C        -1.909380   -0.356625   -1.228370
| 76> C        -0.643942   -0.749431   -1.196211
| 77> C        -3.134421    1.456464    0.000007
| 78> H        -0.076880   -0.968212   -2.089323
| 79> H        -0.076880   -0.968229    2.089317
| 80> H        -2.389294   -0.262593    2.193632
| 81> H        -3.732542    1.687333   -0.883259
| 82> H        -2.258471    2.105549    0.000010
| 83> H        -2.389293   -0.262574   -2.193632
| 84> H        -3.732542    1.687326    0.883276
| 85> H        -3.626926   -0.612937   -0.000002
| 86> *
| 87>
| 88>
| 89>
| 90>
| 91>                          ****END OF INPUT****
 Total Charge           Charge          ....    0
 Multiplicity           Mult            ....    1
 Number of Electrons    NEL             ....   90
MP2 TOTAL ENERGY:     -909.186655204 Eh
FINAL SINGLE POINT ENERGY      -909.186655204491
MP2 TOTAL ENERGY:     -909.691297116 Eh
FINAL SINGLE POINT ENERGY      -909.691297116327

CARTESIAN COORDINATES (ANGSTROEM)
---------------------------------
  S      1.730402   -1.083856   -0.000004
  N      0.049204   -0.952245   -0.000003
  B      2.261136    0.646041    0.000003
  F      1.406720    1.643988   -0.000007
  F      3.552792    0.911009    0.000011
  C     -0.643942   -0.749441    1.196206
  C     -1.909380   -0.356636    1.228368
  C     -2.707153   -0.014902    0.000001
  C     -1.909380   -0.356625   -1.228370
  C     -0.643942   -0.749431   -1.196211
  C     -3.134421    1.456464    0.000007
  H     -0.076880   -0.968212   -2.089323
  H     -0.076880   -0.968229    2.089317
  H     -2.389294   -0.262593    2.193632
  H     -3.732542    1.687333   -0.883259
  H     -2.258471    2.105549    0.000010
  H     -2.389293   -0.262574   -2.193632
  H     -3.732542    1.687326    0.883276
  H     -3.626926   -0.612937   -0.000002

 Multiplicity           Mult            ....    1
 Number of Electrons    NEL             ....   90
 Basis Dimension        Dim             .... 1252

ORBITAL ENERGIES
----------------

  NO   OCC          E(Eh)            E(eV)
   0   2.0000     -92.002087     -2503.5041
   1   2.0000     -26.325073      -716.3416
   2   2.0000     -26.324872      -716.3362
   3   2.0000     -15.611909      -424.8216
   4   2.0000     -11.272099      -306.7294
   5   2.0000     -11.272081      -306.7289
   6   2.0000     -11.239754      -305.8492
   7   2.0000     -11.222102      -305.3689
   8   2.0000     -11.222087      -305.3685
   9   2.0000     -11.212472      -305.1069
  10   2.0000      -9.002830      -244.9795
  11   2.0000      -7.739643      -210.6064
  12   2.0000      -6.684526      -181.8952
  13   2.0000      -6.683046      -181.8549
  14   2.0000      -6.682856      -181.8498
  15   2.0000      -1.658412       -45.1277
  16   2.0000      -1.628307       -44.3085
  17   2.0000      -1.292867       -35.1807
  18   2.0000      -1.109117       -30.1806
  19   2.0000      -1.043785       -28.4028
  20   2.0000      -1.011932       -27.5361
  21   2.0000      -0.934792       -25.4370
  22   2.0000      -0.847986       -23.0749
  23   2.0000      -0.843737       -22.9593
  24   2.0000      -0.825938       -22.4749
  25   2.0000      -0.777465       -21.1559
  26   2.0000      -0.749869       -20.4050
  27   2.0000      -0.728429       -19.8216
  28   2.0000      -0.701446       -19.0873
  29   2.0000      -0.674142       -18.3443
  30   2.0000      -0.670371       -18.2417
  31   2.0000      -0.663184       -18.0461
  32   2.0000      -0.658551       -17.9201
  33   2.0000      -0.615256       -16.7420
  34   2.0000      -0.606694       -16.5090
  35   2.0000      -0.597257       -16.2522
  36   2.0000      -0.563145       -15.3240
  37   2.0000      -0.549366       -14.9490
  38   2.0000      -0.527095       -14.3430
  39   2.0000      -0.490061       -13.3352
  40   2.0000      -0.472011       -12.8441
  41   2.0000      -0.465774       -12.6744
  42   2.0000      -0.415176       -11.2975
  43   2.0000      -0.380155       -10.3445
  44   2.0000      -0.296430        -8.0663
  45   0.0000       0.023141         0.6297
  46   0.0000       0.028554         0.7770
  47   0.0000       0.028658         0.7798
  48   0.0000       0.033430         0.9097
  49   0.0000       0.041311         1.1241

MULLIKEN ATOMIC CHARGES
-----------------------
   0 S :   -0.042088
   1 N :   -0.390041
   2 B :    1.561967
   3 F :   -0.769696
   4 F :   -0.864356
   5 C :   -0.393308
   6 C :   -0.200618
   7 C :    0.276561
   8 C :   -0.200620
   9 C :   -0.393309
  10 C :   -0.943498
  11 H :    0.350298
  12 H :    0.350297
  13 H :    0.260751
  14 H :    0.282239
  15 H :    0.273537
  16 H :    0.260751
  17 H :    0.282239
  18 H :    0.298893
Sum of atomic charges:    0.0000000

LOEWDIN ATOMIC CHARGES
----------------------
   0 S :    1.295923
   1 N :   -0.070581
   2 B :   -2.180681
   3 F :    0.794028
   4 F :    0.740138
   5 C :    0.100298
   6 C :    0.361607
   7 C :    0.044465
   8 C :    0.361609
   9 C :    0.100299
  10 C :    0.916850
  11 H :   -0.353315
  12 H :   -0.353315
  13 H :   -0.315760
  14 H :   -0.278916
  15 H :   -0.279141
  16 H :   -0.315762
  17 H :   -0.278915
  18 H :   -0.288830

  Mayer bond orders larger than 0.100000
B(  0-S ,  1-N ) :   0.7974 B(  0-S ,  2-B ) :   1.3177 B(  1-N ,  5-C ) :   0.9111
B(  1-N ,  9-C ) :   0.9111 B(  2-B ,  3-F ) :   0.3167 B(  2-B ,  4-F ) :   0.2356
B(  5-C ,  6-C ) :   1.5238 B(  5-C ,  7-C ) :  -0.2430 B(  5-C , 12-H ) :   1.0391
B(  5-C , 13-H ) :  -0.1462 B(  6-C ,  7-C ) :   0.6692 B(  6-C , 12-H ) :  -0.1015
B(  6-C , 13-H ) :   1.0584 B(  7-C ,  8-C ) :   0.6692 B(  7-C ,  9-C ) :  -0.2430
B(  7-C , 10-C ) :   0.9080 B(  7-C , 18-H ) :   0.8360 B(  8-C ,  9-C ) :   1.5238
B(  8-C , 11-H ) :  -0.1015 B(  8-C , 16-H ) :   1.0584 B(  9-C , 11-H ) :   1.0391
B(  9-C , 16-H ) :  -0.1462 B( 10-C , 14-H ) :   0.9496 B( 10-C , 15-H ) :   0.9402
B( 10-C , 17-H ) :   0.9496

MP2 TOTAL ENERGY:     -909.851274917 Eh
FINAL SINGLE POINT ENERGY      -909.851274917432

DIPOLE MOMENT
-------------
                                X             Y             Z
Electronic contribution:     23.81075       0.44063      -0.00001
Nuclear contribution   :    -24.20026      -0.58951       0.00001
                        -----------------------------------------
Total Dipole Moment    :     -0.38951      -0.14888       0.00000
                        -----------------------------------------
Magnitude (a.u.)       :      0.41699
Magnitude (Debye)      :      1.05991

Rotational constants in cm-1:     0.063217     0.019198     0.017499
Rotational constants in MHz :  1895.200542   575.549508   524.602991

                             ****ORCA TERMINATED NORMALLY****
TOTAL RUN TIME: 0 days 4 hours 10 minutes 6 seconds 146 msec
