                         Program Version 5.0.4 -  RELEASE  -
|  1> ! ri-mp2 aug-cc-pvdz aug-cc-pvdz/c tightscf
|  2> %pal nprocs 16 end
|  3> %maxcore 3800
|  4> %base "DZ_Si-Cl_71_AB"
|  5> %scf
|  6> STABPerform true
|  7> STABRestartUHFifUnstable true
|  8> end
|  9>
| 10> *xyz 0 1
| 11> Si         0.465896   -0.822430    0.364875
| 12> C        -1.806072    1.159351    0.369532
| 13> S        -1.438182   -0.426472   -0.444734
| 14> H        -2.805049    1.448600    0.054081
| 15> H        -1.099725    1.924729    0.059018
| 16> H        -1.792797    1.055365    1.451920
| 17> Cl         1.865070    0.580523   -0.203826
| 18> H         0.879579   -2.137416   -0.146889
| 19> H         0.436586   -0.778711    1.837210
| 20> *
| 21>
| 22> $new_job
| 23> ! ri-mp2 aug-cc-pvtz aug-cc-pvtz/c tightscf
| 24> %pal nprocs 16 end
| 25> %maxcore 3800
| 26> %base "TZ_Si-Cl_71_AB"
| 27>
| 28> *xyz 0 1
| 29> Si         0.465896   -0.822430    0.364875
| 30> C        -1.806072    1.159351    0.369532
| 31> S        -1.438182   -0.426472   -0.444734
| 32> H        -2.805049    1.448600    0.054081
| 33> H        -1.099725    1.924729    0.059018
| 34> H        -1.792797    1.055365    1.451920
| 35> Cl         1.865070    0.580523   -0.203826
| 36> H         0.879579   -2.137416   -0.146889
| 37> H         0.436586   -0.778711    1.837210
| 38> *
| 39>
| 40> $new_job
| 41> ! ri-mp2 aug-cc-pvqz aug-cc-pvqz/c tightscf
| 42> %pal nprocs 16 end
| 43> %maxcore 3800
| 44> %base "QZ_Si-Cl_71_AB"
| 45>
| 46> *xyz 0 1
| 47> Si         0.465896   -0.822430    0.364875
| 48> C        -1.806072    1.159351    0.369532
| 49> S        -1.438182   -0.426472   -0.444734
| 50> H        -2.805049    1.448600    0.054081
| 51> H        -1.099725    1.924729    0.059018
| 52> H        -1.792797    1.055365    1.451920
| 53> Cl         1.865070    0.580523   -0.203826
| 54> H         0.879579   -2.137416   -0.146889
| 55> H         0.436586   -0.778711    1.837210
| 56> *
| 57>
| 58>
| 59>
| 60>
| 61>                          ****END OF INPUT****
 Total Charge           Charge          ....    0
 Multiplicity           Mult            ....    1
 Number of Electrons    NEL             ....   58
MP2 TOTAL ENERGY:    -1187.373339519 Eh
FINAL SINGLE POINT ENERGY     -1187.373339518870
MP2 TOTAL ENERGY:    -1187.568142752 Eh
FINAL SINGLE POINT ENERGY     -1187.568142751551

CARTESIAN COORDINATES (ANGSTROEM)
---------------------------------
  Si     0.465896   -0.822430    0.364875
  C     -1.806072    1.159351    0.369532
  S     -1.438182   -0.426472   -0.444734
  H     -2.805049    1.448600    0.054081
  H     -1.099725    1.924729    0.059018
  H     -1.792797    1.055365    1.451920
  Cl     1.865070    0.580523   -0.203826
  H      0.879579   -2.137416   -0.146889
  H      0.436586   -0.778711    1.837210

 Multiplicity           Mult            ....    1
 Number of Electrons    NEL             ....   58
 Basis Dimension        Dim             ....  562

ORBITAL ENERGIES
----------------

  NO   OCC          E(Eh)            E(eV)
   0   2.0000    -104.828479     -2852.5279
   1   2.0000     -91.951892     -2502.1382
   2   2.0000     -68.834451     -1873.0806
   3   2.0000     -11.267937      -306.6162
   4   2.0000     -10.555962      -287.2423
   5   2.0000      -8.956146      -243.7091
   6   2.0000      -8.022738      -218.3098
   7   2.0000      -8.021647      -218.2801
   8   2.0000      -8.021614      -218.2792
   9   2.0000      -6.637572      -180.6175
  10   2.0000      -6.636875      -180.5986
  11   2.0000      -6.636112      -180.5778
  12   2.0000      -6.177585      -168.1006
  13   2.0000      -4.284477      -116.5866
  14   2.0000      -4.283966      -116.5726
  15   2.0000      -4.283406      -116.5574
  16   2.0000      -1.100256       -29.9395
  17   2.0000      -1.045538       -28.4505
  18   2.0000      -0.877485       -23.8776
  19   2.0000      -0.705987       -19.2109
  20   2.0000      -0.606624       -16.5071
  21   2.0000      -0.604935       -16.4611
  22   2.0000      -0.547452       -14.8969
  23   2.0000      -0.532276       -14.4840
  24   2.0000      -0.505675       -13.7601
  25   2.0000      -0.478331       -13.0161
  26   2.0000      -0.453047       -12.3280
  27   2.0000      -0.428106       -11.6493
  28   2.0000      -0.371616       -10.1122
  29   0.0000       0.025224         0.6864
  30   0.0000       0.034041         0.9263
  31   0.0000       0.037215         1.0127
  32   0.0000       0.039863         1.0847
  33   0.0000       0.050223         1.3666

MULLIKEN ATOMIC CHARGES
-----------------------
   0 Si:    1.249510
   1 C :   -0.914792
   2 S :   -0.275378
   3 H :    0.399276
   4 H :    0.289601
   5 H :    0.271553
   6 Cl:   -0.576079
   7 H :   -0.245524
   8 H :   -0.198167
Sum of atomic charges:    0.0000000

LOEWDIN ATOMIC CHARGES
----------------------
   0 Si:   -0.526219
   1 C :    0.445633
   2 S :    1.075171
   3 H :   -0.392373
   4 H :   -0.391897
   5 H :   -0.383243
   6 Cl:    0.845813
   7 H :   -0.346582
   8 H :   -0.326304

  Mayer bond orders larger than 0.100000
B(  0-Si,  2-S ) :   0.8901 B(  0-Si,  6-Cl) :   0.5082 B(  0-Si,  7-H ) :   0.8907
B(  0-Si,  8-H ) :   0.8906 B(  1-C ,  2-S ) :   0.9682 B(  1-C ,  3-H ) :   0.8226
B(  1-C ,  4-H ) :   0.9108 B(  1-C ,  5-H ) :   0.9164

MP2 TOTAL ENERGY:    -1187.631525217 Eh
FINAL SINGLE POINT ENERGY     -1187.631525217117

DIPOLE MOMENT
-------------
                                X             Y             Z
Electronic contribution:      6.40442      -0.55923      -2.94465
Nuclear contribution   :     -6.80121       0.72051       3.42161
                        -----------------------------------------
Total Dipole Moment    :     -0.39679       0.16127       0.47696
                        -----------------------------------------
Magnitude (a.u.)       :      0.64105
Magnitude (Debye)      :      1.62941

Rotational constants in cm-1:     0.203181     0.063086     0.053863
Rotational constants in MHz :  6091.206916  1891.259987  1614.764648

                             ****ORCA TERMINATED NORMALLY****
TOTAL RUN TIME: 0 days 0 hours 19 minutes 41 seconds 442 msec
