                         Program Version 5.0.4 -  RELEASE  -
|  1> ! ri-mp2 aug-cc-pvdz aug-cc-pvdz/c tightscf
|  2> %pal nprocs 16 end
|  3> %maxcore 3800
|  4> %base "DZ_P-S_29_A"
|  5> %scf
|  6> STABPerform true
|  7> STABRestartUHFifUnstable true
|  8> end
|  9>
| 10> *xyz 0 2
| 11> S         1.884938   -0.007468    0.000047
| 12> O         0.443859    0.769252   -0.000061
| 13> C        -0.703102    0.008845   -0.000019
| 14> F        -1.720389    0.849851   -0.000152
| 15> F        -0.778249   -0.763002    1.075890
| 16> F        -0.778171   -0.763249   -1.075755
| 17> *
| 18>
| 19> $new_job
| 20> ! ri-mp2 aug-cc-pvtz aug-cc-pvtz/c tightscf
| 21> %pal nprocs 16 end
| 22> %maxcore 3800
| 23> %base "TZ_P-S_29_A"
| 24>
| 25> *xyz 0 2
| 26> S         1.884938   -0.007468    0.000047
| 27> O         0.443859    0.769252   -0.000061
| 28> C        -0.703102    0.008845   -0.000019
| 29> F        -1.720389    0.849851   -0.000152
| 30> F        -0.778249   -0.763002    1.075890
| 31> F        -0.778171   -0.763249   -1.075755
| 32> *
| 33>
| 34> $new_job
| 35> ! ri-mp2 aug-cc-pvqz aug-cc-pvqz/c tightscf
| 36> %pal nprocs 16 end
| 37> %maxcore 3800
| 38> %base "QZ_P-S_29_A"
| 39>
| 40> *xyz 0 2
| 41> S         1.884938   -0.007468    0.000047
| 42> O         0.443859    0.769252   -0.000061
| 43> C        -0.703102    0.008845   -0.000019
| 44> F        -1.720389    0.849851   -0.000152
| 45> F        -0.778249   -0.763002    1.075890
| 46> F        -0.778171   -0.763249   -1.075755
| 47> *
| 48>
| 49>
| 50>
| 51>
| 52>                          ****END OF INPUT****
 Total Charge           Charge          ....    0
 Multiplicity           Mult            ....    2
 Number of Electrons    NEL             ....   57
MP2 TOTAL ENERGY:     -809.642472197 Eh
FINAL SINGLE POINT ENERGY      -809.642472197128
MP2 TOTAL ENERGY:     -810.036468580 Eh
FINAL SINGLE POINT ENERGY      -810.036468579992

CARTESIAN COORDINATES (ANGSTROEM)
---------------------------------
  S      1.884938   -0.007468    0.000047
  O      0.443859    0.769252   -0.000061
  C     -0.703102    0.008845   -0.000019
  F     -1.720389    0.849851   -0.000152
  F     -0.778249   -0.763002    1.075890
  F     -0.778171   -0.763249   -1.075755

 Multiplicity           Mult            ....    2
 Number of Electrons    NEL             ....   57
 Basis Dimension        Dim             ....  484

ORBITAL ENERGIES
----------------
                 SPIN UP ORBITALS
  NO   OCC          E(Eh)            E(eV)
   0   1.0000     -92.053274     -2504.8969
   1   1.0000     -26.361721      -717.3389
   2   1.0000     -26.361699      -717.3383
   3   1.0000     -26.360869      -717.3157
   4   1.0000     -20.666390      -562.3611
   5   1.0000     -11.579933      -315.1060
   6   1.0000      -9.049821      -246.2582
   7   1.0000      -6.744798      -183.5353
   8   1.0000      -6.727132      -183.0546
   9   1.0000      -6.724683      -182.9879
  10   1.0000      -1.770958       -48.1902
  11   1.0000      -1.666723       -45.3538
  12   1.0000      -1.665726       -45.3267
  13   1.0000      -1.480413       -40.2841
  14   1.0000      -1.044903       -28.4333
  15   1.0000      -0.950955       -25.8768
  16   1.0000      -0.867647       -23.6099
  17   1.0000      -0.863706       -23.5026
  18   1.0000      -0.826214       -22.4824
  19   1.0000      -0.744840       -20.2681
  20   1.0000      -0.741365       -20.1736
  21   1.0000      -0.695096       -18.9145
  22   1.0000      -0.693513       -18.8714
  23   1.0000      -0.674414       -18.3517
  24   1.0000      -0.670703       -18.2508
  25   1.0000      -0.646378       -17.5888
  26   1.0000      -0.624024       -16.9806
  27   1.0000      -0.460310       -12.5257
  28   1.0000      -0.415879       -11.3166
  29   0.0000       0.041537         1.1303
  30   0.0000       0.058678         1.5967
  31   0.0000       0.061947         1.6857
  32   0.0000       0.062526         1.7014
  33   0.0000       0.078770         2.1434

                 SPIN DOWN ORBITALS
  NO   OCC          E(Eh)            E(eV)
   0   1.0000     -92.044258     -2504.6516
   1   1.0000     -26.361684      -717.3379
   2   1.0000     -26.361661      -717.3373
   3   1.0000     -26.360916      -717.3170
   4   1.0000     -20.660860      -562.2106
   5   1.0000     -11.580188      -315.1129
   6   1.0000      -9.039879      -245.9876
   7   1.0000      -6.723415      -182.9534
   8   1.0000      -6.719570      -182.8488
   9   1.0000      -6.703076      -182.4000
  10   1.0000      -1.770609       -48.1807
  11   1.0000      -1.666772       -45.3552
  12   1.0000      -1.665570       -45.3225
  13   1.0000      -1.465281       -39.8723
  14   1.0000      -1.016546       -27.6616
  15   1.0000      -0.924291       -25.1512
  16   1.0000      -0.864449       -23.5228
  17   1.0000      -0.862925       -23.4814
  18   1.0000      -0.798088       -21.7171
  19   1.0000      -0.741001       -20.1637
  20   1.0000      -0.738963       -20.1082
  21   1.0000      -0.692289       -18.8381
  22   1.0000      -0.692257       -18.8373
  23   1.0000      -0.674176       -18.3453
  24   1.0000      -0.663005       -18.0413
  25   1.0000      -0.607007       -16.5175
  26   1.0000      -0.591448       -16.0941
  27   1.0000      -0.398383       -10.8406
  28   0.0000      -0.002523        -0.0687
  29   0.0000       0.043857         1.1934
  30   0.0000       0.059178         1.6103
  31   0.0000       0.063093         1.7169
  32   0.0000       0.067522         1.8374

MULLIKEN ATOMIC CHARGES AND SPIN POPULATIONS
--------------------------------------------
   0 S :    0.317353    0.967820
   1 O :   -0.621055    0.034949
   2 C :    1.918975   -0.008303
   3 F :   -0.561552    0.000078
   4 F :   -0.526860    0.002728
   5 F :   -0.526860    0.002728
Sum of atomic charges         :   -0.0000000

LOEWDIN ATOMIC CHARGES AND SPIN POPULATIONS
-------------------------------------------
   0 S :    0.651438    0.772823
   1 O :   -0.005386    0.206256
   2 C :   -2.839527    0.018060
   3 F :    0.738561   -0.000697
   4 F :    0.727457    0.001779
   5 F :    0.727457    0.001779

  Mayer bond orders larger than 0.100000
B(  0-S ,  1-O ) :   0.8579 B(  1-O ,  2-C ) :   0.8985 B(  2-C ,  3-F ) :   0.6018
B(  2-C ,  4-F ) :   0.6087 B(  2-C ,  5-F ) :   0.6087

MP2 TOTAL ENERGY:     -810.166157053 Eh
FINAL SINGLE POINT ENERGY      -810.166157052518

DIPOLE MOMENT
-------------
                                X             Y             Z
Electronic contribution:     -2.47219      -0.73556       0.00000
Nuclear contribution   :      2.91253       0.62216       0.00001
                        -----------------------------------------
Total Dipole Moment    :      0.44034      -0.11339       0.00002
                        -----------------------------------------
Magnitude (a.u.)       :      0.45471
Magnitude (Debye)      :      1.15577

Rotational constants in cm-1:     0.188795     0.068491     0.068121
Rotational constants in MHz :  5659.939227  2053.305194  2042.204037

                             ****ORCA TERMINATED NORMALLY****
TOTAL RUN TIME: 0 days 0 hours 12 minutes 33 seconds 372 msec
