                         Program Version 5.0.4 -  RELEASE  -
|  1> ! ri-mp2 aug-cc-pvdz aug-cc-pvdz/c tightscf
|  2> %pal nprocs 16 end
|  3> %maxcore 3800
|  4> %base "DZ_B-Si_14_A"
|  5> %scf
|  6> STABPerform true
|  7> STABRestartUHFifUnstable true
|  8> end
|  9>
| 10> *xyz 0 2
| 11> Si         0.000000    0.574026   -0.133293
| 12> C         1.550107   -0.466058    0.041230
| 13> H         2.448062    0.144816   -0.049504
| 14> H         1.591308   -1.242058   -0.723688
| 15> C        -1.550107   -0.466058    0.041230
| 16> H        -1.591308   -1.242058   -0.723688
| 17> H        -2.448062    0.144817   -0.049504
| 18> H        -1.573902   -0.956057    1.018253
| 19> H         1.573902   -0.956057    1.018253
| 20> H         0.000000    1.662935    0.881220
| 21> *
| 22>
| 23> $new_job
| 24> ! ri-mp2 aug-cc-pvtz aug-cc-pvtz/c tightscf
| 25> %pal nprocs 16 end
| 26> %maxcore 3800
| 27> %base "TZ_B-Si_14_A"
| 28>
| 29> *xyz 0 2
| 30> Si         0.000000    0.574026   -0.133293
| 31> C         1.550107   -0.466058    0.041230
| 32> H         2.448062    0.144816   -0.049504
| 33> H         1.591308   -1.242058   -0.723688
| 34> C        -1.550107   -0.466058    0.041230
| 35> H        -1.591308   -1.242058   -0.723688
| 36> H        -2.448062    0.144817   -0.049504
| 37> H        -1.573902   -0.956057    1.018253
| 38> H         1.573902   -0.956057    1.018253
| 39> H         0.000000    1.662935    0.881220
| 40> *
| 41>
| 42> $new_job
| 43> ! ri-mp2 aug-cc-pvqz aug-cc-pvqz/c tightscf
| 44> %pal nprocs 16 end
| 45> %maxcore 3800
| 46> %base "QZ_B-Si_14_A"
| 47>
| 48> *xyz 0 2
| 49> Si         0.000000    0.574026   -0.133293
| 50> C         1.550107   -0.466058    0.041230
| 51> H         2.448062    0.144816   -0.049504
| 52> H         1.591308   -1.242058   -0.723688
| 53> C        -1.550107   -0.466058    0.041230
| 54> H        -1.591308   -1.242058   -0.723688
| 55> H        -2.448062    0.144817   -0.049504
| 56> H        -1.573902   -0.956057    1.018253
| 57> H         1.573902   -0.956057    1.018253
| 58> H         0.000000    1.662935    0.881220
| 59> *
| 60>
| 61>
| 62>
| 63>
| 64>                          ****END OF INPUT****
 Total Charge           Charge          ....    0
 Multiplicity           Mult            ....    2
 Number of Electrons    NEL             ....   33
MP2 TOTAL ENERGY:     -369.119915512 Eh
FINAL SINGLE POINT ENERGY      -369.119915511884
MP2 TOTAL ENERGY:     -369.237513613 Eh
FINAL SINGLE POINT ENERGY      -369.237513612674

CARTESIAN COORDINATES (ANGSTROEM)
---------------------------------
  Si     0.000000    0.574026   -0.133293
  C      1.550107   -0.466058    0.041230
  H      2.448062    0.144816   -0.049504
  H      1.591308   -1.242058   -0.723688
  C     -1.550107   -0.466058    0.041230
  H     -1.591308   -1.242058   -0.723688
  H     -2.448062    0.144817   -0.049504
  H     -1.573902   -0.956057    1.018253
  H      1.573902   -0.956057    1.018253
  H      0.000000    1.662935    0.881220

 Multiplicity           Mult            ....    2
 Number of Electrons    NEL             ....   33
 Basis Dimension        Dim             ....  566

ORBITAL ENERGIES
----------------
                 SPIN UP ORBITALS
  NO   OCC          E(Eh)            E(eV)
   0   1.0000     -68.763230     -1871.1426
   1   1.0000     -11.204965      -304.9026
   2   1.0000     -11.204958      -304.9024
   3   1.0000      -6.113365      -166.3531
   4   1.0000      -4.226108      -114.9982
   5   1.0000      -4.216412      -114.7344
   6   1.0000      -4.216150      -114.7273
   7   1.0000      -0.961878       -26.1740
   8   1.0000      -0.931036       -25.3348
   9   1.0000      -0.662045       -18.0152
  10   1.0000      -0.571406       -15.5488
  11   1.0000      -0.569055       -15.4848
  12   1.0000      -0.549968       -14.9654
  13   1.0000      -0.548996       -14.9389
  14   1.0000      -0.454982       -12.3807
  15   1.0000      -0.444782       -12.1031
  16   1.0000      -0.307912        -8.3787
  17   0.0000       0.024189         0.6582
  18   0.0000       0.034797         0.9469
  19   0.0000       0.036986         1.0064
  20   0.0000       0.037866         1.0304
  21   0.0000       0.052330         1.4240

                 SPIN DOWN ORBITALS
  NO   OCC          E(Eh)            E(eV)
   0   1.0000     -68.757725     -1870.9928
   1   1.0000     -11.204311      -304.8848
   2   1.0000     -11.204302      -304.8846
   3   1.0000      -6.104884      -166.1223
   4   1.0000      -4.212813      -114.6365
   5   1.0000      -4.212492      -114.6277
   6   1.0000      -4.204317      -114.4053
   7   1.0000      -0.954486       -25.9729
   8   1.0000      -0.927795       -25.2466
   9   1.0000      -0.624550       -16.9949
  10   1.0000      -0.567712       -15.4482
  11   1.0000      -0.558309       -15.1924
  12   1.0000      -0.547708       -14.9039
  13   1.0000      -0.543546       -14.7906
  14   1.0000      -0.446584       -12.1522
  15   1.0000      -0.437279       -11.8990
  16   0.0000       0.022428         0.6103
  17   0.0000       0.035201         0.9579
  18   0.0000       0.035997         0.9795
  19   0.0000       0.037580         1.0226
  20   0.0000       0.052436         1.4268

MULLIKEN ATOMIC CHARGES AND SPIN POPULATIONS
--------------------------------------------
   0 Si:    0.805251    0.957323
   1 C :   -1.017538   -0.001210
   2 H :    0.280936   -0.006107
   3 H :    0.233204   -0.001895
   4 C :   -1.017538   -0.001210
   5 H :    0.233204   -0.001895
   6 H :    0.280935   -0.006107
   7 H :    0.222103    0.024531
   8 H :    0.222103    0.024531
   9 H :   -0.242660    0.012038
Sum of atomic charges         :   -0.0000000

LOEWDIN ATOMIC CHARGES AND SPIN POPULATIONS
-------------------------------------------
   0 Si:    0.828724    0.522676
   1 C :    0.855580    0.132223
   2 H :   -0.382393    0.014138
   3 H :   -0.375779    0.013620
   4 C :    0.855579    0.132223
   5 H :   -0.375779    0.013620
   6 H :   -0.382393    0.014138
   7 H :   -0.365555    0.017308
   8 H :   -0.365555    0.017308
   9 H :   -0.292428    0.122747

  Mayer bond orders larger than 0.100000
B(  0-Si,  1-C ) :   0.8363 B(  0-Si,  4-C ) :   0.8363 B(  0-Si,  9-H ) :   0.9143
B(  1-C ,  2-H ) :   0.9437 B(  1-C ,  3-H ) :   0.9616 B(  1-C ,  8-H ) :   0.9506
B(  4-C ,  5-H ) :   0.9616 B(  4-C ,  6-H ) :   0.9437 B(  4-C ,  7-H ) :   0.9506

MP2 TOTAL ENERGY:     -369.272265741 Eh
FINAL SINGLE POINT ENERGY      -369.272265740781

DIPOLE MOMENT
-------------
                                X             Y             Z
Electronic contribution:      0.00000       2.28031      -1.37343
Nuclear contribution   :     -0.00000      -2.59633       1.44501
                        -----------------------------------------
Total Dipole Moment    :      0.00000      -0.31602       0.07158
                        -----------------------------------------
Magnitude (a.u.)       :      0.32403
Magnitude (Debye)      :      0.82361

Rotational constants in cm-1:     0.633884     0.200074     0.165043
Rotational constants in MHz : 19003.367441  5998.068988  4947.878241

                             ****ORCA TERMINATED NORMALLY****
TOTAL RUN TIME: 0 days 0 hours 20 minutes 41 seconds 93 msec
