                         Program Version 5.0.4 -  RELEASE  -
|  1> ! ri-mp2 aug-cc-pvdz aug-cc-pvdz/c tightscf
|  2> %pal nprocs 16 end
|  3> %maxcore 3800
|  4> %base "DZ_B-P_35_A"
|  5> %scf
|  6> STABPerform true
|  7> STABRestartUHFifUnstable true
|  8> end
|  9>
| 10> *xyz 0 2
| 11> C        -0.416475    0.042097    0.774627
| 12> C         0.510658    1.236386    0.491865
| 13> C         0.537541   -1.150121    0.655119
| 14> C         1.412022   -0.806596   -0.553819
| 15> H         0.024847   -2.106741    0.549520
| 16> H         1.148449   -1.206991    1.559631
| 17> C         1.513151    0.734396   -0.565246
| 18> H         0.929834   -1.156135   -1.467543
| 19> H         2.386718   -1.290261   -0.506315
| 20> H         2.521723    1.073576   -0.332200
| 21> H         1.270811    1.127551   -1.551887
| 22> H         1.036331    1.490860    1.414859
| 23> H        -0.025725    2.129858    0.174773
| 24> P        -1.823493   -0.109512   -0.423031
| 25> H        -0.855676    0.113325    1.772429
| 26> H        -2.426299    1.130668   -0.083074
| 27> *
| 28>
| 29> $new_job
| 30> ! ri-mp2 aug-cc-pvtz aug-cc-pvtz/c tightscf
| 31> %pal nprocs 16 end
| 32> %maxcore 3800
| 33> %base "TZ_B-P_35_A"
| 34>
| 35> *xyz 0 2
| 36> C        -0.416475    0.042097    0.774627
| 37> C         0.510658    1.236386    0.491865
| 38> C         0.537541   -1.150121    0.655119
| 39> C         1.412022   -0.806596   -0.553819
| 40> H         0.024847   -2.106741    0.549520
| 41> H         1.148449   -1.206991    1.559631
| 42> C         1.513151    0.734396   -0.565246
| 43> H         0.929834   -1.156135   -1.467543
| 44> H         2.386718   -1.290261   -0.506315
| 45> H         2.521723    1.073576   -0.332200
| 46> H         1.270811    1.127551   -1.551887
| 47> H         1.036331    1.490860    1.414859
| 48> H        -0.025725    2.129858    0.174773
| 49> P        -1.823493   -0.109512   -0.423031
| 50> H        -0.855676    0.113325    1.772429
| 51> H        -2.426299    1.130668   -0.083074
| 52> *
| 53>
| 54> $new_job
| 55> ! ri-mp2 aug-cc-pvqz aug-cc-pvqz/c tightscf
| 56> %pal nprocs 16 end
| 57> %maxcore 3800
| 58> %base "QZ_B-P_35_A"
| 59>
| 60> *xyz 0 2
| 61> C        -0.416475    0.042097    0.774627
| 62> C         0.510658    1.236386    0.491865
| 63> C         0.537541   -1.150121    0.655119
| 64> C         1.412022   -0.806596   -0.553819
| 65> H         0.024847   -2.106741    0.549520
| 66> H         1.148449   -1.206991    1.559631
| 67> C         1.513151    0.734396   -0.565246
| 68> H         0.929834   -1.156135   -1.467543
| 69> H         2.386718   -1.290261   -0.506315
| 70> H         2.521723    1.073576   -0.332200
| 71> H         1.270811    1.127551   -1.551887
| 72> H         1.036331    1.490860    1.414859
| 73> H        -0.025725    2.129858    0.174773
| 74> P        -1.823493   -0.109512   -0.423031
| 75> H        -0.855676    0.113325    1.772429
| 76> H        -2.426299    1.130668   -0.083074
| 77> *
| 78>
| 79>
| 80>
| 81>
| 82>                          ****END OF INPUT****
 Total Charge           Charge          ....    0
 Multiplicity           Mult            ....    2
 Number of Electrons    NEL             ....   55
MP2 TOTAL ENERGY:     -536.737165337 Eh
FINAL SINGLE POINT ENERGY      -536.737165336662
MP2 TOTAL ENERGY:     -536.959681306 Eh
FINAL SINGLE POINT ENERGY      -536.959681306264

CARTESIAN COORDINATES (ANGSTROEM)
---------------------------------
  C     -0.416475    0.042097    0.774627
  C      0.510658    1.236386    0.491865
  C      0.537541   -1.150121    0.655119
  C      1.412022   -0.806596   -0.553819
  H      0.024847   -2.106741    0.549520
  H      1.148449   -1.206991    1.559631
  C      1.513151    0.734396   -0.565246
  H      0.929834   -1.156135   -1.467543
  H      2.386718   -1.290261   -0.506315
  H      2.521723    1.073576   -0.332200
  H      1.270811    1.127551   -1.551887
  H      1.036331    1.490860    1.414859
  H     -0.025725    2.129858    0.174773
  P     -1.823493   -0.109512   -0.423031
  H     -0.855676    0.113325    1.772429
  H     -2.426299    1.130668   -0.083074

 Multiplicity           Mult            ....    2
 Number of Electrons    NEL             ....   55
 Basis Dimension        Dim             ....  944

ORBITAL ENERGIES
----------------
                 SPIN UP ORBITALS
  NO   OCC          E(Eh)            E(eV)
   0   1.0000     -79.937765     -2175.2172
   1   1.0000     -11.230764      -305.6046
   2   1.0000     -11.222571      -305.3817
   3   1.0000     -11.220342      -305.3210
   4   1.0000     -11.216276      -305.2104
   5   1.0000     -11.215371      -305.1858
   6   1.0000      -7.481347      -203.5778
   7   1.0000      -5.386259      -146.5675
   8   1.0000      -5.372163      -146.1840
   9   1.0000      -5.370436      -146.1370
  10   1.0000      -1.129383       -30.7321
  11   1.0000      -0.977550       -26.6005
  12   1.0000      -0.968672       -26.3589
  13   1.0000      -0.845533       -23.0081
  14   1.0000      -0.777806       -21.1652
  15   1.0000      -0.734726       -19.9929
  16   1.0000      -0.663683       -18.0597
  17   1.0000      -0.644760       -17.5448
  18   1.0000      -0.585308       -15.9271
  19   1.0000      -0.553296       -15.0560
  20   1.0000      -0.496684       -13.5154
  21   1.0000      -0.490084       -13.3359
  22   1.0000      -0.482728       -13.1357
  23   1.0000      -0.475015       -12.9258
  24   1.0000      -0.459187       -12.4951
  25   1.0000      -0.448480       -12.2038
  26   1.0000      -0.383989       -10.4489
  27   1.0000      -0.345533        -9.4024
  28   0.0000       0.024520         0.6672
  29   0.0000       0.032033         0.8717
  30   0.0000       0.033887         0.9221
  31   0.0000       0.036097         0.9822
  32   0.0000       0.049018         1.3338

                 SPIN DOWN ORBITALS
  NO   OCC          E(Eh)            E(eV)
   0   1.0000     -79.930789     -2175.0273
   1   1.0000     -11.231932      -305.6364
   2   1.0000     -11.221618      -305.3557
   3   1.0000     -11.220282      -305.3194
   4   1.0000     -11.216291      -305.2108
   5   1.0000     -11.215352      -305.1852
   6   1.0000      -7.472785      -203.3448
   7   1.0000      -5.367548      -146.0584
   8   1.0000      -5.367036      -146.0445
   9   1.0000      -5.353283      -145.6702
  10   1.0000      -1.127530       -30.6817
  11   1.0000      -0.972498       -26.4630
  12   1.0000      -0.967712       -26.3328
  13   1.0000      -0.813073       -22.1248
  14   1.0000      -0.776801       -21.1378
  15   1.0000      -0.708852       -19.2888
  16   1.0000      -0.659883       -17.9563
  17   1.0000      -0.639825       -17.4105
  18   1.0000      -0.583447       -15.8764
  19   1.0000      -0.550783       -14.9876
  20   1.0000      -0.490720       -13.3532
  21   1.0000      -0.484623       -13.1873
  22   1.0000      -0.479040       -13.0354
  23   1.0000      -0.474626       -12.9152
  24   1.0000      -0.457780       -12.4568
  25   1.0000      -0.443759       -12.0753
  26   1.0000      -0.368061       -10.0155
  27   0.0000       0.024762         0.6738
  28   0.0000       0.030589         0.8324
  29   0.0000       0.032397         0.8816
  30   0.0000       0.036269         0.9869
  31   0.0000       0.042590         1.1589

MULLIKEN ATOMIC CHARGES AND SPIN POPULATIONS
--------------------------------------------
   0 C :   -0.274987   -0.087016
   1 C :   -0.671855    0.002484
   2 C :   -0.582006    0.008123
   3 C :   -0.556067    0.003986
   4 H :    0.315445    0.001840
   5 H :    0.235476   -0.002902
   6 C :   -0.456271   -0.007685
   7 H :    0.219481   -0.006816
   8 H :    0.356297    0.000303
   9 H :    0.273639   -0.000074
  10 H :    0.204210    0.000023
  11 H :    0.230589    0.002102
  12 H :    0.331131   -0.009829
  13 P :    0.162249    1.126550
  14 H :    0.368374    0.029478
  15 H :   -0.155704   -0.060566
Sum of atomic charges         :    0.0000000

LOEWDIN ATOMIC CHARGES AND SPIN POPULATIONS
-------------------------------------------
   0 C :   -0.173143    0.153549
   1 C :    0.443470    0.026183
   2 C :    0.416104    0.012430
   3 C :    0.507803    0.008960
   4 H :   -0.281686    0.001740
   5 H :   -0.262931   -0.000197
   6 C :    0.530745    0.012470
   7 H :   -0.284203    0.005657
   8 H :   -0.258806    0.000507
   9 H :   -0.265353    0.000380
  10 H :   -0.269289    0.004070
  11 H :   -0.266623    0.003167
  12 H :   -0.287694    0.008698
  13 P :    1.355512    0.571186
  14 H :   -0.345759    0.024789
  15 H :   -0.558148    0.166410

  Mayer bond orders larger than 0.100000
B(  0-C ,  1-C ) :   0.9681 B(  0-C ,  2-C ) :   0.8631 B(  0-C , 13-P ) :   0.7921
B(  0-C , 14-H ) :   0.8271 B(  1-C ,  6-C ) :   0.9659 B(  1-C , 11-H ) :   0.9627
B(  1-C , 12-H ) :   0.8697 B(  2-C ,  3-C ) :   0.9983 B(  2-C ,  4-H ) :   0.8610
B(  2-C ,  5-H ) :   0.9606 B(  3-C ,  6-C ) :   0.9601 B(  3-C ,  7-H ) :   0.9731
B(  3-C ,  8-H ) :   0.8385 B(  6-C ,  9-H ) :   0.9078 B(  6-C , 10-H ) :   0.9680
B( 13-P , 15-H ) :   0.9864

MP2 TOTAL ENERGY:     -537.027714467 Eh
FINAL SINGLE POINT ENERGY      -537.027714467423

DIPOLE MOMENT
-------------
                                X             Y             Z
Electronic contribution:     -7.49691      -1.22674      -1.59283
Nuclear contribution   :      7.91509       1.44048       1.97485
                        -----------------------------------------
Total Dipole Moment    :      0.41818       0.21373       0.38202
                        -----------------------------------------
Magnitude (a.u.)       :      0.60539
Magnitude (Debye)      :      1.53877

Rotational constants in cm-1:     0.153947     0.074071     0.066153
Rotational constants in MHz :  4615.229249  2220.580401  1983.220104

                             ****ORCA TERMINATED NORMALLY****
TOTAL RUN TIME: 0 days 4 hours 58 minutes 33 seconds 110 msec
