                         Program Version 5.0.4 -  RELEASE  -
|  1> ! ri-mp2 aug-cc-pvdz aug-cc-pvdz/c tightscf
|  2> %pal nprocs 16 end
|  3> %maxcore 3800
|  4> %base "DZ_Si-Si_37_AB"
|  5> %scf
|  6> STABPerform true
|  7> STABRestartUHFifUnstable true
|  8> end
|  9>
| 10> *xyz 0 1
| 11> Si        -0.574363    0.000000    0.375207
| 12> Si         1.732228   -0.000002   -0.057248
| 13> O        -1.249780   -1.374102   -0.221540
| 14> H        -1.014063   -1.693270   -1.093690
| 15> O        -1.249776    1.374104   -0.221539
| 16> H        -1.014042    1.693283   -1.093681
| 17> H         2.388203    1.204179    0.500977
| 18> H         1.953634    0.000003   -1.526704
| 19> H         2.388201   -1.204186    0.500970
| 20> H        -0.915595   -0.000002    1.805337
| 21> *
| 22>
| 23> $new_job
| 24> ! ri-mp2 aug-cc-pvtz aug-cc-pvtz/c tightscf
| 25> %pal nprocs 16 end
| 26> %maxcore 3800
| 27> %base "TZ_Si-Si_37_AB"
| 28>
| 29> *xyz 0 1
| 30> Si        -0.574363    0.000000    0.375207
| 31> Si         1.732228   -0.000002   -0.057248
| 32> O        -1.249780   -1.374102   -0.221540
| 33> H        -1.014063   -1.693270   -1.093690
| 34> O        -1.249776    1.374104   -0.221539
| 35> H        -1.014042    1.693283   -1.093681
| 36> H         2.388203    1.204179    0.500977
| 37> H         1.953634    0.000003   -1.526704
| 38> H         2.388201   -1.204186    0.500970
| 39> H        -0.915595   -0.000002    1.805337
| 40> *
| 41>
| 42> $new_job
| 43> ! ri-mp2 aug-cc-pvqz aug-cc-pvqz/c tightscf
| 44> %pal nprocs 16 end
| 45> %maxcore 3800
| 46> %base "QZ_Si-Si_37_AB"
| 47>
| 48> *xyz 0 1
| 49> Si        -0.574363    0.000000    0.375207
| 50> Si         1.732228   -0.000002   -0.057248
| 51> O        -1.249780   -1.374102   -0.221540
| 52> H        -1.014063   -1.693270   -1.093690
| 53> O        -1.249776    1.374104   -0.221539
| 54> H        -1.014042    1.693283   -1.093681
| 55> H         2.388203    1.204179    0.500977
| 56> H         1.953634    0.000003   -1.526704
| 57> H         2.388201   -1.204186    0.500970
| 58> H        -0.915595   -0.000002    1.805337
| 59> *
| 60>
| 61>
| 62>
| 63>
| 64>                          ****END OF INPUT****
 Total Charge           Charge          ....    0
 Multiplicity           Mult            ....    1
 Number of Electrons    NEL             ....   50
MP2 TOTAL ENERGY:     -731.802565640 Eh
FINAL SINGLE POINT ENERGY      -731.802565640280
MP2 TOTAL ENERGY:     -732.020601706 Eh
FINAL SINGLE POINT ENERGY      -732.020601706413

CARTESIAN COORDINATES (ANGSTROEM)
---------------------------------
  Si    -0.574363    0.000000    0.375207
  Si     1.732228   -0.000002   -0.057248
  O     -1.249780   -1.374102   -0.221540
  H     -1.014063   -1.693270   -1.093690
  O     -1.249776    1.374104   -0.221539
  H     -1.014042    1.693283   -1.093681
  H      2.388203    1.204179    0.500977
  H      1.953634    0.000003   -1.526704
  H      2.388201   -1.204186    0.500970
  H     -0.915595   -0.000002    1.805337

 Multiplicity           Mult            ....    1
 Number of Electrons    NEL             ....   50
 Basis Dimension        Dim             ....  604

ORBITAL ENERGIES
----------------

  NO   OCC          E(Eh)            E(eV)
   0   2.0000     -68.806999     -1872.3336
   1   2.0000     -68.767076     -1871.2473
   2   2.0000     -20.561377      -559.5035
   3   2.0000     -20.561368      -559.5033
   4   2.0000      -6.148581      -167.3114
   5   2.0000      -6.118552      -166.4943
   6   2.0000      -4.255906      -115.8091
   7   2.0000      -4.255669      -115.8026
   8   2.0000      -4.255514      -115.7984
   9   2.0000      -4.224696      -114.9598
  10   2.0000      -4.224598      -114.9572
  11   2.0000      -4.224436      -114.9527
  12   2.0000      -1.357827       -36.9484
  13   2.0000      -1.337733       -36.4016
  14   2.0000      -0.783943       -21.3322
  15   2.0000      -0.725731       -19.7481
  16   2.0000      -0.708883       -19.2897
  17   2.0000      -0.603936       -16.4339
  18   2.0000      -0.574038       -15.6204
  19   2.0000      -0.556096       -15.1321
  20   2.0000      -0.519154       -14.1269
  21   2.0000      -0.509385       -13.8611
  22   2.0000      -0.487534       -13.2665
  23   2.0000      -0.485894       -13.2218
  24   2.0000      -0.394617       -10.7381
  25   0.0000       0.020367         0.5542
  26   0.0000       0.031824         0.8660
  27   0.0000       0.035870         0.9761
  28   0.0000       0.038415         1.0453
  29   0.0000       0.050682         1.3791

MULLIKEN ATOMIC CHARGES
-----------------------
   0 Si:    1.547747
   1 Si:    0.387321
   2 O :   -0.945478
   3 H :    0.368762
   4 O :   -0.945479
   5 H :    0.368763
   6 H :   -0.179274
   7 H :   -0.172785
   8 H :   -0.179274
   9 H :   -0.250303
Sum of atomic charges:   -0.0000000

LOEWDIN ATOMIC CHARGES
----------------------
   0 Si:   -0.170170
   1 Si:    1.086177
   2 O :    1.057853
   3 H :   -0.900719
   4 O :    1.057853
   5 H :   -0.900718
   6 H :   -0.322101
   7 H :   -0.322416
   8 H :   -0.322101
   9 H :   -0.263657

  Mayer bond orders larger than 0.100000
B(  0-Si,  1-Si) :   0.8631 B(  0-Si,  2-O ) :   0.5786 B(  0-Si,  4-O ) :   0.5786
B(  0-Si,  9-H ) :   0.9111 B(  1-Si,  6-H ) :   0.8031 B(  1-Si,  7-H ) :   0.8028
B(  1-Si,  8-H ) :   0.8031 B(  2-O ,  3-H ) :   0.8817 B(  4-O ,  5-H ) :   0.8817

MP2 TOTAL ENERGY:     -732.091637646 Eh
FINAL SINGLE POINT ENERGY      -732.091637646283

DIPOLE MOMENT
-------------
                                X             Y             Z
Electronic contribution:     -3.19138      -0.00000       0.09311
Nuclear contribution   :      3.66438       0.00001      -0.92997
                        -----------------------------------------
Total Dipole Moment    :      0.47300       0.00001      -0.83686
                        -----------------------------------------
Magnitude (a.u.)       :      0.96128
Magnitude (Debye)      :      2.44338

Rotational constants in cm-1:     0.202420     0.095890     0.073052
Rotational constants in MHz :  6068.409945  2874.722965  2190.041908

                             ****ORCA TERMINATED NORMALLY****
TOTAL RUN TIME: 0 days 0 hours 21 minutes 29 seconds 180 msec
