                         Program Version 5.0.4 -  RELEASE  -
|  1> ! ri-mp2 aug-cc-pvdz aug-cc-pvdz/c tightscf
|  2> %pal nprocs 16 end
|  3> %maxcore 3800
|  4> %base "DZ_B-B_31_AB"
|  5> %scf
|  6> STABPerform true
|  7> STABRestartUHFifUnstable true
|  8> end
|  9>
| 10> *xyz 0 1
| 11> B        -1.863066   -0.532383    0.000002
| 12> B        -0.753875    0.709260   -0.000000
| 13> N         0.628515    0.608568    0.000001
| 14> C         1.415508   -0.607456   -0.000003
| 15> H         1.184431    1.448871    0.000004
| 16> H         0.750040   -1.469447   -0.000007
| 17> H         2.052480   -0.673771    0.884728
| 18> H         2.052481   -0.673765   -0.884734
| 19> H        -1.203559    1.826203    0.000011
| 20> H        -2.321891   -0.978875   -1.010274
| 21> H        -2.321931   -0.978837    1.010277
| 22> *
| 23>
| 24> $new_job
| 25> ! ri-mp2 aug-cc-pvtz aug-cc-pvtz/c tightscf
| 26> %pal nprocs 16 end
| 27> %maxcore 3800
| 28> %base "TZ_B-B_31_AB"
| 29>
| 30> *xyz 0 1
| 31> B        -1.863066   -0.532383    0.000002
| 32> B        -0.753875    0.709260   -0.000000
| 33> N         0.628515    0.608568    0.000001
| 34> C         1.415508   -0.607456   -0.000003
| 35> H         1.184431    1.448871    0.000004
| 36> H         0.750040   -1.469447   -0.000007
| 37> H         2.052480   -0.673771    0.884728
| 38> H         2.052481   -0.673765   -0.884734
| 39> H        -1.203559    1.826203    0.000011
| 40> H        -2.321891   -0.978875   -1.010274
| 41> H        -2.321931   -0.978837    1.010277
| 42> *
| 43>
| 44> $new_job
| 45> ! ri-mp2 aug-cc-pvqz aug-cc-pvqz/c tightscf
| 46> %pal nprocs 16 end
| 47> %maxcore 3800
| 48> %base "QZ_B-B_31_AB"
| 49>
| 50> *xyz 0 1
| 51> B        -1.863066   -0.532383    0.000002
| 52> B        -0.753875    0.709260   -0.000000
| 53> N         0.628515    0.608568    0.000001
| 54> C         1.415508   -0.607456   -0.000003
| 55> H         1.184431    1.448871    0.000004
| 56> H         0.750040   -1.469447   -0.000007
| 57> H         2.052480   -0.673771    0.884728
| 58> H         2.052481   -0.673765   -0.884734
| 59> H        -1.203559    1.826203    0.000011
| 60> H        -2.321891   -0.978875   -1.010274
| 61> H        -2.321931   -0.978837    1.010277
| 62> *
| 63>
| 64>
| 65>
| 66>
| 67>                          ****END OF INPUT****
 Total Charge           Charge          ....    0
 Multiplicity           Mult            ....    1
 Number of Electrons    NEL             ....   30
MP2 TOTAL ENERGY:     -146.268907636 Eh
FINAL SINGLE POINT ENERGY      -146.268907636250
MP2 TOTAL ENERGY:     -146.407112293 Eh
FINAL SINGLE POINT ENERGY      -146.407112292966

CARTESIAN COORDINATES (ANGSTROEM)
---------------------------------
  B     -1.863066   -0.532383    0.000002
  B     -0.753875    0.709260   -0.000000
  N      0.628515    0.608568    0.000001
  C      1.415508   -0.607456   -0.000003
  H      1.184431    1.448871    0.000004
  H      0.750040   -1.469447   -0.000007
  H      2.052480   -0.673771    0.884728
  H      2.052481   -0.673765   -0.884734
  H     -1.203559    1.826203    0.000011
  H     -2.321891   -0.978875   -1.010274
  H     -2.321931   -0.978837    1.010277

 Multiplicity           Mult            ....    1
 Number of Electrons    NEL             ....   30
 Basis Dimension        Dim             ....  642

ORBITAL ENERGIES
----------------

  NO   OCC          E(Eh)            E(eV)
   0   2.0000     -15.554194      -423.2511
   1   2.0000     -11.256541      -306.3061
   2   2.0000      -7.577612      -206.1973
   3   2.0000      -7.560610      -205.7347
   4   2.0000      -1.191535       -32.4233
   5   2.0000      -0.920910       -25.0592
   6   2.0000      -0.741043       -20.1648
   7   2.0000      -0.664181       -18.0733
   8   2.0000      -0.634945       -17.2777
   9   2.0000      -0.601084       -16.3563
  10   2.0000      -0.549856       -14.9623
  11   2.0000      -0.513897       -13.9838
  12   2.0000      -0.481057       -13.0902
  13   2.0000      -0.408641       -11.1197
  14   2.0000      -0.400590       -10.9006
  15   0.0000       0.021966         0.5977
  16   0.0000       0.030325         0.8252
  17   0.0000       0.033143         0.9019
  18   0.0000       0.033243         0.9046
  19   0.0000       0.046423         1.2632

MULLIKEN ATOMIC CHARGES
-----------------------
   0 B :    0.360915
   1 B :    0.569974
   2 N :   -0.410676
   3 C :   -0.822340
   4 H :    0.167027
   5 H :    0.312704
   6 H :    0.314885
   7 H :    0.314883
   8 H :   -0.384574
   9 H :   -0.211399
  10 H :   -0.211398
Sum of atomic charges:    0.0000000

LOEWDIN ATOMIC CHARGES
----------------------
   0 B :    0.472825
   1 B :   -0.168921
   2 N :    0.910373
   3 C :    0.772736
   4 H :   -0.504453
   5 H :   -0.315296
   6 H :   -0.277503
   7 H :   -0.277502
   8 H :   -0.187840
   9 H :   -0.212210
  10 H :   -0.212209

  Mayer bond orders larger than 0.100000
B(  0-B ,  1-B ) :   1.0420 B(  0-B ,  9-H ) :   0.9485 B(  0-B , 10-H ) :   0.9485
B(  1-B ,  2-N ) :   1.2070 B(  1-B ,  8-H ) :   0.8276 B(  2-N ,  3-C ) :   0.8819
B(  2-N ,  4-H ) :   1.0670 B(  3-C ,  5-H ) :   0.9106 B(  3-C ,  6-H ) :   0.9176
B(  3-C ,  7-H ) :   0.9176

MP2 TOTAL ENERGY:     -146.449776943 Eh
FINAL SINGLE POINT ENERGY      -146.449776942753

DIPOLE MOMENT
-------------
                                X             Y             Z
Electronic contribution:     -1.63163       1.66174      -0.00001
Nuclear contribution   :      2.37392      -1.68796       0.00000
                        -----------------------------------------
Total Dipole Moment    :      0.74229      -0.02622      -0.00000
                        -----------------------------------------
Magnitude (a.u.)       :      0.74275
Magnitude (Debye)      :      1.88793

Rotational constants in cm-1:     0.523384     0.169240     0.135353
Rotational constants in MHz : 15690.645358  5073.686370  4057.787280

                             ****ORCA TERMINATED NORMALLY****
TOTAL RUN TIME: 0 days 0 hours 25 minutes 16 seconds 478 msec
