                         Program Version 5.0.4 -  RELEASE  -
|  1> ! ri-mp2 aug-cc-pvdz aug-cc-pvdz/c tightscf
|  2> %pal nprocs 16 end
|  3> %maxcore 3800
|  4> %base "DZ_B-Si_49_AB"
|  5> %scf
|  6> STABPerform true
|  7> STABRestartUHFifUnstable true
|  8> end
|  9>
| 10> *xyz 0 1
| 11> C        -2.028391   -0.186327   -0.344776
| 12> B         1.208991    0.139217    0.035974
| 13> C         1.104055    1.671137    0.283448
| 14> H         0.130290    2.100473    0.046749
| 15> H         1.900514    2.251718   -0.185856
| 16> H         1.222212    1.799472    1.369981
| 17> C         2.542387   -0.518241   -0.431325
| 18> H         3.430740    0.074944   -0.207304
| 19> H         2.466252   -0.558829   -1.528720
| 20> H         2.696690   -1.549134   -0.111184
| 21> O        -2.219383    1.001525   -0.258622
| 22> Si        -0.428150   -1.017658    0.338882
| 23> H        -0.685469   -1.182096    1.793358
| 24> H        -0.355526   -2.379069   -0.249859
| 25> H        -2.809802   -0.817967   -0.826498
| 26> *
| 27>
| 28> $new_job
| 29> ! ri-mp2 aug-cc-pvtz aug-cc-pvtz/c tightscf
| 30> %pal nprocs 16 end
| 31> %maxcore 3800
| 32> %base "TZ_B-Si_49_AB"
| 33>
| 34> *xyz 0 1
| 35> C        -2.028391   -0.186327   -0.344776
| 36> B         1.208991    0.139217    0.035974
| 37> C         1.104055    1.671137    0.283448
| 38> H         0.130290    2.100473    0.046749
| 39> H         1.900514    2.251718   -0.185856
| 40> H         1.222212    1.799472    1.369981
| 41> C         2.542387   -0.518241   -0.431325
| 42> H         3.430740    0.074944   -0.207304
| 43> H         2.466252   -0.558829   -1.528720
| 44> H         2.696690   -1.549134   -0.111184
| 45> O        -2.219383    1.001525   -0.258622
| 46> Si        -0.428150   -1.017658    0.338882
| 47> H        -0.685469   -1.182096    1.793358
| 48> H        -0.355526   -2.379069   -0.249859
| 49> H        -2.809802   -0.817967   -0.826498
| 50> *
| 51>
| 52> $new_job
| 53> ! ri-mp2 aug-cc-pvqz aug-cc-pvqz/c tightscf
| 54> %pal nprocs 16 end
| 55> %maxcore 3800
| 56> %base "QZ_B-Si_49_AB"
| 57>
| 58> *xyz 0 1
| 59> C        -2.028391   -0.186327   -0.344776
| 60> B         1.208991    0.139217    0.035974
| 61> C         1.104055    1.671137    0.283448
| 62> H         0.130290    2.100473    0.046749
| 63> H         1.900514    2.251718   -0.185856
| 64> H         1.222212    1.799472    1.369981
| 65> C         2.542387   -0.518241   -0.431325
| 66> H         3.430740    0.074944   -0.207304
| 67> H         2.466252   -0.558829   -1.528720
| 68> H         2.696690   -1.549134   -0.111184
| 69> O        -2.219383    1.001525   -0.258622
| 70> Si        -0.428150   -1.017658    0.338882
| 71> H        -0.685469   -1.182096    1.793358
| 72> H        -0.355526   -2.379069   -0.249859
| 73> H        -2.809802   -0.817967   -0.826498
| 74> *
| 75>
| 76>
| 77>
| 78>
| 79>                          ****END OF INPUT****
 Total Charge           Charge          ....    0
 Multiplicity           Mult            ....    1
 Number of Electrons    NEL             ....   54
MP2 TOTAL ENERGY:     -508.136635520 Eh
FINAL SINGLE POINT ENERGY      -508.136635520487
MP2 TOTAL ENERGY:     -508.368948718 Eh
FINAL SINGLE POINT ENERGY      -508.368948718353

CARTESIAN COORDINATES (ANGSTROEM)
---------------------------------
  C     -2.028391   -0.186327   -0.344776
  B      1.208991    0.139217    0.035974
  C      1.104055    1.671137    0.283448
  H      0.130290    2.100473    0.046749
  H      1.900514    2.251718   -0.185856
  H      1.222212    1.799472    1.369981
  C      2.542387   -0.518241   -0.431325
  H      3.430740    0.074944   -0.207304
  H      2.466252   -0.558829   -1.528720
  H      2.696690   -1.549134   -0.111184
  O     -2.219383    1.001525   -0.258622
  Si    -0.428150   -1.017658    0.338882
  H     -0.685469   -1.182096    1.793358
  H     -0.355526   -2.379069   -0.249859
  H     -2.809802   -0.817967   -0.826498

 Multiplicity           Mult            ....    1
 Number of Electrons    NEL             ....   54
 Basis Dimension        Dim             ....  898

ORBITAL ENERGIES
----------------

  NO   OCC          E(Eh)            E(eV)
   0   2.0000     -68.761562     -1871.0972
   1   2.0000     -20.563073      -559.5497
   2   2.0000     -11.315526      -307.9111
   3   2.0000     -11.203616      -304.8659
   4   2.0000     -11.193497      -304.5905
   5   2.0000      -7.601497      -206.8473
   6   2.0000      -6.113982      -166.3699
   7   2.0000      -4.220109      -114.8350
   8   2.0000      -4.219995      -114.8319
   9   2.0000      -4.219453      -114.8172
  10   2.0000      -1.395127       -37.9633
  11   2.0000      -0.977929       -26.6108
  12   2.0000      -0.932043       -25.3622
  13   2.0000      -0.843934       -22.9646
  14   2.0000      -0.725518       -19.7423
  15   2.0000      -0.652409       -17.7530
  16   2.0000      -0.620712       -16.8904
  17   2.0000      -0.586665       -15.9640
  18   2.0000      -0.574475       -15.6323
  19   2.0000      -0.562915       -15.3177
  20   2.0000      -0.544949       -14.8288
  21   2.0000      -0.537679       -14.6310
  22   2.0000      -0.529140       -14.3986
  23   2.0000      -0.481837       -13.1115
  24   2.0000      -0.464307       -12.6344
  25   2.0000      -0.407477       -11.0880
  26   2.0000      -0.376965       -10.2577
  27   0.0000       0.020822         0.5666
  28   0.0000       0.028521         0.7761
  29   0.0000       0.031464         0.8562
  30   0.0000       0.036673         0.9979
  31   0.0000       0.044134         1.2010

MULLIKEN ATOMIC CHARGES
-----------------------
   0 C :   -0.118571
   1 B :    0.352205
   2 C :   -1.160244
   3 H :    0.437419
   4 H :    0.329036
   5 H :    0.286480
   6 C :   -1.097677
   7 H :    0.310399
   8 H :    0.277957
   9 H :    0.341960
  10 O :   -0.799730
  11 Si:    0.724771
  12 H :   -0.175021
  13 H :   -0.196153
  14 H :    0.487169
Sum of atomic charges:   -0.0000000

LOEWDIN ATOMIC CHARGES
----------------------
   0 C :   -0.290949
   1 B :   -0.474185
   2 C :    1.006513
   3 H :   -0.344252
   4 H :   -0.300238
   5 H :   -0.295630
   6 C :    1.005654
   7 H :   -0.303290
   8 H :   -0.299846
   9 H :   -0.314283
  10 O :    0.618812
  11 Si:    0.911431
  12 H :   -0.238885
  13 H :   -0.247820
  14 H :   -0.433032

  Mayer bond orders larger than 0.100000
B(  0-C , 10-O ) :   1.6527 B(  0-C , 11-Si) :   0.6710 B(  0-C , 14-H ) :   0.7135
B(  1-B ,  2-C ) :   0.9999 B(  1-B ,  6-C ) :   1.0071 B(  1-B , 11-Si) :   0.6460
B(  2-C ,  3-H ) :   0.8394 B(  2-C ,  4-H ) :   0.8656 B(  2-C ,  5-H ) :   0.8892
B(  6-C ,  7-H ) :   0.8719 B(  6-C ,  8-H ) :   0.9030 B(  6-C ,  9-H ) :   0.8993
B( 11-Si, 12-H ) :   0.7320 B( 11-Si, 13-H ) :   0.7554

MP2 TOTAL ENERGY:     -508.442658579 Eh
FINAL SINGLE POINT ENERGY      -508.442658578680

DIPOLE MOMENT
-------------
                                X             Y             Z
Electronic contribution:     -6.41297      -0.40083      -0.16455
Nuclear contribution   :      7.11199      -0.29928       0.04770
                        -----------------------------------------
Total Dipole Moment    :      0.69902      -0.70011      -0.11685
                        -----------------------------------------
Magnitude (a.u.)       :      0.99622
Magnitude (Debye)      :      2.53218

Rotational constants in cm-1:     0.137081     0.056688     0.043676
Rotational constants in MHz :  4109.584696  1699.449912  1309.382700

                             ****ORCA TERMINATED NORMALLY****
TOTAL RUN TIME: 0 days 1 hours 7 minutes 24 seconds 865 msec
