                         Program Version 5.0.4 -  RELEASE  -
|  1> ! ri-mp2 aug-cc-pvdz aug-cc-pvdz/c tightscf
|  2> %pal nprocs 16 end
|  3> %maxcore 3800
|  4> %base "DZ_S-Cl_83_AB"
|  5> %scf
|  6> STABPerform true
|  7> STABRestartUHFifUnstable true
|  8> end
|  9>
| 10> *xyz 0 1
| 11> S        -0.073247    0.904852    0.157329
| 12> Cl        -1.540693   -0.510420   -0.035532
| 13> O         1.202111    0.220225   -0.549045
| 14> C         1.910902   -0.759087    0.216941
| 15> H         2.818241   -0.978342   -0.340233
| 16> H         1.308006   -1.661971    0.313515
| 17> H         2.155195   -0.367457    1.204211
| 18> *
| 19>
| 20> $new_job
| 21> ! ri-mp2 aug-cc-pvtz aug-cc-pvtz/c tightscf
| 22> %pal nprocs 16 end
| 23> %maxcore 3800
| 24> %base "TZ_S-Cl_83_AB"
| 25>
| 26> *xyz 0 1
| 27> S        -0.073247    0.904852    0.157329
| 28> Cl        -1.540693   -0.510420   -0.035532
| 29> O         1.202111    0.220225   -0.549045
| 30> C         1.910902   -0.759087    0.216941
| 31> H         2.818241   -0.978342   -0.340233
| 32> H         1.308006   -1.661971    0.313515
| 33> H         2.155195   -0.367457    1.204211
| 34> *
| 35>
| 36> $new_job
| 37> ! ri-mp2 aug-cc-pvqz aug-cc-pvqz/c tightscf
| 38> %pal nprocs 16 end
| 39> %maxcore 3800
| 40> %base "QZ_S-Cl_83_AB"
| 41>
| 42> *xyz 0 1
| 43> S        -0.073247    0.904852    0.157329
| 44> Cl        -1.540693   -0.510420   -0.035532
| 45> O         1.202111    0.220225   -0.549045
| 46> C         1.910902   -0.759087    0.216941
| 47> H         2.818241   -0.978342   -0.340233
| 48> H         1.308006   -1.661971    0.313515
| 49> H         2.155195   -0.367457    1.204211
| 50> *
| 51>
| 52>
| 53>
| 54>
| 55>                          ****END OF INPUT****
 Total Charge           Charge          ....    0
 Multiplicity           Mult            ....    1
 Number of Electrons    NEL             ....   50
MP2 TOTAL ENERGY:     -972.117225709 Eh
FINAL SINGLE POINT ENERGY      -972.117225709191
MP2 TOTAL ENERGY:     -972.341824105 Eh
FINAL SINGLE POINT ENERGY      -972.341824104667

CARTESIAN COORDINATES (ANGSTROEM)
---------------------------------
  S     -0.073247    0.904852    0.157329
  Cl    -1.540693   -0.510420   -0.035532
  O      1.202111    0.220225   -0.549045
  C      1.910902   -0.759087    0.216941
  H      2.818241   -0.978342   -0.340233
  H      1.308006   -1.661971    0.313515
  H      2.155195   -0.367457    1.204211

 Multiplicity           Mult            ....    1
 Number of Electrons    NEL             ....   50
 Basis Dimension        Dim             ....  466

ORBITAL ENERGIES
----------------

  NO   OCC          E(Eh)            E(eV)
   0   2.0000    -104.852609     -2853.1845
   1   2.0000     -92.055808     -2504.9659
   2   2.0000     -20.617970      -561.0435
   3   2.0000     -11.296407      -307.3909
   4   2.0000     -10.577176      -287.8196
   5   2.0000      -9.047814      -246.2035
   6   2.0000      -8.044096      -218.8910
   7   2.0000      -8.042357      -218.8437
   8   2.0000      -8.042068      -218.8358
   9   2.0000      -6.728812      -183.1003
  10   2.0000      -6.727411      -183.0622
  11   2.0000      -6.725629      -183.0137
  12   2.0000      -1.425382       -38.7866
  13   2.0000      -1.132480       -30.8163
  14   2.0000      -0.988348       -26.8943
  15   2.0000      -0.867512       -23.6062
  16   2.0000      -0.677479       -18.4351
  17   2.0000      -0.668314       -18.1857
  18   2.0000      -0.660866       -17.9831
  19   2.0000      -0.554151       -15.0792
  20   2.0000      -0.537253       -14.6194
  21   2.0000      -0.506581       -13.7848
  22   2.0000      -0.472441       -12.8558
  23   2.0000      -0.463835       -12.6216
  24   2.0000      -0.362303        -9.8588
  25   0.0000       0.025680         0.6988
  26   0.0000       0.038593         1.0502
  27   0.0000       0.041444         1.1277
  28   0.0000       0.053579         1.4580
  29   0.0000       0.061524         1.6741

MULLIKEN ATOMIC CHARGES
-----------------------
   0 S :    0.547268
   1 Cl:   -0.263287
   2 O :   -0.679170
   3 C :   -0.510808
   4 H :    0.328172
   5 H :    0.292511
   6 H :    0.285314
Sum of atomic charges:    0.0000000

LOEWDIN ATOMIC CHARGES
----------------------
   0 S :    0.061120
   1 Cl:    0.419539
   2 O :    0.182869
   3 C :    0.395978
   4 H :   -0.340493
   5 H :   -0.361109
   6 H :   -0.357905

  Mayer bond orders larger than 0.100000
B(  0-S ,  1-Cl) :   0.9872 B(  0-S ,  2-O ) :   0.8663 B(  2-O ,  3-C ) :   0.8308
B(  3-C ,  4-H ) :   0.8760 B(  3-C ,  5-H ) :   0.9002 B(  3-C ,  6-H ) :   0.9165

MP2 TOTAL ENERGY:     -972.414038322 Eh
FINAL SINGLE POINT ENERGY      -972.414038321947

DIPOLE MOMENT
-------------
                                X             Y             Z
Electronic contribution:     -7.40766       1.93315      -0.76513
Nuclear contribution   :      8.10603      -2.19352       1.15758
                        -----------------------------------------
Total Dipole Moment    :      0.69836      -0.26037       0.39245
                        -----------------------------------------
Magnitude (a.u.)       :      0.84233
Magnitude (Debye)      :      2.14104

Rotational constants in cm-1:     0.309513     0.097286     0.079498
Rotational constants in MHz :  9278.971993  2916.555547  2383.294121

                             ****ORCA TERMINATED NORMALLY****
TOTAL RUN TIME: 0 days 0 hours 8 minutes 26 seconds 753 msec
