                         Program Version 5.0.4 -  RELEASE  -
|  1> ! ri-mp2 aug-cc-pvdz aug-cc-pvdz/c tightscf
|  2> %pal nprocs 16 end
|  3> %maxcore 3800
|  4> %base "DZ_P-F_20_AB"
|  5> %scf
|  6> STABPerform true
|  7> STABRestartUHFifUnstable true
|  8> end
|  9>
| 10> *xyz 0 1
| 11> Cl       -1.518729    1.274719    1.336523
| 12> P         0.300864    1.703922   -1.142422
| 13> C        -1.284226    1.078053   -0.414246
| 14> F         0.528535    2.993897   -0.246369
| 15> P        -1.625974   -0.591409   -1.142654
| 16> C         1.575782    0.573152   -0.414113
| 17> C        -0.291505   -1.651174   -0.414289
| 18> F        -2.857054   -1.039237   -0.246735
| 19> Cl        1.863379    0.677697    1.336657
| 20> P         1.325219   -1.112388   -1.142553
| 21> Cl       -0.344774   -1.952475    1.336483
| 22> F         2.328524   -1.954786   -0.246705
| 23> H        -2.041577    1.713895   -0.878605
| 24> H         2.505104    0.911190   -0.878436
| 25> H        -0.463403   -2.625012   -0.878611
| 26> *
| 27>
| 28> $new_job
| 29> ! ri-mp2 aug-cc-pvtz aug-cc-pvtz/c tightscf
| 30> %pal nprocs 16 end
| 31> %maxcore 3800
| 32> %base "TZ_P-F_20_AB"
| 33>
| 34> *xyz 0 1
| 35> Cl       -1.518729    1.274719    1.336523
| 36> P         0.300864    1.703922   -1.142422
| 37> C        -1.284226    1.078053   -0.414246
| 38> F         0.528535    2.993897   -0.246369
| 39> P        -1.625974   -0.591409   -1.142654
| 40> C         1.575782    0.573152   -0.414113
| 41> C        -0.291505   -1.651174   -0.414289
| 42> F        -2.857054   -1.039237   -0.246735
| 43> Cl        1.863379    0.677697    1.336657
| 44> P         1.325219   -1.112388   -1.142553
| 45> Cl       -0.344774   -1.952475    1.336483
| 46> F         2.328524   -1.954786   -0.246705
| 47> H        -2.041577    1.713895   -0.878605
| 48> H         2.505104    0.911190   -0.878436
| 49> H        -0.463403   -2.625012   -0.878611
| 50> *
| 51>
| 52> $new_job
| 53> ! ri-mp2 aug-cc-pvqz aug-cc-pvqz/c tightscf
| 54> %pal nprocs 16 end
| 55> %maxcore 3800
| 56> %base "QZ_P-F_20_AB"
| 57>
| 58> *xyz 0 1
| 59> Cl       -1.518729    1.274719    1.336523
| 60> P         0.300864    1.703922   -1.142422
| 61> C        -1.284226    1.078053   -0.414246
| 62> F         0.528535    2.993897   -0.246369
| 63> P        -1.625974   -0.591409   -1.142654
| 64> C         1.575782    0.573152   -0.414113
| 65> C        -0.291505   -1.651174   -0.414289
| 66> F        -2.857054   -1.039237   -0.246735
| 67> Cl        1.863379    0.677697    1.336657
| 68> P         1.325219   -1.112388   -1.142553
| 69> Cl       -0.344774   -1.952475    1.336483
| 70> F         2.328524   -1.954786   -0.246705
| 71> H        -2.041577    1.713895   -0.878605
| 72> H         2.505104    0.911190   -0.878436
| 73> H        -0.463403   -2.625012   -0.878611
| 74> *
| 75>
| 76>
| 77>
| 78>
| 79>                          ****END OF INPUT****
 Total Charge           Charge          ....    0
 Multiplicity           Mult            ....    1
 Number of Electrons    NEL             ....  144
MP2 TOTAL ENERGY:    -2816.322451963 Eh
FINAL SINGLE POINT ENERGY     -2816.322451962827
MP2 TOTAL ENERGY:    -2816.995294844 Eh
FINAL SINGLE POINT ENERGY     -2816.995294843610

CARTESIAN COORDINATES (ANGSTROEM)
---------------------------------
  Cl    -1.518729    1.274719    1.336523
  P      0.300864    1.703922   -1.142422
  C     -1.284226    1.078053   -0.414246
  F      0.528535    2.993897   -0.246369
  P     -1.625974   -0.591409   -1.142654
  C      1.575782    0.573152   -0.414113
  C     -0.291505   -1.651174   -0.414289
  F     -2.857054   -1.039237   -0.246735
  Cl     1.863379    0.677697    1.336657
  P      1.325219   -1.112388   -1.142553
  Cl    -0.344774   -1.952475    1.336483
  F      2.328524   -1.954786   -0.246705
  H     -2.041577    1.713895   -0.878605
  H      2.505104    0.911190   -0.878436
  H     -0.463403   -2.625012   -0.878611

 Multiplicity           Mult            ....    1
 Number of Electrons    NEL             ....  144
 Basis Dimension        Dim             .... 1122

ORBITAL ENERGIES
----------------

  NO   OCC          E(Eh)            E(eV)
   0   2.0000    -104.846061     -2853.0064
   1   2.0000    -104.846058     -2853.0063
   2   2.0000    -104.846057     -2853.0063
   3   2.0000     -80.049032     -2178.2449
   4   2.0000     -80.049031     -2178.2449
   5   2.0000     -80.049030     -2178.2449
   6   2.0000     -26.328896      -716.4457
   7   2.0000     -26.328896      -716.4457
   8   2.0000     -26.328893      -716.4456
   9   2.0000     -11.329571      -308.2933
  10   2.0000     -11.329568      -308.2932
  11   2.0000     -11.329555      -308.2929
  12   2.0000     -10.571560      -287.6668
  13   2.0000     -10.571558      -287.6667
  14   2.0000     -10.571555      -287.6666
  15   2.0000      -8.038633      -218.7423
  16   2.0000      -8.038631      -218.7423
  17   2.0000      -8.038630      -218.7422
  18   2.0000      -8.036668      -218.6888
  19   2.0000      -8.036665      -218.6888
  20   2.0000      -8.036664      -218.6888
  21   2.0000      -8.036659      -218.6886
  22   2.0000      -8.036656      -218.6885
  23   2.0000      -8.036655      -218.6885
  24   2.0000      -7.582792      -206.3383
  25   2.0000      -7.582791      -206.3382
  26   2.0000      -7.582791      -206.3382
  27   2.0000      -5.477032      -149.0376
  28   2.0000      -5.477014      -149.0371
  29   2.0000      -5.477013      -149.0371
  30   2.0000      -5.476159      -149.0139
  31   2.0000      -5.476152      -149.0137
  32   2.0000      -5.476151      -149.0137
  33   2.0000      -5.474928      -148.9804
  34   2.0000      -5.474927      -148.9803
  35   2.0000      -5.474921      -148.9802
  36   2.0000      -1.639465       -44.6121
  37   2.0000      -1.639227       -44.6056
  38   2.0000      -1.639226       -44.6056
  39   2.0000      -1.179438       -32.0941
  40   2.0000      -1.152035       -31.3485
  41   2.0000      -1.152032       -31.3484
  42   2.0000      -1.032316       -28.0907
  43   2.0000      -0.970332       -26.4041
  44   2.0000      -0.970329       -26.4040
  45   2.0000      -0.852100       -23.1868
  46   2.0000      -0.852098       -23.1868
  47   2.0000      -0.793564       -21.5940
  48   2.0000      -0.729565       -19.8525
  49   2.0000      -0.728057       -19.8114
  50   2.0000      -0.727182       -19.7876
  51   2.0000      -0.727180       -19.7876
  52   2.0000      -0.711292       -19.3553
  53   2.0000      -0.705645       -19.2016
  54   2.0000      -0.705644       -19.2016
  55   2.0000      -0.662368       -18.0239
  56   2.0000      -0.662366       -18.0239
  57   2.0000      -0.628230       -17.0950
  58   2.0000      -0.599112       -16.3027
  59   2.0000      -0.599109       -16.3026
  60   2.0000      -0.562167       -15.2973
  61   2.0000      -0.562164       -15.2973
  62   2.0000      -0.549139       -14.9428
  63   2.0000      -0.493935       -13.4407
  64   2.0000      -0.491216       -13.3667
  65   2.0000      -0.491211       -13.3665
  66   2.0000      -0.433317       -11.7912
  67   2.0000      -0.428921       -11.6715
  68   2.0000      -0.428030       -11.6473
  69   2.0000      -0.428023       -11.6471
  70   2.0000      -0.384109       -10.4521
  71   2.0000      -0.384104       -10.4520
  72   0.0000       0.017209         0.4683
  73   0.0000       0.028058         0.7635
  74   0.0000       0.028058         0.7635
  75   0.0000       0.033868         0.9216
  76   0.0000       0.050105         1.3634

MULLIKEN ATOMIC CHARGES
-----------------------
   0 Cl:   -0.398984
   1 P :    1.137237
   2 C :   -0.321006
   3 F :   -0.755109
   4 P :    1.137265
   5 C :   -0.320987
   6 C :   -0.321013
   7 F :   -0.755115
   8 Cl:   -0.398997
   9 P :    1.137231
  10 Cl:   -0.398978
  11 F :   -0.755116
  12 H :    0.337851
  13 H :    0.337859
  14 H :    0.337862
Sum of atomic charges:   -0.0000000

LOEWDIN ATOMIC CHARGES
----------------------
   0 Cl:    1.107256
   1 P :    0.087967
   2 C :   -0.924405
   3 F :    0.337045
   4 P :    0.087961
   5 C :   -0.924405
   6 C :   -0.924426
   7 F :    0.337044
   8 Cl:    1.107261
   9 P :    0.087965
  10 Cl:    1.107269
  11 F :    0.337045
  12 H :   -0.607860
  13 H :   -0.607871
  14 H :   -0.607847

  Mayer bond orders larger than 0.100000
B(  0-Cl,  2-C ) :   0.6443 B(  1-P ,  2-C ) :   0.7613 B(  1-P ,  3-F ) :   0.5083
B(  1-P ,  5-C ) :   0.7613 B(  2-C ,  4-P ) :   0.7613 B(  2-C , 12-H ) :   0.8705
B(  4-P ,  6-C ) :   0.7613 B(  4-P ,  7-F ) :   0.5083 B(  5-C ,  8-Cl) :   0.6443
B(  5-C ,  9-P ) :   0.7613 B(  5-C , 13-H ) :   0.8705 B(  6-C ,  9-P ) :   0.7613
B(  6-C , 10-Cl) :   0.6443 B(  6-C , 14-H ) :   0.8705 B(  9-P , 11-F ) :   0.5083

MP2 TOTAL ENERGY:    -2817.216947750 Eh
FINAL SINGLE POINT ENERGY     -2817.216947749565

DIPOLE MOMENT
-------------
                                X             Y             Z
Electronic contribution:     -0.00014      -0.00009       2.81110
Nuclear contribution   :      0.00018       0.00015      -4.00820
                        -----------------------------------------
Total Dipole Moment    :      0.00004       0.00006      -1.19710
                        -----------------------------------------
Magnitude (a.u.)       :      1.19710
Magnitude (Debye)      :      3.04279

Rotational constants in cm-1:     0.016923     0.016922     0.012525
Rotational constants in MHz :   507.335826   507.316799   375.497738

                             ****ORCA TERMINATED NORMALLY****
TOTAL RUN TIME: 0 days 1 hours 41 minutes 29 seconds 742 msec
