                         Program Version 5.0.4 -  RELEASE  -
|  1> ! ri-mp2 aug-cc-pvdz aug-cc-pvdz/c tightscf
|  2> %pal nprocs 16 end
|  3> %maxcore 3800
|  4> %base "DZ_P-C_57_AB"
|  5>
|  6> *xyz 0 1
|  7> C         2.378897   -1.220163    0.036102
|  8> C         0.997981   -1.187461    0.025328
|  9> C         3.100758   -0.035942    0.014720
| 10> C         2.442407    1.180702   -0.017454
| 11> C         1.058153    1.218175   -0.029405
| 12> C         0.333111    0.034271   -0.008827
| 13> H         0.527442    2.160212   -0.055076
| 14> H         4.182420   -0.064548    0.023560
| 15> H         3.006402    2.103512   -0.034167
| 16> H         2.895904   -2.169949    0.061420
| 17> H         0.433095   -2.109932    0.043762
| 18> P        -1.447462    0.127417   -0.013451
| 19> O        -1.997807    1.480982    0.035850
| 20> O        -1.962914   -0.803415    1.184002
| 21> H        -2.228975   -0.279276    1.948009
| 22> O        -1.815737   -0.764954   -1.274963
| 23> H        -2.760538   -0.789677   -1.467633
| 24> *
| 25>
| 26> $new_job
| 27> ! ri-mp2 aug-cc-pvtz aug-cc-pvtz/c tightscf
| 28> %pal nprocs 16 end
| 29> %maxcore 3800
| 30> %base "TZ_P-C_57_AB"
| 31>
| 32> *xyz 0 1
| 33> C         2.378897   -1.220163    0.036102
| 34> C         0.997981   -1.187461    0.025328
| 35> C         3.100758   -0.035942    0.014720
| 36> C         2.442407    1.180702   -0.017454
| 37> C         1.058153    1.218175   -0.029405
| 38> C         0.333111    0.034271   -0.008827
| 39> H         0.527442    2.160212   -0.055076
| 40> H         4.182420   -0.064548    0.023560
| 41> H         3.006402    2.103512   -0.034167
| 42> H         2.895904   -2.169949    0.061420
| 43> H         0.433095   -2.109932    0.043762
| 44> P        -1.447462    0.127417   -0.013451
| 45> O        -1.997807    1.480982    0.035850
| 46> O        -1.962914   -0.803415    1.184002
| 47> H        -2.228975   -0.279276    1.948009
| 48> O        -1.815737   -0.764954   -1.274963
| 49> H        -2.760538   -0.789677   -1.467633
| 50> *
| 51>
| 52> $new_job
| 53> ! ri-mp2 aug-cc-pvqz aug-cc-pvqz/c tightscf
| 54> %pal nprocs 16 end
| 55> %maxcore 3800
| 56> %base "QZ_P-C_57_AB"
| 57>
| 58> *xyz 0 1
| 59> C         2.378897   -1.220163    0.036102
| 60> C         0.997981   -1.187461    0.025328
| 61> C         3.100758   -0.035942    0.014720
| 62> C         2.442407    1.180702   -0.017454
| 63> C         1.058153    1.218175   -0.029405
| 64> C         0.333111    0.034271   -0.008827
| 65> H         0.527442    2.160212   -0.055076
| 66> H         4.182420   -0.064548    0.023560
| 67> H         3.006402    2.103512   -0.034167
| 68> H         2.895904   -2.169949    0.061420
| 69> H         0.433095   -2.109932    0.043762
| 70> P        -1.447462    0.127417   -0.013451
| 71> O        -1.997807    1.480982    0.035850
| 72> O        -1.962914   -0.803415    1.184002
| 73> H        -2.228975   -0.279276    1.948009
| 74> O        -1.815737   -0.764954   -1.274963
| 75> H        -2.760538   -0.789677   -1.467633
| 76> *
| 77>
| 78>
| 79>
| 80>
| 81>                          ****END OF INPUT****
 Total Charge           Charge          ....    0
 Multiplicity           Mult            ....    1
 Number of Electrons    NEL             ....   82
MP2 TOTAL ENERGY:     -798.282528185 Eh
FINAL SINGLE POINT ENERGY      -798.282528184818
MP2 TOTAL ENERGY:     -798.751711300 Eh
FINAL SINGLE POINT ENERGY      -798.751711300024

CARTESIAN COORDINATES (ANGSTROEM)
---------------------------------
  C      2.378897   -1.220163    0.036102
  C      0.997981   -1.187461    0.025328
  C      3.100758   -0.035942    0.014720
  C      2.442407    1.180702   -0.017454
  C      1.058153    1.218175   -0.029405
  C      0.333111    0.034271   -0.008827
  H      0.527442    2.160212   -0.055076
  H      4.182420   -0.064548    0.023560
  H      3.006402    2.103512   -0.034167
  H      2.895904   -2.169949    0.061420
  H      0.433095   -2.109932    0.043762
  P     -1.447462    0.127417   -0.013451
  O     -1.997807    1.480982    0.035850
  O     -1.962914   -0.803415    1.184002
  H     -2.228975   -0.279276    1.948009
  O     -1.815737   -0.764954   -1.274963
  H     -2.760538   -0.789677   -1.467633

 Multiplicity           Mult            ....    1
 Number of Electrons    NEL             ....   82
 Basis Dimension        Dim             .... 1126

ORBITAL ENERGIES
----------------

  NO   OCC          E(Eh)            E(eV)
   0   2.0000     -80.067193     -2178.7391
   1   2.0000     -20.598517      -560.5141
   2   2.0000     -20.595879      -560.4424
   3   2.0000     -20.502322      -557.8965
   4   2.0000     -11.252916      -306.2074
   5   2.0000     -11.250250      -306.1349
   6   2.0000     -11.249889      -306.1250
   7   2.0000     -11.244525      -305.9791
   8   2.0000     -11.243389      -305.9482
   9   2.0000     -11.241955      -305.9091
  10   2.0000      -7.589867      -206.5308
  11   2.0000      -5.488238      -149.3426
  12   2.0000      -5.487587      -149.3248
  13   2.0000      -5.486646      -149.2992
  14   2.0000      -1.436725       -39.0953
  15   2.0000      -1.382433       -37.6179
  16   2.0000      -1.297631       -35.3103
  17   2.0000      -1.172383       -31.9022
  18   2.0000      -1.040681       -28.3184
  19   2.0000      -1.033008       -28.1096
  20   2.0000      -0.881925       -23.9984
  21   2.0000      -0.843547       -22.9541
  22   2.0000      -0.814270       -22.1574
  23   2.0000      -0.749697       -20.4003
  24   2.0000      -0.724213       -19.7068
  25   2.0000      -0.677884       -18.4462
  26   2.0000      -0.656249       -17.8574
  27   2.0000      -0.641621       -17.4594
  28   2.0000      -0.632883       -17.2216
  29   2.0000      -0.611966       -16.6524
  30   2.0000      -0.603071       -16.4104
  31   2.0000      -0.572914       -15.5898
  32   2.0000      -0.563960       -15.3461
  33   2.0000      -0.544413       -14.8142
  34   2.0000      -0.520646       -14.1675
  35   2.0000      -0.508166       -13.8279
  36   2.0000      -0.499406       -13.5895
  37   2.0000      -0.465397       -12.6641
  38   2.0000      -0.456276       -12.4159
  39   2.0000      -0.359060        -9.7705
  40   2.0000      -0.351787        -9.5726
  41   0.0000       0.021314         0.5800
  42   0.0000       0.027294         0.7427
  43   0.0000       0.030684         0.8350
  44   0.0000       0.038077         1.0361
  45   0.0000       0.040836         1.1112

MULLIKEN ATOMIC CHARGES
-----------------------
   0 C :   -0.192835
   1 C :   -0.514649
   2 C :   -0.359273
   3 C :   -0.238333
   4 C :   -0.492707
   5 C :   -0.137586
   6 H :    0.345367
   7 H :    0.364519
   8 H :    0.242282
   9 H :    0.244440
  10 H :    0.291551
  11 P :    2.869763
  12 O :   -1.295176
  13 O :   -0.939938
  14 H :    0.387353
  15 O :   -0.967662
  16 H :    0.392884
Sum of atomic charges:   -0.0000000

LOEWDIN ATOMIC CHARGES
----------------------
   0 C :    0.348708
   1 C :    0.281720
   2 C :    0.341793
   3 C :    0.351395
   4 C :    0.277310
   5 C :   -0.155694
   6 H :   -0.345638
   7 H :   -0.315842
   8 H :   -0.319078
   9 H :   -0.319444
  10 H :   -0.323102
  11 P :   -0.660912
  12 O :    0.327780
  13 O :    1.106040
  14 H :   -0.863078
  15 O :    1.107366
  16 H :   -0.839326

  Mayer bond orders larger than 0.100000
B(  0-C ,  1-C ) :   1.2809 B(  0-C ,  2-C ) :   1.1091 B(  0-C ,  3-C ) :  -0.1105
B(  0-C ,  4-C ) :   0.1167 B(  0-C ,  5-C ) :  -0.3470 B(  0-C ,  9-H ) :   1.1336
B(  1-C ,  2-C ) :   0.1861 B(  1-C ,  3-C ) :   0.1382 B(  1-C ,  4-C ) :   0.1247
B(  1-C ,  5-C ) :   0.8751 B(  1-C ,  9-H ) :  -0.1546 B(  1-C , 10-H ) :   0.9825
B(  2-C ,  3-C ) :   1.1332 B(  2-C ,  4-C ) :   0.1733 B(  2-C ,  7-H ) :   0.9572
B(  2-C ,  8-H ) :  -0.1139 B(  2-C ,  9-H ) :  -0.1097 B(  3-C ,  4-C ) :   1.3584
B(  3-C ,  5-C ) :  -0.3934 B(  3-C ,  8-H ) :   1.1338 B(  4-C ,  5-C ) :   0.8087
B(  4-C ,  6-H ) :   0.8873 B(  4-C ,  8-H ) :  -0.1357 B(  4-C , 11-P ) :  -0.1116
B(  4-C , 12-O ) :   0.1024 B(  5-C ,  6-H ) :  -0.1205 B(  5-C , 10-H ) :  -0.1264
B(  5-C , 11-P ) :   0.9166 B(  5-C , 12-O ) :  -0.2097 B( 11-P , 12-O ) :   1.1814
B( 11-P , 13-O ) :   0.5601 B( 11-P , 15-O ) :   0.4761 B( 13-O , 14-H ) :   0.9029
B( 15-O , 16-H ) :   0.9228

MP2 TOTAL ENERGY:     -798.903712463 Eh
FINAL SINGLE POINT ENERGY      -798.903712463478

DIPOLE MOMENT
-------------
                                X             Y             Z
Electronic contribution:     -6.59190       0.46211      -0.22869
Nuclear contribution   :      7.15319      -1.23946       0.51805
                        -----------------------------------------
Total Dipole Moment    :      0.56129      -0.77734       0.28937
                        -----------------------------------------
Magnitude (a.u.)       :      1.00152
Magnitude (Debye)      :      2.54566

Rotational constants in cm-1:     0.085017     0.026863     0.023518
Rotational constants in MHz :  2548.754140   805.339502   705.042627

                             ****ORCA TERMINATED NORMALLY****
TOTAL RUN TIME: 0 days 0 hours 41 minutes 0 seconds 331 msec
