                         Program Version 5.0.4 -  RELEASE  -
|  1> ! ri-mp2 aug-cc-pvdz aug-cc-pvdz/c tightscf
|  2> %pal nprocs 16 end
|  3> %maxcore 3800
|  4> %base "DZ_P-N_32_AB"
|  5>
|  6> *xyz 0 1
|  7> C        -0.196747    0.204519   -0.418852
|  8> N         2.473333   -0.397090    0.133727
|  9> C         2.246345   -0.380030    1.563950
| 10> H         1.314418   -0.873257    1.858160
| 11> H         2.200592    0.652786    1.913231
| 12> H         3.074838   -0.868292    2.077005
| 13> C        -0.794280   -1.041668   -0.588804
| 14> C        -2.102064   -1.261838   -0.197560
| 15> C        -2.844402   -0.228681    0.353012
| 16> C        -2.267841    1.018639    0.515714
| 17> C        -0.951105    1.229612    0.138979
| 18> H        -0.503613    2.204540    0.287679
| 19> H        -0.227080   -1.850287   -1.035343
| 20> H        -2.548619   -2.238464   -0.331541
| 21> H        -3.870194   -0.396894    0.653100
| 22> H        -2.841005    1.829019    0.946965
| 23> P         1.531479    0.437315   -0.988653
| 24> H         1.658336    1.743324   -0.453236
| 25> H         2.917379   -1.225890   -0.220949
| 26> *
| 27>
| 28> $new_job
| 29> ! ri-mp2 aug-cc-pvtz aug-cc-pvtz/c tightscf
| 30> %pal nprocs 16 end
| 31> %maxcore 3800
| 32> %base "TZ_P-N_32_AB"
| 33>
| 34> *xyz 0 1
| 35> C        -0.196747    0.204519   -0.418852
| 36> N         2.473333   -0.397090    0.133727
| 37> C         2.246345   -0.380030    1.563950
| 38> H         1.314418   -0.873257    1.858160
| 39> H         2.200592    0.652786    1.913231
| 40> H         3.074838   -0.868292    2.077005
| 41> C        -0.794280   -1.041668   -0.588804
| 42> C        -2.102064   -1.261838   -0.197560
| 43> C        -2.844402   -0.228681    0.353012
| 44> C        -2.267841    1.018639    0.515714
| 45> C        -0.951105    1.229612    0.138979
| 46> H        -0.503613    2.204540    0.287679
| 47> H        -0.227080   -1.850287   -1.035343
| 48> H        -2.548619   -2.238464   -0.331541
| 49> H        -3.870194   -0.396894    0.653100
| 50> H        -2.841005    1.829019    0.946965
| 51> P         1.531479    0.437315   -0.988653
| 52> H         1.658336    1.743324   -0.453236
| 53> H         2.917379   -1.225890   -0.220949
| 54> *
| 55>
| 56> $new_job
| 57> ! ri-mp2 aug-cc-pvqz aug-cc-pvqz/c tightscf
| 58> %pal nprocs 16 end
| 59> %maxcore 3800
| 60> %base "QZ_P-N_32_AB"
| 61>
| 62> *xyz 0 1
| 63> C        -0.196747    0.204519   -0.418852
| 64> N         2.473333   -0.397090    0.133727
| 65> C         2.246345   -0.380030    1.563950
| 66> H         1.314418   -0.873257    1.858160
| 67> H         2.200592    0.652786    1.913231
| 68> H         3.074838   -0.868292    2.077005
| 69> C        -0.794280   -1.041668   -0.588804
| 70> C        -2.102064   -1.261838   -0.197560
| 71> C        -2.844402   -0.228681    0.353012
| 72> C        -2.267841    1.018639    0.515714
| 73> C        -0.951105    1.229612    0.138979
| 74> H        -0.503613    2.204540    0.287679
| 75> H        -0.227080   -1.850287   -1.035343
| 76> H        -2.548619   -2.238464   -0.331541
| 77> H        -3.870194   -0.396894    0.653100
| 78> H        -2.841005    1.829019    0.946965
| 79> P         1.531479    0.437315   -0.988653
| 80> H         1.658336    1.743324   -0.453236
| 81> H         2.917379   -1.225890   -0.220949
| 82> *
| 83>
| 84>
| 85>
| 86>
| 87>                          ****END OF INPUT****
 Total Charge           Charge          ....    0
 Multiplicity           Mult            ....    1
 Number of Electrons    NEL             ....   74
MP2 TOTAL ENERGY:     -667.384164307 Eh
FINAL SINGLE POINT ENERGY      -667.384164307061
MP2 TOTAL ENERGY:     -667.724176750 Eh
FINAL SINGLE POINT ENERGY      -667.724176750103

CARTESIAN COORDINATES (ANGSTROEM)
---------------------------------
  C     -0.196747    0.204519   -0.418852
  N      2.473333   -0.397090    0.133727
  C      2.246345   -0.380030    1.563950
  H      1.314418   -0.873257    1.858160
  H      2.200592    0.652786    1.913231
  H      3.074838   -0.868292    2.077005
  C     -0.794280   -1.041668   -0.588804
  C     -2.102064   -1.261838   -0.197560
  C     -2.844402   -0.228681    0.353012
  C     -2.267841    1.018639    0.515714
  C     -0.951105    1.229612    0.138979
  H     -0.503613    2.204540    0.287679
  H     -0.227080   -1.850287   -1.035343
  H     -2.548619   -2.238464   -0.331541
  H     -3.870194   -0.396894    0.653100
  H     -2.841005    1.829019    0.946965
  P      1.531479    0.437315   -0.988653
  H      1.658336    1.743324   -0.453236
  H      2.917379   -1.225890   -0.220949

 Multiplicity           Mult            ....    1
 Number of Electrons    NEL             ....   74
 Basis Dimension        Dim             .... 1184

ORBITAL ENERGIES
----------------

  NO   OCC          E(Eh)            E(eV)
   0   2.0000     -79.949754     -2175.5434
   1   2.0000     -15.547453      -423.0677
   2   2.0000     -11.248991      -306.1006
   3   2.0000     -11.235715      -305.7393
   4   2.0000     -11.235407      -305.7310
   5   2.0000     -11.235053      -305.7213
   6   2.0000     -11.233669      -305.6837
   7   2.0000     -11.233187      -305.6706
   8   2.0000     -11.230809      -305.6059
   9   2.0000      -7.488222      -203.7649
  10   2.0000      -5.382491      -146.4650
  11   2.0000      -5.382246      -146.4584
  12   2.0000      -5.381552      -146.4395
  13   2.0000      -1.192754       -32.4565
  14   2.0000      -1.157043       -31.4847
  15   2.0000      -1.024483       -27.8776
  16   2.0000      -1.019912       -27.7532
  17   2.0000      -0.922935       -25.1143
  18   2.0000      -0.847669       -23.0663
  19   2.0000      -0.829844       -22.5812
  20   2.0000      -0.778786       -21.1919
  21   2.0000      -0.700243       -19.0546
  22   2.0000      -0.644969       -17.5505
  23   2.0000      -0.633787       -17.2462
  24   2.0000      -0.629013       -17.1163
  25   2.0000      -0.602062       -16.3829
  26   2.0000      -0.590533       -16.0692
  27   2.0000      -0.589044       -16.0287
  28   2.0000      -0.546965       -14.8837
  29   2.0000      -0.515715       -14.0333
  30   2.0000      -0.509618       -13.8674
  31   2.0000      -0.495798       -13.4914
  32   2.0000      -0.483172       -13.1478
  33   2.0000      -0.386421       -10.5151
  34   2.0000      -0.369018       -10.0415
  35   2.0000      -0.341729        -9.2989
  36   2.0000      -0.320622        -8.7246
  37   0.0000       0.022796         0.6203
  38   0.0000       0.027783         0.7560
  39   0.0000       0.029562         0.8044
  40   0.0000       0.037052         1.0082
  41   0.0000       0.040667         1.1066

MULLIKEN ATOMIC CHARGES
-----------------------
   0 C :   -0.129576
   1 N :   -0.657597
   2 C :   -0.900262
   3 H :    0.347423
   4 H :    0.263089
   5 H :    0.401134
   6 C :   -0.346191
   7 C :   -0.219638
   8 C :   -0.368231
   9 C :   -0.284319
  10 C :   -0.422234
  11 H :    0.333582
  12 H :    0.305224
  13 H :    0.244579
  14 H :    0.352919
  15 H :    0.243475
  16 P :    0.787390
  17 H :   -0.129321
  18 H :    0.178554
Sum of atomic charges:    0.0000000

LOEWDIN ATOMIC CHARGES
----------------------
   0 C :   -0.282533
   1 N :    0.600739
   2 C :    0.686828
   3 H :   -0.299208
   4 H :   -0.313105
   5 H :   -0.298570
   6 C :    0.234782
   7 C :    0.334668
   8 C :    0.332380
   9 C :    0.335959
  10 C :    0.246396
  11 H :   -0.348581
  12 H :   -0.335294
  13 H :   -0.320668
  14 H :   -0.321276
  15 H :   -0.320813
  16 P :    1.099052
  17 H :   -0.420416
  18 H :   -0.610340

  Mayer bond orders larger than 0.100000
B(  0-C ,  6-C ) :   0.9042 B(  0-C ,  7-C ) :  -0.3126 B(  0-C ,  9-C ) :  -0.2836
B(  0-C , 10-C ) :   0.8909 B(  0-C , 12-H ) :  -0.1219 B(  0-C , 16-P ) :   0.9481
B(  1-N ,  2-C ) :   0.8907 B(  1-N , 16-P ) :   0.7109 B(  1-N , 18-H ) :   1.0576
B(  2-C ,  3-H ) :   0.8597 B(  2-C ,  4-H ) :   0.9463 B(  2-C ,  5-H ) :   0.8708
B(  6-C ,  7-C ) :   1.3139 B(  6-C ,  9-C ) :   0.1348 B(  6-C , 12-H ) :   0.9538
B(  6-C , 13-H ) :  -0.1306 B(  6-C , 16-P ) :  -0.1928 B(  7-C ,  8-C ) :   1.1287
B(  7-C ,  9-C ) :  -0.1266 B(  7-C , 10-C ) :   0.1628 B(  7-C , 13-H ) :   1.1209
B(  8-C ,  9-C ) :   1.1401 B(  8-C , 10-C ) :   0.1242 B(  8-C , 14-H ) :   0.9788
B(  9-C , 10-C ) :   1.3834 B(  9-C , 15-H ) :   1.1181 B( 10-C , 11-H ) :   0.9243
B( 10-C , 15-H ) :  -0.1251 B( 16-P , 17-H ) :   0.9428

MP2 TOTAL ENERGY:     -667.831236283 Eh
FINAL SINGLE POINT ENERGY      -667.831236282606

DIPOLE MOMENT
-------------
                                X             Y             Z
Electronic contribution:      0.07273       1.11373      -5.99953
Nuclear contribution   :     -0.26866      -1.44057       6.62976
                        -----------------------------------------
Total Dipole Moment    :     -0.19593      -0.32683       0.63023
                        -----------------------------------------
Magnitude (a.u.)       :      0.73648
Magnitude (Debye)      :      1.87197

Rotational constants in cm-1:     0.092283     0.028444     0.027849
Rotational constants in MHz :  2766.570488   852.722852   834.885117

                             ****ORCA TERMINATED NORMALLY****
TOTAL RUN TIME: 0 days 0 hours 50 minutes 24 seconds 617 msec
