                         Program Version 5.0.4 -  RELEASE  -
|  1> ! ri-mp2 aug-cc-pvdz aug-cc-pvdz/c tightscf
|  2> %pal nprocs 16 end
|  3> %maxcore 3800
|  4> %base "DZ_B-B_57_A"
|  5> %scf
|  6> STABPerform true
|  7> STABRestartUHFifUnstable true
|  8> end
|  9>
| 10> *xyz 0 2
| 11> B        -1.331148   -0.178252    0.067643
| 12> P         0.469808    0.016319   -0.111058
| 13> H         1.029117   -1.018395    0.656362
| 14> H         0.850987    1.129990    0.666848
| 15> H        -2.271484    0.534877    0.004445
| 16> *
| 17>
| 18> $new_job
| 19> ! ri-mp2 aug-cc-pvtz aug-cc-pvtz/c tightscf
| 20> %pal nprocs 16 end
| 21> %maxcore 3800
| 22> %base "TZ_B-B_57_A"
| 23>
| 24> *xyz 0 2
| 25> B        -1.331148   -0.178252    0.067643
| 26> P         0.469808    0.016319   -0.111058
| 27> H         1.029117   -1.018395    0.656362
| 28> H         0.850987    1.129990    0.666848
| 29> H        -2.271484    0.534877    0.004445
| 30> *
| 31>
| 32> $new_job
| 33> ! ri-mp2 aug-cc-pvqz aug-cc-pvqz/c tightscf
| 34> %pal nprocs 16 end
| 35> %maxcore 3800
| 36> %base "QZ_B-B_57_A"
| 37>
| 38> *xyz 0 2
| 39> B        -1.331148   -0.178252    0.067643
| 40> P         0.469808    0.016319   -0.111058
| 41> H         1.029117   -1.018395    0.656362
| 42> H         0.850987    1.129990    0.666848
| 43> H        -2.271484    0.534877    0.004445
| 44> *
| 45>
| 46>
| 47>
| 48>
| 49>                          ****END OF INPUT****
 Total Charge           Charge          ....    0
 Multiplicity           Mult            ....    2
 Number of Electrons    NEL             ....   23
MP2 TOTAL ENERGY:     -367.285943884 Eh
FINAL SINGLE POINT ENERGY      -367.285943884038
MP2 TOTAL ENERGY:     -367.349580468 Eh
FINAL SINGLE POINT ENERGY      -367.349580467727

CARTESIAN COORDINATES (ANGSTROEM)
---------------------------------
  B     -1.331148   -0.178252    0.067643
  P      0.469808    0.016319   -0.111058
  H      1.029117   -1.018395    0.656362
  H      0.850987    1.129990    0.666848
  H     -2.271484    0.534877    0.004445

 Multiplicity           Mult            ....    2
 Number of Electrons    NEL             ....   23
 Basis Dimension        Dim             ....  302

ORBITAL ENERGIES
----------------
                 SPIN UP ORBITALS
  NO   OCC          E(Eh)            E(eV)
   0   1.0000     -79.939309     -2175.2592
   1   1.0000      -7.640570      -207.9105
   2   1.0000      -7.485286      -203.6850
   3   1.0000      -5.379840      -146.3929
   4   1.0000      -5.379311      -146.3785
   5   1.0000      -5.379139      -146.3738
   6   1.0000      -0.877541       -23.8791
   7   1.0000      -0.664343       -18.0777
   8   1.0000      -0.555105       -15.1052
   9   1.0000      -0.510405       -13.8888
  10   1.0000      -0.375373       -10.2144
  11   1.0000      -0.332503        -9.0479
  12   0.0000       0.025763         0.7010
  13   0.0000       0.033449         0.9102
  14   0.0000       0.035321         0.9611
  15   0.0000       0.037004         1.0069
  16   0.0000       0.055840         1.5195

                 SPIN DOWN ORBITALS
  NO   OCC          E(Eh)            E(eV)
   0   1.0000     -79.939859     -2175.2741
   1   1.0000      -7.623026      -207.4331
   2   1.0000      -7.485932      -203.7026
   3   1.0000      -5.380916      -146.4222
   4   1.0000      -5.380221      -146.4033
   5   1.0000      -5.379770      -146.3910
   6   1.0000      -0.864553       -23.5257
   7   1.0000      -0.620947       -16.8968
   8   1.0000      -0.538952       -14.6656
   9   1.0000      -0.499138       -13.5822
  10   1.0000      -0.371596       -10.1116
  11   0.0000       0.024747         0.6734
  12   0.0000       0.034603         0.9416
  13   0.0000       0.035303         0.9606
  14   0.0000       0.038784         1.0554
  15   0.0000       0.055481         1.5097

MULLIKEN ATOMIC CHARGES AND SPIN POPULATIONS
--------------------------------------------
   0 B :    0.094202    1.029221
   1 P :    0.114865   -0.051292
   2 H :   -0.025294    0.005130
   3 H :   -0.015859    0.045828
   4 H :   -0.167913   -0.028888
Sum of atomic charges         :   -0.0000000

LOEWDIN ATOMIC CHARGES AND SPIN POPULATIONS
-------------------------------------------
   0 B :   -0.013804    0.570415
   1 P :    1.440169    0.203163
   2 H :   -0.541740    0.012861
   3 H :   -0.520637    0.027360
   4 H :   -0.363988    0.186201

  Mayer bond orders larger than 0.100000
B(  0-B ,  1-P ) :   1.3149 B(  0-B ,  4-H ) :   0.9187 B(  1-P ,  2-H ) :   0.8867
B(  1-P ,  3-H ) :   0.8840

MP2 TOTAL ENERGY:     -367.370107447 Eh
FINAL SINGLE POINT ENERGY      -367.370107447490

DIPOLE MOMENT
-------------
                                X             Y             Z
Electronic contribution:     -0.13162      -0.57496      -1.02111
Nuclear contribution   :      0.22542       0.74670       1.32930
                        -----------------------------------------
Total Dipole Moment    :      0.09380       0.17173       0.30819
                        -----------------------------------------
Magnitude (a.u.)       :      0.36506
Magnitude (Debye)      :      0.92791

Rotational constants in cm-1:     4.111466     0.491013     0.468167
Rotational constants in MHz : 123258.656886 14720.207634 14035.293558

                             ****ORCA TERMINATED NORMALLY****
TOTAL RUN TIME: 0 days 0 hours 3 minutes 58 seconds 557 msec
