                         Program Version 5.0.4 -  RELEASE  -
|  1> ! ri-mp2 aug-cc-pvdz aug-cc-pvdz/c tightscf
|  2> %pal nprocs 16 end
|  3> %maxcore 3800
|  4> %base "DZ_Si-Cl_3_A"
|  5> %scf
|  6> STABPerform true
|  7> STABRestartUHFifUnstable true
|  8> end
|  9>
| 10> *xyz 0 2
| 11> Si         3.665909   -0.246762    0.000001
| 12> C         2.039305    0.690961   -0.000001
| 13> C         0.804885   -0.215302    0.000000
| 14> H         2.016994    1.348141   -0.873523
| 15> H         2.016994    1.348143    0.873520
| 16> C        -0.504317    0.562325   -0.000001
| 17> H         0.831134   -0.873106    0.873602
| 18> H         0.831134   -0.873107   -0.873600
| 19> C        -1.734553   -0.331168    0.000000
| 20> H        -0.531533    1.219807   -0.874838
| 21> H        -0.531533    1.219809    0.874836
| 22> C        -3.044430    0.442439   -0.000001
| 23> H        -1.704457   -0.989411    0.874563
| 24> H        -1.704456   -0.989413   -0.874561
| 25> C        -4.268122   -0.460049    0.000000
| 26> H        -3.073301    1.099593   -0.874030
| 27> H        -3.073301    1.099595    0.874028
| 28> H        -4.279659   -1.105356   -0.880493
| 29> H        -5.192642    0.118097    0.000000
| 30> H        -4.279659   -1.105354    0.880495
| 31> H         3.797477   -1.099005   -1.209355
| 32> H         3.797479   -1.098998    1.209361
| 33> *
| 34>
| 35> $new_job
| 36> ! ri-mp2 aug-cc-pvtz aug-cc-pvtz/c tightscf
| 37> %pal nprocs 16 end
| 38> %maxcore 3800
| 39> %base "TZ_Si-Cl_3_A"
| 40>
| 41> *xyz 0 2
| 42> Si         3.665909   -0.246762    0.000001
| 43> C         2.039305    0.690961   -0.000001
| 44> C         0.804885   -0.215302    0.000000
| 45> H         2.016994    1.348141   -0.873523
| 46> H         2.016994    1.348143    0.873520
| 47> C        -0.504317    0.562325   -0.000001
| 48> H         0.831134   -0.873106    0.873602
| 49> H         0.831134   -0.873107   -0.873600
| 50> C        -1.734553   -0.331168    0.000000
| 51> H        -0.531533    1.219807   -0.874838
| 52> H        -0.531533    1.219809    0.874836
| 53> C        -3.044430    0.442439   -0.000001
| 54> H        -1.704457   -0.989411    0.874563
| 55> H        -1.704456   -0.989413   -0.874561
| 56> C        -4.268122   -0.460049    0.000000
| 57> H        -3.073301    1.099593   -0.874030
| 58> H        -3.073301    1.099595    0.874028
| 59> H        -4.279659   -1.105356   -0.880493
| 60> H        -5.192642    0.118097    0.000000
| 61> H        -4.279659   -1.105354    0.880495
| 62> H         3.797477   -1.099005   -1.209355
| 63> H         3.797479   -1.098998    1.209361
| 64> *
| 65>
| 66> $new_job
| 67> ! ri-mp2 aug-cc-pvqz aug-cc-pvqz/c tightscf
| 68> %pal nprocs 16 end
| 69> %maxcore 3800
| 70> %base "QZ_Si-Cl_3_A"
| 71>
| 72> *xyz 0 2
| 73> Si         3.665909   -0.246762    0.000001
| 74> C         2.039305    0.690961   -0.000001
| 75> C         0.804885   -0.215302    0.000000
| 76> H         2.016994    1.348141   -0.873523
| 77> H         2.016994    1.348143    0.873520
| 78> C        -0.504317    0.562325   -0.000001
| 79> H         0.831134   -0.873106    0.873602
| 80> H         0.831134   -0.873107   -0.873600
| 81> C        -1.734553   -0.331168    0.000000
| 82> H        -0.531533    1.219807   -0.874838
| 83> H        -0.531533    1.219809    0.874836
| 84> C        -3.044430    0.442439   -0.000001
| 85> H        -1.704457   -0.989411    0.874563
| 86> H        -1.704456   -0.989413   -0.874561
| 87> C        -4.268122   -0.460049    0.000000
| 88> H        -3.073301    1.099593   -0.874030
| 89> H        -3.073301    1.099595    0.874028
| 90> H        -4.279659   -1.105356   -0.880493
| 91> H        -5.192642    0.118097    0.000000
| 92> H        -4.279659   -1.105354    0.880495
| 93> H         3.797477   -1.099005   -1.209355
| 94> H         3.797479   -1.098998    1.209361
| 95> *
| 96>
| 97>
| 98>
| 99>
|100>                          ****END OF INPUT****
 Total Charge           Charge          ....    0
 Multiplicity           Mult            ....    2
 Number of Electrons    NEL             ....   65
MP2 TOTAL ENERGY:     -525.855792049 Eh
FINAL SINGLE POINT ENERGY      -525.855792048749
MP2 TOTAL ENERGY:     -526.119820830 Eh
FINAL SINGLE POINT ENERGY      -526.119820829906

CARTESIAN COORDINATES (ANGSTROEM)
---------------------------------
  Si     3.665909   -0.246762    0.000001
  C      2.039305    0.690961   -0.000001
  C      0.804885   -0.215302    0.000000
  H      2.016994    1.348141   -0.873523
  H      2.016994    1.348143    0.873520
  C     -0.504317    0.562325   -0.000001
  H      0.831134   -0.873106    0.873602
  H      0.831134   -0.873107   -0.873600
  C     -1.734553   -0.331168    0.000000
  H     -0.531533    1.219807   -0.874838
  H     -0.531533    1.219809    0.874836
  C     -3.044430    0.442439   -0.000001
  H     -1.704457   -0.989411    0.874563
  H     -1.704456   -0.989413   -0.874561
  C     -4.268122   -0.460049    0.000000
  H     -3.073301    1.099593   -0.874030
  H     -3.073301    1.099595    0.874028
  H     -4.279659   -1.105356   -0.880493
  H     -5.192642    0.118097    0.000000
  H     -4.279659   -1.105354    0.880495
  H      3.797477   -1.099005   -1.209355
  H      3.797479   -1.098998    1.209361

 Multiplicity           Mult            ....    2
 Number of Electrons    NEL             ....   65
 Basis Dimension        Dim             .... 1254

ORBITAL ENERGIES
----------------
                 SPIN UP ORBITALS
  NO   OCC          E(Eh)            E(eV)
   0   1.0000     -68.768430     -1871.2841
   1   1.0000     -11.223520      -305.4075
   2   1.0000     -11.214699      -305.1675
   3   1.0000     -11.214550      -305.1634
   4   1.0000     -11.212839      -305.1169
   5   1.0000     -11.212389      -305.1046
   6   1.0000     -11.208663      -305.0032
   7   1.0000      -6.119037      -166.5075
   8   1.0000      -4.231810      -115.1534
   9   1.0000      -4.221971      -114.8857
  10   1.0000      -4.221611      -114.8759
  11   1.0000      -1.092470       -29.7276
  12   1.0000      -1.043384       -28.3919
  13   1.0000      -0.967062       -26.3151
  14   1.0000      -0.877217       -23.8703
  15   1.0000      -0.804799       -21.8997
  16   1.0000      -0.789618       -21.4866
  17   1.0000      -0.693283       -18.8652
  18   1.0000      -0.658062       -17.9068
  19   1.0000      -0.618247       -16.8234
  20   1.0000      -0.591264       -16.0891
  21   1.0000      -0.569106       -15.4862
  22   1.0000      -0.562554       -15.3079
  23   1.0000      -0.536427       -14.5969
  24   1.0000      -0.509308       -13.8590
  25   1.0000      -0.502353       -13.6697
  26   1.0000      -0.475112       -12.9284
  27   1.0000      -0.471841       -12.8394
  28   1.0000      -0.468838       -12.7577
  29   1.0000      -0.464795       -12.6477
  30   1.0000      -0.461716       -12.5639
  31   1.0000      -0.426006       -11.5922
  32   1.0000      -0.317947        -8.6518
  33   0.0000       0.024589         0.6691
  34   0.0000       0.027900         0.7592
  35   0.0000       0.031253         0.8504
  36   0.0000       0.032233         0.8771
  37   0.0000       0.039132         1.0648

                 SPIN DOWN ORBITALS
  NO   OCC          E(Eh)            E(eV)
   0   1.0000     -68.762785     -1871.1305
   1   1.0000     -11.222563      -305.3815
   2   1.0000     -11.214564      -305.1638
   3   1.0000     -11.214358      -305.1582
   4   1.0000     -11.212796      -305.1157
   5   1.0000     -11.211874      -305.0906
   6   1.0000     -11.208656      -305.0030
   7   1.0000      -6.110390      -166.2722
   8   1.0000      -4.218191      -114.7828
   9   1.0000      -4.217841      -114.7733
  10   1.0000      -4.209525      -114.5470
  11   1.0000      -1.091347       -29.6971
  12   1.0000      -1.041556       -28.3422
  13   1.0000      -0.964906       -26.2564
  14   1.0000      -0.874572       -23.7983
  15   1.0000      -0.802662       -21.8416
  16   1.0000      -0.789379       -21.4801
  17   1.0000      -0.657685       -17.8965
  18   1.0000      -0.655931       -17.8488
  19   1.0000      -0.617630       -16.8066
  20   1.0000      -0.590318       -16.0634
  21   1.0000      -0.564465       -15.3599
  22   1.0000      -0.561779       -15.2868
  23   1.0000      -0.532558       -14.4916
  24   1.0000      -0.508237       -13.8298
  25   1.0000      -0.500195       -13.6110
  26   1.0000      -0.473447       -12.8832
  27   1.0000      -0.469689       -12.7809
  28   1.0000      -0.463901       -12.6234
  29   1.0000      -0.463302       -12.6071
  30   1.0000      -0.461245       -12.5511
  31   1.0000      -0.417392       -11.3578
  32   0.0000       0.023954         0.6518
  33   0.0000       0.026092         0.7100
  34   0.0000       0.030565         0.8317
  35   0.0000       0.032298         0.8789
  36   0.0000       0.036571         0.9951

MULLIKEN ATOMIC CHARGES AND SPIN POPULATIONS
--------------------------------------------
   0 Si:    0.450372    0.995964
   1 C :   -0.648718   -0.052693
   2 C :   -0.439648    0.031361
   3 H :    0.221547    0.002784
   4 H :    0.221607    0.002792
   5 C :   -0.350416    0.007624
   6 H :    0.252531    0.002136
   7 H :    0.252771    0.002150
   8 C :   -0.266740   -0.002724
   9 H :    0.252824   -0.001276
  10 H :    0.253171   -0.001282
  11 C :   -0.492465    0.000914
  12 H :    0.234751   -0.000569
  13 H :    0.234796   -0.000556
  14 C :   -0.904971    0.000054
  15 H :    0.226819    0.000019
  16 H :    0.226797    0.000022
  17 H :    0.222416    0.000028
  18 H :    0.267621    0.000021
  19 H :    0.222399    0.000025
  20 H :   -0.218734    0.006602
  21 H :   -0.218730    0.006603
Sum of atomic charges         :    0.0000000

LOEWDIN ATOMIC CHARGES AND SPIN POPULATIONS
-------------------------------------------
   0 Si:    1.106392    0.540628
   1 C :    0.420451    0.136426
   2 C :    0.423361    0.020910
   3 H :   -0.357676    0.014117
   4 H :   -0.357676    0.014117
   5 C :    0.511856    0.004633
   6 H :   -0.283590    0.006557
   7 H :   -0.283591    0.006557
   8 C :    0.506989    0.001071
   9 H :   -0.265029    0.000383
  10 H :   -0.265027    0.000382
  11 C :    0.504131    0.000333
  12 H :   -0.265212    0.000070
  13 H :   -0.265212    0.000070
  14 C :    0.925118    0.000121
  15 H :   -0.271145    0.000057
  16 H :   -0.271143    0.000057
  17 H :   -0.284391    0.000014
  18 H :   -0.283348    0.000043
  19 H :   -0.284390    0.000014
  20 H :   -0.330433    0.126720
  21 H :   -0.330434    0.126720

  Mayer bond orders larger than 0.100000
B(  0-Si,  1-C ) :   0.9331 B(  0-Si,  2-C ) :  -0.1541 B(  0-Si, 20-H ) :   0.8454
B(  0-Si, 21-H ) :   0.8454 B(  1-C ,  2-C ) :   0.9933 B(  1-C ,  3-H ) :   0.9225
B(  1-C ,  4-H ) :   0.9224 B(  2-C ,  5-C ) :   1.0658 B(  2-C ,  6-H ) :   0.8316
B(  2-C ,  7-H ) :   0.8316 B(  5-C ,  8-C ) :   1.0049 B(  5-C ,  9-H ) :   0.8408
B(  5-C , 10-H ) :   0.8407 B(  8-C , 11-C ) :   0.9666 B(  8-C , 12-H ) :   0.8601
B(  8-C , 13-H ) :   0.8601 B(  8-C , 14-C ) :  -0.1298 B( 11-C , 14-C ) :   1.0458
B( 11-C , 15-H ) :   0.8808 B( 11-C , 16-H ) :   0.8808 B( 11-C , 18-H ) :  -0.1013
B( 14-C , 17-H ) :   0.9571 B( 14-C , 18-H ) :   1.0266 B( 14-C , 19-H ) :   0.9572

MP2 TOTAL ENERGY:     -526.199230992 Eh
FINAL SINGLE POINT ENERGY      -526.199230991768

DIPOLE MOMENT
-------------
                                X             Y             Z
Electronic contribution:     11.59617       0.87807      -0.00001
Nuclear contribution   :    -11.96886      -0.70486       0.00000
                        -----------------------------------------
Total Dipole Moment    :     -0.37269       0.17320      -0.00000
                        -----------------------------------------
Magnitude (a.u.)       :      0.41097
Magnitude (Debye)      :      1.04460

Rotational constants in cm-1:     0.353091     0.017860     0.017430
Rotational constants in MHz : 10585.390218   535.443161   522.534646

                             ****ORCA TERMINATED NORMALLY****
TOTAL RUN TIME: 0 days 6 hours 53 minutes 34 seconds 880 msec
