                         Program Version 5.0.4 -  RELEASE  -
|  1> ! ri-mp2 aug-cc-pvdz aug-cc-pvdz/c tightscf
|  2> %pal nprocs 16 end
|  3> %maxcore 3800
|  4> %base "DZ_Si-Si_135_AB"
|  5>
|  6> *xyz 0 1
|  7> Si        -2.503534    0.001068   -0.555538
|  8> Si        -0.766805   -0.572546    0.896298
|  9> C         0.845344    0.088443    0.157801
| 10> H        -0.671255   -2.046992    1.040156
| 11> H        -0.929768    0.027346    2.234501
| 12> S         1.039729    1.697800    0.059615
| 13> S         2.051988   -0.991402   -0.451341
| 14> H        -3.764000   -0.622530   -0.093355
| 15> H        -2.183939   -0.507981   -1.907424
| 16> H        -2.666714    1.467384   -0.603958
| 17> H         1.460888   -2.149558   -0.119763
| 18> *
| 19>
| 20> $new_job
| 21> ! ri-mp2 aug-cc-pvtz aug-cc-pvtz/c tightscf
| 22> %pal nprocs 16 end
| 23> %maxcore 3800
| 24> %base "TZ_Si-Si_135_AB"
| 25>
| 26> *xyz 0 1
| 27> Si        -2.503534    0.001068   -0.555538
| 28> Si        -0.766805   -0.572546    0.896298
| 29> C         0.845344    0.088443    0.157801
| 30> H        -0.671255   -2.046992    1.040156
| 31> H        -0.929768    0.027346    2.234501
| 32> S         1.039729    1.697800    0.059615
| 33> S         2.051988   -0.991402   -0.451341
| 34> H        -3.764000   -0.622530   -0.093355
| 35> H        -2.183939   -0.507981   -1.907424
| 36> H        -2.666714    1.467384   -0.603958
| 37> H         1.460888   -2.149558   -0.119763
| 38> *
| 39>
| 40> $new_job
| 41> ! ri-mp2 aug-cc-pvqz aug-cc-pvqz/c tightscf
| 42> %pal nprocs 16 end
| 43> %maxcore 3800
| 44> %base "QZ_Si-Si_135_AB"
| 45>
| 46> *xyz 0 1
| 47> Si        -2.503534    0.001068   -0.555538
| 48> Si        -0.766805   -0.572546    0.896298
| 49> C         0.845344    0.088443    0.157801
| 50> H        -0.671255   -2.046992    1.040156
| 51> H        -0.929768    0.027346    2.234501
| 52> S         1.039729    1.697800    0.059615
| 53> S         2.051988   -0.991402   -0.451341
| 54> H        -3.764000   -0.622530   -0.093355
| 55> H        -2.183939   -0.507981   -1.907424
| 56> H        -2.666714    1.467384   -0.603958
| 57> H         1.460888   -2.149558   -0.119763
| 58> *
| 59>
| 60>
| 61>
| 62>
| 63>                          ****END OF INPUT****
 Total Charge           Charge          ....    0
 Multiplicity           Mult            ....    1
 Number of Electrons    NEL             ....   72
MP2 TOTAL ENERGY:    -1414.903422445 Eh
FINAL SINGLE POINT ENERGY     -1414.903422445095
MP2 TOTAL ENERGY:    -1415.109525342 Eh
FINAL SINGLE POINT ENERGY     -1415.109525341856

CARTESIAN COORDINATES (ANGSTROEM)
---------------------------------
  Si    -2.503534    0.001068   -0.555538
  Si    -0.766805   -0.572546    0.896298
  C      0.845344    0.088443    0.157801
  H     -0.671255   -2.046992    1.040156
  H     -0.929768    0.027346    2.234501
  S      1.039729    1.697800    0.059615
  S      2.051988   -0.991402   -0.451341
  H     -3.764000   -0.622530   -0.093355
  H     -2.183939   -0.507981   -1.907424
  H     -2.666714    1.467384   -0.603958
  H      1.460888   -2.149558   -0.119763

 Multiplicity           Mult            ....    1
 Number of Electrons    NEL             ....   72
 Basis Dimension        Dim             ....  692

ORBITAL ENERGIES
----------------

  NO   OCC          E(Eh)            E(eV)
   0   2.0000     -91.998805     -2503.4148
   1   2.0000     -91.942800     -2501.8908
   2   2.0000     -68.792394     -1871.9362
   3   2.0000     -68.777494     -1871.5308
   4   2.0000     -11.337826      -308.5179
   5   2.0000      -9.001375      -244.9399
   6   2.0000      -8.946530      -243.4475
   7   2.0000      -6.682599      -181.8428
   8   2.0000      -6.681685      -181.8179
   9   2.0000      -6.681010      -181.7995
  10   2.0000      -6.627612      -180.3465
  11   2.0000      -6.626884      -180.3267
  12   2.0000      -6.625498      -180.2890
  13   2.0000      -6.142658      -167.1502
  14   2.0000      -6.128395      -166.7621
  15   2.0000      -4.248760      -115.6146
  16   2.0000      -4.248648      -115.6116
  17   2.0000      -4.248448      -115.6061
  18   2.0000      -4.234577      -115.2287
  19   2.0000      -4.234435      -115.2248
  20   2.0000      -4.234332      -115.2220
  21   2.0000      -1.114291       -30.3214
  22   2.0000      -0.978082       -26.6150
  23   2.0000      -0.795081       -21.6353
  24   2.0000      -0.729351       -19.8467
  25   2.0000      -0.682387       -18.5687
  26   2.0000      -0.593200       -16.1418
  27   2.0000      -0.546877       -14.8813
  28   2.0000      -0.511340       -13.9143
  29   2.0000      -0.506983       -13.7957
  30   2.0000      -0.490286       -13.3414
  31   2.0000      -0.486031       -13.2256
  32   2.0000      -0.470340       -12.7986
  33   2.0000      -0.414272       -11.2729
  34   2.0000      -0.356954        -9.7132
  35   2.0000      -0.339711        -9.2440
  36   0.0000       0.021457         0.5839
  37   0.0000       0.026609         0.7241
  38   0.0000       0.028316         0.7705
  39   0.0000       0.036486         0.9928
  40   0.0000       0.040138         1.0922

MULLIKEN ATOMIC CHARGES
-----------------------
   0 Si:    0.327684
   1 Si:    0.915117
   2 C :   -0.565817
   3 H :   -0.256290
   4 H :   -0.190064
   5 S :   -0.013393
   6 S :    0.124875
   7 H :   -0.151339
   8 H :   -0.127463
   9 H :   -0.104105
  10 H :    0.040794
Sum of atomic charges:   -0.0000000

LOEWDIN ATOMIC CHARGES
----------------------
   0 Si:    1.016388
   1 Si:    0.364968
   2 C :   -1.472259
   3 H :   -0.278474
   4 H :   -0.270894
   5 S :    0.937311
   6 S :    1.447113
   7 H :   -0.317159
   8 H :   -0.307723
   9 H :   -0.309188
  10 H :   -0.810083

  Mayer bond orders larger than 0.100000
B(  0-Si,  1-Si) :   0.7145 B(  0-Si,  7-H ) :   0.7764 B(  0-Si,  8-H ) :   0.7468
B(  0-Si,  9-H ) :   0.7707 B(  1-Si,  2-C ) :   0.6647 B(  1-Si,  3-H ) :   0.8357
B(  1-Si,  4-H ) :   0.8243 B(  2-C ,  5-S ) :   1.6017 B(  2-C ,  6-S ) :   1.0119
B(  6-S , 10-H ) :   1.0302

MP2 TOTAL ENERGY:    -1415.178497057 Eh
FINAL SINGLE POINT ENERGY     -1415.178497056806

DIPOLE MOMENT
-------------
                                X             Y             Z
Electronic contribution:      7.99182       2.67788      -0.37331
Nuclear contribution   :     -8.45594      -3.73303       0.52931
                        -----------------------------------------
Total Dipole Moment    :     -0.46412      -1.05516       0.15599
                        -----------------------------------------
Magnitude (a.u.)       :      1.16322
Magnitude (Debye)      :      2.95668

Rotational constants in cm-1:     0.087284     0.037601     0.030939
Rotational constants in MHz :  2616.702832  1127.264487   927.533227

                             ****ORCA TERMINATED NORMALLY****
TOTAL RUN TIME: 0 days 0 hours 7 minutes 28 seconds 411 msec
