                         Program Version 5.0.4 -  RELEASE  -
|  1> ! ri-mp2 aug-cc-pvdz aug-cc-pvdz/c tightscf
|  2> %pal nprocs 16 end
|  3> %maxcore 3800
|  4> %base "DZ_S-S_27_A"
|  5> %scf
|  6> STABPerform true
|  7> STABRestartUHFifUnstable true
|  8> end
|  9>
| 10> *xyz 0 2
| 11> S        -1.865649   -0.000002    0.000000
| 12> S         0.237985    0.000002    0.000000
| 13> F         0.305386    0.000347   -1.588375
| 14> F         0.235727    1.590897    0.000347
| 15> F         1.811395    0.000000    0.000000
| 16> F         0.305385   -0.000350    1.588376
| 17> F         0.235732   -1.590894   -0.000348
| 18> *
| 19>
| 20> $new_job
| 21> ! ri-mp2 aug-cc-pvtz aug-cc-pvtz/c tightscf
| 22> %pal nprocs 16 end
| 23> %maxcore 3800
| 24> %base "TZ_S-S_27_A"
| 25>
| 26> *xyz 0 2
| 27> S        -1.865649   -0.000002    0.000000
| 28> S         0.237985    0.000002    0.000000
| 29> F         0.305386    0.000347   -1.588375
| 30> F         0.235727    1.590897    0.000347
| 31> F         1.811395    0.000000    0.000000
| 32> F         0.305385   -0.000350    1.588376
| 33> F         0.235732   -1.590894   -0.000348
| 34> *
| 35>
| 36> $new_job
| 37> ! ri-mp2 aug-cc-pvqz aug-cc-pvqz/c tightscf
| 38> %pal nprocs 16 end
| 39> %maxcore 3800
| 40> %base "QZ_S-S_27_A"
| 41>
| 42> *xyz 0 2
| 43> S        -1.865649   -0.000002    0.000000
| 44> S         0.237985    0.000002    0.000000
| 45> F         0.305386    0.000347   -1.588375
| 46> F         0.235727    1.590897    0.000347
| 47> F         1.811395    0.000000    0.000000
| 48> F         0.305385   -0.000350    1.588376
| 49> F         0.235732   -1.590894   -0.000348
| 50> *
| 51>
| 52>
| 53>
| 54>
| 55>                          ****END OF INPUT****
 Total Charge           Charge          ....    0
 Multiplicity           Mult            ....    2
 Number of Electrons    NEL             ....   77
MP2 TOTAL ENERGY:    -1293.454134115 Eh
FINAL SINGLE POINT ENERGY     -1293.454134114691
MP2 TOTAL ENERGY:    -1294.005343476 Eh
FINAL SINGLE POINT ENERGY     -1294.005343475629

CARTESIAN COORDINATES (ANGSTROEM)
---------------------------------
  S     -1.865649   -0.000002    0.000000
  S      0.237985    0.000002    0.000000
  F      0.305386    0.000347   -1.588375
  F      0.235727    1.590897    0.000347
  F      1.811395    0.000000    0.000000
  F      0.305385   -0.000350    1.588376
  F      0.235732   -1.590894   -0.000348

 Multiplicity           Mult            ....    2
 Number of Electrons    NEL             ....   77
 Basis Dimension        Dim             ....  568

ORBITAL ENERGIES
----------------
                 SPIN UP ORBITALS
  NO   OCC          E(Eh)            E(eV)
   0   1.0000     -92.398059     -2514.2790
   1   1.0000     -92.043443     -2504.6294
   2   1.0000     -26.363829      -717.3962
   3   1.0000     -26.363826      -717.3962
   4   1.0000     -26.361475      -717.3322
   5   1.0000     -26.354478      -717.1418
   6   1.0000     -26.354476      -717.1418
   7   1.0000      -9.335074      -254.0203
   8   1.0000      -9.044824      -246.1222
   9   1.0000      -7.023692      -191.1244
  10   1.0000      -7.023358      -191.1153
  11   1.0000      -7.020859      -191.0473
  12   1.0000      -6.740545      -183.4195
  13   1.0000      -6.721950      -182.9136
  14   1.0000      -6.719595      -182.8495
  15   1.0000      -1.783418       -48.5293
  16   1.0000      -1.683544       -45.8116
  17   1.0000      -1.674871       -45.5756
  18   1.0000      -1.654029       -45.0084
  19   1.0000      -1.630675       -44.3729
  20   1.0000      -1.123578       -30.5741
  21   1.0000      -1.005551       -27.3624
  22   1.0000      -0.887477       -24.1495
  23   1.0000      -0.882380       -24.0108
  24   1.0000      -0.837186       -22.7810
  25   1.0000      -0.802303       -21.8318
  26   1.0000      -0.786226       -21.3943
  27   1.0000      -0.782535       -21.2939
  28   1.0000      -0.712704       -19.3937
  29   1.0000      -0.712412       -19.3857
  30   1.0000      -0.703459       -19.1421
  31   1.0000      -0.698416       -19.0049
  32   1.0000      -0.697408       -18.9774
  33   1.0000      -0.681364       -18.5408
  34   1.0000      -0.670754       -18.2521
  35   1.0000      -0.661975       -18.0133
  36   1.0000      -0.543473       -14.7886
  37   1.0000      -0.511574       -13.9206
  38   1.0000      -0.445211       -12.1148
  39   0.0000       0.030689         0.8351
  40   0.0000       0.055442         1.5086
  41   0.0000       0.066584         1.8118
  42   0.0000       0.069301         1.8858
  43   0.0000       0.077345         2.1047

                 SPIN DOWN ORBITALS
  NO   OCC          E(Eh)            E(eV)
   0   1.0000     -92.398426     -2514.2890
   1   1.0000     -92.033880     -2504.3692
   2   1.0000     -26.362891      -717.3707
   3   1.0000     -26.362887      -717.3706
   4   1.0000     -26.361449      -717.3315
   5   1.0000     -26.354784      -717.1501
   6   1.0000     -26.354782      -717.1501
   7   1.0000      -9.335624      -254.0352
   8   1.0000      -9.034340      -245.8369
   9   1.0000      -7.023985      -191.1323
  10   1.0000      -7.023512      -191.1195
  11   1.0000      -7.021950      -191.0770
  12   1.0000      -6.716332      -182.7607
  13   1.0000      -6.714259      -182.7043
  14   1.0000      -6.697411      -182.2458
  15   1.0000      -1.783033       -48.5188
  16   1.0000      -1.681191       -45.7475
  17   1.0000      -1.675775       -45.6002
  18   1.0000      -1.653328       -44.9893
  19   1.0000      -1.630282       -44.3622
  20   1.0000      -1.104797       -30.0631
  21   1.0000      -0.955378       -25.9972
  22   1.0000      -0.887030       -24.1373
  23   1.0000      -0.883191       -24.0329
  24   1.0000      -0.802340       -21.8328
  25   1.0000      -0.801874       -21.8201
  26   1.0000      -0.782991       -21.3063
  27   1.0000      -0.778246       -21.1772
  28   1.0000      -0.713757       -19.4223
  29   1.0000      -0.707498       -19.2520
  30   1.0000      -0.703223       -19.1357
  31   1.0000      -0.698053       -18.9950
  32   1.0000      -0.696107       -18.9420
  33   1.0000      -0.677552       -18.4371
  34   1.0000      -0.670721       -18.2513
  35   1.0000      -0.661458       -17.9992
  36   1.0000      -0.531485       -14.4625
  37   1.0000      -0.425227       -11.5710
  38   0.0000      -0.029572        -0.8047
  39   0.0000       0.035234         0.9588
  40   0.0000       0.056997         1.5510
  41   0.0000       0.069511         1.8915
  42   0.0000       0.071980         1.9587

MULLIKEN ATOMIC CHARGES AND SPIN POPULATIONS
--------------------------------------------
   0 S :    0.370018    1.099957
   1 S :    2.609056   -0.088835
   2 F :   -0.589987   -0.004508
   3 F :   -0.595586   -0.000869
   4 F :   -0.607929   -0.000368
   5 F :   -0.589986   -0.004508
   6 F :   -0.595587   -0.000869
Sum of atomic charges         :    0.0000000

LOEWDIN ATOMIC CHARGES AND SPIN POPULATIONS
-------------------------------------------
   0 S :    0.694083    0.810025
   1 S :   -2.571705    0.148524
   2 F :    0.361521   -0.003015
   3 F :    0.369063    0.023336
   4 F :    0.416457    0.000807
   5 F :    0.361521   -0.003015
   6 F :    0.369061    0.023336

  Mayer bond orders larger than 0.100000
B(  0-S ,  1-S ) :   0.7763 B(  1-S ,  2-F ) :   0.5388 B(  1-S ,  3-F ) :   0.5416
B(  1-S ,  4-F ) :   0.5615 B(  1-S ,  5-F ) :   0.5388 B(  1-S ,  6-F ) :   0.5416

MP2 TOTAL ENERGY:    -1294.188284420 Eh
FINAL SINGLE POINT ENERGY     -1294.188284420441

DIPOLE MOMENT
-------------
                                X             Y             Z
Electronic contribution:      1.88321       0.00001      -0.00000
Nuclear contribution   :     -2.55167       0.00000       0.00000
                        -----------------------------------------
Total Dipole Moment    :     -0.66846       0.00001      -0.00000
                        -----------------------------------------
Magnitude (a.u.)       :      0.66846
Magnitude (Debye)      :      1.69908

Rotational constants in cm-1:     0.087788     0.060812     0.060746
Rotational constants in MHz :  2631.808770  1823.105075  1821.105235

                             ****ORCA TERMINATED NORMALLY****
TOTAL RUN TIME: 0 days 0 hours 24 minutes 20 seconds 382 msec
