                         Program Version 5.0.4 -  RELEASE  -
|  1> ! ri-mp2 aug-cc-pvdz aug-cc-pvdz/c tightscf
|  2> %pal nprocs 16 end
|  3> %maxcore 3800
|  4> %base "DZ_P-Si_22_AB"
|  5>
|  6> *xyz 0 1
|  7> C         0.602825   -0.444707    0.359416
|  8> P        -2.713173    0.002106   -0.445746
|  9> C        -2.065345    1.739689   -0.494128
| 10> H        -1.000662    1.802913   -0.709487
| 11> H        -2.256126    2.209822    0.470491
| 12> H        -2.614819    2.301807   -1.247812
| 13> C         1.221852   -0.960163   -0.778899
| 14> C         2.484060   -0.540156   -1.157967
| 15> C         3.152630    0.411273   -0.404060
| 16> C         2.554695    0.936220    0.728204
| 17> C         1.291441    0.509834    1.104658
| 18> H         0.838277    0.925764    1.996536
| 19> H         0.712517   -1.704466   -1.380192
| 20> H         2.949175   -0.955662   -2.042310
| 21> H         4.140052    0.741104   -0.699100
| 22> H         3.073548    1.677679    1.321566
| 23> Si        -1.127946   -0.962988    0.826601
| 24> H        -2.152202   -0.461266   -1.660817
| 25> H        -1.368447   -0.570817    2.234612
| 26> H        -1.285418   -2.428578    0.686939
| 27> *
| 28>
| 29> $new_job
| 30> ! ri-mp2 aug-cc-pvtz aug-cc-pvtz/c tightscf
| 31> %pal nprocs 16 end
| 32> %maxcore 3800
| 33> %base "TZ_P-Si_22_AB"
| 34>
| 35> *xyz 0 1
| 36> C         0.602825   -0.444707    0.359416
| 37> P        -2.713173    0.002106   -0.445746
| 38> C        -2.065345    1.739689   -0.494128
| 39> H        -1.000662    1.802913   -0.709487
| 40> H        -2.256126    2.209822    0.470491
| 41> H        -2.614819    2.301807   -1.247812
| 42> C         1.221852   -0.960163   -0.778899
| 43> C         2.484060   -0.540156   -1.157967
| 44> C         3.152630    0.411273   -0.404060
| 45> C         2.554695    0.936220    0.728204
| 46> C         1.291441    0.509834    1.104658
| 47> H         0.838277    0.925764    1.996536
| 48> H         0.712517   -1.704466   -1.380192
| 49> H         2.949175   -0.955662   -2.042310
| 50> H         4.140052    0.741104   -0.699100
| 51> H         3.073548    1.677679    1.321566
| 52> Si        -1.127946   -0.962988    0.826601
| 53> H        -2.152202   -0.461266   -1.660817
| 54> H        -1.368447   -0.570817    2.234612
| 55> H        -1.285418   -2.428578    0.686939
| 56> *
| 57>
| 58> $new_job
| 59> ! ri-mp2 aug-cc-pvqz aug-cc-pvqz/c tightscf
| 60> %pal nprocs 16 end
| 61> %maxcore 3800
| 62> %base "QZ_P-Si_22_AB"
| 63>
| 64> *xyz 0 1
| 65> C         0.602825   -0.444707    0.359416
| 66> P        -2.713173    0.002106   -0.445746
| 67> C        -2.065345    1.739689   -0.494128
| 68> H        -1.000662    1.802913   -0.709487
| 69> H        -2.256126    2.209822    0.470491
| 70> H        -2.614819    2.301807   -1.247812
| 71> C         1.221852   -0.960163   -0.778899
| 72> C         2.484060   -0.540156   -1.157967
| 73> C         3.152630    0.411273   -0.404060
| 74> C         2.554695    0.936220    0.728204
| 75> C         1.291441    0.509834    1.104658
| 76> H         0.838277    0.925764    1.996536
| 77> H         0.712517   -1.704466   -1.380192
| 78> H         2.949175   -0.955662   -2.042310
| 79> H         4.140052    0.741104   -0.699100
| 80> H         3.073548    1.677679    1.321566
| 81> Si        -1.127946   -0.962988    0.826601
| 82> H        -2.152202   -0.461266   -1.660817
| 83> H        -1.368447   -0.570817    2.234612
| 84> H        -1.285418   -2.428578    0.686939
| 85> *
| 86>
| 87>
| 88>
| 89>
| 90>                          ****END OF INPUT****
 Total Charge           Charge          ....    0
 Multiplicity           Mult            ....    1
 Number of Electrons    NEL             ....   82
MP2 TOTAL ENERGY:     -902.387233384 Eh
FINAL SINGLE POINT ENERGY      -902.387233383768
MP2 TOTAL ENERGY:     -902.711194431 Eh
FINAL SINGLE POINT ENERGY      -902.711194431256

CARTESIAN COORDINATES (ANGSTROEM)
---------------------------------
  C      0.602825   -0.444707    0.359416
  P     -2.713173    0.002106   -0.445746
  C     -2.065345    1.739689   -0.494128
  H     -1.000662    1.802913   -0.709487
  H     -2.256126    2.209822    0.470491
  H     -2.614819    2.301807   -1.247812
  C      1.221852   -0.960163   -0.778899
  C      2.484060   -0.540156   -1.157967
  C      3.152630    0.411273   -0.404060
  C      2.554695    0.936220    0.728204
  C      1.291441    0.509834    1.104658
  H      0.838277    0.925764    1.996536
  H      0.712517   -1.704466   -1.380192
  H      2.949175   -0.955662   -2.042310
  H      4.140052    0.741104   -0.699100
  H      3.073548    1.677679    1.321566
  Si    -1.127946   -0.962988    0.826601
  H     -2.152202   -0.461266   -1.660817
  H     -1.368447   -0.570817    2.234612
  H     -1.285418   -2.428578    0.686939

 Multiplicity           Mult            ....    1
 Number of Electrons    NEL             ....   82
 Basis Dimension        Dim             .... 1234

ORBITAL ENERGIES
----------------

  NO   OCC          E(Eh)            E(eV)
   0   2.0000     -79.922658     -2174.8061
   1   2.0000     -68.770115     -1871.3300
   2   2.0000     -11.241200      -305.8886
   3   2.0000     -11.241014      -305.8835
   4   2.0000     -11.240578      -305.8717
   5   2.0000     -11.236995      -305.7742
   6   2.0000     -11.236703      -305.7662
   7   2.0000     -11.225965      -305.4740
   8   2.0000     -11.225166      -305.4523
   9   2.0000      -7.466613      -203.1769
  10   2.0000      -6.119737      -166.5265
  11   2.0000      -5.360634      -145.8703
  12   2.0000      -5.360352      -145.8626
  13   2.0000      -5.359592      -145.8419
  14   2.0000      -4.226061      -114.9970
  15   2.0000      -4.225971      -114.9945
  16   2.0000      -4.225526      -114.9824
  17   2.0000      -1.160395       -31.5760
  18   2.0000      -1.023566       -27.8526
  19   2.0000      -1.022439       -27.8220
  20   2.0000      -0.977285       -26.5933
  21   2.0000      -0.834350       -22.7038
  22   2.0000      -0.832019       -22.6404
  23   2.0000      -0.792522       -21.5656
  24   2.0000      -0.721207       -19.6251
  25   2.0000      -0.669907       -18.2291
  26   2.0000      -0.632322       -17.2063
  27   2.0000      -0.629685       -17.1346
  28   2.0000      -0.594137       -16.1673
  29   2.0000      -0.579403       -15.7664
  30   2.0000      -0.574444       -15.6314
  31   2.0000      -0.553792       -15.0695
  32   2.0000      -0.513351       -13.9690
  33   2.0000      -0.501210       -13.6386
  34   2.0000      -0.497183       -13.5290
  35   2.0000      -0.467970       -12.7341
  36   2.0000      -0.456789       -12.4299
  37   2.0000      -0.424623       -11.5546
  38   2.0000      -0.359386        -9.7794
  39   2.0000      -0.345316        -9.3965
  40   2.0000      -0.327426        -8.9097
  41   0.0000       0.020672         0.5625
  42   0.0000       0.027497         0.7482
  43   0.0000       0.029598         0.8054
  44   0.0000       0.033735         0.9180
  45   0.0000       0.041000         1.1157

MULLIKEN ATOMIC CHARGES
-----------------------
   0 C :    0.042171
   1 P :    0.135667
   2 C :   -1.123296
   3 H :    0.349666
   4 H :    0.251322
   5 H :    0.370963
   6 C :   -0.446577
   7 C :   -0.282953
   8 C :   -0.385830
   9 C :   -0.288963
  10 C :   -0.442907
  11 H :    0.302252
  12 H :    0.330904
  13 H :    0.251352
  14 H :    0.357803
  15 H :    0.245013
  16 Si:    1.188979
  17 H :   -0.092877
  18 H :   -0.377863
  19 H :   -0.384823
Sum of atomic charges:   -0.0000000

LOEWDIN ATOMIC CHARGES
----------------------
   0 C :   -0.145631
   1 P :    1.166504
   2 C :    0.671269
   3 H :   -0.371620
   4 H :   -0.370060
   5 H :   -0.369023
   6 C :    0.245765
   7 C :    0.340349
   8 C :    0.336322
   9 C :    0.340078
  10 C :    0.243742
  11 H :   -0.339484
  12 H :   -0.333222
  13 H :   -0.319013
  14 H :   -0.318714
  15 H :   -0.319087
  16 Si:    0.528121
  17 H :   -0.495764
  18 H :   -0.242834
  19 H :   -0.247698

  Mayer bond orders larger than 0.100000
B(  0-C ,  6-C ) :   1.0913 B(  0-C ,  7-C ) :  -0.2706 B(  0-C ,  9-C ) :  -0.3191
B(  0-C , 10-C ) :   0.9122 B(  0-C , 11-H ) :  -0.1150 B(  0-C , 12-H ) :  -0.1338
B(  0-C , 16-Si) :   1.0211 B(  0-C , 18-H ) :  -0.1411 B(  1-P ,  2-C ) :   0.8867
B(  1-P , 16-Si) :   0.8160 B(  1-P , 17-H ) :   0.9444 B(  2-C ,  3-H ) :   0.8323
B(  2-C ,  4-H ) :   0.9241 B(  2-C ,  5-H ) :   0.8861 B(  6-C ,  7-C ) :   1.2981
B(  6-C ,  8-C ) :   0.1065 B(  6-C ,  9-C ) :   0.1487 B(  6-C , 12-H ) :   0.9090
B(  6-C , 13-H ) :  -0.1401 B(  6-C , 16-Si) :  -0.1673 B(  7-C ,  8-C ) :   1.1345
B(  7-C , 10-C ) :   0.1531 B(  7-C , 13-H ) :   1.1123 B(  8-C ,  9-C ) :   1.1504
B(  8-C , 10-C ) :   0.1509 B(  8-C , 14-H ) :   0.9717 B(  9-C , 10-C ) :   1.3312
B(  9-C , 15-H ) :   1.1324 B( 10-C , 11-H ) :   0.9466 B( 10-C , 15-H ) :  -0.1532
B( 10-C , 16-Si) :  -0.1563 B( 16-Si, 18-H ) :   0.6361 B( 16-Si, 19-H ) :   0.5687

MP2 TOTAL ENERGY:     -902.813061224 Eh
FINAL SINGLE POINT ENERGY      -902.813061224193

DIPOLE MOMENT
-------------
                                X             Y             Z
Electronic contribution:     -2.96197      -3.19248       0.48321
Nuclear contribution   :      3.68299       3.58956      -0.65429
                        -----------------------------------------
Total Dipole Moment    :      0.72102       0.39708      -0.17108
                        -----------------------------------------
Magnitude (a.u.)       :      0.84072
Magnitude (Debye)      :      2.13695

Rotational constants in cm-1:     0.075852     0.021446     0.020799
Rotational constants in MHz :  2273.995709   642.920872   623.531202

                             ****ORCA TERMINATED NORMALLY****
TOTAL RUN TIME: 0 days 0 hours 57 minutes 7 seconds 252 msec
