                         Program Version 5.0.4 -  RELEASE  -
|  1> ! ri-mp2 aug-cc-pvdz aug-cc-pvdz/c tightscf
|  2> %pal nprocs 16 end
|  3> %maxcore 3800
|  4> %base "DZ_P-N_36_AB"
|  5> %scf
|  6> STABPerform true
|  7> STABRestartUHFifUnstable true
|  8> end
|  9>
| 10> *xyz 0 1
| 11> N        -1.756913    0.924346   -0.590784
| 12> C         0.347855   -0.540027    0.406757
| 13> C         1.138873    0.729380    0.798973
| 14> C         1.221092   -0.640081   -0.864648
| 15> C         2.239512    0.301502   -0.191981
| 16> H         0.732260   -0.159482   -1.712320
| 17> H         1.558709   -1.630578   -1.164165
| 18> H         2.689553    1.077858   -0.808687
| 19> H         3.033572   -0.254296    0.306311
| 20> H         1.408222    0.844734    1.847657
| 21> H         0.638528    1.637176    0.461459
| 22> P        -1.473185   -0.550419    0.201292
| 23> H         0.580873   -1.358238    1.093416
| 24> H        -1.769075   -0.220708    1.552977
| 25> H        -1.630624    1.806564   -0.122310
| 26> H        -2.529843    0.938187   -1.232835
| 27> *
| 28>
| 29> $new_job
| 30> ! ri-mp2 aug-cc-pvtz aug-cc-pvtz/c tightscf
| 31> %pal nprocs 16 end
| 32> %maxcore 3800
| 33> %base "TZ_P-N_36_AB"
| 34>
| 35> *xyz 0 1
| 36> N        -1.756913    0.924346   -0.590784
| 37> C         0.347855   -0.540027    0.406757
| 38> C         1.138873    0.729380    0.798973
| 39> C         1.221092   -0.640081   -0.864648
| 40> C         2.239512    0.301502   -0.191981
| 41> H         0.732260   -0.159482   -1.712320
| 42> H         1.558709   -1.630578   -1.164165
| 43> H         2.689553    1.077858   -0.808687
| 44> H         3.033572   -0.254296    0.306311
| 45> H         1.408222    0.844734    1.847657
| 46> H         0.638528    1.637176    0.461459
| 47> P        -1.473185   -0.550419    0.201292
| 48> H         0.580873   -1.358238    1.093416
| 49> H        -1.769075   -0.220708    1.552977
| 50> H        -1.630624    1.806564   -0.122310
| 51> H        -2.529843    0.938187   -1.232835
| 52> *
| 53>
| 54> $new_job
| 55> ! ri-mp2 aug-cc-pvqz aug-cc-pvqz/c tightscf
| 56> %pal nprocs 16 end
| 57> %maxcore 3800
| 58> %base "QZ_P-N_36_AB"
| 59>
| 60> *xyz 0 1
| 61> N        -1.756913    0.924346   -0.590784
| 62> C         0.347855   -0.540027    0.406757
| 63> C         1.138873    0.729380    0.798973
| 64> C         1.221092   -0.640081   -0.864648
| 65> C         2.239512    0.301502   -0.191981
| 66> H         0.732260   -0.159482   -1.712320
| 67> H         1.558709   -1.630578   -1.164165
| 68> H         2.689553    1.077858   -0.808687
| 69> H         3.033572   -0.254296    0.306311
| 70> H         1.408222    0.844734    1.847657
| 71> H         0.638528    1.637176    0.461459
| 72> P        -1.473185   -0.550419    0.201292
| 73> H         0.580873   -1.358238    1.093416
| 74> H        -1.769075   -0.220708    1.552977
| 75> H        -1.630624    1.806564   -0.122310
| 76> H        -2.529843    0.938187   -1.232835
| 77> *
| 78>
| 79>
| 80>
| 81>
| 82>                          ****END OF INPUT****
 Total Charge           Charge          ....    0
 Multiplicity           Mult            ....    1
 Number of Electrons    NEL             ....   56
MP2 TOTAL ENERGY:     -553.372335264 Eh
FINAL SINGLE POINT ENERGY      -553.372335264267
MP2 TOTAL ENERGY:     -553.618737811 Eh
FINAL SINGLE POINT ENERGY      -553.618737811356

CARTESIAN COORDINATES (ANGSTROEM)
---------------------------------
  N     -1.756913    0.924346   -0.590784
  C      0.347855   -0.540027    0.406757
  C      1.138873    0.729380    0.798973
  C      1.221092   -0.640081   -0.864648
  C      2.239512    0.301502   -0.191981
  H      0.732260   -0.159482   -1.712320
  H      1.558709   -1.630578   -1.164165
  H      2.689553    1.077858   -0.808687
  H      3.033572   -0.254296    0.306311
  H      1.408222    0.844734    1.847657
  H      0.638528    1.637176    0.461459
  P     -1.473185   -0.550419    0.201292
  H      0.580873   -1.358238    1.093416
  H     -1.769075   -0.220708    1.552977
  H     -1.630624    1.806564   -0.122310
  H     -2.529843    0.938187   -1.232835

 Multiplicity           Mult            ....    1
 Number of Electrons    NEL             ....   56
 Basis Dimension        Dim             ....  944

ORBITAL ENERGIES
----------------

  NO   OCC          E(Eh)            E(eV)
   0   2.0000     -79.942435     -2175.3443
   1   2.0000     -15.544888      -422.9979
   2   2.0000     -11.221126      -305.3424
   3   2.0000     -11.218924      -305.2824
   4   2.0000     -11.215964      -305.2019
   5   2.0000     -11.214952      -305.1743
   6   2.0000      -7.481235      -203.5748
   7   2.0000      -5.375661      -146.2792
   8   2.0000      -5.375103      -146.2640
   9   2.0000      -5.374461      -146.2465
  10   2.0000      -1.161740       -31.6126
  11   2.0000      -1.126017       -30.6405
  12   2.0000      -0.915811       -24.9205
  13   2.0000      -0.897671       -24.4269
  14   2.0000      -0.794824       -21.6283
  15   2.0000      -0.735882       -20.0244
  16   2.0000      -0.672480       -18.2991
  17   2.0000      -0.652245       -17.7485
  18   2.0000      -0.619542       -16.8586
  19   2.0000      -0.573208       -15.5978
  20   2.0000      -0.539445       -14.6790
  21   2.0000      -0.525008       -14.2862
  22   2.0000      -0.500773       -13.6267
  23   2.0000      -0.450629       -12.2622
  24   2.0000      -0.447649       -12.1812
  25   2.0000      -0.438854       -11.9418
  26   2.0000      -0.391751       -10.6601
  27   2.0000      -0.339268        -9.2319
  28   0.0000       0.024641         0.6705
  29   0.0000       0.030552         0.8314
  30   0.0000       0.033918         0.9230
  31   0.0000       0.035593         0.9685
  32   0.0000       0.046642         1.2692

MULLIKEN ATOMIC CHARGES
-----------------------
   0 N :   -0.918177
   1 C :   -0.188037
   2 C :   -0.681429
   3 C :   -0.592800
   4 C :   -0.574113
   5 H :    0.264483
   6 H :    0.334644
   7 H :    0.298207
   8 H :    0.236165
   9 H :    0.373863
  10 H :    0.269198
  11 P :    0.560068
  12 H :    0.296449
  13 H :   -0.139668
  14 H :    0.268399
  15 H :    0.192749
Sum of atomic charges:    0.0000000

LOEWDIN ATOMIC CHARGES
----------------------
   0 N :    1.019494
   1 C :   -0.064635
   2 C :    0.489077
   3 C :    0.476460
   4 C :    0.542664
   5 H :   -0.290711
   6 H :   -0.253694
   7 H :   -0.254831
   8 H :   -0.270102
   9 H :   -0.251269
  10 H :   -0.306074
  11 P :    1.120981
  12 H :   -0.350238
  13 H :   -0.409920
  14 H :   -0.587469
  15 H :   -0.609733

  Mayer bond orders larger than 0.100000
B(  0-N ,  1-C ) :  -0.1422 B(  0-N , 11-P ) :   0.7894 B(  0-N , 14-H ) :   0.9585
B(  0-N , 15-H ) :   1.0590 B(  1-C ,  2-C ) :   0.9276 B(  1-C ,  3-C ) :   0.9012
B(  1-C ,  4-C ) :  -0.1824 B(  1-C , 11-P ) :   0.6335 B(  1-C , 12-H ) :   0.9046
B(  2-C ,  4-C ) :   1.0995 B(  2-C ,  9-H ) :   0.8104 B(  2-C , 10-H ) :   0.8934
B(  3-C ,  4-C ) :   1.0777 B(  3-C ,  5-H ) :   0.8940 B(  3-C ,  6-H ) :   0.8497
B(  4-C ,  7-H ) :   0.8853 B(  4-C ,  8-H ) :   0.9126 B( 11-P , 13-H ) :   0.9438

MP2 TOTAL ENERGY:     -553.695122274 Eh
FINAL SINGLE POINT ENERGY      -553.695122273798

DIPOLE MOMENT
-------------
                                X             Y             Z
Electronic contribution:     -6.11848      -2.72534       0.12271
Nuclear contribution   :      6.22728       3.27522       0.02686
                        -----------------------------------------
Total Dipole Moment    :      0.10879       0.54988       0.14957
                        -----------------------------------------
Magnitude (a.u.)       :      0.58015
Magnitude (Debye)      :      1.47462

Rotational constants in cm-1:     0.188077     0.060399     0.058030
Rotational constants in MHz :  5638.417599  1810.712220  1739.692920

                             ****ORCA TERMINATED NORMALLY****
TOTAL RUN TIME: 0 days 1 hours 33 minutes 37 seconds 714 msec
