                         Program Version 5.0.4 -  RELEASE  -
|  1> ! ri-mp2 aug-cc-pvdz aug-cc-pvdz/c tightscf
|  2> %pal nprocs 16 end
|  3> %maxcore 3800
|  4> %base "DZ_S-Cl_53_AB"
|  5> %scf
|  6> STABPerform true
|  7> STABRestartUHFifUnstable true
|  8> end
|  9>
| 10> *xyz 0 1
| 11> Cl         2.437038   -0.623247   -0.000009
| 12> S         1.201753    1.007227   -0.000005
| 13> C        -0.412783    0.395043    0.000003
| 14> S        -1.517825    1.597904    0.000004
| 15> S        -0.668996   -1.305018    0.000007
| 16> C        -2.459882   -1.385726    0.000007
| 17> H        -2.703793   -2.446306    0.000006
| 18> H        -2.864388   -0.908095   -0.888304
| 19> H        -2.864387   -0.908097    0.888319
| 20> *
| 21>
| 22> $new_job
| 23> ! ri-mp2 aug-cc-pvtz aug-cc-pvtz/c tightscf
| 24> %pal nprocs 16 end
| 25> %maxcore 3800
| 26> %base "TZ_S-Cl_53_AB"
| 27>
| 28> *xyz 0 1
| 29> Cl         2.437038   -0.623247   -0.000009
| 30> S         1.201753    1.007227   -0.000005
| 31> C        -0.412783    0.395043    0.000003
| 32> S        -1.517825    1.597904    0.000004
| 33> S        -0.668996   -1.305018    0.000007
| 34> C        -2.459882   -1.385726    0.000007
| 35> H        -2.703793   -2.446306    0.000006
| 36> H        -2.864388   -0.908095   -0.888304
| 37> H        -2.864387   -0.908097    0.888319
| 38> *
| 39>
| 40> $new_job
| 41> ! ri-mp2 aug-cc-pvqz aug-cc-pvqz/c tightscf
| 42> %pal nprocs 16 end
| 43> %maxcore 3800
| 44> %base "QZ_S-Cl_53_AB"
| 45>
| 46> *xyz 0 1
| 47> Cl         2.437038   -0.623247   -0.000009
| 48> S         1.201753    1.007227   -0.000005
| 49> C        -0.412783    0.395043    0.000003
| 50> S        -1.517825    1.597904    0.000004
| 51> S        -0.668996   -1.305018    0.000007
| 52> C        -2.459882   -1.385726    0.000007
| 53> H        -2.703793   -2.446306    0.000006
| 54> H        -2.864388   -0.908095   -0.888304
| 55> H        -2.864387   -0.908097    0.888319
| 56> *
| 57>
| 58>
| 59>
| 60>
| 61>                          ****END OF INPUT****
 Total Charge           Charge          ....    0
 Multiplicity           Mult            ....    1
 Number of Electrons    NEL             ....   80
MP2 TOTAL ENERGY:    -1730.426068104 Eh
FINAL SINGLE POINT ENERGY     -1730.426068104445
MP2 TOTAL ENERGY:    -1730.714816101 Eh
FINAL SINGLE POINT ENERGY     -1730.714816101426

CARTESIAN COORDINATES (ANGSTROEM)
---------------------------------
  Cl     2.437038   -0.623247   -0.000009
  S      1.201753    1.007227   -0.000005
  C     -0.412783    0.395043    0.000003
  S     -1.517825    1.597904    0.000004
  S     -0.668996   -1.305018    0.000007
  C     -2.459882   -1.385726    0.000007
  H     -2.703793   -2.446306    0.000006
  H     -2.864388   -0.908095   -0.888304
  H     -2.864387   -0.908097    0.888319

 Multiplicity           Mult            ....    1
 Number of Electrons    NEL             ....   80
 Basis Dimension        Dim             ....  634

ORBITAL ENERGIES
----------------

  NO   OCC          E(Eh)            E(eV)
   0   2.0000    -104.867363     -2853.5860
   1   2.0000     -92.046451     -2504.7113
   2   2.0000     -92.005247     -2503.5901
   3   2.0000     -91.941801     -2501.8636
   4   2.0000     -11.385275      -309.8091
   5   2.0000     -11.275214      -306.8142
   6   2.0000     -10.591796      -288.2174
   7   2.0000      -9.044001      -246.0998
   8   2.0000      -9.007506      -245.1067
   9   2.0000      -8.946071      -243.4350
  10   2.0000      -8.058737      -219.2894
  11   2.0000      -8.056843      -219.2378
  12   2.0000      -8.056628      -219.2320
  13   2.0000      -6.724891      -182.9936
  14   2.0000      -6.723132      -182.9457
  15   2.0000      -6.722032      -182.9158
  16   2.0000      -6.688896      -182.0141
  17   2.0000      -6.687693      -181.9814
  18   2.0000      -6.687141      -181.9664
  19   2.0000      -6.627421      -180.3413
  20   2.0000      -6.626036      -180.3036
  21   2.0000      -6.625199      -180.2808
  22   2.0000      -1.192188       -32.4411
  23   2.0000      -1.126992       -30.6670
  24   2.0000      -1.050388       -28.5825
  25   2.0000      -0.939569       -25.5670
  26   2.0000      -0.916553       -24.9407
  27   2.0000      -0.715123       -19.4595
  28   2.0000      -0.649350       -17.6697
  29   2.0000      -0.619975       -16.8704
  30   2.0000      -0.590883       -16.0787
  31   2.0000      -0.577293       -15.7089
  32   2.0000      -0.552991       -15.0477
  33   2.0000      -0.519382       -14.1331
  34   2.0000      -0.484367       -13.1803
  35   2.0000      -0.483679       -13.1616
  36   2.0000      -0.466559       -12.6957
  37   2.0000      -0.386026       -10.5043
  38   2.0000      -0.355102        -9.6628
  39   2.0000      -0.348376        -9.4798
  40   0.0000       0.023511         0.6398
  41   0.0000       0.032462         0.8833
  42   0.0000       0.038455         1.0464
  43   0.0000       0.043782         1.1914
  44   0.0000       0.047271         1.2863

MULLIKEN ATOMIC CHARGES
-----------------------
   0 Cl:   -0.318895
   1 S :    0.506385
   2 C :   -0.650789
   3 S :   -0.014120
   4 S :    0.444670
   5 C :   -0.977894
   6 H :    0.430795
   7 H :    0.289924
   8 H :    0.289924
Sum of atomic charges:   -0.0000000

LOEWDIN ATOMIC CHARGES
----------------------
   0 Cl:    0.469209
   1 S :    0.218812
   2 C :   -1.962599
   3 S :    0.883774
   4 S :    1.079635
   5 C :    0.487770
   6 H :   -0.387338
   7 H :   -0.394631
   8 H :   -0.394631

  Mayer bond orders larger than 0.100000
B(  0-Cl,  1-S ) :   0.9562 B(  1-S ,  2-C ) :   0.9421 B(  2-C ,  3-S ) :   1.5169
B(  2-C ,  4-S ) :   1.0338 B(  4-S ,  5-C ) :   1.0081 B(  5-C ,  6-H ) :   0.7934
B(  5-C ,  7-H ) :   0.9168 B(  5-C ,  8-H ) :   0.9168

MP2 TOTAL ENERGY:    -1730.809861677 Eh
FINAL SINGLE POINT ENERGY     -1730.809861677300

DIPOLE MOMENT
-------------
                                X             Y             Z
Electronic contribution:     10.76983       2.37769      -0.00003
Nuclear contribution   :    -11.25689      -3.22968       0.00003
                        -----------------------------------------
Total Dipole Moment    :     -0.48707      -0.85199       0.00000
                        -----------------------------------------
Magnitude (a.u.)       :      0.98139
Magnitude (Debye)      :      2.49450

Rotational constants in cm-1:     0.078034     0.037857     0.025614
Rotational constants in MHz :  2339.412423  1134.931377   767.888290

                             ****ORCA TERMINATED NORMALLY****
TOTAL RUN TIME: 0 days 0 hours 18 minutes 30 seconds 105 msec
