                         Program Version 5.0.4 -  RELEASE  -
|  1> ! ri-mp2 aug-cc-pvdz aug-cc-pvdz/c tightscf
|  2> %pal nprocs 16 end
|  3> %maxcore 3800
|  4> %base "DZ_Si-Si_9_AB"
|  5> %scf
|  6> STABPerform true
|  7> STABRestartUHFifUnstable true
|  8> end
|  9>
| 10> *xyz 0 1
| 11> Si         1.161498   -0.000003    0.000003
| 12> Si        -1.161498    0.000002   -0.000002
| 13> F        -1.716663   -0.422476    1.409941
| 14> F         1.716659    0.422478   -1.409942
| 15> F        -1.716704   -1.009794   -1.070836
| 16> F         1.716660   -1.432295    0.339074
| 17> F        -1.716658    1.432295   -0.339076
| 18> F         1.716706    1.009793    1.070837
| 19> *
| 20>
| 21> $new_job
| 22> ! ri-mp2 aug-cc-pvtz aug-cc-pvtz/c tightscf
| 23> %pal nprocs 16 end
| 24> %maxcore 3800
| 25> %base "TZ_Si-Si_9_AB"
| 26>
| 27> *xyz 0 1
| 28> Si         1.161498   -0.000003    0.000003
| 29> Si        -1.161498    0.000002   -0.000002
| 30> F        -1.716663   -0.422476    1.409941
| 31> F         1.716659    0.422478   -1.409942
| 32> F        -1.716704   -1.009794   -1.070836
| 33> F         1.716660   -1.432295    0.339074
| 34> F        -1.716658    1.432295   -0.339076
| 35> F         1.716706    1.009793    1.070837
| 36> *
| 37>
| 38> $new_job
| 39> ! ri-mp2 aug-cc-pvqz aug-cc-pvqz/c tightscf
| 40> %pal nprocs 16 end
| 41> %maxcore 3800
| 42> %base "QZ_Si-Si_9_AB"
| 43>
| 44> *xyz 0 1
| 45> Si         1.161498   -0.000003    0.000003
| 46> Si        -1.161498    0.000002   -0.000002
| 47> F        -1.716663   -0.422476    1.409941
| 48> F         1.716659    0.422478   -1.409942
| 49> F        -1.716704   -1.009794   -1.070836
| 50> F         1.716660   -1.432295    0.339074
| 51> F        -1.716658    1.432295   -0.339076
| 52> F         1.716706    1.009793    1.070837
| 53> *
| 54>
| 55>
| 56>
| 57>
| 58>                          ****END OF INPUT****
 Total Charge           Charge          ....    0
 Multiplicity           Mult            ....    1
 Number of Electrons    NEL             ....   82
MP2 TOTAL ENERGY:    -1176.357034631 Eh
FINAL SINGLE POINT ENERGY     -1176.357034630851
MP2 TOTAL ENERGY:    -1176.960189117 Eh
FINAL SINGLE POINT ENERGY     -1176.960189117250

CARTESIAN COORDINATES (ANGSTROEM)
---------------------------------
  Si     1.161498   -0.000003    0.000003
  Si    -1.161498    0.000002   -0.000002
  F     -1.716663   -0.422476    1.409941
  F      1.716659    0.422478   -1.409942
  F     -1.716704   -1.009794   -1.070836
  F      1.716660   -1.432295    0.339074
  F     -1.716658    1.432295   -0.339076
  F      1.716706    1.009793    1.070837

 Multiplicity           Mult            ....    1
 Number of Electrons    NEL             ....   82
 Basis Dimension        Dim             ....  648

ORBITAL ENERGIES
----------------

  NO   OCC          E(Eh)            E(eV)
   0   2.0000     -68.911973     -1875.1901
   1   2.0000     -68.911972     -1875.1901
   2   2.0000     -26.334049      -716.5859
   3   2.0000     -26.334049      -716.5859
   4   2.0000     -26.334047      -716.5859
   5   2.0000     -26.334047      -716.5859
   6   2.0000     -26.334035      -716.5855
   7   2.0000     -26.334034      -716.5855
   8   2.0000      -6.247167      -169.9941
   9   2.0000      -6.247020      -169.9900
  10   2.0000      -4.355720      -118.5252
  11   2.0000      -4.355720      -118.5252
  12   2.0000      -4.355623      -118.5225
  13   2.0000      -4.355623      -118.5225
  14   2.0000      -4.354740      -118.4985
  15   2.0000      -4.353869      -118.4748
  16   2.0000      -1.660445       -45.1830
  17   2.0000      -1.658794       -45.1381
  18   2.0000      -1.631755       -44.4023
  19   2.0000      -1.631753       -44.4023
  20   2.0000      -1.631269       -44.3891
  21   2.0000      -1.631268       -44.3890
  22   2.0000      -0.861970       -23.4554
  23   2.0000      -0.836919       -22.7737
  24   2.0000      -0.772106       -21.0101
  25   2.0000      -0.772105       -21.0100
  26   2.0000      -0.767995       -20.8982
  27   2.0000      -0.767995       -20.8982
  28   2.0000      -0.762211       -20.7408
  29   2.0000      -0.730617       -19.8811
  30   2.0000      -0.719665       -19.5831
  31   2.0000      -0.719664       -19.5831
  32   2.0000      -0.717975       -19.5371
  33   2.0000      -0.717975       -19.5371
  34   2.0000      -0.695723       -18.9316
  35   2.0000      -0.695722       -18.9316
  36   2.0000      -0.689407       -18.7597
  37   2.0000      -0.689406       -18.7597
  38   2.0000      -0.676064       -18.3966
  39   2.0000      -0.675028       -18.3685
  40   2.0000      -0.518798       -14.1172
  41   0.0000       0.031027         0.8443
  42   0.0000       0.038223         1.0401
  43   0.0000       0.038223         1.0401
  44   0.0000       0.038389         1.0446
  45   0.0000       0.054859         1.4928

MULLIKEN ATOMIC CHARGES
-----------------------
   0 Si:    2.073311
   1 Si:    2.073311
   2 F :   -0.691104
   3 F :   -0.691104
   4 F :   -0.691105
   5 F :   -0.691103
   6 F :   -0.691103
   7 F :   -0.691105
Sum of atomic charges:    0.0000000

LOEWDIN ATOMIC CHARGES
----------------------
   0 Si:   -1.236633
   1 Si:   -1.236633
   2 F :    0.412210
   3 F :    0.412209
   4 F :    0.412213
   5 F :    0.412211
   6 F :    0.412210
   7 F :    0.412213

  Mayer bond orders larger than 0.100000
B(  0-Si,  1-Si) :   1.0194 B(  0-Si,  3-F ) :   0.4562 B(  0-Si,  5-F ) :   0.4562
B(  0-Si,  7-F ) :   0.4562 B(  1-Si,  2-F ) :   0.4562 B(  1-Si,  4-F ) :   0.4562
B(  1-Si,  6-F ) :   0.4562

MP2 TOTAL ENERGY:    -1177.162693205 Eh
FINAL SINGLE POINT ENERGY     -1177.162693204890

DIPOLE MOMENT
-------------
                                X             Y             Z
Electronic contribution:     -0.00000      -0.00000       0.00000
Nuclear contribution   :      0.00000      -0.00000       0.00000
                        -----------------------------------------
Total Dipole Moment    :     -0.00000      -0.00000       0.00000
                        -----------------------------------------
Magnitude (a.u.)       :      0.00001
Magnitude (Debye)      :      0.00001

Rotational constants in cm-1:     0.068265     0.031500     0.031499
Rotational constants in MHz :  2046.526588   944.331533   944.328784

                             ****ORCA TERMINATED NORMALLY****
TOTAL RUN TIME: 0 days 0 hours 16 minutes 37 seconds 567 msec
