                         Program Version 5.0.4 -  RELEASE  -
|  1> ! ri-mp2 aug-cc-pvdz aug-cc-pvdz/c tightscf
|  2> %pal nprocs 16 end
|  3> %maxcore 3800
|  4> %base "DZ_S-F_19_AB"
|  5>
|  6> *xyz 0 1
|  7> F         2.475757   -0.333036   -0.412217
|  8> S         1.214951   -1.020451    0.326625
|  9> C        -0.033858   -0.008994   -0.463577
| 10> N        -1.341828   -0.698263   -0.243990
| 11> O        -1.326362   -1.581258    0.585067
| 12> O        -2.277468   -0.320429   -0.892399
| 13> N        -0.141231    1.375471    0.151059
| 14> H         0.146413    0.131745   -1.524401
| 15> O        -0.853597    1.502677    1.111626
| 16> O         0.547067    2.212299   -0.374252
| 17> *
| 18>
| 19> $new_job
| 20> ! ri-mp2 aug-cc-pvtz aug-cc-pvtz/c tightscf
| 21> %pal nprocs 16 end
| 22> %maxcore 3800
| 23> %base "TZ_S-F_19_AB"
| 24>
| 25> *xyz 0 1
| 26> F         2.475757   -0.333036   -0.412217
| 27> S         1.214951   -1.020451    0.326625
| 28> C        -0.033858   -0.008994   -0.463577
| 29> N        -1.341828   -0.698263   -0.243990
| 30> O        -1.326362   -1.581258    0.585067
| 31> O        -2.277468   -0.320429   -0.892399
| 32> N        -0.141231    1.375471    0.151059
| 33> H         0.146413    0.131745   -1.524401
| 34> O        -0.853597    1.502677    1.111626
| 35> O         0.547067    2.212299   -0.374252
| 36> *
| 37>
| 38> $new_job
| 39> ! ri-mp2 aug-cc-pvqz aug-cc-pvqz/c tightscf
| 40> %pal nprocs 16 end
| 41> %maxcore 3800
| 42> %base "QZ_S-F_19_AB"
| 43>
| 44> *xyz 0 1
| 45> F         2.475757   -0.333036   -0.412217
| 46> S         1.214951   -1.020451    0.326625
| 47> C        -0.033858   -0.008994   -0.463577
| 48> N        -1.341828   -0.698263   -0.243990
| 49> O        -1.326362   -1.581258    0.585067
| 50> O        -2.277468   -0.320429   -0.892399
| 51> N        -0.141231    1.375471    0.151059
| 52> H         0.146413    0.131745   -1.524401
| 53> O        -0.853597    1.502677    1.111626
| 54> O         0.547067    2.212299   -0.374252
| 55> *
| 56>
| 57>
| 58>
| 59>
| 60>                          ****END OF INPUT****
 Total Charge           Charge          ....    0
 Multiplicity           Mult            ....    1
 Number of Electrons    NEL             ....   78
MP2 TOTAL ENERGY:     -945.186805555 Eh
FINAL SINGLE POINT ENERGY      -945.186805554984
MP2 TOTAL ENERGY:     -945.683191765 Eh
FINAL SINGLE POINT ENERGY      -945.683191765160

CARTESIAN COORDINATES (ANGSTROEM)
---------------------------------
  F      2.475757   -0.333036   -0.412217
  S      1.214951   -1.020451    0.326625
  C     -0.033858   -0.008994   -0.463577
  N     -1.341828   -0.698263   -0.243990
  O     -1.326362   -1.581258    0.585067
  O     -2.277468   -0.320429   -0.892399
  N     -0.141231    1.375471    0.151059
  H      0.146413    0.131745   -1.524401
  O     -0.853597    1.502677    1.111626
  O      0.547067    2.212299   -0.374252

 Multiplicity           Mult            ....    1
 Number of Electrons    NEL             ....   78
 Basis Dimension        Dim             ....  770

ORBITAL ENERGIES
----------------

  NO   OCC          E(Eh)            E(eV)
   0   2.0000     -92.099548     -2506.1561
   1   2.0000     -26.356683      -717.2018
   2   2.0000     -20.662139      -562.2454
   3   2.0000     -20.659421      -562.1714
   4   2.0000     -20.649425      -561.8994
   5   2.0000     -20.648290      -561.8685
   6   2.0000     -15.910327      -432.9420
   7   2.0000     -15.899887      -432.6579
   8   2.0000     -11.439452      -311.2833
   9   2.0000      -9.093038      -247.4341
  10   2.0000      -6.774078      -184.3320
  11   2.0000      -6.772417      -184.2868
  12   2.0000      -6.770652      -184.2388
  13   2.0000      -1.685314       -45.8597
  14   2.0000      -1.665217       -45.3129
  15   2.0000      -1.657919       -45.1143
  16   2.0000      -1.474965       -40.1358
  17   2.0000      -1.464072       -39.8394
  18   2.0000      -1.219381       -33.1810
  19   2.0000      -1.022776       -27.8311
  20   2.0000      -1.009972       -27.4827
  21   2.0000      -0.880648       -23.9637
  22   2.0000      -0.842767       -22.9329
  23   2.0000      -0.826307       -22.4850
  24   2.0000      -0.802587       -21.8395
  25   2.0000      -0.778329       -21.1794
  26   2.0000      -0.767859       -20.8945
  27   2.0000      -0.755841       -20.5675
  28   2.0000      -0.736012       -20.0279
  29   2.0000      -0.717906       -19.5352
  30   2.0000      -0.713501       -19.4153
  31   2.0000      -0.593775       -16.1574
  32   2.0000      -0.560870       -15.2621
  33   2.0000      -0.550026       -14.9670
  34   2.0000      -0.537620       -14.6294
  35   2.0000      -0.533195       -14.5090
  36   2.0000      -0.513557       -13.9746
  37   2.0000      -0.496532       -13.5113
  38   2.0000      -0.432767       -11.7762
  39   0.0000       0.020732         0.5642
  40   0.0000       0.028435         0.7738
  41   0.0000       0.035418         0.9638
  42   0.0000       0.042911         1.1677
  43   0.0000       0.054932         1.4948

MULLIKEN ATOMIC CHARGES
-----------------------
   0 F :   -0.641076
   1 S :    0.699700
   2 C :   -0.050220
   3 N :    0.868785
   4 O :   -0.566117
   5 O :   -0.520601
   6 N :    0.840422
   7 H :    0.461087
   8 O :   -0.543333
   9 O :   -0.548646
Sum of atomic charges:   -0.0000000

LOEWDIN ATOMIC CHARGES
----------------------
   0 F :    0.121207
   1 S :    0.720457
   2 C :   -0.749151
   3 N :   -0.966102
   4 O :    0.529130
   5 O :    0.584635
   6 N :   -0.933309
   7 H :   -0.422678
   8 O :    0.550533
   9 O :    0.565277

  Mayer bond orders larger than 0.100000
B(  0-F ,  1-S ) :   0.6163 B(  1-S ,  2-C ) :   0.8849 B(  2-C ,  3-N ) :   0.8749
B(  2-C ,  6-N ) :   0.8529 B(  2-C ,  7-H ) :   0.7505 B(  3-N ,  4-O ) :   1.2675
B(  3-N ,  5-O ) :   1.3208 B(  4-O ,  5-O ) :   0.1505 B(  6-N ,  8-O ) :   1.3323
B(  6-N ,  9-O ) :   1.3324 B(  8-O ,  9-O ) :   0.1394

MP2 TOTAL ENERGY:     -945.851915738 Eh
FINAL SINGLE POINT ENERGY      -945.851915737803

DIPOLE MOMENT
-------------
                                X             Y             Z
Electronic contribution:      2.81768      -1.16367       0.44966
Nuclear contribution   :     -2.25849       0.49243      -1.05221
                        -----------------------------------------
Total Dipole Moment    :      0.55919      -0.67123      -0.60255
                        -----------------------------------------
Magnitude (a.u.)       :      1.06128
Magnitude (Debye)      :      2.69756

Rotational constants in cm-1:     0.060672     0.045586     0.031116
Rotational constants in MHz :  1818.898766  1366.635099   932.846353

                             ****ORCA TERMINATED NORMALLY****
TOTAL RUN TIME: 0 days 0 hours 10 minutes 18 seconds 108 msec
