                         Program Version 5.0.4 -  RELEASE  -
|  1> ! ri-mp2 aug-cc-pvdz aug-cc-pvdz/c tightscf
|  2> %pal nprocs 16 end
|  3> %maxcore 3800
|  4> %base "DZ_B-P_49_A"
|  5> %scf
|  6> STABPerform true
|  7> STABRestartUHFifUnstable true
|  8> end
|  9>
| 10> *xyz 0 2
| 11> P         1.413949   -0.130978   -0.102515
| 12> C        -0.370476    0.013340    0.385480
| 13> C        -1.006908    1.298546   -0.138810
| 14> H        -0.977181    1.332766   -1.229442
| 15> H        -0.496746    2.184606    0.238213
| 16> C        -1.138737   -1.219067   -0.080331
| 17> H        -2.054401    1.355988    0.165709
| 18> H        -0.387664    0.043084    1.479789
| 19> H        -2.180105   -1.168476    0.242713
| 20> H        -1.132478   -1.293011   -1.169838
| 21> H        -0.707416   -2.138123    0.317141
| 22> H         1.823479    1.090911    0.495411
| 23> *
| 24>
| 25> $new_job
| 26> ! ri-mp2 aug-cc-pvtz aug-cc-pvtz/c tightscf
| 27> %pal nprocs 16 end
| 28> %maxcore 3800
| 29> %base "TZ_B-P_49_A"
| 30>
| 31> *xyz 0 2
| 32> P         1.413949   -0.130978   -0.102515
| 33> C        -0.370476    0.013340    0.385480
| 34> C        -1.006908    1.298546   -0.138810
| 35> H        -0.977181    1.332766   -1.229442
| 36> H        -0.496746    2.184606    0.238213
| 37> C        -1.138737   -1.219067   -0.080331
| 38> H        -2.054401    1.355988    0.165709
| 39> H        -0.387664    0.043084    1.479789
| 40> H        -2.180105   -1.168476    0.242713
| 41> H        -1.132478   -1.293011   -1.169838
| 42> H        -0.707416   -2.138123    0.317141
| 43> H         1.823479    1.090911    0.495411
| 44> *
| 45>
| 46> $new_job
| 47> ! ri-mp2 aug-cc-pvqz aug-cc-pvqz/c tightscf
| 48> %pal nprocs 16 end
| 49> %maxcore 3800
| 50> %base "QZ_B-P_49_A"
| 51>
| 52> *xyz 0 2
| 53> P         1.413949   -0.130978   -0.102515
| 54> C        -0.370476    0.013340    0.385480
| 55> C        -1.006908    1.298546   -0.138810
| 56> H        -0.977181    1.332766   -1.229442
| 57> H        -0.496746    2.184606    0.238213
| 58> C        -1.138737   -1.219067   -0.080331
| 59> H        -2.054401    1.355988    0.165709
| 60> H        -0.387664    0.043084    1.479789
| 61> H        -2.180105   -1.168476    0.242713
| 62> H        -1.132478   -1.293011   -1.169838
| 63> H        -0.707416   -2.138123    0.317141
| 64> H         1.823479    1.090911    0.495411
| 65> *
| 66>
| 67>
| 68>
| 69>
| 70>                          ****END OF INPUT****
 Total Charge           Charge          ....    0
 Multiplicity           Mult            ....    2
 Number of Electrons    NEL             ....   41
MP2 TOTAL ENERGY:     -459.552069811 Eh
FINAL SINGLE POINT ENERGY      -459.552069810781
MP2 TOTAL ENERGY:     -459.707881146 Eh
FINAL SINGLE POINT ENERGY      -459.707881145712

CARTESIAN COORDINATES (ANGSTROEM)
---------------------------------
  P      1.413949   -0.130978   -0.102515
  C     -0.370476    0.013340    0.385480
  C     -1.006908    1.298546   -0.138810
  H     -0.977181    1.332766   -1.229442
  H     -0.496746    2.184606    0.238213
  C     -1.138737   -1.219067   -0.080331
  H     -2.054401    1.355988    0.165709
  H     -0.387664    0.043084    1.479789
  H     -2.180105   -1.168476    0.242713
  H     -1.132478   -1.293011   -1.169838
  H     -0.707416   -2.138123    0.317141
  H      1.823479    1.090911    0.495411

 Multiplicity           Mult            ....    2
 Number of Electrons    NEL             ....   41
 Basis Dimension        Dim             ....  692

ORBITAL ENERGIES
----------------
                 SPIN UP ORBITALS
  NO   OCC          E(Eh)            E(eV)
   0   1.0000     -79.939321     -2175.2595
   1   1.0000     -11.237683      -305.7929
   2   1.0000     -11.221473      -305.3518
   3   1.0000     -11.219542      -305.2993
   4   1.0000      -7.482844      -203.6185
   5   1.0000      -5.387713      -146.6071
   6   1.0000      -5.373637      -146.2241
   7   1.0000      -5.371898      -146.1768
   8   1.0000      -1.077042       -29.3078
   9   1.0000      -0.939393       -25.5622
  10   1.0000      -0.864233       -23.5170
  11   1.0000      -0.750590       -20.4246
  12   1.0000      -0.630784       -17.1645
  13   1.0000      -0.594804       -16.1855
  14   1.0000      -0.571818       -15.5600
  15   1.0000      -0.543851       -14.7989
  16   1.0000      -0.494801       -13.4642
  17   1.0000      -0.493931       -13.4405
  18   1.0000      -0.459112       -12.4931
  19   1.0000      -0.388372       -10.5681
  20   1.0000      -0.348267        -9.4768
  21   0.0000       0.025349         0.6898
  22   0.0000       0.034143         0.9291
  23   0.0000       0.035438         0.9643
  24   0.0000       0.038815         1.0562
  25   0.0000       0.053164         1.4467

                 SPIN DOWN ORBITALS
  NO   OCC          E(Eh)            E(eV)
   0   1.0000     -79.932362     -2175.0701
   1   1.0000     -11.238814      -305.8237
   2   1.0000     -11.220570      -305.3272
   3   1.0000     -11.219482      -305.2976
   4   1.0000      -7.474304      -203.3862
   5   1.0000      -5.369028      -146.0987
   6   1.0000      -5.368532      -146.0852
   7   1.0000      -5.354777      -145.7109
   8   1.0000      -1.072992       -29.1976
   9   1.0000      -0.938159       -25.5286
  10   1.0000      -0.835505       -22.7352
  11   1.0000      -0.716593       -19.4995
  12   1.0000      -0.625852       -17.0303
  13   1.0000      -0.591362       -16.0918
  14   1.0000      -0.567132       -15.4324
  15   1.0000      -0.543143       -14.7797
  16   1.0000      -0.492345       -13.3974
  17   1.0000      -0.487891       -13.2762
  18   1.0000      -0.452384       -12.3100
  19   1.0000      -0.371607       -10.1119
  20   0.0000       0.025410         0.6914
  21   0.0000       0.029504         0.8028
  22   0.0000       0.034247         0.9319
  23   0.0000       0.039184         1.0662
  24   0.0000       0.047834         1.3016

MULLIKEN ATOMIC CHARGES AND SPIN POPULATIONS
--------------------------------------------
   0 P :    0.216288    1.124117
   1 C :   -0.145756   -0.081295
   2 C :   -0.923102    0.007642
   3 H :    0.251739   -0.010469
   4 H :    0.286462   -0.008652
   5 C :   -0.855271    0.014318
   6 H :    0.246894    0.008298
   7 H :    0.271245    0.010616
   8 H :    0.263450   -0.002707
   9 H :    0.238984    0.000182
  10 H :    0.280613   -0.000931
  11 H :   -0.131546   -0.061118
Sum of atomic charges         :   -0.0000000

LOEWDIN ATOMIC CHARGES AND SPIN POPULATIONS
-------------------------------------------
   0 P :    1.323363    0.580581
   1 C :   -0.220635    0.157687
   2 C :    0.809575    0.028599
   3 H :   -0.296161    0.012631
   4 H :   -0.305302    0.004753
   5 C :    0.794140    0.015671
   6 H :   -0.283591    0.003530
   7 H :   -0.365083    0.023643
   8 H :   -0.284960   -0.000247
   9 H :   -0.300679    0.002151
  10 H :   -0.302897    0.003215
  11 H :   -0.567769    0.167787

  Mayer bond orders larger than 0.100000
B(  0-P ,  1-C ) :   0.8031 B(  0-P , 11-H ) :   0.9440 B(  1-C ,  2-C ) :   0.8816
B(  1-C ,  5-C ) :   0.8478 B(  1-C ,  7-H ) :   0.8671 B(  2-C ,  3-H ) :   0.9445
B(  2-C ,  4-H ) :   0.9480 B(  2-C ,  6-H ) :   0.9561 B(  5-C ,  8-H ) :   0.9553
B(  5-C ,  9-H ) :   0.9470 B(  5-C , 10-H ) :   0.9584

MP2 TOTAL ENERGY:     -459.754720110 Eh
FINAL SINGLE POINT ENERGY      -459.754720110138

DIPOLE MOMENT
-------------
                                X             Y             Z
Electronic contribution:      7.15912      -1.35738      -0.40870
Nuclear contribution   :     -7.65088       1.57189       0.65371
                        -----------------------------------------
Total Dipole Moment    :     -0.49177       0.21450       0.24502
                        -----------------------------------------
Magnitude (a.u.)       :      0.58981
Magnitude (Debye)      :      1.49919

Rotational constants in cm-1:     0.264180     0.147520     0.103987
Rotational constants in MHz :  7919.918351  4422.533077  3117.440777

                             ****ORCA TERMINATED NORMALLY****
TOTAL RUN TIME: 0 days 1 hours 24 minutes 56 seconds 763 msec
