                         Program Version 5.0.4 -  RELEASE  -
|  1> ! ri-mp2 aug-cc-pvdz aug-cc-pvdz/c tightscf
|  2> %pal nprocs 16 end
|  3> %maxcore 3800
|  4> %base "DZ_P-F_28_AB"
|  5> %scf
|  6> STABPerform true
|  7> STABRestartUHFifUnstable true
|  8> end
|  9>
| 10> *xyz 0 1
| 11> F        -2.374271   -0.845141    0.144179
| 12> F         2.034353   -0.077356    1.218858
| 13> O         0.110752   -2.045876   -1.083691
| 14> O        -1.634798    1.928917   -0.489621
| 15> P         1.800897    0.033057   -0.377436
| 16> P        -1.011072   -0.378787    0.803650
| 17> C         0.254394   -1.091645   -0.387264
| 18> C         0.730542    1.543227   -0.365619
| 19> H         1.113858    2.204454    0.416890
| 20> H         0.806148    2.085783   -1.309161
| 21> C        -0.737562    1.237394   -0.110747
| 22> *
| 23>
| 24> $new_job
| 25> ! ri-mp2 aug-cc-pvtz aug-cc-pvtz/c tightscf
| 26> %pal nprocs 16 end
| 27> %maxcore 3800
| 28> %base "TZ_P-F_28_AB"
| 29>
| 30> *xyz 0 1
| 31> F        -2.374271   -0.845141    0.144179
| 32> F         2.034353   -0.077356    1.218858
| 33> O         0.110752   -2.045876   -1.083691
| 34> O        -1.634798    1.928917   -0.489621
| 35> P         1.800897    0.033057   -0.377436
| 36> P        -1.011072   -0.378787    0.803650
| 37> C         0.254394   -1.091645   -0.387264
| 38> C         0.730542    1.543227   -0.365619
| 39> H         1.113858    2.204454    0.416890
| 40> H         0.806148    2.085783   -1.309161
| 41> C        -0.737562    1.237394   -0.110747
| 42> *
| 43>
| 44> $new_job
| 45> ! ri-mp2 aug-cc-pvqz aug-cc-pvqz/c tightscf
| 46> %pal nprocs 16 end
| 47> %maxcore 3800
| 48> %base "QZ_P-F_28_AB"
| 49>
| 50> *xyz 0 1
| 51> F        -2.374271   -0.845141    0.144179
| 52> F         2.034353   -0.077356    1.218858
| 53> O         0.110752   -2.045876   -1.083691
| 54> O        -1.634798    1.928917   -0.489621
| 55> P         1.800897    0.033057   -0.377436
| 56> P        -1.011072   -0.378787    0.803650
| 57> C         0.254394   -1.091645   -0.387264
| 58> C         0.730542    1.543227   -0.365619
| 59> H         1.113858    2.204454    0.416890
| 60> H         0.806148    2.085783   -1.309161
| 61> C        -0.737562    1.237394   -0.110747
| 62> *
| 63>
| 64>
| 65>
| 66>
| 67>                          ****END OF INPUT****
 Total Charge           Charge          ....    0
 Multiplicity           Mult            ....    1
 Number of Electrons    NEL             ....   84
MP2 TOTAL ENERGY:    -1146.338127952 Eh
FINAL SINGLE POINT ENERGY     -1146.338127952016
MP2 TOTAL ENERGY:    -1146.812275076 Eh
FINAL SINGLE POINT ENERGY     -1146.812275075828

CARTESIAN COORDINATES (ANGSTROEM)
---------------------------------
  F     -2.374271   -0.845141    0.144179
  F      2.034353   -0.077356    1.218858
  O      0.110752   -2.045876   -1.083691
  O     -1.634798    1.928917   -0.489621
  P      1.800897    0.033057   -0.377436
  P     -1.011072   -0.378787    0.803650
  C      0.254394   -1.091645   -0.387264
  C      0.730542    1.543227   -0.365619
  H      1.113858    2.204454    0.416890
  H      0.806148    2.085783   -1.309161
  C     -0.737562    1.237394   -0.110747

 Multiplicity           Mult            ....    1
 Number of Electrons    NEL             ....   84
 Basis Dimension        Dim             ....  820

ORBITAL ENERGIES
----------------

  NO   OCC          E(Eh)            E(eV)
   0   2.0000     -80.048774     -2178.2379
   1   2.0000     -80.042360     -2178.0633
   2   2.0000     -26.331741      -716.5231
   3   2.0000     -26.328491      -716.4347
   4   2.0000     -20.613089      -560.9107
   5   2.0000     -20.594764      -560.4120
   6   2.0000     -11.374577      -309.5180
   7   2.0000     -11.374085      -309.5046
   8   2.0000     -11.284566      -307.0686
   9   2.0000      -7.583052      -206.3453
  10   2.0000      -7.577887      -206.2048
  11   2.0000      -5.476715      -149.0290
  12   2.0000      -5.475585      -148.9982
  13   2.0000      -5.474703      -148.9742
  14   2.0000      -5.471902      -148.8980
  15   2.0000      -5.470634      -148.8635
  16   2.0000      -5.470042      -148.8474
  17   2.0000      -1.638350       -44.5818
  18   2.0000      -1.637425       -44.5566
  19   2.0000      -1.452400       -39.5218
  20   2.0000      -1.440471       -39.1972
  21   2.0000      -1.093430       -29.7538
  22   2.0000      -0.961226       -26.1563
  23   2.0000      -0.904187       -24.6042
  24   2.0000      -0.798249       -21.7215
  25   2.0000      -0.790886       -21.5211
  26   2.0000      -0.734394       -19.9839
  27   2.0000      -0.730513       -19.8783
  28   2.0000      -0.723385       -19.6843
  29   2.0000      -0.713480       -19.4148
  30   2.0000      -0.696903       -18.9637
  31   2.0000      -0.692003       -18.8303
  32   2.0000      -0.667151       -18.1541
  33   2.0000      -0.656097       -17.8533
  34   2.0000      -0.625832       -17.0298
  35   2.0000      -0.597382       -16.2556
  36   2.0000      -0.576358       -15.6835
  37   2.0000      -0.556659       -15.1475
  38   2.0000      -0.510276       -13.8853
  39   2.0000      -0.457045       -12.4368
  40   2.0000      -0.402456       -10.9514
  41   2.0000      -0.374561       -10.1923
  42   0.0000       0.020726         0.5640
  43   0.0000       0.024479         0.6661
  44   0.0000       0.032694         0.8896
  45   0.0000       0.040252         1.0953
  46   0.0000       0.046698         1.2707

MULLIKEN ATOMIC CHARGES
-----------------------
   0 F :   -0.694794
   1 F :   -0.700372
   2 O :   -0.747802
   3 O :   -0.779193
   4 P :    1.122948
   5 P :    1.214429
   6 C :    0.240954
   7 C :   -0.849567
   8 H :    0.318734
   9 H :    0.303944
  10 C :    0.570719
Sum of atomic charges:   -0.0000000

LOEWDIN ATOMIC CHARGES
----------------------
   0 F :    0.307355
   1 F :    0.297442
   2 O :    0.539373
   3 O :    0.650605
   4 P :    0.384269
   5 P :    0.313108
   6 C :   -1.032725
   7 C :    0.224962
   8 H :   -0.373785
   9 H :   -0.384344
  10 C :   -0.926261

  Mayer bond orders larger than 0.100000
B(  0-F ,  5-P ) :   0.6038 B(  1-F ,  4-P ) :   0.4383 B(  2-O ,  6-C ) :   1.4318
B(  3-O ,  7-C ) :   0.1603 B(  3-O , 10-C ) :   1.3028 B(  4-P ,  6-C ) :   0.8877
B(  4-P ,  7-C ) :   0.9027 B(  5-P ,  6-C ) :   0.8088 B(  5-P , 10-C ) :   0.8122
B(  7-C ,  8-H ) :   0.8512 B(  7-C ,  9-H ) :   0.8971 B(  7-C , 10-C ) :   0.9843

MP2 TOTAL ENERGY:    -1146.970355205 Eh
FINAL SINGLE POINT ENERGY     -1146.970355204644

DIPOLE MOMENT
-------------
                                X             Y             Z
Electronic contribution:     -0.31527      -4.41351       2.78089
Nuclear contribution   :      1.37301       5.13085      -2.47703
                        -----------------------------------------
Total Dipole Moment    :      1.05773       0.71734       0.30385
                        -----------------------------------------
Magnitude (a.u.)       :      1.31366
Magnitude (Debye)      :      3.33906

Rotational constants in cm-1:     0.056929     0.036848     0.028500
Rotational constants in MHz :  1706.681507  1104.674218   854.407152

                             ****ORCA TERMINATED NORMALLY****
TOTAL RUN TIME: 0 days 1 hours 9 minutes 45 seconds 676 msec
