                         Program Version 5.0.4 -  RELEASE  -
|  1> ! ri-mp2 aug-cc-pvdz aug-cc-pvdz/c tightscf
|  2> %pal nprocs 16 end
|  3> %maxcore 3800
|  4> %base "DZ_S-Cl_32_A"
|  5> %scf
|  6> STABPerform true
|  7> STABRestartUHFifUnstable true
|  8> end
|  9>
| 10> *xyz 0 2
| 11> S         1.056588   -0.085899   -0.000006
| 12> C        -0.624469    0.418239   -0.000001
| 13> O        -1.553894   -0.331771    0.000015
| 14> H        -0.727439    1.519120   -0.000015
| 15> *
| 16>
| 17> $new_job
| 18> ! ri-mp2 aug-cc-pvtz aug-cc-pvtz/c tightscf
| 19> %pal nprocs 16 end
| 20> %maxcore 3800
| 21> %base "TZ_S-Cl_32_A"
| 22>
| 23> *xyz 0 2
| 24> S         1.056588   -0.085899   -0.000006
| 25> C        -0.624469    0.418239   -0.000001
| 26> O        -1.553894   -0.331771    0.000015
| 27> H        -0.727439    1.519120   -0.000015
| 28> *
| 29>
| 30> $new_job
| 31> ! ri-mp2 aug-cc-pvqz aug-cc-pvqz/c tightscf
| 32> %pal nprocs 16 end
| 33> %maxcore 3800
| 34> %base "QZ_S-Cl_32_A"
| 35>
| 36> *xyz 0 2
| 37> S         1.056588   -0.085899   -0.000006
| 38> C        -0.624469    0.418239   -0.000001
| 39> O        -1.553894   -0.331771    0.000015
| 40> H        -0.727439    1.519120   -0.000015
| 41> *
| 42>
| 43>
| 44>
| 45>
| 46>                          ****END OF INPUT****
 Total Charge           Charge          ....    0
 Multiplicity           Mult            ....    2
 Number of Electrons    NEL             ....   31
MP2 TOTAL ENERGY:     -511.268245776 Eh
FINAL SINGLE POINT ENERGY      -511.268245776479
MP2 TOTAL ENERGY:     -511.408331366 Eh
FINAL SINGLE POINT ENERGY      -511.408331366063

CARTESIAN COORDINATES (ANGSTROEM)
---------------------------------
  S      1.056588   -0.085899   -0.000006
  C     -0.624469    0.418239   -0.000001
  O     -1.553894   -0.331771    0.000015
  H     -0.727439    1.519120   -0.000015

 Multiplicity           Mult            ....    2
 Number of Electrons    NEL             ....   31
 Basis Dimension        Dim             ....  290

ORBITAL ENERGIES
----------------
                 SPIN UP ORBITALS
  NO   OCC          E(Eh)            E(eV)
   0   1.0000     -92.015432     -2503.8672
   1   1.0000     -20.580026      -560.0110
   2   1.0000     -11.380469      -309.6783
   3   1.0000      -9.018229      -245.3985
   4   1.0000      -6.714225      -182.7034
   5   1.0000      -6.695167      -182.1848
   6   1.0000      -6.694131      -182.1566
   7   1.0000      -1.429073       -38.8870
   8   1.0000      -1.059507       -28.8307
   9   1.0000      -0.822444       -22.3798
  10   1.0000      -0.691805       -18.8250
  11   1.0000      -0.633994       -17.2518
  12   1.0000      -0.578206       -15.7338
  13   1.0000      -0.487526       -13.2663
  14   1.0000      -0.441874       -12.0240
  15   1.0000      -0.419976       -11.4281
  16   0.0000       0.025303         0.6885
  17   0.0000       0.044821         1.2196
  18   0.0000       0.067179         1.8280
  19   0.0000       0.070691         1.9236
  20   0.0000       0.083643         2.2760

                 SPIN DOWN ORBITALS
  NO   OCC          E(Eh)            E(eV)
   0   1.0000     -92.006033     -2503.6114
   1   1.0000     -20.579885      -560.0072
   2   1.0000     -11.381187      -309.6978
   3   1.0000      -9.007858      -245.1163
   4   1.0000      -6.690286      -182.0519
   5   1.0000      -6.688357      -181.9994
   6   1.0000      -6.671955      -181.5531
   7   1.0000      -1.426996       -38.8305
   8   1.0000      -0.994581       -27.0639
   9   1.0000      -0.794201       -21.6113
  10   1.0000      -0.680888       -18.5279
  11   1.0000      -0.617761       -16.8101
  12   1.0000      -0.578455       -15.7406
  13   1.0000      -0.436178       -11.8690
  14   1.0000      -0.400557       -10.8997
  15   0.0000      -0.016041        -0.4365
  16   0.0000       0.026054         0.7090
  17   0.0000       0.045802         1.2463
  18   0.0000       0.071165         1.9365
  19   0.0000       0.075402         2.0518

MULLIKEN ATOMIC CHARGES AND SPIN POPULATIONS
--------------------------------------------
   0 S :    0.180032    1.085173
   1 C :   -0.018215   -0.085017
   2 O :   -0.569282   -0.013743
   3 H :    0.407465    0.013586
Sum of atomic charges         :    0.0000000

LOEWDIN ATOMIC CHARGES AND SPIN POPULATIONS
-------------------------------------------
   0 S :    0.973506    0.762362
   1 C :   -0.990031    0.202371
   2 O :    0.527505    0.009503
   3 H :   -0.510979    0.025764

  Mayer bond orders larger than 0.100000
B(  0-S ,  1-C ) :   1.1005 B(  1-C ,  2-O ) :   1.8237 B(  1-C ,  3-H ) :   0.7704

MP2 TOTAL ENERGY:     -511.455224622 Eh
FINAL SINGLE POINT ENERGY      -511.455224622291

DIPOLE MOMENT
-------------
                                X             Y             Z
Electronic contribution:      1.41315      -0.71503      -0.00000
Nuclear contribution   :     -0.74783       1.44558      -0.00001
                        -----------------------------------------
Total Dipole Moment    :      0.66532       0.73055      -0.00001
                        -----------------------------------------
Magnitude (a.u.)       :      0.98811
Magnitude (Debye)      :      2.51157

Rotational constants in cm-1:     2.646042     0.211657     0.195981
Rotational constants in MHz : 79326.355670  6345.317723  5875.348416

                             ****ORCA TERMINATED NORMALLY****
TOTAL RUN TIME: 0 days 0 hours 6 minutes 8 seconds 20 msec
