                         Program Version 5.0.4 -  RELEASE  -
|  1> ! ri-mp2 aug-cc-pvdz aug-cc-pvdz/c tightscf
|  2> %pal nprocs 16 end
|  3> %maxcore 3800
|  4> %base "DZ_P-S_15_AB"
|  5> %scf
|  6> STABPerform true
|  7> STABRestartUHFifUnstable true
|  8> end
|  9>
| 10> *xyz 0 1
| 11> P         1.610399    0.221174    0.484256
| 12> S         0.139036   -0.952444   -0.621852
| 13> F         2.028759    1.229989   -0.643174
| 14> F         2.758096   -0.837842    0.247310
| 15> S        -1.482800    0.156175   -0.038939
| 16> O        -2.541378   -0.076236   -0.942379
| 17> O        -1.062955    1.454446    0.348322
| 18> F        -1.878088   -0.570256    1.291561
| 19> *
| 20>
| 21> $new_job
| 22> ! ri-mp2 aug-cc-pvtz aug-cc-pvtz/c tightscf
| 23> %pal nprocs 16 end
| 24> %maxcore 3800
| 25> %base "TZ_P-S_15_AB"
| 26>
| 27> *xyz 0 1
| 28> P         1.610399    0.221174    0.484256
| 29> S         0.139036   -0.952444   -0.621852
| 30> F         2.028759    1.229989   -0.643174
| 31> F         2.758096   -0.837842    0.247310
| 32> S        -1.482800    0.156175   -0.038939
| 33> O        -2.541378   -0.076236   -0.942379
| 34> O        -1.062955    1.454446    0.348322
| 35> F        -1.878088   -0.570256    1.291561
| 36> *
| 37>
| 38> $new_job
| 39> ! ri-mp2 aug-cc-pvqz aug-cc-pvqz/c tightscf
| 40> %pal nprocs 16 end
| 41> %maxcore 3800
| 42> %base "QZ_P-S_15_AB"
| 43>
| 44> *xyz 0 1
| 45> P         1.610399    0.221174    0.484256
| 46> S         0.139036   -0.952444   -0.621852
| 47> F         2.028759    1.229989   -0.643174
| 48> F         2.758096   -0.837842    0.247310
| 49> S        -1.482800    0.156175   -0.038939
| 50> O        -2.541378   -0.076236   -0.942379
| 51> O        -1.062955    1.454446    0.348322
| 52> F        -1.878088   -0.570256    1.291561
| 53> *
| 54>
| 55>
| 56>
| 57>
| 58>                          ****END OF INPUT****
 Total Charge           Charge          ....    0
 Multiplicity           Mult            ....    1
 Number of Electrons    NEL             ....   90
MP2 TOTAL ENERGY:    -1585.281753026 Eh
FINAL SINGLE POINT ENERGY     -1585.281753025849
MP2 TOTAL ENERGY:    -1585.861692723 Eh
FINAL SINGLE POINT ENERGY     -1585.861692723082

CARTESIAN COORDINATES (ANGSTROEM)
---------------------------------
  P      1.610399    0.221174    0.484256
  S      0.139036   -0.952444   -0.621852
  F      2.028759    1.229989   -0.643174
  F      2.758096   -0.837842    0.247310
  S     -1.482800    0.156175   -0.038939
  O     -2.541378   -0.076236   -0.942379
  O     -1.062955    1.454446    0.348322
  F     -1.878088   -0.570256    1.291561

 Multiplicity           Mult            ....    1
 Number of Electrons    NEL             ....   90
 Basis Dimension        Dim             ....  652

ORBITAL ENERGIES
----------------

  NO   OCC          E(Eh)            E(eV)
   0   2.0000     -92.278240     -2511.0186
   1   2.0000     -92.036522     -2504.4411
   2   2.0000     -80.135621     -2180.6011
   3   2.0000     -26.379709      -717.8284
   4   2.0000     -26.361534      -717.3338
   5   2.0000     -26.358479      -717.2507
   6   2.0000     -20.609410      -560.8106
   7   2.0000     -20.606219      -560.7237
   8   2.0000      -9.239721      -251.4256
   9   2.0000      -9.039796      -245.9854
  10   2.0000      -7.659279      -208.4196
  11   2.0000      -6.926502      -188.4797
  12   2.0000      -6.924884      -188.4357
  13   2.0000      -6.923917      -188.4094
  14   2.0000      -6.720653      -182.8783
  15   2.0000      -6.719507      -182.8471
  16   2.0000      -6.718627      -182.8231
  17   2.0000      -5.552092      -151.0801
  18   2.0000      -5.551532      -151.0649
  19   2.0000      -5.549671      -151.0142
  20   2.0000      -1.712023       -46.5865
  21   2.0000      -1.692960       -46.0678
  22   2.0000      -1.655967       -45.0611
  23   2.0000      -1.511006       -41.1166
  24   2.0000      -1.419339       -38.6222
  25   2.0000      -1.090882       -29.6844
  26   2.0000      -0.941943       -25.6316
  27   2.0000      -0.896685       -24.4000
  28   2.0000      -0.801979       -21.8230
  29   2.0000      -0.792535       -21.5660
  30   2.0000      -0.777693       -21.1621
  31   2.0000      -0.774674       -21.0800
  32   2.0000      -0.768815       -20.9205
  33   2.0000      -0.751524       -20.4500
  34   2.0000      -0.724993       -19.7281
  35   2.0000      -0.696727       -18.9589
  36   2.0000      -0.683567       -18.6008
  37   2.0000      -0.680659       -18.5217
  38   2.0000      -0.621942       -16.9239
  39   2.0000      -0.601431       -16.3658
  40   2.0000      -0.553856       -15.0712
  41   2.0000      -0.534469       -14.5436
  42   2.0000      -0.520522       -14.1641
  43   2.0000      -0.462574       -12.5873
  44   2.0000      -0.435539       -11.8516
  45   0.0000       0.027790         0.7562
  46   0.0000       0.040411         1.0996
  47   0.0000       0.050112         1.3636
  48   0.0000       0.052830         1.4376
  49   0.0000       0.057696         1.5700

MULLIKEN ATOMIC CHARGES
-----------------------
   0 P :    1.568438
   1 S :   -0.045747
   2 F :   -0.648732
   3 F :   -0.683499
   4 S :    2.455422
   5 O :   -1.033280
   6 O :   -1.033452
   7 F :   -0.579151
Sum of atomic charges:    0.0000000

LOEWDIN ATOMIC CHARGES
----------------------
   0 P :   -0.637094
   1 S :    0.728548
   2 F :    0.253709
   3 F :    0.229230
   4 S :   -1.344708
   5 O :    0.189558
   6 O :    0.190996
   7 F :    0.389761

  Mayer bond orders larger than 0.100000
B(  0-P ,  1-S ) :   0.9595 B(  0-P ,  2-F ) :   0.5679 B(  0-P ,  3-F ) :   0.5218
B(  1-S ,  4-S ) :   1.0443 B(  4-S ,  5-O ) :   1.2960 B(  4-S ,  6-O ) :   1.3224
B(  4-S ,  7-F ) :   0.4962

MP2 TOTAL ENERGY:    -1586.053335423 Eh
FINAL SINGLE POINT ENERGY     -1586.053335422670

DIPOLE MOMENT
-------------
                                X             Y             Z
Electronic contribution:      4.94443      -0.52709       1.59246
Nuclear contribution   :     -4.06000       0.01061      -1.22556
                        -----------------------------------------
Total Dipole Moment    :      0.88443      -0.51648       0.36690
                        -----------------------------------------
Magnitude (a.u.)       :      1.08793
Magnitude (Debye)      :      2.76529

Rotational constants in cm-1:     0.088669     0.026383     0.024933
Rotational constants in MHz :  2658.232116   790.937110   747.474850

                             ****ORCA TERMINATED NORMALLY****
TOTAL RUN TIME: 0 days 0 hours 19 minutes 18 seconds 420 msec
