                         Program Version 5.0.4 -  RELEASE  -
|  1> ! ri-mp2 aug-cc-pvdz aug-cc-pvdz/c tightscf
|  2> %pal nprocs 16 end
|  3> %maxcore 3800
|  4> %base "DZ_Si-F_3_AB"
|  5> %scf
|  6> STABPerform true
|  7> STABRestartUHFifUnstable true
|  8> end
|  9>
| 10> *xyz 0 1
| 11> Si        -0.000006   -0.000005    0.026470
| 12> C         0.477697    1.708999   -0.521207
| 13> F         0.000178    0.000096    1.639049
| 14> H         1.468671    1.977165   -0.152287
| 15> H        -0.230423    2.452201   -0.152067
| 16> C         1.241134   -1.268284   -0.521093
| 17> H         2.238848   -1.026542   -0.152076
| 18> H         1.291183   -1.319523   -1.610552
| 19> H         0.977942   -2.260515   -0.151968
| 20> H         0.496835    1.777942   -1.610673
| 21> C        -1.718994   -0.440798   -0.520824
| 22> H        -2.446649    0.283303   -0.151718
| 23> H        -2.008453   -1.425673   -0.151659
| 24> H        -1.788488   -0.458649   -1.610274
| 25> *
| 26>
| 27> $new_job
| 28> ! ri-mp2 aug-cc-pvtz aug-cc-pvtz/c tightscf
| 29> %pal nprocs 16 end
| 30> %maxcore 3800
| 31> %base "TZ_Si-F_3_AB"
| 32>
| 33> *xyz 0 1
| 34> Si        -0.000006   -0.000005    0.026470
| 35> C         0.477697    1.708999   -0.521207
| 36> F         0.000178    0.000096    1.639049
| 37> H         1.468671    1.977165   -0.152287
| 38> H        -0.230423    2.452201   -0.152067
| 39> C         1.241134   -1.268284   -0.521093
| 40> H         2.238848   -1.026542   -0.152076
| 41> H         1.291183   -1.319523   -1.610552
| 42> H         0.977942   -2.260515   -0.151968
| 43> H         0.496835    1.777942   -1.610673
| 44> C        -1.718994   -0.440798   -0.520824
| 45> H        -2.446649    0.283303   -0.151718
| 46> H        -2.008453   -1.425673   -0.151659
| 47> H        -1.788488   -0.458649   -1.610274
| 48> *
| 49>
| 50> $new_job
| 51> ! ri-mp2 aug-cc-pvqz aug-cc-pvqz/c tightscf
| 52> %pal nprocs 16 end
| 53> %maxcore 3800
| 54> %base "QZ_Si-F_3_AB"
| 55>
| 56> *xyz 0 1
| 57> Si        -0.000006   -0.000005    0.026470
| 58> C         0.477697    1.708999   -0.521207
| 59> F         0.000178    0.000096    1.639049
| 60> H         1.468671    1.977165   -0.152287
| 61> H        -0.230423    2.452201   -0.152067
| 62> C         1.241134   -1.268284   -0.521093
| 63> H         2.238848   -1.026542   -0.152076
| 64> H         1.291183   -1.319523   -1.610552
| 65> H         0.977942   -2.260515   -0.151968
| 66> H         0.496835    1.777942   -1.610673
| 67> C        -1.718994   -0.440798   -0.520824
| 68> H        -2.446649    0.283303   -0.151718
| 69> H        -2.008453   -1.425673   -0.151659
| 70> H        -1.788488   -0.458649   -1.610274
| 71> *
| 72>
| 73>
| 74>
| 75>
| 76>                          ****END OF INPUT****
 Total Charge           Charge          ....    0
 Multiplicity           Mult            ....    1
 Number of Electrons    NEL             ....   50
MP2 TOTAL ENERGY:     -508.104175648 Eh
FINAL SINGLE POINT ENERGY      -508.104175647715
MP2 TOTAL ENERGY:     -508.353980037 Eh
FINAL SINGLE POINT ENERGY      -508.353980036629

CARTESIAN COORDINATES (ANGSTROEM)
---------------------------------
  Si    -0.000006   -0.000005    0.026470
  C      0.477697    1.708999   -0.521207
  F      0.000178    0.000096    1.639049
  H      1.468671    1.977165   -0.152287
  H     -0.230423    2.452201   -0.152067
  C      1.241134   -1.268284   -0.521093
  H      2.238848   -1.026542   -0.152076
  H      1.291183   -1.319523   -1.610552
  H      0.977942   -2.260515   -0.151968
  H      0.496835    1.777942   -1.610673
  C     -1.718994   -0.440798   -0.520824
  H     -2.446649    0.283303   -0.151718
  H     -2.008453   -1.425673   -0.151659
  H     -1.788488   -0.458649   -1.610274

 Multiplicity           Mult            ....    1
 Number of Electrons    NEL             ....   50
 Basis Dimension        Dim             ....  818

ORBITAL ENERGIES
----------------

  NO   OCC          E(Eh)            E(eV)
   0   2.0000     -68.781080     -1871.6283
   1   2.0000     -26.257981      -714.5160
   2   2.0000     -11.200561      -304.7828
   3   2.0000     -11.200560      -304.7827
   4   2.0000     -11.200548      -304.7824
   5   2.0000      -6.126078      -166.6991
   6   2.0000      -4.233713      -115.2052
   7   2.0000      -4.232413      -115.1698
   8   2.0000      -4.232413      -115.1698
   9   2.0000      -1.560656       -42.4676
  10   2.0000      -0.974883       -26.5279
  11   2.0000      -0.933355       -25.3979
  12   2.0000      -0.933352       -25.3978
  13   2.0000      -0.722467       -19.6593
  14   2.0000      -0.645222       -17.5574
  15   2.0000      -0.645222       -17.5574
  16   2.0000      -0.591098       -16.0846
  17   2.0000      -0.566798       -15.4233
  18   2.0000      -0.566795       -15.4233
  19   2.0000      -0.551064       -14.9952
  20   2.0000      -0.545132       -14.8338
  21   2.0000      -0.545129       -14.8337
  22   2.0000      -0.537699       -14.6315
  23   2.0000      -0.438177       -11.9234
  24   2.0000      -0.438173       -11.9233
  25   0.0000       0.020999         0.5714
  26   0.0000       0.034689         0.9439
  27   0.0000       0.034689         0.9439
  28   0.0000       0.037143         1.0107
  29   0.0000       0.051056         1.3893

MULLIKEN ATOMIC CHARGES
-----------------------
   0 Si:    1.847322
   1 C :   -1.183730
   2 F :   -0.814224
   3 H :    0.295002
   4 H :    0.295012
   5 C :   -1.183729
   6 H :    0.295001
   7 H :    0.249358
   8 H :    0.295001
   9 H :    0.249352
  10 C :   -1.183727
  11 H :    0.295003
  12 H :    0.295007
  13 H :    0.249351
Sum of atomic charges:    0.0000000

LOEWDIN ATOMIC CHARGES
----------------------
   0 Si:   -0.288133
   1 C :    0.974225
   2 F :    0.478233
   3 H :   -0.346241
   4 H :   -0.346236
   5 C :    0.974220
   6 H :   -0.346237
   7 H :   -0.345112
   8 H :   -0.346238
   9 H :   -0.345114
  10 C :    0.974218
  11 H :   -0.346237
  12 H :   -0.346233
  13 H :   -0.345116

  Mayer bond orders larger than 0.100000
B(  0-Si,  1-C ) :   0.8003 B(  0-Si,  2-F ) :   0.3467 B(  0-Si,  5-C ) :   0.8003
B(  0-Si, 10-C ) :   0.8003 B(  1-C ,  3-H ) :   0.9510 B(  1-C ,  4-H ) :   0.9510
B(  1-C ,  9-H ) :   0.9532 B(  5-C ,  6-H ) :   0.9510 B(  5-C ,  7-H ) :   0.9532
B(  5-C ,  8-H ) :   0.9510 B( 10-C , 11-H ) :   0.9510 B( 10-C , 12-H ) :   0.9510
B( 10-C , 13-H ) :   0.9532

MP2 TOTAL ENERGY:     -508.431594075 Eh
FINAL SINGLE POINT ENERGY      -508.431594074559

DIPOLE MOMENT
-------------
                                X             Y             Z
Electronic contribution:      0.00062       0.00032       6.74833
Nuclear contribution   :     -0.00072      -0.00039      -7.50055
                        -----------------------------------------
Total Dipole Moment    :     -0.00010      -0.00007      -0.75221
                        -----------------------------------------
Magnitude (a.u.)       :      0.75221
Magnitude (Debye)      :      1.91198

Rotational constants in cm-1:     0.113539     0.113539     0.105055
Rotational constants in MHz :  3403.818668  3403.812293  3149.470288

                             ****ORCA TERMINATED NORMALLY****
TOTAL RUN TIME: 0 days 0 hours 51 minutes 5 seconds 276 msec
