                         Program Version 5.0.4 -  RELEASE  -
|  1> ! ri-mp2 aug-cc-pvdz aug-cc-pvdz/c tightscf
|  2> %pal nprocs 16 end
|  3> %maxcore 3800
|  4> %base "DZ_Si-F_27_AB"
|  5> %scf
|  6> STABPerform true
|  7> STABRestartUHFifUnstable true
|  8> end
|  9>
| 10> *xyz 0 1
| 11> C        -1.185118    0.000000   -0.459315
| 12> Si         0.648446    0.000000   -0.004013
| 13> F        -1.785185   -1.103460    0.074540
| 14> H        -1.386576    0.000000   -1.533874
| 15> F        -1.785184    1.103460    0.074541
| 16> F         0.835501    0.000001    1.550467
| 17> F         1.335158    1.274882   -0.608334
| 18> F         1.335159   -1.274882   -0.608332
| 19> *
| 20>
| 21> $new_job
| 22> ! ri-mp2 aug-cc-pvtz aug-cc-pvtz/c tightscf
| 23> %pal nprocs 16 end
| 24> %maxcore 3800
| 25> %base "TZ_Si-F_27_AB"
| 26>
| 27> *xyz 0 1
| 28> C        -1.185118    0.000000   -0.459315
| 29> Si         0.648446    0.000000   -0.004013
| 30> F        -1.785185   -1.103460    0.074540
| 31> H        -1.386576    0.000000   -1.533874
| 32> F        -1.785184    1.103460    0.074541
| 33> F         0.835501    0.000001    1.550467
| 34> F         1.335158    1.274882   -0.608334
| 35> F         1.335159   -1.274882   -0.608332
| 36> *
| 37>
| 38> $new_job
| 39> ! ri-mp2 aug-cc-pvqz aug-cc-pvqz/c tightscf
| 40> %pal nprocs 16 end
| 41> %maxcore 3800
| 42> %base "QZ_Si-F_27_AB"
| 43>
| 44> *xyz 0 1
| 45> C        -1.185118    0.000000   -0.459315
| 46> Si         0.648446    0.000000   -0.004013
| 47> F        -1.785185   -1.103460    0.074540
| 48> H        -1.386576    0.000000   -1.533874
| 49> F        -1.785184    1.103460    0.074541
| 50> F         0.835501    0.000001    1.550467
| 51> F         1.335158    1.274882   -0.608334
| 52> F         1.335159   -1.274882   -0.608332
| 53> *
| 54>
| 55>
| 56>
| 57>
| 58>                          ****END OF INPUT****
 Total Charge           Charge          ....    0
 Multiplicity           Mult            ....    1
 Number of Electrons    NEL             ....   66
MP2 TOTAL ENERGY:     -826.068496956 Eh
FINAL SINGLE POINT ENERGY      -826.068496956422
MP2 TOTAL ENERGY:     -826.572463581 Eh
FINAL SINGLE POINT ENERGY      -826.572463580849

CARTESIAN COORDINATES (ANGSTROEM)
---------------------------------
  C     -1.185118    0.000000   -0.459315
  Si     0.648446    0.000000   -0.004013
  F     -1.785185   -1.103460    0.074540
  H     -1.386576    0.000000   -1.533874
  F     -1.785184    1.103460    0.074541
  F      0.835501    0.000001    1.550467
  F      1.335158    1.274882   -0.608334
  F      1.335159   -1.274882   -0.608332

 Multiplicity           Mult            ....    1
 Number of Electrons    NEL             ....   66
 Basis Dimension        Dim             ....  610

ORBITAL ENERGIES
----------------

  NO   OCC          E(Eh)            E(eV)
   0   2.0000     -68.908891     -1875.1063
   1   2.0000     -26.335266      -716.6190
   2   2.0000     -26.335257      -716.6188
   3   2.0000     -26.333364      -716.5673
   4   2.0000     -26.332107      -716.5331
   5   2.0000     -26.332091      -716.5326
   6   2.0000     -11.421100      -310.7839
   7   2.0000      -6.245045      -169.9363
   8   2.0000      -4.353950      -118.4770
   9   2.0000      -4.353881      -118.4751
  10   2.0000      -4.352383      -118.4344
  11   2.0000      -1.680487       -45.7284
  12   2.0000      -1.660178       -45.1757
  13   2.0000      -1.633220       -44.4422
  14   2.0000      -1.632076       -44.4110
  15   2.0000      -1.621120       -44.1129
  16   2.0000      -0.987722       -26.8773
  17   2.0000      -0.850941       -23.1553
  18   2.0000      -0.798718       -21.7342
  19   2.0000      -0.785309       -21.3693
  20   2.0000      -0.779899       -21.2221
  21   2.0000      -0.768492       -20.9117
  22   2.0000      -0.766361       -20.8537
  23   2.0000      -0.724555       -19.7161
  24   2.0000      -0.719273       -19.5724
  25   2.0000      -0.719061       -19.5666
  26   2.0000      -0.697237       -18.9728
  27   2.0000      -0.692501       -18.8439
  28   2.0000      -0.687455       -18.7066
  29   2.0000      -0.676603       -18.4113
  30   2.0000      -0.654270       -17.8036
  31   2.0000      -0.629526       -17.1303
  32   2.0000      -0.515446       -14.0260
  33   0.0000       0.023566         0.6413
  34   0.0000       0.039240         1.0678
  35   0.0000       0.042032         1.1437
  36   0.0000       0.042855         1.1661
  37   0.0000       0.070290         1.9127

MULLIKEN ATOMIC CHARGES
-----------------------
   0 C :    0.637261
   1 Si:    2.373772
   2 F :   -0.625167
   3 H :    0.317075
   4 F :   -0.625167
   5 F :   -0.689046
   6 F :   -0.694364
   7 F :   -0.694364
Sum of atomic charges:    0.0000000

LOEWDIN ATOMIC CHARGES
----------------------
   0 C :   -1.028915
   1 Si:   -1.293322
   2 F :    0.704416
   3 H :   -0.465543
   4 F :    0.704416
   5 F :    0.463737
   6 F :    0.457605
   7 F :    0.457606

  Mayer bond orders larger than 0.100000
B(  0-C ,  1-Si) :   0.8713 B(  0-C ,  2-F ) :   0.5556 B(  0-C ,  3-H ) :   0.8481
B(  0-C ,  4-F ) :   0.5556 B(  1-Si,  5-F ) :   0.5016 B(  1-Si,  6-F ) :   0.4980
B(  1-Si,  7-F ) :   0.4980

MP2 TOTAL ENERGY:     -826.739545252 Eh
FINAL SINGLE POINT ENERGY      -826.739545252429

DIPOLE MOMENT
-------------
                                X             Y             Z
Electronic contribution:      1.29346      -0.00000       1.18076
Nuclear contribution   :     -1.24066      -0.00000      -1.83114
                        -----------------------------------------
Total Dipole Moment    :      0.05280      -0.00000      -0.65039
                        -----------------------------------------
Magnitude (a.u.)       :      0.65253
Magnitude (Debye)      :      1.65859

Rotational constants in cm-1:     0.097558     0.056663     0.049472
Rotational constants in MHz :  2924.720909  1698.715007  1483.127985

                             ****ORCA TERMINATED NORMALLY****
TOTAL RUN TIME: 0 days 0 hours 18 minutes 29 seconds 824 msec
