                         Program Version 5.0.4 -  RELEASE  -
|  1> ! ri-mp2 aug-cc-pvdz aug-cc-pvdz/c tightscf
|  2> %pal nprocs 16 end
|  3> %maxcore 3800
|  4> %base "DZ_P-F_19_AB"
|  5>
|  6> *xyz 0 1
|  7> C        -0.696854    0.105728    0.335765
|  8> C         0.793271    0.033438    0.161387
|  9> C         1.613231   -0.153208    1.266274
| 10> H         1.176727   -0.193899    2.256089
| 11> C         2.980561   -0.278811    1.107751
| 12> H         3.611452   -0.418632    1.975142
| 13> C         3.541429   -0.218021   -0.158016
| 14> H         4.611886   -0.312560   -0.281302
| 15> C         2.729682   -0.029721   -1.262399
| 16> H         3.162918    0.024123   -2.251967
| 17> C         1.359165    0.092923   -1.106643
| 18> H         0.727686    0.255232   -1.969595
| 19> N        -1.218250    1.265925   -0.394770
| 20> P        -1.412553   -1.447249   -0.411695
| 21> F        -0.833011    2.369095    0.361363
| 22> F        -2.592703    1.238631   -0.175507
| 23> F        -2.784417   -1.580464    0.404848
| 24> H        -0.623924   -2.254522    0.443314
| 25> H        -0.982439    0.188197    1.386082
| 26> *
| 27>
| 28> $new_job
| 29> ! ri-mp2 aug-cc-pvtz aug-cc-pvtz/c tightscf
| 30> %pal nprocs 16 end
| 31> %maxcore 3800
| 32> %base "TZ_P-F_19_AB"
| 33>
| 34> *xyz 0 1
| 35> C        -0.696854    0.105728    0.335765
| 36> C         0.793271    0.033438    0.161387
| 37> C         1.613231   -0.153208    1.266274
| 38> H         1.176727   -0.193899    2.256089
| 39> C         2.980561   -0.278811    1.107751
| 40> H         3.611452   -0.418632    1.975142
| 41> C         3.541429   -0.218021   -0.158016
| 42> H         4.611886   -0.312560   -0.281302
| 43> C         2.729682   -0.029721   -1.262399
| 44> H         3.162918    0.024123   -2.251967
| 45> C         1.359165    0.092923   -1.106643
| 46> H         0.727686    0.255232   -1.969595
| 47> N        -1.218250    1.265925   -0.394770
| 48> P        -1.412553   -1.447249   -0.411695
| 49> F        -0.833011    2.369095    0.361363
| 50> F        -2.592703    1.238631   -0.175507
| 51> F        -2.784417   -1.580464    0.404848
| 52> H        -0.623924   -2.254522    0.443314
| 53> H        -0.982439    0.188197    1.386082
| 54> *
| 55>
| 56> $new_job
| 57> ! ri-mp2 aug-cc-pvqz aug-cc-pvqz/c tightscf
| 58> %pal nprocs 16 end
| 59> %maxcore 3800
| 60> %base "QZ_P-F_19_AB"
| 61>
| 62> *xyz 0 1
| 63> C        -0.696854    0.105728    0.335765
| 64> C         0.793271    0.033438    0.161387
| 65> C         1.613231   -0.153208    1.266274
| 66> H         1.176727   -0.193899    2.256089
| 67> C         2.980561   -0.278811    1.107751
| 68> H         3.611452   -0.418632    1.975142
| 69> C         3.541429   -0.218021   -0.158016
| 70> H         4.611886   -0.312560   -0.281302
| 71> C         2.729682   -0.029721   -1.262399
| 72> H         3.162918    0.024123   -2.251967
| 73> C         1.359165    0.092923   -1.106643
| 74> H         0.727686    0.255232   -1.969595
| 75> N        -1.218250    1.265925   -0.394770
| 76> P        -1.412553   -1.447249   -0.411695
| 77> F        -0.833011    2.369095    0.361363
| 78> F        -2.592703    1.238631   -0.175507
| 79> F        -2.784417   -1.580464    0.404848
| 80> H        -0.623924   -2.254522    0.443314
| 81> H        -0.982439    0.188197    1.386082
| 82> *
| 83>
| 84>
| 85>
| 86>
| 87>                          ****END OF INPUT****
 Total Charge           Charge          ....    0
 Multiplicity           Mult            ....    1
 Number of Electrons    NEL             ....   98
MP2 TOTAL ENERGY:     -964.461719985 Eh
FINAL SINGLE POINT ENERGY      -964.461719985346
MP2 TOTAL ENERGY:     -965.032803628 Eh
FINAL SINGLE POINT ENERGY      -965.032803628404

CARTESIAN COORDINATES (ANGSTROEM)
---------------------------------
  C     -0.696854    0.105728    0.335765
  C      0.793271    0.033438    0.161387
  C      1.613231   -0.153208    1.266274
  H      1.176727   -0.193899    2.256089
  C      2.980561   -0.278811    1.107751
  H      3.611452   -0.418632    1.975142
  C      3.541429   -0.218021   -0.158016
  H      4.611886   -0.312560   -0.281302
  C      2.729682   -0.029721   -1.262399
  H      3.162918    0.024123   -2.251967
  C      1.359165    0.092923   -1.106643
  H      0.727686    0.255232   -1.969595
  N     -1.218250    1.265925   -0.394770
  P     -1.412553   -1.447249   -0.411695
  F     -0.833011    2.369095    0.361363
  F     -2.592703    1.238631   -0.175507
  F     -2.784417   -1.580464    0.404848
  H     -0.623924   -2.254522    0.443314
  H     -0.982439    0.188197    1.386082

 Multiplicity           Mult            ....    1
 Number of Electrons    NEL             ....   98
 Basis Dimension        Dim             .... 1286

ORBITAL ENERGIES
----------------

  NO   OCC          E(Eh)            E(eV)
   0   2.0000     -80.020257     -2177.4619
   1   2.0000     -26.337234      -716.6726
   2   2.0000     -26.334934      -716.6100
   3   2.0000     -26.303098      -715.7437
   4   2.0000     -15.771607      -429.1672
   5   2.0000     -11.305194      -307.6300
   6   2.0000     -11.268158      -306.6222
   7   2.0000     -11.254315      -306.2455
   8   2.0000     -11.252950      -306.2083
   9   2.0000     -11.251517      -306.1693
  10   2.0000     -11.250670      -306.1463
  11   2.0000     -11.249622      -306.1178
  12   2.0000      -7.554854      -205.5780
  13   2.0000      -5.448844      -148.2706
  14   2.0000      -5.447725      -148.2401
  15   2.0000      -5.446723      -148.2129
  16   2.0000      -1.692541       -46.0564
  17   2.0000      -1.611371       -43.8476
  18   2.0000      -1.602096       -43.5953
  19   2.0000      -1.207226       -32.8503
  20   2.0000      -1.162504       -31.6333
  21   2.0000      -1.052392       -28.6371
  22   2.0000      -1.039513       -28.2866
  23   2.0000      -0.956246       -26.0208
  24   2.0000      -0.862798       -23.4779
  25   2.0000      -0.853464       -23.2239
  26   2.0000      -0.828264       -22.5382
  27   2.0000      -0.772516       -21.0212
  28   2.0000      -0.769544       -20.9404
  29   2.0000      -0.754767       -20.5383
  30   2.0000      -0.713549       -19.4167
  31   2.0000      -0.698189       -18.9987
  32   2.0000      -0.690918       -18.8008
  33   2.0000      -0.683947       -18.6111
  34   2.0000      -0.672482       -18.2992
  35   2.0000      -0.656208       -17.8563
  36   2.0000      -0.648939       -17.6585
  37   2.0000      -0.636299       -17.3146
  38   2.0000      -0.623883       -16.9767
  39   2.0000      -0.607499       -16.5309
  40   2.0000      -0.592551       -16.1241
  41   2.0000      -0.538714       -14.6591
  42   2.0000      -0.519514       -14.1367
  43   2.0000      -0.515924       -14.0390
  44   2.0000      -0.506023       -13.7696
  45   2.0000      -0.484170       -13.1749
  46   2.0000      -0.405880       -11.0446
  47   2.0000      -0.359091        -9.7714
  48   2.0000      -0.351557        -9.5663
  49   0.0000       0.018996         0.5169
  50   0.0000       0.025443         0.6923
  51   0.0000       0.031243         0.8502
  52   0.0000       0.038164         1.0385
  53   0.0000       0.041076         1.1177

MULLIKEN ATOMIC CHARGES
-----------------------
   0 C :    0.178920
   1 C :    0.546405
   2 C :   -0.583379
   3 H :    0.280236
   4 C :   -0.269398
   5 H :    0.248461
   6 C :   -0.366305
   7 H :    0.322952
   8 C :   -0.325054
   9 H :    0.253947
  10 C :   -0.376866
  11 H :    0.348290
  12 N :    0.409050
  13 P :    0.923295
  14 F :   -0.493510
  15 F :   -0.512858
  16 F :   -0.747685
  17 H :   -0.119738
  18 H :    0.283238
Sum of atomic charges:   -0.0000000

LOEWDIN ATOMIC CHARGES
----------------------
   0 C :   -0.445642
   1 C :   -0.261191
   2 C :    0.334933
   3 H :   -0.310106
   4 C :    0.354877
   5 H :   -0.316332
   6 C :    0.347015
   7 H :   -0.317592
   8 C :    0.357976
   9 H :   -0.315007
  10 C :    0.301087
  11 H :   -0.326598
  12 N :   -0.620814
  13 P :    0.721857
  14 F :    0.527985
  15 F :    0.514759
  16 F :    0.290003
  17 H :   -0.434086
  18 H :   -0.403123

  Mayer bond orders larger than 0.100000
B(  0-C ,  1-C ) :   0.8205 B(  0-C ,  2-C ) :  -0.1627 B(  0-C , 10-C ) :  -0.1781
B(  0-C , 12-N ) :   0.9522 B(  0-C , 13-P ) :   0.6001 B(  0-C , 16-F ) :  -0.1383
B(  0-C , 18-H ) :   0.9750 B(  1-C ,  2-C ) :   0.7589 B(  1-C ,  3-H ) :  -0.1342
B(  1-C ,  4-C ) :  -0.4346 B(  1-C ,  8-C ) :  -0.3309 B(  1-C , 10-C ) :   0.9853
B(  1-C , 11-H ) :  -0.1375 B(  1-C , 12-N ) :  -0.1771 B(  2-C ,  3-H ) :   0.9960
B(  2-C ,  4-C ) :   1.4514 B(  2-C ,  5-H ) :  -0.1383 B(  2-C ,  6-C ) :   0.1634
B(  2-C ,  8-C ) :   0.1680 B(  4-C ,  5-H ) :   1.1205 B(  4-C ,  6-C ) :   1.1293
B(  4-C , 10-C ) :   0.1590 B(  5-H ,  6-C ) :  -0.1029 B(  6-C ,  7-H ) :   1.0229
B(  6-C ,  8-C ) :   1.1309 B(  8-C ,  9-H ) :   1.1017 B(  8-C , 10-C ) :   1.3652
B(  9-H , 10-C ) :  -0.1215 B( 10-C , 11-H ) :   0.9416 B( 12-N , 14-F ) :   0.6892
B( 12-N , 15-F ) :   0.6063 B( 13-P , 16-F ) :   0.4804 B( 13-P , 17-H ) :   0.9919

MP2 TOTAL ENERGY:     -965.218385959 Eh
FINAL SINGLE POINT ENERGY      -965.218385958527

DIPOLE MOMENT
-------------
                                X             Y             Z
Electronic contribution:    -16.83854       2.49154      -1.04221
Nuclear contribution   :     18.25709      -3.17231       1.30018
                        -----------------------------------------
Total Dipole Moment    :      1.41855      -0.68077       0.25797
                        -----------------------------------------
Magnitude (a.u.)       :      1.59445
Magnitude (Debye)      :      4.05278

Rotational constants in cm-1:     0.044155     0.018045     0.015205
Rotational constants in MHz :  1323.741063   540.964708   455.841669

                             ****ORCA TERMINATED NORMALLY****
TOTAL RUN TIME: 0 days 1 hours 3 minutes 41 seconds 513 msec
