                         Program Version 5.0.4 -  RELEASE  -
|  1> ! ri-mp2 aug-cc-pvdz aug-cc-pvdz/c tightscf
|  2> %pal nprocs 16 end
|  3> %maxcore 3800
|  4> %base "DZ_S-Cl_13_A"
|  5> %scf
|  6> STABPerform true
|  7> STABRestartUHFifUnstable true
|  8> end
|  9>
| 10> *xyz 0 2
| 11> S         1.043806    0.000000    0.021178
| 12> P        -0.918843    0.000000   -0.104652
| 13> H        -1.459127    1.084233    0.615466
| 14> H        -1.459121   -1.084235    0.615465
| 15> *
| 16>
| 17> $new_job
| 18> ! ri-mp2 aug-cc-pvtz aug-cc-pvtz/c tightscf
| 19> %pal nprocs 16 end
| 20> %maxcore 3800
| 21> %base "TZ_S-Cl_13_A"
| 22>
| 23> *xyz 0 2
| 24> S         1.043806    0.000000    0.021178
| 25> P        -0.918843    0.000000   -0.104652
| 26> H        -1.459127    1.084233    0.615466
| 27> H        -1.459121   -1.084235    0.615465
| 28> *
| 29>
| 30> $new_job
| 31> ! ri-mp2 aug-cc-pvqz aug-cc-pvqz/c tightscf
| 32> %pal nprocs 16 end
| 33> %maxcore 3800
| 34> %base "QZ_S-Cl_13_A"
| 35>
| 36> *xyz 0 2
| 37> S         1.043806    0.000000    0.021178
| 38> P        -0.918843    0.000000   -0.104652
| 39> H        -1.459127    1.084233    0.615466
| 40> H        -1.459121   -1.084235    0.615465
| 41> *
| 42>
| 43>
| 44>
| 45>
| 46>                          ****END OF INPUT****
 Total Charge           Charge          ....    0
 Multiplicity           Mult            ....    2
 Number of Electrons    NEL             ....   33
MP2 TOTAL ENERGY:     -739.672695089 Eh
FINAL SINGLE POINT ENERGY      -739.672695088816
MP2 TOTAL ENERGY:     -739.767958421 Eh
FINAL SINGLE POINT ENERGY      -739.767958420886

CARTESIAN COORDINATES (ANGSTROEM)
---------------------------------
  S      1.043806    0.000000    0.021178
  P     -0.918843    0.000000   -0.104652
  H     -1.459127    1.084233    0.615466
  H     -1.459121   -1.084235    0.615465

 Multiplicity           Mult            ....    2
 Number of Electrons    NEL             ....   33
 Basis Dimension        Dim             ....  260

ORBITAL ENERGIES
----------------
                 SPIN UP ORBITALS
  NO   OCC          E(Eh)            E(eV)
   0   1.0000     -91.969125     -2502.6071
   1   1.0000     -79.991960     -2176.6919
   2   1.0000      -8.972294      -244.1485
   3   1.0000      -7.532956      -204.9822
   4   1.0000      -6.664967      -181.3630
   5   1.0000      -6.650350      -180.9652
   6   1.0000      -6.649159      -180.9328
   7   1.0000      -5.430872      -147.7815
   8   1.0000      -5.426010      -147.6492
   9   1.0000      -5.425638      -147.6391
  10   1.0000      -1.017973       -27.7005
  11   1.0000      -0.814021       -22.1506
  12   1.0000      -0.578038       -15.7292
  13   1.0000      -0.534116       -14.5340
  14   1.0000      -0.472530       -12.8582
  15   1.0000      -0.390270       -10.6198
  16   1.0000      -0.365911        -9.9570
  17   0.0000       0.025257         0.6873
  18   0.0000       0.043221         1.1761
  19   0.0000       0.043937         1.1956
  20   0.0000       0.065495         1.7822
  21   0.0000       0.080539         2.1916

                 SPIN DOWN ORBITALS
  NO   OCC          E(Eh)            E(eV)
   0   1.0000     -91.961722     -2502.4057
   1   1.0000     -79.989848     -2176.6344
   2   1.0000      -8.964185      -243.9279
   3   1.0000      -7.529972      -204.9010
   4   1.0000      -6.646719      -180.8664
   5   1.0000      -6.644625      -180.8094
   6   1.0000      -6.631577      -180.4544
   7   1.0000      -5.425804      -147.6436
   8   1.0000      -5.425282      -147.6294
   9   1.0000      -5.421089      -147.5153
  10   1.0000      -0.976706       -26.5775
  11   1.0000      -0.765721       -20.8363
  12   1.0000      -0.569903       -15.5079
  13   1.0000      -0.505636       -13.7591
  14   1.0000      -0.377259       -10.2657
  15   1.0000      -0.374221       -10.1831
  16   0.0000      -0.000865        -0.0235
  17   0.0000       0.025669         0.6985
  18   0.0000       0.043978         1.1967
  19   0.0000       0.044026         1.1980
  20   0.0000       0.066942         1.8216

MULLIKEN ATOMIC CHARGES AND SPIN POPULATIONS
--------------------------------------------
   0 S :   -0.295846    0.774688
   1 P :    0.352449    0.153238
   2 H :   -0.028302    0.036037
   3 H :   -0.028302    0.036037
Sum of atomic charges         :    0.0000000

LOEWDIN ATOMIC CHARGES AND SPIN POPULATIONS
-------------------------------------------
   0 S :    0.507756    0.575279
   1 P :    0.611104    0.321538
   2 H :   -0.559429    0.051592
   3 H :   -0.559431    0.051591

  Mayer bond orders larger than 0.100000
B(  0-S ,  1-P ) :   1.3591 B(  1-P ,  2-H ) :   0.8686 B(  1-P ,  3-H ) :   0.8686

MP2 TOTAL ENERGY:     -739.799574914 Eh
FINAL SINGLE POINT ENERGY      -739.799574913820

DIPOLE MOMENT
-------------
                                X             Y             Z
Electronic contribution:      1.31544       0.00000      -0.97030
Nuclear contribution   :     -1.97731      -0.00000       1.26711
                        -----------------------------------------
Total Dipole Moment    :     -0.66188      -0.00000       0.29681
                        -----------------------------------------
Magnitude (a.u.)       :      0.72538
Magnitude (Debye)      :      1.84377

Rotational constants in cm-1:     4.953653     0.253888     0.248877
Rotational constants in MHz : 148506.780564  7611.364151  7461.148092

                             ****ORCA TERMINATED NORMALLY****
TOTAL RUN TIME: 0 days 0 hours 2 minutes 59 seconds 391 msec
