                         Program Version 5.0.4 -  RELEASE  -
|  1> ! ri-mp2 aug-cc-pvdz aug-cc-pvdz/c tightscf
|  2> %pal nprocs 16 end
|  3> %maxcore 3800
|  4> %base "DZ_B-B_17_AB"
|  5> %scf
|  6> STABPerform true
|  7> STABRestartUHFifUnstable true
|  8> end
|  9>
| 10> *xyz 0 1
| 11> B         1.181034   -0.048188   -0.000003
| 12> B        -0.455704    0.440944   -0.000118
| 13> F        -0.801711    1.709649   -0.000459
| 14> F         1.839790   -0.255939    1.122109
| 15> Cl        -1.736832   -0.749083    0.000226
| 16> F         1.839643   -0.256972   -1.122011
| 17> *
| 18>
| 19> $new_job
| 20> ! ri-mp2 aug-cc-pvtz aug-cc-pvtz/c tightscf
| 21> %pal nprocs 16 end
| 22> %maxcore 3800
| 23> %base "TZ_B-B_17_AB"
| 24>
| 25> *xyz 0 1
| 26> B         1.181034   -0.048188   -0.000003
| 27> B        -0.455704    0.440944   -0.000118
| 28> F        -0.801711    1.709649   -0.000459
| 29> F         1.839790   -0.255939    1.122109
| 30> Cl        -1.736832   -0.749083    0.000226
| 31> F         1.839643   -0.256972   -1.122011
| 32> *
| 33>
| 34> $new_job
| 35> ! ri-mp2 aug-cc-pvqz aug-cc-pvqz/c tightscf
| 36> %pal nprocs 16 end
| 37> %maxcore 3800
| 38> %base "QZ_B-B_17_AB"
| 39>
| 40> *xyz 0 1
| 41> B         1.181034   -0.048188   -0.000003
| 42> B        -0.455704    0.440944   -0.000118
| 43> F        -0.801711    1.709649   -0.000459
| 44> F         1.839790   -0.255939    1.122109
| 45> Cl        -1.736832   -0.749083    0.000226
| 46> F         1.839643   -0.256972   -1.122011
| 47> *
| 48>
| 49>
| 50>
| 51>
| 52>                          ****END OF INPUT****
 Total Charge           Charge          ....    0
 Multiplicity           Mult            ....    1
 Number of Electrons    NEL             ....   54
MP2 TOTAL ENERGY:     -808.344352701 Eh
FINAL SINGLE POINT ENERGY      -808.344352700656
MP2 TOTAL ENERGY:     -808.705435900 Eh
FINAL SINGLE POINT ENERGY      -808.705435900469

CARTESIAN COORDINATES (ANGSTROEM)
---------------------------------
  B      1.181034   -0.048188   -0.000003
  B     -0.455704    0.440944   -0.000118
  F     -0.801711    1.709649   -0.000459
  F      1.839790   -0.255939    1.122109
  Cl    -1.736832   -0.749083    0.000226
  F      1.839643   -0.256972   -1.122011

 Multiplicity           Mult            ....    1
 Number of Electrons    NEL             ....   54
 Basis Dimension        Dim             ....  484

ORBITAL ENERGIES
----------------

  NO   OCC          E(Eh)            E(eV)
   0   2.0000    -104.857571     -2853.3196
   1   2.0000     -26.336527      -716.6533
   2   2.0000     -26.328896      -716.4457
   3   2.0000     -26.328879      -716.4452
   4   2.0000     -10.585513      -288.0464
   5   2.0000      -8.052280      -219.1137
   6   2.0000      -8.051254      -219.0858
   7   2.0000      -8.051003      -219.0789
   8   2.0000      -7.728480      -210.3026
   9   2.0000      -7.724236      -210.1871
  10   2.0000      -1.662841       -45.2482
  11   2.0000      -1.653608       -44.9970
  12   2.0000      -1.630040       -44.3556
  13   2.0000      -1.138725       -30.9863
  14   2.0000      -0.845797       -23.0153
  15   2.0000      -0.817508       -22.2455
  16   2.0000      -0.777820       -21.1656
  17   2.0000      -0.764619       -20.8063
  18   2.0000      -0.732259       -19.9258
  19   2.0000      -0.721841       -19.6423
  20   2.0000      -0.710997       -19.3472
  21   2.0000      -0.674959       -18.3666
  22   2.0000      -0.668317       -18.1858
  23   2.0000      -0.638629       -17.3780
  24   2.0000      -0.524627       -14.2758
  25   2.0000      -0.504222       -13.7206
  26   2.0000      -0.473836       -12.8937
  27   0.0000       0.031534         0.8581
  28   0.0000       0.033763         0.9187
  29   0.0000       0.037107         1.0097
  30   0.0000       0.038076         1.0361
  31   0.0000       0.053135         1.4459

MULLIKEN ATOMIC CHARGES
-----------------------
   0 B :    1.498900
   1 B :    0.914183
   2 F :   -0.729785
   3 F :   -0.743532
   4 Cl:   -0.196223
   5 F :   -0.743542
Sum of atomic charges:   -0.0000000

LOEWDIN ATOMIC CHARGES
----------------------
   0 B :   -1.705519
   1 B :   -1.886597
   2 F :    0.741703
   3 F :    0.783936
   4 Cl:    1.282544
   5 F :    0.783932

  Mayer bond orders larger than 0.100000
B(  0-B ,  1-B ) :   0.9324 B(  0-B ,  3-F ) :   0.4354 B(  0-B ,  5-F ) :   0.4355
B(  1-B ,  2-F ) :   0.4450 B(  1-B ,  4-Cl) :   1.0848

MP2 TOTAL ENERGY:     -808.822431529 Eh
FINAL SINGLE POINT ENERGY      -808.822431528874

DIPOLE MOMENT
-------------
                                X             Y             Z
Electronic contribution:      0.72461       0.38814      -0.00012
Nuclear contribution   :     -0.83723      -0.37937       0.00012
                        -----------------------------------------
Total Dipole Moment    :     -0.11262       0.00877      -0.00001
                        -----------------------------------------
Magnitude (a.u.)       :      0.11296
Magnitude (Debye)      :      0.28713

Rotational constants in cm-1:     0.131821     0.053873     0.048846
Rotational constants in MHz :  3951.899856  1615.081557  1464.358820

                             ****ORCA TERMINATED NORMALLY****
TOTAL RUN TIME: 0 days 0 hours 10 minutes 56 seconds 266 msec
