                         Program Version 5.0.4 -  RELEASE  -
|  1> ! ri-mp2 aug-cc-pvdz aug-cc-pvdz/c tightscf
|  2> %pal nprocs 16 end
|  3> %maxcore 3800
|  4> %base "DZ_P-S_6_AB"
|  5> %scf
|  6> STABPerform true
|  7> STABRestartUHFifUnstable true
|  8> end
|  9>
| 10> *xyz 0 1
| 11> S         0.008517    1.379528   -0.088155
| 12> P        -1.371787   -0.186057    0.022979
| 13> O        -2.733713    0.297412   -0.137056
| 14> O        -0.921376   -1.286548   -1.041947
| 15> O         1.330383    0.531287    0.461675
| 16> C         2.214635    0.025940   -0.556359
| 17> C         3.335427   -0.697675    0.141144
| 18> H         2.586150    0.867999   -1.143738
| 19> H         1.655331   -0.640190   -1.215217
| 20> H         3.866564   -0.028710    0.817160
| 21> H         4.043016   -1.077819   -0.596008
| 22> H         2.954875   -1.542724    0.714657
| 23> O        -0.992479   -0.902790    1.373668
| 24> H        -0.063890   -0.777633    1.620301
| 25> H        -1.364402   -1.166998   -1.890787
| 26> *
| 27>
| 28> $new_job
| 29> ! ri-mp2 aug-cc-pvtz aug-cc-pvtz/c tightscf
| 30> %pal nprocs 16 end
| 31> %maxcore 3800
| 32> %base "TZ_P-S_6_AB"
| 33>
| 34> *xyz 0 1
| 35> S         0.008517    1.379528   -0.088155
| 36> P        -1.371787   -0.186057    0.022979
| 37> O        -2.733713    0.297412   -0.137056
| 38> O        -0.921376   -1.286548   -1.041947
| 39> O         1.330383    0.531287    0.461675
| 40> C         2.214635    0.025940   -0.556359
| 41> C         3.335427   -0.697675    0.141144
| 42> H         2.586150    0.867999   -1.143738
| 43> H         1.655331   -0.640190   -1.215217
| 44> H         3.866564   -0.028710    0.817160
| 45> H         4.043016   -1.077819   -0.596008
| 46> H         2.954875   -1.542724    0.714657
| 47> O        -0.992479   -0.902790    1.373668
| 48> H        -0.063890   -0.777633    1.620301
| 49> H        -1.364402   -1.166998   -1.890787
| 50> *
| 51>
| 52> $new_job
| 53> ! ri-mp2 aug-cc-pvqz aug-cc-pvqz/c tightscf
| 54> %pal nprocs 16 end
| 55> %maxcore 3800
| 56> %base "QZ_P-S_6_AB"
| 57>
| 58> *xyz 0 1
| 59> S         0.008517    1.379528   -0.088155
| 60> P        -1.371787   -0.186057    0.022979
| 61> O        -2.733713    0.297412   -0.137056
| 62> O        -0.921376   -1.286548   -1.041947
| 63> O         1.330383    0.531287    0.461675
| 64> C         2.214635    0.025940   -0.556359
| 65> C         3.335427   -0.697675    0.141144
| 66> H         2.586150    0.867999   -1.143738
| 67> H         1.655331   -0.640190   -1.215217
| 68> H         3.866564   -0.028710    0.817160
| 69> H         4.043016   -1.077819   -0.596008
| 70> H         2.954875   -1.542724    0.714657
| 71> O        -0.992479   -0.902790    1.373668
| 72> H        -0.063890   -0.777633    1.620301
| 73> H        -1.364402   -1.166998   -1.890787
| 74> *
| 75>
| 76>
| 77>
| 78>
| 79>                          ****END OF INPUT****
 Total Charge           Charge          ....    0
 Multiplicity           Mult            ....    1
 Number of Electrons    NEL             ....   82
MP2 TOTAL ENERGY:    -1118.995149336 Eh
FINAL SINGLE POINT ENERGY     -1118.995149335994
MP2 TOTAL ENERGY:    -1119.460380794 Eh
FINAL SINGLE POINT ENERGY     -1119.460380794311

CARTESIAN COORDINATES (ANGSTROEM)
---------------------------------
  S      0.008517    1.379528   -0.088155
  P     -1.371787   -0.186057    0.022979
  O     -2.733713    0.297412   -0.137056
  O     -0.921376   -1.286548   -1.041947
  O      1.330383    0.531287    0.461675
  C      2.214635    0.025940   -0.556359
  C      3.335427   -0.697675    0.141144
  H      2.586150    0.867999   -1.143738
  H      1.655331   -0.640190   -1.215217
  H      3.866564   -0.028710    0.817160
  H      4.043016   -1.077819   -0.596008
  H      2.954875   -1.542724    0.714657
  O     -0.992479   -0.902790    1.373668
  H     -0.063890   -0.777633    1.620301
  H     -1.364402   -1.166998   -1.890787

 Multiplicity           Mult            ....    1
 Number of Electrons    NEL             ....   82
 Basis Dimension        Dim             ....  970

ORBITAL ENERGIES
----------------

  NO   OCC          E(Eh)            E(eV)
   0   2.0000     -92.021231     -2504.0250
   1   2.0000     -80.094897     -2179.4930
   2   2.0000     -20.616781      -561.0111
   3   2.0000     -20.612951      -560.9069
   4   2.0000     -20.608705      -560.7914
   5   2.0000     -20.519869      -558.3740
   6   2.0000     -11.304329      -307.6064
   7   2.0000     -11.237380      -305.7846
   8   2.0000      -9.019278      -245.4270
   9   2.0000      -7.615609      -207.2313
  10   2.0000      -6.700577      -182.3320
  11   2.0000      -6.699178      -182.2939
  12   2.0000      -6.698236      -182.2683
  13   2.0000      -5.513964      -150.0426
  14   2.0000      -5.513436      -150.0282
  15   2.0000      -5.512576      -150.0048
  16   2.0000      -1.453720       -39.5577
  17   2.0000      -1.412156       -38.4267
  18   2.0000      -1.396643       -38.0046
  19   2.0000      -1.315271       -35.7903
  20   2.0000      -1.062169       -28.9031
  21   2.0000      -0.967394       -26.3241
  22   2.0000      -0.868977       -23.6461
  23   2.0000      -0.842603       -22.9284
  24   2.0000      -0.763890       -20.7865
  25   2.0000      -0.721634       -19.6367
  26   2.0000      -0.690494       -18.7893
  27   2.0000      -0.660220       -17.9655
  28   2.0000      -0.656479       -17.8637
  29   2.0000      -0.621778       -16.9194
  30   2.0000      -0.603300       -16.4166
  31   2.0000      -0.591975       -16.1084
  32   2.0000      -0.574648       -15.6370
  33   2.0000      -0.564073       -15.3492
  34   2.0000      -0.556560       -15.1448
  35   2.0000      -0.525984       -14.3127
  36   2.0000      -0.511398       -13.9159
  37   2.0000      -0.493723       -13.4349
  38   2.0000      -0.484263       -13.1775
  39   2.0000      -0.434277       -11.8173
  40   2.0000      -0.395603       -10.7649
  41   0.0000       0.019279         0.5246
  42   0.0000       0.027827         0.7572
  43   0.0000       0.031658         0.8615
  44   0.0000       0.035072         0.9544
  45   0.0000       0.047802         1.3008

MULLIKEN ATOMIC CHARGES
-----------------------
   0 S :    0.142157
   1 P :    2.349692
   2 O :   -1.182849
   3 O :   -0.866180
   4 O :   -0.820178
   5 C :   -0.069304
   6 C :   -0.903103
   7 H :    0.346665
   8 H :    0.327423
   9 H :    0.262369
  10 H :    0.294595
  11 H :    0.259241
  12 O :   -0.902420
  13 H :    0.392712
  14 H :    0.369178
Sum of atomic charges:   -0.0000000

LOEWDIN ATOMIC CHARGES
----------------------
   0 S :    0.858714
   1 P :   -1.060006
   2 O :    0.227710
   3 O :    1.058977
   4 O :    0.317421
   5 C :    0.012054
   6 C :    0.894322
   7 H :   -0.324655
   8 H :   -0.351256
   9 H :   -0.291737
  10 H :   -0.288318
  11 H :   -0.291984
  12 O :    1.063908
  13 H :   -0.955947
  14 H :   -0.869203

  Mayer bond orders larger than 0.100000
B(  0-S ,  1-P ) :   0.9715 B(  0-S ,  4-O ) :   0.7633 B(  1-P ,  2-O ) :   1.3010
B(  1-P ,  3-O ) :   0.7056 B(  1-P , 12-O ) :   0.6316 B(  2-O , 12-O ) :  -0.1011
B(  3-O , 14-H ) :   0.9130 B(  4-O ,  5-C ) :   0.7590 B(  5-C ,  6-C ) :   0.9958
B(  5-C ,  7-H ) :   0.8038 B(  5-C ,  8-H ) :   0.8586 B(  6-C ,  9-H ) :   0.9271
B(  6-C , 10-H ) :   0.9309 B(  6-C , 11-H ) :   0.9310 B( 12-O , 13-H ) :   0.8435

MP2 TOTAL ENERGY:    -1119.609966901 Eh
FINAL SINGLE POINT ENERGY     -1119.609966900546

DIPOLE MOMENT
-------------
                                X             Y             Z
Electronic contribution:    -12.57472       3.69991       0.88462
Nuclear contribution   :     14.54377      -4.14245      -1.65824
                        -----------------------------------------
Total Dipole Moment    :      1.96905      -0.44254      -0.77362
                        -----------------------------------------
Magnitude (a.u.)       :      2.16136
Magnitude (Debye)      :      5.49375

Rotational constants in cm-1:     0.090655     0.030955     0.028172
Rotational constants in MHz :  2717.759759   928.006378   844.565618

                             ****ORCA TERMINATED NORMALLY****
TOTAL RUN TIME: 0 days 1 hours 36 minutes 9 seconds 413 msec
