                         Program Version 5.0.4 -  RELEASE  -
|  1> ! ri-mp2 aug-cc-pvdz aug-cc-pvdz/c tightscf
|  2> %pal nprocs 16 end
|  3> %maxcore 3800
|  4> %base "DZ_S-S_2_AB"
|  5> %scf
|  6> STABPerform true
|  7> STABRestartUHFifUnstable true
|  8> end
|  9>
| 10> *xyz 0 1
| 11> S         0.913061    1.491768   -0.442180
| 12> S        -0.913060    1.491769    0.442176
| 13> C        -1.689059    0.060398   -0.336374
| 14> C         1.689061    0.060402    0.336377
| 15> O         1.164089   -0.590195    1.185707
| 16> O        -1.164084   -0.590205   -1.185697
| 17> C        -4.056479   -0.536721   -0.827054
| 18> C         4.056481   -0.536722    0.827050
| 19> C         3.042673   -0.240460   -0.269705
| 20> C        -3.042674   -0.240459    0.269704
| 21> H         3.726850   -1.383525    1.427277
| 22> H         4.189321    0.318134    1.490160
| 23> H        -3.726847   -1.383526   -1.427278
| 24> H        -4.189313    0.318134   -1.490167
| 25> C         2.874573   -1.416419   -1.233010
| 26> H         3.364086    0.635739   -0.839126
| 27> H         3.823879   -1.633022   -1.722604
| 28> H         2.130588   -1.201174   -1.999389
| 29> H         2.554538   -2.304523   -0.688476
| 30> C        -2.874580   -1.416415    1.233012
| 31> H        -3.364087    0.635743    0.839120
| 32> H        -3.823889   -1.633015    1.722603
| 33> H        -2.130599   -1.201170    1.999394
| 34> H        -2.554546   -2.304522    0.688482
| 35> H        -5.022992   -0.779148   -0.385390
| 36> H         5.022992   -0.779153    0.385382
| 37> *
| 38>
| 39> $new_job
| 40> ! ri-mp2 aug-cc-pvtz aug-cc-pvtz/c tightscf
| 41> %pal nprocs 16 end
| 42> %maxcore 3800
| 43> %base "TZ_S-S_2_AB"
| 44>
| 45> *xyz 0 1
| 46> S         0.913061    1.491768   -0.442180
| 47> S        -0.913060    1.491769    0.442176
| 48> C        -1.689059    0.060398   -0.336374
| 49> C         1.689061    0.060402    0.336377
| 50> O         1.164089   -0.590195    1.185707
| 51> O        -1.164084   -0.590205   -1.185697
| 52> C        -4.056479   -0.536721   -0.827054
| 53> C         4.056481   -0.536722    0.827050
| 54> C         3.042673   -0.240460   -0.269705
| 55> C        -3.042674   -0.240459    0.269704
| 56> H         3.726850   -1.383525    1.427277
| 57> H         4.189321    0.318134    1.490160
| 58> H        -3.726847   -1.383526   -1.427278
| 59> H        -4.189313    0.318134   -1.490167
| 60> C         2.874573   -1.416419   -1.233010
| 61> H         3.364086    0.635739   -0.839126
| 62> H         3.823879   -1.633022   -1.722604
| 63> H         2.130588   -1.201174   -1.999389
| 64> H         2.554538   -2.304523   -0.688476
| 65> C        -2.874580   -1.416415    1.233012
| 66> H        -3.364087    0.635743    0.839120
| 67> H        -3.823889   -1.633015    1.722603
| 68> H        -2.130599   -1.201170    1.999394
| 69> H        -2.554546   -2.304522    0.688482
| 70> H        -5.022992   -0.779148   -0.385390
| 71> H         5.022992   -0.779153    0.385382
| 72> *
| 73>
| 74> $new_job
| 75> ! ri-mp2 aug-cc-pvqz aug-cc-pvqz/c tightscf
| 76> %pal nprocs 16 end
| 77> %maxcore 3800
| 78> %base "QZ_S-S_2_AB"
| 79>
| 80> *xyz 0 1
| 81> S         0.913061    1.491768   -0.442180
| 82> S        -0.913060    1.491769    0.442176
| 83> C        -1.689059    0.060398   -0.336374
| 84> C         1.689061    0.060402    0.336377
| 85> O         1.164089   -0.590195    1.185707
| 86> O        -1.164084   -0.590205   -1.185697
| 87> C        -4.056479   -0.536721   -0.827054
| 88> C         4.056481   -0.536722    0.827050
| 89> C         3.042673   -0.240460   -0.269705
| 90> C        -3.042674   -0.240459    0.269704
| 91> H         3.726850   -1.383525    1.427277
| 92> H         4.189321    0.318134    1.490160
| 93> H        -3.726847   -1.383526   -1.427278
| 94> H        -4.189313    0.318134   -1.490167
| 95> C         2.874573   -1.416419   -1.233010
| 96> H         3.364086    0.635739   -0.839126
| 97> H         3.823879   -1.633022   -1.722604
| 98> H         2.130588   -1.201174   -1.999389
| 99> H         2.554538   -2.304523   -0.688476
|100> C        -2.874580   -1.416415    1.233012
|101> H        -3.364087    0.635743    0.839120
|102> H        -3.823889   -1.633015    1.722603
|103> H        -2.130599   -1.201170    1.999394
|104> H        -2.554546   -2.304522    0.688482
|105> H        -5.022992   -0.779148   -0.385390
|106> H         5.022992   -0.779153    0.385382
|107> *
|108>
|109>
|110>
|111>
|112>                          ****END OF INPUT****
 Total Charge           Charge          ....    0
 Multiplicity           Mult            ....    1
 Number of Electrons    NEL             ....  110
MP2 TOTAL ENERGY:    -1257.802735454 Eh
FINAL SINGLE POINT ENERGY     -1257.802735454048
MP2 TOTAL ENERGY:    -1258.319702587 Eh
FINAL SINGLE POINT ENERGY     -1258.319702586714

CARTESIAN COORDINATES (ANGSTROEM)
---------------------------------
  S      0.913061    1.491768   -0.442180
  S     -0.913060    1.491769    0.442176
  C     -1.689059    0.060398   -0.336374
  C      1.689061    0.060402    0.336377
  O      1.164089   -0.590195    1.185707
  O     -1.164084   -0.590205   -1.185697
  C     -4.056479   -0.536721   -0.827054
  C      4.056481   -0.536722    0.827050
  C      3.042673   -0.240460   -0.269705
  C     -3.042674   -0.240459    0.269704
  H      3.726850   -1.383525    1.427277
  H      4.189321    0.318134    1.490160
  H     -3.726847   -1.383526   -1.427278
  H     -4.189313    0.318134   -1.490167
  C      2.874573   -1.416419   -1.233010
  H      3.364086    0.635739   -0.839126
  H      3.823879   -1.633022   -1.722604
  H      2.130588   -1.201174   -1.999389
  H      2.554538   -2.304523   -0.688476
  C     -2.874580   -1.416415    1.233012
  H     -3.364087    0.635743    0.839120
  H     -3.823889   -1.633015    1.722603
  H     -2.130599   -1.201170    1.999394
  H     -2.554546   -2.304522    0.688482
  H     -5.022992   -0.779148   -0.385390
  H      5.022992   -0.779153    0.385382

 Multiplicity           Mult            ....    1
 Number of Electrons    NEL             ....  110
 Basis Dimension        Dim             .... 1612

ORBITAL ENERGIES
----------------

  NO   OCC          E(Eh)            E(eV)
   0   2.0000     -91.991663     -2503.2204
   1   2.0000     -91.991661     -2503.2204
   2   2.0000     -20.561328      -559.5022
   3   2.0000     -20.561327      -559.5021
   4   2.0000     -11.361866      -309.1721
   5   2.0000     -11.361865      -309.1721
   6   2.0000     -11.254085      -306.2392
   7   2.0000     -11.254085      -306.2392
   8   2.0000     -11.225594      -305.4639
   9   2.0000     -11.225594      -305.4639
  10   2.0000     -11.224758      -305.4412
  11   2.0000     -11.224757      -305.4412
  12   2.0000      -8.993464      -244.7246
  13   2.0000      -8.993248      -244.7187
  14   2.0000      -6.674819      -181.6311
  15   2.0000      -6.674426      -181.6204
  16   2.0000      -6.673281      -181.5892
  17   2.0000      -6.673171      -181.5862
  18   2.0000      -6.672584      -181.5702
  19   2.0000      -6.672572      -181.5699
  20   2.0000      -1.419672       -38.6313
  21   2.0000      -1.415865       -38.5277
  22   2.0000      -1.111088       -30.2342
  23   2.0000      -1.103416       -30.0255
  24   2.0000      -1.072904       -29.1952
  25   2.0000      -0.960219       -26.1289
  26   2.0000      -0.946345       -25.7514
  27   2.0000      -0.944802       -25.7094
  28   2.0000      -0.878098       -23.8943
  29   2.0000      -0.828350       -22.5406
  30   2.0000      -0.738772       -20.1030
  31   2.0000      -0.727287       -19.7905
  32   2.0000      -0.684846       -18.6356
  33   2.0000      -0.667873       -18.1737
  34   2.0000      -0.654239       -17.8027
  35   2.0000      -0.626333       -17.0434
  36   2.0000      -0.619014       -16.8442
  37   2.0000      -0.599706       -16.3188
  38   2.0000      -0.594233       -16.1699
  39   2.0000      -0.592976       -16.1357
  40   2.0000      -0.561118       -15.2688
  41   2.0000      -0.554285       -15.0829
  42   2.0000      -0.550154       -14.9704
  43   2.0000      -0.541595       -14.7376
  44   2.0000      -0.535160       -14.5624
  45   2.0000      -0.529830       -14.4174
  46   2.0000      -0.503488       -13.7006
  47   2.0000      -0.496466       -13.5095
  48   2.0000      -0.492702       -13.4071
  49   2.0000      -0.489321       -13.3151
  50   2.0000      -0.467192       -12.7129
  51   2.0000      -0.427801       -11.6411
  52   2.0000      -0.418747       -11.3947
  53   2.0000      -0.387605       -10.5473
  54   2.0000      -0.367186        -9.9916
  55   0.0000       0.025194         0.6856
  56   0.0000       0.025545         0.6951
  57   0.0000       0.033051         0.8994
  58   0.0000       0.034512         0.9391
  59   0.0000       0.038982         1.0608

MULLIKEN ATOMIC CHARGES
-----------------------
   0 S :   -0.086397
   1 S :   -0.086398
   2 C :    0.753695
   3 C :    0.753693
   4 O :   -0.963218
   5 O :   -0.963217
   6 C :   -0.978590
   7 C :   -0.978589
   8 C :    0.283521
   9 C :    0.283523
  10 H :    0.232346
  11 H :    0.272739
  12 H :    0.232345
  13 H :    0.272739
  14 C :   -1.014692
  15 H :    0.294571
  16 H :    0.359088
  17 H :    0.326691
  18 H :    0.205748
  19 C :   -1.014699
  20 H :    0.294578
  21 H :    0.359081
  22 H :    0.326696
  23 H :    0.205751
  24 H :    0.314498
  25 H :    0.314498
Sum of atomic charges:    0.0000000

LOEWDIN ATOMIC CHARGES
----------------------
   0 S :    0.791893
   1 S :    0.791893
   2 C :   -1.180994
   3 C :   -1.180995
   4 O :    0.668583
   5 O :    0.668583
   6 C :    0.902512
   7 C :    0.902512
   8 C :   -0.070436
   9 C :   -0.070435
  10 H :   -0.290709
  11 H :   -0.270797
  12 H :   -0.290708
  13 H :   -0.270797
  14 C :    0.904135
  15 H :   -0.351463
  16 H :   -0.271695
  17 H :   -0.276680
  18 H :   -0.279056
  19 C :    0.904134
  20 H :   -0.351463
  21 H :   -0.271694
  22 H :   -0.276680
  23 H :   -0.279056
  24 H :   -0.275294
  25 H :   -0.275294

  Mayer bond orders larger than 0.100000
B(  0-S ,  1-S ) :   1.0947 B(  0-S ,  3-C ) :   0.8970 B(  0-S ,  8-C ) :  -0.1049
B(  1-S ,  2-C ) :   0.8970 B(  1-S ,  9-C ) :  -0.1049 B(  2-C ,  5-O ) :   1.1831
B(  2-C ,  9-C ) :   0.7452 B(  3-C ,  4-O ) :   1.1831 B(  3-C ,  8-C ) :   0.7452
B(  6-C ,  9-C ) :   0.7326 B(  6-C , 12-H ) :   0.9719 B(  6-C , 13-H ) :   0.9987
B(  6-C , 19-C ) :   0.1070 B(  6-C , 24-H ) :   0.9691 B(  7-C ,  8-C ) :   0.7326
B(  7-C , 10-H ) :   0.9719 B(  7-C , 11-H ) :   0.9987 B(  7-C , 14-C ) :   0.1070
B(  7-C , 25-H ) :   0.9691 B(  8-C , 14-C ) :   0.7645 B(  8-C , 15-H ) :   0.8468
B(  9-C , 19-C ) :   0.7645 B(  9-C , 20-H ) :   0.8468 B( 14-C , 16-H ) :   0.9004
B( 14-C , 17-H ) :   0.9164 B( 14-C , 18-H ) :   0.9914 B( 19-C , 21-H ) :   0.9004
B( 19-C , 22-H ) :   0.9163 B( 19-C , 23-H ) :   0.9914

MP2 TOTAL ENERGY:    -1258.484597198 Eh
FINAL SINGLE POINT ENERGY     -1258.484597197522

DIPOLE MOMENT
-------------
                                X             Y             Z
Electronic contribution:      0.00002      12.91534       0.00001
Nuclear contribution   :     -0.00002     -12.82246      -0.00001
                        -----------------------------------------
Total Dipole Moment    :     -0.00000       0.09288      -0.00001
                        -----------------------------------------
Magnitude (a.u.)       :      0.09288
Magnitude (Debye)      :      0.23609

Rotational constants in cm-1:     0.044958     0.012862     0.011997
Rotational constants in MHz :  1347.817243   385.606356   359.670127

                             ****ORCA TERMINATED NORMALLY****
TOTAL RUN TIME: 0 days 9 hours 39 minutes 0 seconds 21 msec
