                         Program Version 5.0.4 -  RELEASE  -
|  1> ! ri-mp2 aug-cc-pvdz aug-cc-pvdz/c tightscf
|  2> %pal nprocs 16 end
|  3> %maxcore 3800
|  4> %base "DZ_S-F_52_AB"
|  5> %scf
|  6> STABPerform true
|  7> STABRestartUHFifUnstable true
|  8> end
|  9>
| 10> *xyz 0 1
| 11> F        -2.225997   -0.134744    0.000000
| 12> S        -0.884883   -1.066541    0.000001
| 13> C         0.411553    0.040189   -0.000001
| 14> S         1.846876   -0.733860   -0.000002
| 15> S         0.206837    1.750748    0.000001
| 16> H        -1.136618    1.766012    0.000004
| 17> *
| 18>
| 19> $new_job
| 20> ! ri-mp2 aug-cc-pvtz aug-cc-pvtz/c tightscf
| 21> %pal nprocs 16 end
| 22> %maxcore 3800
| 23> %base "TZ_S-F_52_AB"
| 24>
| 25> *xyz 0 1
| 26> F        -2.225997   -0.134744    0.000000
| 27> S        -0.884883   -1.066541    0.000001
| 28> C         0.411553    0.040189   -0.000001
| 29> S         1.846876   -0.733860   -0.000002
| 30> S         0.206837    1.750748    0.000001
| 31> H        -1.136618    1.766012    0.000004
| 32> *
| 33>
| 34> $new_job
| 35> ! ri-mp2 aug-cc-pvqz aug-cc-pvqz/c tightscf
| 36> %pal nprocs 16 end
| 37> %maxcore 3800
| 38> %base "QZ_S-F_52_AB"
| 39>
| 40> *xyz 0 1
| 41> F        -2.225997   -0.134744    0.000000
| 42> S        -0.884883   -1.066541    0.000001
| 43> C         0.411553    0.040189   -0.000001
| 44> S         1.846876   -0.733860   -0.000002
| 45> S         0.206837    1.750748    0.000001
| 46> H        -1.136618    1.766012    0.000004
| 47> *
| 48>
| 49>
| 50>
| 51>
| 52>                          ****END OF INPUT****
 Total Charge           Charge          ....    0
 Multiplicity           Mult            ....    1
 Number of Electrons    NEL             ....   64
MP2 TOTAL ENERGY:    -1331.216566362 Eh
FINAL SINGLE POINT ENERGY     -1331.216566362090
MP2 TOTAL ENERGY:    -1331.484846112 Eh
FINAL SINGLE POINT ENERGY     -1331.484846111938

CARTESIAN COORDINATES (ANGSTROEM)
---------------------------------
  F     -2.225997   -0.134744    0.000000
  S     -0.884883   -1.066541    0.000001
  C      0.411553    0.040189   -0.000001
  S      1.846876   -0.733860   -0.000002
  S      0.206837    1.750748    0.000001
  H     -1.136618    1.766012    0.000004

 Multiplicity           Mult            ....    1
 Number of Electrons    NEL             ....   64
 Basis Dimension        Dim             ....  458

ORBITAL ENERGIES
----------------

  NO   OCC          E(Eh)            E(eV)
   0   2.0000     -92.080961     -2505.6503
   1   2.0000     -92.018634     -2503.9543
   2   2.0000     -91.950014     -2502.0871
   3   2.0000     -26.339682      -716.7392
   4   2.0000     -11.396126      -310.1043
   5   2.0000      -9.074835      -246.9388
   6   2.0000      -9.021212      -245.4797
   7   2.0000      -8.954062      -243.6524
   8   2.0000      -6.756024      -183.8408
   9   2.0000      -6.753814      -183.7806
  10   2.0000      -6.752610      -183.7479
  11   2.0000      -6.702497      -182.3842
  12   2.0000      -6.701488      -182.3568
  13   2.0000      -6.700703      -182.3354
  14   2.0000      -6.635421      -180.5590
  15   2.0000      -6.633961      -180.5193
  16   2.0000      -6.633142      -180.4970
  17   2.0000      -1.638701       -44.5913
  18   2.0000      -1.175728       -31.9932
  19   2.0000      -1.025489       -27.9050
  20   2.0000      -0.974852       -26.5271
  21   2.0000      -0.777927       -21.1685
  22   2.0000      -0.721668       -19.6376
  23   2.0000      -0.721104       -19.6222
  24   2.0000      -0.704058       -19.1584
  25   2.0000      -0.581090       -15.8123
  26   2.0000      -0.556945       -15.1553
  27   2.0000      -0.540050       -14.6955
  28   2.0000      -0.510856       -13.9011
  29   2.0000      -0.414214       -11.2713
  30   2.0000      -0.366075        -9.9614
  31   2.0000      -0.357717        -9.7340
  32   0.0000       0.025065         0.6821
  33   0.0000       0.025700         0.6993
  34   0.0000       0.046673         1.2700
  35   0.0000       0.049744         1.3536
  36   0.0000       0.067314         1.8317

MULLIKEN ATOMIC CHARGES
-----------------------
   0 F :   -0.629193
   1 S :    0.870649
   2 C :   -0.628519
   3 S :    0.082743
   4 S :    0.202415
   5 H :    0.101905
Sum of atomic charges:    0.0000000

LOEWDIN ATOMIC CHARGES
----------------------
   0 F :    0.109851
   1 S :    0.504719
   2 C :   -1.984835
   3 S :    0.805844
   4 S :    1.434857
   5 H :   -0.870436

  Mayer bond orders larger than 0.100000
B(  0-F ,  1-S ) :   0.5859 B(  1-S ,  2-C ) :   1.0099 B(  1-S ,  3-S ) :   0.1063
B(  2-C ,  3-S ) :   1.5445 B(  2-C ,  4-S ) :   0.9402 B(  4-S ,  5-H ) :   1.0197

MP2 TOTAL ENERGY:    -1331.575507529 Eh
FINAL SINGLE POINT ENERGY     -1331.575507529045

DIPOLE MOMENT
-------------
                                X             Y             Z
Electronic contribution:     -1.62646      -1.33433      -0.00000
Nuclear contribution   :      0.96168       1.78201       0.00000
                        -----------------------------------------
Total Dipole Moment    :     -0.66479       0.44767       0.00000
                        -----------------------------------------
Magnitude (a.u.)       :      0.80147
Magnitude (Debye)      :      2.03717

Rotational constants in cm-1:     0.108468     0.072238     0.043361
Rotational constants in MHz :  3251.783076  2165.652241  1299.919776

                             ****ORCA TERMINATED NORMALLY****
TOTAL RUN TIME: 0 days 0 hours 7 minutes 25 seconds 69 msec
