                         Program Version 5.0.4 -  RELEASE  -
|  1> ! ri-mp2 aug-cc-pvdz aug-cc-pvdz/c tightscf
|  2> %pal nprocs 16 end
|  3> %maxcore 3800
|  4> %base "DZ_B-F_39_A"
|  5> %scf
|  6> STABPerform true
|  7> STABRestartUHFifUnstable true
|  8> end
|  9>
| 10> *xyz 0 2
| 11> F        -2.386110    0.226275   -0.000020
| 12> B        -1.267613    0.859458   -0.000024
| 13> S         0.356299   -0.156514    0.000009
| 14> O         0.402223   -0.865223   -1.253044
| 15> C         1.655180    1.040830   -0.000057
| 16> O         0.402232   -0.865097    1.253133
| 17> H         1.580515    1.647587   -0.899075
| 18> H         2.584511    0.472765   -0.000029
| 19> H         1.580518    1.647682    0.898897
| 20> *
| 21>
| 22> $new_job
| 23> ! ri-mp2 aug-cc-pvtz aug-cc-pvtz/c tightscf
| 24> %pal nprocs 16 end
| 25> %maxcore 3800
| 26> %base "TZ_B-F_39_A"
| 27>
| 28> *xyz 0 2
| 29> F        -2.386110    0.226275   -0.000020
| 30> B        -1.267613    0.859458   -0.000024
| 31> S         0.356299   -0.156514    0.000009
| 32> O         0.402223   -0.865223   -1.253044
| 33> C         1.655180    1.040830   -0.000057
| 34> O         0.402232   -0.865097    1.253133
| 35> H         1.580515    1.647587   -0.899075
| 36> H         2.584511    0.472765   -0.000029
| 37> H         1.580518    1.647682    0.898897
| 38> *
| 39>
| 40> $new_job
| 41> ! ri-mp2 aug-cc-pvqz aug-cc-pvqz/c tightscf
| 42> %pal nprocs 16 end
| 43> %maxcore 3800
| 44> %base "QZ_B-F_39_A"
| 45>
| 46> *xyz 0 2
| 47> F        -2.386110    0.226275   -0.000020
| 48> B        -1.267613    0.859458   -0.000024
| 49> S         0.356299   -0.156514    0.000009
| 50> O         0.402223   -0.865223   -1.253044
| 51> C         1.655180    1.040830   -0.000057
| 52> O         0.402232   -0.865097    1.253133
| 53> H         1.580515    1.647587   -0.899075
| 54> H         2.584511    0.472765   -0.000029
| 55> H         1.580518    1.647682    0.898897
| 56> *
| 57>
| 58>
| 59>
| 60>
| 61>                          ****END OF INPUT****
 Total Charge           Charge          ....    0
 Multiplicity           Mult            ....    2
 Number of Electrons    NEL             ....   55
MP2 TOTAL ENERGY:     -711.886016103 Eh
FINAL SINGLE POINT ENERGY      -711.886016103084
MP2 TOTAL ENERGY:     -712.249351152 Eh
FINAL SINGLE POINT ENERGY      -712.249351151828

CARTESIAN COORDINATES (ANGSTROEM)
---------------------------------
  F     -2.386110    0.226275   -0.000020
  B     -1.267613    0.859458   -0.000024
  S      0.356299   -0.156514    0.000009
  O      0.402223   -0.865223   -1.253044
  C      1.655180    1.040830   -0.000057
  O      0.402232   -0.865097    1.253133
  H      1.580515    1.647587   -0.899075
  H      2.584511    0.472765   -0.000029
  H      1.580518    1.647682    0.898897

 Multiplicity           Mult            ....    2
 Number of Electrons    NEL             ....   55
 Basis Dimension        Dim             ....  622

ORBITAL ENERGIES
----------------
                 SPIN UP ORBITALS
  NO   OCC          E(Eh)            E(eV)
   0   1.0000     -92.173218     -2508.1608
   1   1.0000     -26.368658      -717.5277
   2   1.0000     -20.556604      -559.3736
   3   1.0000     -20.556586      -559.3731
   4   1.0000     -11.283175      -307.0308
   5   1.0000      -9.146372      -248.8854
   6   1.0000      -7.753665      -210.9880
   7   1.0000      -6.832729      -185.9280
   8   1.0000      -6.830410      -185.8649
   9   1.0000      -6.830013      -185.8541
  10   1.0000      -1.689832       -45.9827
  11   1.0000      -1.467657       -39.9370
  12   1.0000      -1.357068       -36.9277
  13   1.0000      -1.061335       -28.8804
  14   1.0000      -0.897869       -24.4323
  15   1.0000      -0.835563       -22.7368
  16   1.0000      -0.768049       -20.8997
  17   1.0000      -0.735644       -20.0179
  18   1.0000      -0.718126       -19.5412
  19   1.0000      -0.678147       -18.4533
  20   1.0000      -0.668337       -18.1864
  21   1.0000      -0.616916       -16.7871
  22   1.0000      -0.608890       -16.5688
  23   1.0000      -0.529164       -14.3993
  24   1.0000      -0.522492       -14.2177
  25   1.0000      -0.487837       -13.2747
  26   1.0000      -0.485617       -13.2143
  27   1.0000      -0.388749       -10.5784
  28   0.0000       0.018136         0.4935
  29   0.0000       0.024021         0.6536
  30   0.0000       0.031009         0.8438
  31   0.0000       0.039036         1.0622
  32   0.0000       0.045994         1.2516

                 SPIN DOWN ORBITALS
  NO   OCC          E(Eh)            E(eV)
   0   1.0000     -92.171776     -2508.1215
   1   1.0000     -26.365756      -717.4487
   2   1.0000     -20.554815      -559.3249
   3   1.0000     -20.554795      -559.3244
   4   1.0000     -11.283280      -307.0337
   5   1.0000      -9.144352      -248.8305
   6   1.0000      -7.733749      -210.4460
   7   1.0000      -6.829625      -185.8435
   8   1.0000      -6.829398      -185.8374
   9   1.0000      -6.827702      -185.7912
  10   1.0000      -1.681873       -45.7661
  11   1.0000      -1.462225       -39.7892
  12   1.0000      -1.351767       -36.7835
  13   1.0000      -1.059613       -28.8335
  14   1.0000      -0.878441       -23.9036
  15   1.0000      -0.825451       -22.4617
  16   1.0000      -0.745423       -20.2840
  17   1.0000      -0.736852       -20.0508
  18   1.0000      -0.701553       -19.0902
  19   1.0000      -0.673268       -18.3205
  20   1.0000      -0.665328       -18.1045
  21   1.0000      -0.612975       -16.6799
  22   1.0000      -0.606351       -16.4997
  23   1.0000      -0.513286       -13.9672
  24   1.0000      -0.508782       -13.8447
  25   1.0000      -0.486803       -13.2466
  26   1.0000      -0.447817       -12.1857
  27   0.0000       0.007732         0.2104
  28   0.0000       0.026782         0.7288
  29   0.0000       0.030976         0.8429
  30   0.0000       0.038526         1.0483
  31   0.0000       0.042974         1.1694

MULLIKEN ATOMIC CHARGES AND SPIN POPULATIONS
--------------------------------------------
   0 F :   -0.687932   -0.003388
   1 B :    0.790493    0.925757
   2 S :    2.265293    0.024768
   3 O :   -1.197132    0.034674
   4 C :   -1.054225   -0.011133
   5 O :   -1.197130    0.034671
   6 H :    0.357113   -0.000422
   7 H :    0.366406   -0.004503
   8 H :    0.357114   -0.000422
Sum of atomic charges         :    0.0000000

LOEWDIN ATOMIC CHARGES AND SPIN POPULATIONS
-------------------------------------------
   0 F :    0.720184    0.146938
   1 B :   -0.784320    0.590982
   2 S :   -0.230182    0.146213
   3 O :    0.271679    0.038525
   4 C :    0.757094    0.027996
   5 O :    0.271679    0.038523
   6 H :   -0.336838    0.005833
   7 H :   -0.332456   -0.000843
   8 H :   -0.336839    0.005833

  Mayer bond orders larger than 0.100000
B(  0-F ,  1-B ) :   0.4415 B(  1-B ,  2-S ) :   0.8547 B(  2-S ,  3-O ) :   1.0543
B(  2-S ,  4-C ) :   0.9499 B(  2-S ,  5-O ) :   1.0543 B(  4-C ,  6-H ) :   0.8732
B(  4-C ,  7-H ) :   0.8408 B(  4-C ,  8-H ) :   0.8732

MP2 TOTAL ENERGY:     -712.367073548 Eh
FINAL SINGLE POINT ENERGY      -712.367073547945

DIPOLE MOMENT
-------------
                                X             Y             Z
Electronic contribution:     -8.32374      -0.85475       0.00007
Nuclear contribution   :      8.65535       2.68388      -0.00016
                        -----------------------------------------
Total Dipole Moment    :      0.33161       1.82913      -0.00009
                        -----------------------------------------
Magnitude (a.u.)       :      1.85895
Magnitude (Debye)      :      4.72507

Rotational constants in cm-1:     0.162565     0.072966     0.072951
Rotational constants in MHz :  4873.577960  2187.479054  2187.013120

                             ****ORCA TERMINATED NORMALLY****
TOTAL RUN TIME: 0 days 0 hours 41 minutes 7 seconds 791 msec
