                         Program Version 5.0.4 -  RELEASE  -
|  1> ! ri-mp2 aug-cc-pvdz aug-cc-pvdz/c tightscf
|  2> %pal nprocs 16 end
|  3> %maxcore 3800
|  4> %base "DZ_B-Si_55_AB"
|  5>
|  6> *xyz 0 1
|  7> C         1.926220    1.196827   -0.241800
|  8> C         0.614171    0.809394   -0.423751
|  9> C         2.892277    0.268645    0.141746
| 10> C         2.499327   -1.052356    0.340741
| 11> C         1.183002   -1.425826    0.153316
| 12> C         0.205212   -0.511677   -0.236064
| 13> H         0.912855   -2.462110    0.318723
| 14> H         2.211348    2.231652   -0.390524
| 15> H        -0.111682    1.559960   -0.711659
| 16> B        -2.892683    0.329545    0.154422
| 17> O        -2.654674    1.645638   -0.126842
| 18> O        -3.989963   -0.094334    0.843240
| 19> N         4.201171    0.662544    0.372890
| 20> H         4.492943    1.511598   -0.080678
| 21> H         4.894748   -0.064791    0.331596
| 22> H         3.233346   -1.787192    0.649446
| 23> H        -3.303438    2.280272    0.196403
| 24> H        -4.611192    0.585781    1.126036
| 25> Si        -1.560313   -1.046026   -0.511487
| 26> H        -1.819653   -1.266221   -1.959847
| 27> H        -1.763821   -2.350596    0.162669
| 28> *
| 29>
| 30> $new_job
| 31> ! ri-mp2 aug-cc-pvtz aug-cc-pvtz/c tightscf
| 32> %pal nprocs 16 end
| 33> %maxcore 3800
| 34> %base "TZ_B-Si_55_AB"
| 35>
| 36> *xyz 0 1
| 37> C         1.926220    1.196827   -0.241800
| 38> C         0.614171    0.809394   -0.423751
| 39> C         2.892277    0.268645    0.141746
| 40> C         2.499327   -1.052356    0.340741
| 41> C         1.183002   -1.425826    0.153316
| 42> C         0.205212   -0.511677   -0.236064
| 43> H         0.912855   -2.462110    0.318723
| 44> H         2.211348    2.231652   -0.390524
| 45> H        -0.111682    1.559960   -0.711659
| 46> B        -2.892683    0.329545    0.154422
| 47> O        -2.654674    1.645638   -0.126842
| 48> O        -3.989963   -0.094334    0.843240
| 49> N         4.201171    0.662544    0.372890
| 50> H         4.492943    1.511598   -0.080678
| 51> H         4.894748   -0.064791    0.331596
| 52> H         3.233346   -1.787192    0.649446
| 53> H        -3.303438    2.280272    0.196403
| 54> H        -4.611192    0.585781    1.126036
| 55> Si        -1.560313   -1.046026   -0.511487
| 56> H        -1.819653   -1.266221   -1.959847
| 57> H        -1.763821   -2.350596    0.162669
| 58> *
| 59>
| 60> $new_job
| 61> ! ri-mp2 aug-cc-pvqz aug-cc-pvqz/c tightscf
| 62> %pal nprocs 16 end
| 63> %maxcore 3800
| 64> %base "QZ_B-Si_55_AB"
| 65>
| 66> *xyz 0 1
| 67> C         1.926220    1.196827   -0.241800
| 68> C         0.614171    0.809394   -0.423751
| 69> C         2.892277    0.268645    0.141746
| 70> C         2.499327   -1.052356    0.340741
| 71> C         1.183002   -1.425826    0.153316
| 72> C         0.205212   -0.511677   -0.236064
| 73> H         0.912855   -2.462110    0.318723
| 74> H         2.211348    2.231652   -0.390524
| 75> H        -0.111682    1.559960   -0.711659
| 76> B        -2.892683    0.329545    0.154422
| 77> O        -2.654674    1.645638   -0.126842
| 78> O        -3.989963   -0.094334    0.843240
| 79> N         4.201171    0.662544    0.372890
| 80> H         4.492943    1.511598   -0.080678
| 81> H         4.894748   -0.064791    0.331596
| 82> H         3.233346   -1.787192    0.649446
| 83> H        -3.303438    2.280272    0.196403
| 84> H        -4.611192    0.585781    1.126036
| 85> Si        -1.560313   -1.046026   -0.511487
| 86> H        -1.819653   -1.266221   -1.959847
| 87> H        -1.763821   -2.350596    0.162669
| 88> *
| 89>
| 90>
| 91>
| 92>
| 93>                          ****END OF INPUT****
 Total Charge           Charge          ....    0
 Multiplicity           Mult            ....    1
 Number of Electrons    NEL             ....   88
MP2 TOTAL ENERGY:     -752.562693801 Eh
FINAL SINGLE POINT ENERGY      -752.562693800974
MP2 TOTAL ENERGY:     -753.003386748 Eh
FINAL SINGLE POINT ENERGY      -753.003386747749

CARTESIAN COORDINATES (ANGSTROEM)
---------------------------------
  C      1.926220    1.196827   -0.241800
  C      0.614171    0.809394   -0.423751
  C      2.892277    0.268645    0.141746
  C      2.499327   -1.052356    0.340741
  C      1.183002   -1.425826    0.153316
  C      0.205212   -0.511677   -0.236064
  H      0.912855   -2.462110    0.318723
  H      2.211348    2.231652   -0.390524
  H     -0.111682    1.559960   -0.711659
  B     -2.892683    0.329545    0.154422
  O     -2.654674    1.645638   -0.126842
  O     -3.989963   -0.094334    0.843240
  N      4.201171    0.662544    0.372890
  H      4.492943    1.511598   -0.080678
  H      4.894748   -0.064791    0.331596
  H      3.233346   -1.787192    0.649446
  H     -3.303438    2.280272    0.196403
  H     -4.611192    0.585781    1.126036
  Si    -1.560313   -1.046026   -0.511487
  H     -1.819653   -1.266221   -1.959847
  H     -1.763821   -2.350596    0.162669

 Multiplicity           Mult            ....    1
 Number of Electrons    NEL             ....   88
 Basis Dimension        Dim             .... 1344

ORBITAL ENERGIES
----------------

  NO   OCC          E(Eh)            E(eV)
   0   2.0000     -68.737360     -1870.4386
   1   2.0000     -20.576176      -559.9062
   2   2.0000     -20.574817      -559.8692
   3   2.0000     -15.562852      -423.4867
   4   2.0000     -11.274559      -306.7963
   5   2.0000     -11.229411      -305.5678
   6   2.0000     -11.227543      -305.5170
   7   2.0000     -11.214378      -305.1587
   8   2.0000     -11.214340      -305.1577
   9   2.0000     -11.197205      -304.6914
  10   2.0000      -7.637806      -207.8353
  11   2.0000      -6.088584      -165.6788
  12   2.0000      -4.195067      -114.1536
  13   2.0000      -4.194724      -114.1443
  14   2.0000      -4.194508      -114.1384
  15   2.0000      -1.392066       -37.8800
  16   2.0000      -1.351524       -36.7768
  17   2.0000      -1.227390       -33.3990
  18   2.0000      -1.124275       -30.5931
  19   2.0000      -1.009576       -27.4720
  20   2.0000      -0.982036       -26.7226
  21   2.0000      -0.829528       -22.5726
  22   2.0000      -0.812971       -22.1221
  23   2.0000      -0.786223       -21.3942
  24   2.0000      -0.742747       -20.2112
  25   2.0000      -0.711413       -19.3585
  26   2.0000      -0.688873       -18.7452
  27   2.0000      -0.679978       -18.5031
  28   2.0000      -0.642785       -17.4911
  29   2.0000      -0.613333       -16.6896
  30   2.0000      -0.593296       -16.1444
  31   2.0000      -0.582003       -15.8371
  32   2.0000      -0.576634       -15.6910
  33   2.0000      -0.573046       -15.5934
  34   2.0000      -0.537062       -14.6142
  35   2.0000      -0.533494       -14.5171
  36   2.0000      -0.511217       -13.9109
  37   2.0000      -0.480799       -13.0832
  38   2.0000      -0.467446       -12.7198
  39   2.0000      -0.442687       -12.0461
  40   2.0000      -0.438697       -11.9375
  41   2.0000      -0.407631       -11.0922
  42   2.0000      -0.334303        -9.0968
  43   2.0000      -0.289762        -7.8848
  44   0.0000       0.015424         0.4197
  45   0.0000       0.022959         0.6248
  46   0.0000       0.030535         0.8309
  47   0.0000       0.036218         0.9855
  48   0.0000       0.038607         1.0506

MULLIKEN ATOMIC CHARGES
-----------------------
   0 C :   -0.261449
   1 C :   -0.305122
   2 C :    0.560731
   3 C :   -0.318713
   4 C :   -0.605516
   5 C :   -0.016542
   6 H :    0.191075
   7 H :    0.220595
   8 H :    0.396299
   9 B :    1.379466
  10 O :   -1.035159
  11 O :   -1.083327
  12 N :   -0.838736
  13 H :    0.280078
  14 H :    0.282416
  15 H :    0.235497
  16 H :    0.320741
  17 H :    0.341964
  18 Si:    0.758031
  19 H :   -0.225390
  20 H :   -0.276939
Sum of atomic charges:    0.0000000

LOEWDIN ATOMIC CHARGES
----------------------
   0 C :    0.345797
   1 C :    0.256939
   2 C :   -0.248750
   3 C :    0.341200
   4 C :    0.249259
   5 C :   -0.112178
   6 H :   -0.340505
   7 H :   -0.320620
   8 H :   -0.354045
   9 B :   -1.194032
  10 O :    1.303604
  11 O :    1.294392
  12 N :    1.273671
  13 H :   -0.506218
  14 H :   -0.506090
  15 H :   -0.321760
  16 H :   -0.784702
  17 H :   -0.795609
  18 Si:    0.877892
  19 H :   -0.231656
  20 H :   -0.226589

  Mayer bond orders larger than 0.100000
B(  0-C ,  1-C ) :   1.2226 B(  0-C ,  2-C ) :   1.2159 B(  0-C ,  4-C ) :   0.1201
B(  0-C ,  5-C ) :  -0.2672 B(  0-C ,  7-H ) :   1.0374 B(  0-C ,  8-H ) :  -0.1334
B(  1-C ,  2-C ) :  -0.1678 B(  1-C ,  5-C ) :   0.9120 B(  1-C ,  7-H ) :  -0.1539
B(  1-C ,  8-H ) :   0.9034 B(  1-C , 18-Si) :  -0.2513 B(  2-C ,  3-C ) :   1.2012
B(  2-C ,  7-H ) :  -0.1025 B(  2-C , 12-N ) :   0.6865 B(  2-C , 15-H ) :  -0.1205
B(  3-C ,  4-C ) :   1.2901 B(  3-C ,  5-C ) :  -0.2483 B(  3-C ,  6-H ) :  -0.1427
B(  3-C , 15-H ) :   1.0327 B(  4-C ,  5-C ) :   0.9776 B(  4-C ,  6-H ) :   1.0640
B(  4-C , 15-H ) :  -0.1582 B(  5-C ,  6-H ) :  -0.1221 B(  5-C ,  8-H ) :  -0.1482
B(  5-C , 18-Si) :   1.0364 B(  5-C , 20-H ) :  -0.1822 B(  9-B , 10-O ) :   0.3287
B(  9-B , 11-O ) :   0.3967 B(  9-B , 18-Si) :   0.7979 B( 10-O , 16-H ) :   0.9781
B( 10-O , 18-Si) :  -0.1062 B( 11-O , 17-H ) :   0.9539 B( 11-O , 18-Si) :  -0.1046
B( 12-N , 13-H ) :   0.9367 B( 12-N , 14-H ) :   0.9312 B( 18-Si, 19-H ) :   0.7217
B( 18-Si, 20-H ) :   0.6737

MP2 TOTAL ENERGY:     -753.145960116 Eh
FINAL SINGLE POINT ENERGY      -753.145960116144

DIPOLE MOMENT
-------------
                                X             Y             Z
Electronic contribution:     -6.40413       0.95392       0.59579
Nuclear contribution   :      6.41209       0.06396      -0.43308
                        -----------------------------------------
Total Dipole Moment    :      0.00796       1.01788       0.16271
                        -----------------------------------------
Magnitude (a.u.)       :      1.03084
Magnitude (Debye)      :      2.62018

Rotational constants in cm-1:     0.079008     0.014684     0.013016
Rotational constants in MHz :  2368.590409   440.208889   390.221020

                             ****ORCA TERMINATED NORMALLY****
TOTAL RUN TIME: 0 days 0 hours 56 minutes 7 seconds 329 msec
