                         Program Version 5.0.4 -  RELEASE  -
|  1> ! ri-mp2 aug-cc-pvdz aug-cc-pvdz/c tightscf
|  2> %pal nprocs 16 end
|  3> %maxcore 3800
|  4> %base "DZ_P-C_24_AB"
|  5> %scf
|  6> STABPerform true
|  7> STABRestartUHFifUnstable true
|  8> end
|  9>
| 10> *xyz 0 1
| 11> P        -1.102232    0.053162   -0.109705
| 12> C         0.622772   -0.502633    0.007931
| 13> C         1.695659    0.271262    0.018048
| 14> H         0.752759   -1.580299   -0.029881
| 15> H         1.622969    1.351898    0.045425
| 16> H         2.693778   -0.148001   -0.002929
| 17> H        -0.903756    1.382762    0.326294
| 18> H        -1.542856   -0.415565    1.150788
| 19> *
| 20>
| 21> $new_job
| 22> ! ri-mp2 aug-cc-pvtz aug-cc-pvtz/c tightscf
| 23> %pal nprocs 16 end
| 24> %maxcore 3800
| 25> %base "TZ_P-C_24_AB"
| 26>
| 27> *xyz 0 1
| 28> P        -1.102232    0.053162   -0.109705
| 29> C         0.622772   -0.502633    0.007931
| 30> C         1.695659    0.271262    0.018048
| 31> H         0.752759   -1.580299   -0.029881
| 32> H         1.622969    1.351898    0.045425
| 33> H         2.693778   -0.148001   -0.002929
| 34> H        -0.903756    1.382762    0.326294
| 35> H        -1.542856   -0.415565    1.150788
| 36> *
| 37>
| 38> $new_job
| 39> ! ri-mp2 aug-cc-pvqz aug-cc-pvqz/c tightscf
| 40> %pal nprocs 16 end
| 41> %maxcore 3800
| 42> %base "QZ_P-C_24_AB"
| 43>
| 44> *xyz 0 1
| 45> P        -1.102232    0.053162   -0.109705
| 46> C         0.622772   -0.502633    0.007931
| 47> C         1.695659    0.271262    0.018048
| 48> H         0.752759   -1.580299   -0.029881
| 49> H         1.622969    1.351898    0.045425
| 50> H         2.693778   -0.148001   -0.002929
| 51> H        -0.903756    1.382762    0.326294
| 52> H        -1.542856   -0.415565    1.150788
| 53> *
| 54>
| 55>
| 56>
| 57>
| 58>                          ****END OF INPUT****
 Total Charge           Charge          ....    0
 Multiplicity           Mult            ....    1
 Number of Electrons    NEL             ....   32
MP2 TOTAL ENERGY:     -419.767170744 Eh
FINAL SINGLE POINT ENERGY      -419.767170744206
MP2 TOTAL ENERGY:     -419.885285355 Eh
FINAL SINGLE POINT ENERGY      -419.885285354620

CARTESIAN COORDINATES (ANGSTROEM)
---------------------------------
  P     -1.102232    0.053162   -0.109705
  C      0.622772   -0.502633    0.007931
  C      1.695659    0.271262    0.018048
  H      0.752759   -1.580299   -0.029881
  H      1.622969    1.351898    0.045425
  H      2.693778   -0.148001   -0.002929
  H     -0.903756    1.382762    0.326294
  H     -1.542856   -0.415565    1.150788

 Multiplicity           Mult            ....    1
 Number of Electrons    NEL             ....   32
 Basis Dimension        Dim             ....  474

ORBITAL ENERGIES
----------------

  NO   OCC          E(Eh)            E(eV)
   0   2.0000     -79.942474     -2175.3453
   1   2.0000     -11.241514      -305.8971
   2   2.0000     -11.235263      -305.7271
   3   2.0000      -7.485413      -203.6884
   4   2.0000      -5.379471      -146.3829
   5   2.0000      -5.379291      -146.3780
   6   2.0000      -5.378262      -146.3500
   7   2.0000      -1.054991       -28.7078
   8   2.0000      -0.868862       -23.6429
   9   2.0000      -0.756037       -20.5728
  10   2.0000      -0.636040       -17.3075
  11   2.0000      -0.583120       -15.8675
  12   2.0000      -0.518570       -14.1110
  13   2.0000      -0.484871       -13.1940
  14   2.0000      -0.420588       -11.4448
  15   2.0000      -0.343119        -9.3367
  16   0.0000       0.025964         0.7065
  17   0.0000       0.035179         0.9573
  18   0.0000       0.036429         0.9913
  19   0.0000       0.049626         1.3504
  20   0.0000       0.055259         1.5037

MULLIKEN ATOMIC CHARGES
-----------------------
   0 P :    0.457312
   1 C :   -0.645649
   2 C :   -0.872922
   3 H :    0.441409
   4 H :    0.411257
   5 H :    0.353706
   6 H :   -0.070411
   7 H :   -0.074702
Sum of atomic charges:   -0.0000000

LOEWDIN ATOMIC CHARGES
----------------------
   0 P :    1.446256
   1 C :    0.057199
   2 C :    0.665071
   3 H :   -0.433845
   4 H :   -0.384394
   5 H :   -0.363513
   6 H :   -0.494554
   7 H :   -0.492220

  Mayer bond orders larger than 0.100000
B(  0-P ,  1-C ) :   0.7187 B(  0-P ,  6-H ) :   0.9359 B(  0-P ,  7-H ) :   0.9014
B(  1-C ,  2-C ) :   1.7859 B(  1-C ,  3-H ) :   0.7959 B(  2-C ,  4-H ) :   0.8202
B(  2-C ,  5-H ) :   0.9277

MP2 TOTAL ENERGY:     -419.922362997 Eh
FINAL SINGLE POINT ENERGY      -419.922362996529

DIPOLE MOMENT
-------------
                                X             Y             Z
Electronic contribution:     -3.35629      -0.51981      -1.34487
Nuclear contribution   :      3.67644       0.54073       1.59583
                        -----------------------------------------
Total Dipole Moment    :      0.32016       0.02091       0.25096
                        -----------------------------------------
Magnitude (a.u.)       :      0.40733
Magnitude (Debye)      :      1.03536

Rotational constants in cm-1:     1.379717     0.182946     0.167077
Rotational constants in MHz : 41362.864320  5484.588410  5008.847417

                             ****ORCA TERMINATED NORMALLY****
TOTAL RUN TIME: 0 days 0 hours 16 minutes 4 seconds 525 msec
