                         Program Version 5.0.4 -  RELEASE  -
|  1> ! ri-mp2 aug-cc-pvdz aug-cc-pvdz/c tightscf
|  2> %pal nprocs 16 end
|  3> %maxcore 3800
|  4> %base "DZ_S-Cl_34_AB"
|  5> %scf
|  6> STABPerform true
|  7> STABRestartUHFifUnstable true
|  8> end
|  9>
| 10> *xyz 0 1
| 11> Cl        -1.828048    0.284284    0.000004
| 12> S        -0.216220   -0.911621   -0.000005
| 13> C         1.066514    0.290330    0.000001
| 14> O         1.023637    1.460116    0.000015
| 15> F         2.216463   -0.407757   -0.000013
| 16> *
| 17>
| 18> $new_job
| 19> ! ri-mp2 aug-cc-pvtz aug-cc-pvtz/c tightscf
| 20> %pal nprocs 16 end
| 21> %maxcore 3800
| 22> %base "TZ_S-Cl_34_AB"
| 23>
| 24> *xyz 0 1
| 25> Cl        -1.828048    0.284284    0.000004
| 26> S        -0.216220   -0.911621   -0.000005
| 27> C         1.066514    0.290330    0.000001
| 28> O         1.023637    1.460116    0.000015
| 29> F         2.216463   -0.407757   -0.000013
| 30> *
| 31>
| 32> $new_job
| 33> ! ri-mp2 aug-cc-pvqz aug-cc-pvqz/c tightscf
| 34> %pal nprocs 16 end
| 35> %maxcore 3800
| 36> %base "QZ_S-Cl_34_AB"
| 37>
| 38> *xyz 0 1
| 39> Cl        -1.828048    0.284284    0.000004
| 40> S        -0.216220   -0.911621   -0.000005
| 41> C         1.066514    0.290330    0.000001
| 42> O         1.023637    1.460116    0.000015
| 43> F         2.216463   -0.407757   -0.000013
| 44> *
| 45>
| 46>
| 47>
| 48>
| 49>                          ****END OF INPUT****
 Total Charge           Charge          ....    0
 Multiplicity           Mult            ....    1
 Number of Electrons    NEL             ....   56
MP2 TOTAL ENERGY:    -1070.030765023 Eh
FINAL SINGLE POINT ENERGY     -1070.030765022792
MP2 TOTAL ENERGY:    -1070.322099453 Eh
FINAL SINGLE POINT ENERGY     -1070.322099453453

CARTESIAN COORDINATES (ANGSTROEM)
---------------------------------
  Cl    -1.828048    0.284284    0.000004
  S     -0.216220   -0.911621   -0.000005
  C      1.066514    0.290330    0.000001
  O      1.023637    1.460116    0.000015
  F      2.216463   -0.407757   -0.000013

 Multiplicity           Mult            ....    1
 Number of Electrons    NEL             ....   56
 Basis Dimension        Dim             ....  408

ORBITAL ENERGIES
----------------

  NO   OCC          E(Eh)            E(eV)
   0   2.0000    -104.888675     -2854.1659
   1   2.0000     -92.065037     -2505.2170
   2   2.0000     -26.363078      -717.3758
   3   2.0000     -20.607907      -560.7696
   4   2.0000     -11.469827      -312.1099
   5   2.0000     -10.612810      -288.7893
   6   2.0000      -9.063336      -246.6259
   7   2.0000      -8.079860      -219.8642
   8   2.0000      -8.077685      -219.8050
   9   2.0000      -8.077496      -219.7998
  10   2.0000      -6.744384      -183.5240
  11   2.0000      -6.743051      -183.4877
  12   2.0000      -6.741803      -183.4538
  13   2.0000      -1.691110       -46.0174
  14   2.0000      -1.467949       -39.9449
  15   2.0000      -1.190950       -32.4074
  16   2.0000      -1.024365       -27.8744
  17   2.0000      -0.868272       -23.6269
  18   2.0000      -0.763005       -20.7624
  19   2.0000      -0.756389       -20.5824
  20   2.0000      -0.741044       -20.1648
  21   2.0000      -0.646841       -17.6014
  22   2.0000      -0.595458       -16.2032
  23   2.0000      -0.577129       -15.7045
  24   2.0000      -0.542449       -14.7608
  25   2.0000      -0.519954       -14.1487
  26   2.0000      -0.480956       -13.0875
  27   2.0000      -0.412112       -11.2141
  28   0.0000       0.035632         0.9696
  29   0.0000       0.042971         1.1693
  30   0.0000       0.059178         1.6103
  31   0.0000       0.071079         1.9342
  32   0.0000       0.079444         2.1618

MULLIKEN ATOMIC CHARGES
-----------------------
   0 Cl:   -0.188086
   1 S :    0.412195
   2 C :    0.751060
   3 O :   -0.502110
   4 F :   -0.473060
Sum of atomic charges:    0.0000000

LOEWDIN ATOMIC CHARGES
----------------------
   0 Cl:    0.504463
   1 S :    0.304740
   2 C :   -1.946117
   3 O :    0.509690
   4 F :    0.627224

  Mayer bond orders larger than 0.100000
B(  0-Cl,  1-S ) :   1.0293 B(  1-S ,  2-C ) :   1.0806 B(  2-C ,  3-O ) :   1.8353
B(  2-C ,  4-F ) :   0.7448

MP2 TOTAL ENERGY:    -1070.419681875 Eh
FINAL SINGLE POINT ENERGY     -1070.419681875265

DIPOLE MOMENT
-------------
                                X             Y             Z
Electronic contribution:     -0.77901      -0.73861      -0.00001
Nuclear contribution   :      0.41249       0.04328       0.00001
                        -----------------------------------------
Total Dipole Moment    :     -0.36651      -0.69533      -0.00001
                        -----------------------------------------
Magnitude (a.u.)       :      0.78601
Magnitude (Debye)      :      1.99788

Rotational constants in cm-1:     0.248735     0.069161     0.054114
Rotational constants in MHz :  7456.896541  2073.388337  1622.306418

                             ****ORCA TERMINATED NORMALLY****
TOTAL RUN TIME: 0 days 0 hours 7 minutes 1 seconds 491 msec
