                         Program Version 5.0.4 -  RELEASE  -
|  1> ! ri-mp2 aug-cc-pvdz aug-cc-pvdz/c tightscf
|  2> %pal nprocs 16 end
|  3> %maxcore 3800
|  4> %base "DZ_B-F_72_AB"
|  5>
|  6> *xyz 0 1
|  7> F        -3.466837   -0.076102    0.000004
|  8> F        -2.235054   -1.940118    0.000002
|  9> C        -1.001486    0.286399   -0.000002
| 10> B        -2.255672   -0.615477   -0.000001
| 11> C         0.351266   -0.183597   -0.000001
| 12> C         0.699554   -1.555133   -0.000002
| 13> H        -0.080496   -2.299511   -0.000002
| 14> C         2.005321   -1.950278   -0.000001
| 15> H         2.244293   -3.005534   -0.000001
| 16> C         3.044941   -1.003855   -0.000000
| 17> H         4.075001   -1.334068    0.000000
| 18> C         2.747261    0.324572   -0.000000
| 19> H         3.535948    1.066449    0.000001
| 20> C         1.405528    0.765899   -0.000001
| 21> C         1.100579    2.144704   -0.000000
| 22> H         1.919046    2.854143    0.000000
| 23> C        -0.189556    2.578961   -0.000000
| 24> H        -0.413935    3.636874    0.000000
| 25> C        -1.234809    1.643151   -0.000001
| 26> H        -2.256056    2.000077   -0.000001
| 27> *
| 28>
| 29> $new_job
| 30> ! ri-mp2 aug-cc-pvtz aug-cc-pvtz/c tightscf
| 31> %pal nprocs 16 end
| 32> %maxcore 3800
| 33> %base "TZ_B-F_72_AB"
| 34>
| 35> *xyz 0 1
| 36> F        -3.466837   -0.076102    0.000004
| 37> F        -2.235054   -1.940118    0.000002
| 38> C        -1.001486    0.286399   -0.000002
| 39> B        -2.255672   -0.615477   -0.000001
| 40> C         0.351266   -0.183597   -0.000001
| 41> C         0.699554   -1.555133   -0.000002
| 42> H        -0.080496   -2.299511   -0.000002
| 43> C         2.005321   -1.950278   -0.000001
| 44> H         2.244293   -3.005534   -0.000001
| 45> C         3.044941   -1.003855   -0.000000
| 46> H         4.075001   -1.334068    0.000000
| 47> C         2.747261    0.324572   -0.000000
| 48> H         3.535948    1.066449    0.000001
| 49> C         1.405528    0.765899   -0.000001
| 50> C         1.100579    2.144704   -0.000000
| 51> H         1.919046    2.854143    0.000000
| 52> C        -0.189556    2.578961   -0.000000
| 53> H        -0.413935    3.636874    0.000000
| 54> C        -1.234809    1.643151   -0.000001
| 55> H        -2.256056    2.000077   -0.000001
| 56> *
| 57>
| 58> $new_job
| 59> ! ri-mp2 aug-cc-pvqz aug-cc-pvqz/c tightscf
| 60> %pal nprocs 16 end
| 61> %maxcore 3800
| 62> %base "QZ_B-F_72_AB"
| 63>
| 64> *xyz 0 1
| 65> F        -3.466837   -0.076102    0.000004
| 66> F        -2.235054   -1.940118    0.000002
| 67> C        -1.001486    0.286399   -0.000002
| 68> B        -2.255672   -0.615477   -0.000001
| 69> C         0.351266   -0.183597   -0.000001
| 70> C         0.699554   -1.555133   -0.000002
| 71> H        -0.080496   -2.299511   -0.000002
| 72> C         2.005321   -1.950278   -0.000001
| 73> H         2.244293   -3.005534   -0.000001
| 74> C         3.044941   -1.003855   -0.000000
| 75> H         4.075001   -1.334068    0.000000
| 76> C         2.747261    0.324572   -0.000000
| 77> H         3.535948    1.066449    0.000001
| 78> C         1.405528    0.765899   -0.000001
| 79> C         1.100579    2.144704   -0.000000
| 80> H         1.919046    2.854143    0.000000
| 81> C        -0.189556    2.578961   -0.000000
| 82> H        -0.413935    3.636874    0.000000
| 83> C        -1.234809    1.643151   -0.000001
| 84> H        -2.256056    2.000077   -0.000001
| 85> *
| 86>
| 87>
| 88>
| 89>
| 90>                          ****END OF INPUT****
 Total Charge           Charge          ....    0
 Multiplicity           Mult            ....    1
 Number of Electrons    NEL             ....   90
MP2 TOTAL ENERGY:     -608.351838412 Eh
FINAL SINGLE POINT ENERGY      -608.351838412215
MP2 TOTAL ENERGY:     -608.875699883 Eh
FINAL SINGLE POINT ENERGY      -608.875699883372

CARTESIAN COORDINATES (ANGSTROEM)
---------------------------------
  F     -3.466837   -0.076102    0.000004
  F     -2.235054   -1.940118    0.000002
  C     -1.001486    0.286399   -0.000002
  B     -2.255672   -0.615477   -0.000001
  C      0.351266   -0.183597   -0.000001
  C      0.699554   -1.555133   -0.000002
  H     -0.080496   -2.299511   -0.000002
  C      2.005321   -1.950278   -0.000001
  H      2.244293   -3.005534   -0.000001
  C      3.044941   -1.003855   -0.000000
  H      4.075001   -1.334068    0.000000
  C      2.747261    0.324572   -0.000000
  H      3.535948    1.066449    0.000001
  C      1.405528    0.765899   -0.000001
  C      1.100579    2.144704   -0.000000
  H      1.919046    2.854143    0.000000
  C     -0.189556    2.578961   -0.000000
  H     -0.413935    3.636874    0.000000
  C     -1.234809    1.643151   -0.000001
  H     -2.256056    2.000077   -0.000001

 Multiplicity           Mult            ....    1
 Number of Electrons    NEL             ....   90
 Basis Dimension        Dim             .... 1362

ORBITAL ENERGIES
----------------

  NO   OCC          E(Eh)            E(eV)
   0   2.0000     -26.305255      -715.8024
   1   2.0000     -26.301379      -715.6969
   2   2.0000     -11.257131      -306.3221
   3   2.0000     -11.254653      -306.2547
   4   2.0000     -11.254191      -306.2421
   5   2.0000     -11.248919      -306.0987
   6   2.0000     -11.241845      -305.9062
   7   2.0000     -11.241068      -305.8850
   8   2.0000     -11.240053      -305.8574
   9   2.0000     -11.238037      -305.8025
  10   2.0000     -11.234257      -305.6997
  11   2.0000     -11.229596      -305.5728
  12   2.0000      -7.701028      -209.5556
  13   2.0000      -1.638965       -44.5985
  14   2.0000      -1.604556       -43.6622
  15   2.0000      -1.191295       -32.4168
  16   2.0000      -1.125193       -30.6181
  17   2.0000      -1.063963       -28.9519
  18   2.0000      -1.022046       -27.8113
  19   2.0000      -0.996430       -27.1142
  20   2.0000      -0.869421       -23.6582
  21   2.0000      -0.850335       -23.1388
  22   2.0000      -0.835132       -22.7251
  23   2.0000      -0.808779       -22.0080
  24   2.0000      -0.753920       -20.5152
  25   2.0000      -0.732772       -19.9397
  26   2.0000      -0.713673       -19.4200
  27   2.0000      -0.707971       -19.2649
  28   2.0000      -0.699682       -19.0393
  29   2.0000      -0.685663       -18.6578
  30   2.0000      -0.653580       -17.7848
  31   2.0000      -0.649155       -17.6644
  32   2.0000      -0.621762       -16.9190
  33   2.0000      -0.611574       -16.6418
  34   2.0000      -0.595755       -16.2113
  35   2.0000      -0.581153       -15.8140
  36   2.0000      -0.569834       -15.5060
  37   2.0000      -0.547455       -14.8970
  38   2.0000      -0.530279       -14.4296
  39   2.0000      -0.497686       -13.5427
  40   2.0000      -0.477504       -12.9935
  41   2.0000      -0.462635       -12.5889
  42   2.0000      -0.399804       -10.8792
  43   2.0000      -0.331344        -9.0163
  44   2.0000      -0.305393        -8.3102
  45   0.0000       0.019987         0.5439
  46   0.0000       0.024998         0.6802
  47   0.0000       0.028907         0.7866
  48   0.0000       0.038124         1.0374
  49   0.0000       0.038709         1.0533

MULLIKEN ATOMIC CHARGES
-----------------------
   0 F :   -0.933560
   1 F :   -0.924249
   2 C :    0.184425
   3 B :    1.848805
   4 C :    1.045757
   5 C :   -0.480631
   6 H :    0.286182
   7 C :   -0.522061
   8 H :    0.203069
   9 C :   -0.374356
  10 H :    0.296075
  11 C :   -0.590655
  12 H :    0.164483
  13 C :    0.900315
  14 C :   -0.618025
  15 H :    0.226749
  16 C :   -0.367411
  17 H :    0.227227
  18 C :   -0.784357
  19 H :    0.212218
Sum of atomic charges:   -0.0000000

LOEWDIN ATOMIC CHARGES
----------------------
   0 F :    0.845744
   1 F :    0.869097
   2 C :    0.050537
   3 B :   -1.724142
   4 C :   -0.110045
   5 C :    0.358997
   6 H :   -0.399827
   7 C :    0.363336
   8 H :   -0.316599
   9 C :    0.357473
  10 H :   -0.319878
  11 C :    0.353226
  12 H :   -0.318773
  13 C :   -0.106938
  14 C :    0.365973
  15 H :   -0.311071
  16 C :    0.383621
  17 H :   -0.317239
  18 C :    0.315772
  19 H :   -0.339264

  Mayer bond orders larger than 0.100000
B(  0-F ,  2-C ) :  -0.2223 B(  0-F , 18-C ) :   0.1609 B(  0-F , 19-H ) :   0.1340
B(  1-F ,  2-C ) :  -0.1119 B(  1-F ,  3-B ) :   0.1579 B(  2-C ,  3-B ) :   1.0041
B(  2-C ,  4-C ) :   0.5071 B(  2-C ,  5-C ) :  -0.4059 B(  2-C ,  6-H ) :   0.1153
B(  2-C , 11-C ) :   0.1110 B(  2-C , 13-C ) :  -0.5208 B(  2-C , 16-C ) :  -0.2771
B(  2-C , 18-C ) :   0.9185 B(  2-C , 19-H ) :  -0.1929 B(  3-B ,  4-C ) :  -0.1592
B(  3-B ,  5-C ) :   0.1040 B(  4-C ,  5-C ) :   0.6829 B(  4-C ,  6-H ) :  -0.1943
B(  4-C ,  7-C ) :  -0.4514 B(  4-C , 11-C ) :  -0.4231 B(  4-C , 13-C ) :   0.8694
B(  4-C , 14-C ) :  -0.1267 B(  4-C , 16-C ) :   0.1751 B(  5-C ,  6-H ) :   0.9091
B(  5-C ,  7-C ) :   1.4048 B(  5-C ,  8-H ) :  -0.1813 B(  5-C , 11-C ) :   0.1446
B(  5-C , 13-C ) :  -0.1597 B(  7-C ,  8-H ) :   1.2049 B(  7-C ,  9-C ) :   1.1770
B(  7-C , 10-H ) :  -0.1059 B(  7-C , 11-C ) :   0.1468 B(  7-C , 13-C ) :   0.1026
B(  9-C , 10-H ) :   1.0963 B(  9-C , 11-C ) :   1.2690 B(  9-C , 13-C ) :  -0.2952
B( 10-H , 11-C ) :  -0.2055 B( 11-C , 12-H ) :   1.1686 B( 11-C , 13-C ) :   0.6423
B( 11-C , 14-C ) :  -0.1121 B( 12-H , 13-C ) :  -0.1965 B( 13-C , 14-C ) :   0.5606
B( 13-C , 15-H ) :  -0.1597 B( 13-C , 16-C ) :  -0.4069 B( 14-C , 15-H ) :   1.0704
B( 14-C , 16-C ) :   1.4052 B( 14-C , 17-H ) :  -0.2098 B( 14-C , 18-C ) :   0.3874
B( 16-C , 17-H ) :   1.2151 B( 16-C , 18-C ) :   1.2359 B( 17-H , 18-C ) :  -0.1926
B( 18-C , 19-H ) :   1.0102

MP2 TOTAL ENERGY:     -609.042913142 Eh
FINAL SINGLE POINT ENERGY      -609.042913142262

DIPOLE MOMENT
-------------
                                X             Y             Z
Electronic contribution:    -14.93338      -4.62478       0.00000
Nuclear contribution   :     15.82240       5.19223      -0.00001
                        -----------------------------------------
Total Dipole Moment    :      0.88902       0.56745      -0.00000
                        -----------------------------------------
Magnitude (a.u.)       :      1.05469
Magnitude (Debye)      :      2.68080

Rotational constants in cm-1:     0.044121     0.022554     0.014925
Rotational constants in MHz :  1322.713883   676.158832   447.434530

                             ****ORCA TERMINATED NORMALLY****
TOTAL RUN TIME: 0 days 1 hours 11 minutes 7 seconds 34 msec
