                         Program Version 5.0.4 -  RELEASE  -
|  1> ! ri-mp2 aug-cc-pvdz aug-cc-pvdz/c tightscf
|  2> %pal nprocs 16 end
|  3> %maxcore 3800
|  4> %base "DZ_S-Cl_25_AB"
|  5> %scf
|  6> STABPerform true
|  7> STABRestartUHFifUnstable true
|  8> end
|  9>
| 10> *xyz 0 1
| 11> Cl         1.780502   -0.717735    0.017727
| 12> S         0.637246    0.924184   -0.371825
| 13> C        -0.692209    0.693490    0.822654
| 14> C        -1.594738   -0.506944    0.589522
| 15> H        -0.254932    0.677407    1.820193
| 16> C        -2.372138   -0.452770   -0.714437
| 17> H        -2.287619   -0.561920    1.433368
| 18> H        -0.991035   -1.415345    0.630730
| 19> H        -3.010843    0.432037   -0.755648
| 20> H        -3.010820   -1.329057   -0.822138
| 21> H        -1.254267    1.628382    0.726593
| 22> H        -1.700446   -0.419594   -1.571683
| 23> *
| 24>
| 25> $new_job
| 26> ! ri-mp2 aug-cc-pvtz aug-cc-pvtz/c tightscf
| 27> %pal nprocs 16 end
| 28> %maxcore 3800
| 29> %base "TZ_S-Cl_25_AB"
| 30>
| 31> *xyz 0 1
| 32> Cl         1.780502   -0.717735    0.017727
| 33> S         0.637246    0.924184   -0.371825
| 34> C        -0.692209    0.693490    0.822654
| 35> C        -1.594738   -0.506944    0.589522
| 36> H        -0.254932    0.677407    1.820193
| 37> C        -2.372138   -0.452770   -0.714437
| 38> H        -2.287619   -0.561920    1.433368
| 39> H        -0.991035   -1.415345    0.630730
| 40> H        -3.010843    0.432037   -0.755648
| 41> H        -3.010820   -1.329057   -0.822138
| 42> H        -1.254267    1.628382    0.726593
| 43> H        -1.700446   -0.419594   -1.571683
| 44> *
| 45>
| 46> $new_job
| 47> ! ri-mp2 aug-cc-pvqz aug-cc-pvqz/c tightscf
| 48> %pal nprocs 16 end
| 49> %maxcore 3800
| 50> %base "QZ_S-Cl_25_AB"
| 51>
| 52> *xyz 0 1
| 53> Cl         1.780502   -0.717735    0.017727
| 54> S         0.637246    0.924184   -0.371825
| 55> C        -0.692209    0.693490    0.822654
| 56> C        -1.594738   -0.506944    0.589522
| 57> H        -0.254932    0.677407    1.820193
| 58> C        -2.372138   -0.452770   -0.714437
| 59> H        -2.287619   -0.561920    1.433368
| 60> H        -0.991035   -1.415345    0.630730
| 61> H        -3.010843    0.432037   -0.755648
| 62> H        -3.010820   -1.329057   -0.822138
| 63> H        -1.254267    1.628382    0.726593
| 64> H        -1.700446   -0.419594   -1.571683
| 65> *
| 66>
| 67>
| 68>
| 69>
| 70>                          ****END OF INPUT****
 Total Charge           Charge          ....    0
 Multiplicity           Mult            ....    1
 Number of Electrons    NEL             ....   58
MP2 TOTAL ENERGY:     -975.462884129 Eh
FINAL SINGLE POINT ENERGY      -975.462884129028
MP2 TOTAL ENERGY:     -975.695766700 Eh
FINAL SINGLE POINT ENERGY      -975.695766700421

CARTESIAN COORDINATES (ANGSTROEM)
---------------------------------
  Cl     1.780502   -0.717735    0.017727
  S      0.637246    0.924184   -0.371825
  C     -0.692209    0.693490    0.822654
  C     -1.594738   -0.506944    0.589522
  H     -0.254932    0.677407    1.820193
  C     -2.372138   -0.452770   -0.714437
  H     -2.287619   -0.561920    1.433368
  H     -0.991035   -1.415345    0.630730
  H     -3.010843    0.432037   -0.755648
  H     -3.010820   -1.329057   -0.822138
  H     -1.254267    1.628382    0.726593
  H     -1.700446   -0.419594   -1.571683

 Multiplicity           Mult            ....    1
 Number of Electrons    NEL             ....   58
 Basis Dimension        Dim             ....  730

ORBITAL ENERGIES
----------------

  NO   OCC          E(Eh)            E(eV)
   0   2.0000    -104.846274     -2853.0122
   1   2.0000     -92.001077     -2503.4766
   2   2.0000     -11.271495      -306.7130
   3   2.0000     -11.234036      -305.6937
   4   2.0000     -11.217481      -305.2432
   5   2.0000     -10.570703      -287.6434
   6   2.0000      -8.999528      -244.8896
   7   2.0000      -8.037718      -218.7174
   8   2.0000      -8.035865      -218.6670
   9   2.0000      -8.035683      -218.6620
  10   2.0000      -6.680892      -181.7963
  11   2.0000      -6.679152      -181.7490
  12   2.0000      -6.678089      -181.7200
  13   2.0000      -1.147303       -31.2197
  14   2.0000      -1.078550       -29.3488
  15   2.0000      -0.979858       -26.6633
  16   2.0000      -0.877982       -23.8911
  17   2.0000      -0.791369       -21.5342
  18   2.0000      -0.643384       -17.5074
  19   2.0000      -0.634397       -17.2628
  20   2.0000      -0.591142       -16.0858
  21   2.0000      -0.548278       -14.9194
  22   2.0000      -0.521492       -14.1905
  23   2.0000      -0.520499       -14.1635
  24   2.0000      -0.493178       -13.4201
  25   2.0000      -0.488671       -13.2974
  26   2.0000      -0.487034       -13.2529
  27   2.0000      -0.430985       -11.7277
  28   2.0000      -0.353488        -9.6189
  29   0.0000       0.025060         0.6819
  30   0.0000       0.032805         0.8927
  31   0.0000       0.033606         0.9145
  32   0.0000       0.042293         1.1509
  33   0.0000       0.052928         1.4403

MULLIKEN ATOMIC CHARGES
-----------------------
   0 Cl:   -0.354438
   1 S :    0.097213
   2 C :   -0.363027
   3 C :   -0.387910
   4 H :    0.248734
   5 C :   -0.846040
   6 H :    0.257643
   7 H :    0.282741
   8 H :    0.230228
   9 H :    0.294437
  10 H :    0.275698
  11 H :    0.264723
Sum of atomic charges:    0.0000000

LOEWDIN ATOMIC CHARGES
----------------------
   0 Cl:    0.504592
   1 S :    0.485148
   2 C :    0.010236
   3 C :    0.386270
   4 H :   -0.380502
   5 C :    0.884931
   6 H :   -0.280810
   7 H :   -0.331441
   8 H :   -0.285857
   9 H :   -0.282117
  10 H :   -0.392301
  11 H :   -0.318149

  Mayer bond orders larger than 0.100000
B(  0-Cl,  1-S ) :   0.9809 B(  0-Cl,  2-C ) :  -0.1879 B(  1-S ,  2-C ) :   0.8801
B(  2-C ,  3-C ) :   0.9184 B(  2-C ,  4-H ) :   0.9509 B(  2-C , 10-H ) :   0.8624
B(  3-C ,  5-C ) :   0.9363 B(  3-C ,  6-H ) :   0.8639 B(  3-C ,  7-H ) :   0.8674
B(  5-C ,  8-H ) :   0.9531 B(  5-C ,  9-H ) :   0.9485 B(  5-C , 11-H ) :   0.9397

MP2 TOTAL ENERGY:     -975.768594445 Eh
FINAL SINGLE POINT ENERGY      -975.768594444684

DIPOLE MOMENT
-------------
                                X             Y             Z
Electronic contribution:     13.99865       0.14837      -1.04660
Nuclear contribution   :    -14.84875       0.01007       1.42562
                        -----------------------------------------
Total Dipole Moment    :     -0.85010       0.15844       0.37902
                        -----------------------------------------
Magnitude (a.u.)       :      0.94415
Magnitude (Debye)      :      2.39984

Rotational constants in cm-1:     0.173152     0.058263     0.052494
Rotational constants in MHz :  5190.952992  1746.683549  1573.722014

                             ****ORCA TERMINATED NORMALLY****
TOTAL RUN TIME: 0 days 0 hours 44 minutes 33 seconds 964 msec
