                         Program Version 5.0.4 -  RELEASE  -
|  1> ! ri-mp2 aug-cc-pvdz aug-cc-pvdz/c tightscf
|  2> %pal nprocs 16 end
|  3> %maxcore 3800
|  4> %base "DZ_P-Si_57_AB"
|  5> %scf
|  6> STABPerform true
|  7> STABRestartUHFifUnstable true
|  8> end
|  9>
| 10> *xyz 0 1
| 11> C        -1.509781    0.315234    0.042233
| 12> Si        -0.172481   -0.969010    0.550364
| 13> O        -1.384843    1.470399    0.332391
| 14> O        -2.582373   -0.076844   -0.686004
| 15> P         1.813823   -0.501840   -0.373364
| 16> C         1.978406    1.291062    0.060821
| 17> H         2.795968    1.707884   -0.525671
| 18> H         2.252921    1.366947    1.112410
| 19> H         1.074784    1.870933   -0.107332
| 20> H        -2.562960   -1.030533   -0.829079
| 21> H         1.278533   -0.370249   -1.677341
| 22> H        -0.619518   -2.313684    0.110804
| 23> H        -0.086358   -0.923770    2.022160
| 24> *
| 25>
| 26> $new_job
| 27> ! ri-mp2 aug-cc-pvtz aug-cc-pvtz/c tightscf
| 28> %pal nprocs 16 end
| 29> %maxcore 3800
| 30> %base "TZ_P-Si_57_AB"
| 31>
| 32> *xyz 0 1
| 33> C        -1.509781    0.315234    0.042233
| 34> Si        -0.172481   -0.969010    0.550364
| 35> O        -1.384843    1.470399    0.332391
| 36> O        -2.582373   -0.076844   -0.686004
| 37> P         1.813823   -0.501840   -0.373364
| 38> C         1.978406    1.291062    0.060821
| 39> H         2.795968    1.707884   -0.525671
| 40> H         2.252921    1.366947    1.112410
| 41> H         1.074784    1.870933   -0.107332
| 42> H        -2.562960   -1.030533   -0.829079
| 43> H         1.278533   -0.370249   -1.677341
| 44> H        -0.619518   -2.313684    0.110804
| 45> H        -0.086358   -0.923770    2.022160
| 46> *
| 47>
| 48> $new_job
| 49> ! ri-mp2 aug-cc-pvqz aug-cc-pvqz/c tightscf
| 50> %pal nprocs 16 end
| 51> %maxcore 3800
| 52> %base "QZ_P-Si_57_AB"
| 53>
| 54> *xyz 0 1
| 55> C        -1.509781    0.315234    0.042233
| 56> Si        -0.172481   -0.969010    0.550364
| 57> O        -1.384843    1.470399    0.332391
| 58> O        -2.582373   -0.076844   -0.686004
| 59> P         1.813823   -0.501840   -0.373364
| 60> C         1.978406    1.291062    0.060821
| 61> H         2.795968    1.707884   -0.525671
| 62> H         2.252921    1.366947    1.112410
| 63> H         1.074784    1.870933   -0.107332
| 64> H        -2.562960   -1.030533   -0.829079
| 65> H         1.278533   -0.370249   -1.677341
| 66> H        -0.619518   -2.313684    0.110804
| 67> H        -0.086358   -0.923770    2.022160
| 68> *
| 69>
| 70>
| 71>
| 72>
| 73>                          ****END OF INPUT****
 Total Charge           Charge          ....    0
 Multiplicity           Mult            ....    1
 Number of Electrons    NEL             ....   64
MP2 TOTAL ENERGY:     -860.159804652 Eh
FINAL SINGLE POINT ENERGY      -860.159804651528
MP2 TOTAL ENERGY:     -860.438332266 Eh
FINAL SINGLE POINT ENERGY      -860.438332265915

CARTESIAN COORDINATES (ANGSTROEM)
---------------------------------
  C     -1.509781    0.315234    0.042233
  Si    -0.172481   -0.969010    0.550364
  O     -1.384843    1.470399    0.332391
  O     -2.582373   -0.076844   -0.686004
  P      1.813823   -0.501840   -0.373364
  C      1.978406    1.291062    0.060821
  H      2.795968    1.707884   -0.525671
  H      2.252921    1.366947    1.112410
  H      1.074784    1.870933   -0.107332
  H     -2.562960   -1.030533   -0.829079
  H      1.278533   -0.370249   -1.677341
  H     -0.619518   -2.313684    0.110804
  H     -0.086358   -0.923770    2.022160

 Multiplicity           Mult            ....    1
 Number of Electrons    NEL             ....   64
 Basis Dimension        Dim             ....  810

ORBITAL ENERGIES
----------------

  NO   OCC          E(Eh)            E(eV)
   0   2.0000     -79.944816     -2175.4090
   1   2.0000     -68.802181     -1872.2025
   2   2.0000     -20.615574      -560.9783
   3   2.0000     -20.553495      -559.2890
   4   2.0000     -11.372758      -309.4685
   5   2.0000     -11.234436      -305.7046
   6   2.0000      -7.488568      -203.7743
   7   2.0000      -6.152013      -167.4048
   8   2.0000      -5.382488      -146.4649
   9   2.0000      -5.382376      -146.4619
  10   2.0000      -5.381449      -146.4367
  11   2.0000      -4.258202      -115.8716
  12   2.0000      -4.257962      -115.8650
  13   2.0000      -4.257903      -115.8634
  14   2.0000      -1.463106       -39.8131
  15   2.0000      -1.370729       -37.2994
  16   2.0000      -0.989803       -26.9339
  17   2.0000      -0.856947       -23.3187
  18   2.0000      -0.820207       -22.3190
  19   2.0000      -0.768485       -20.9115
  20   2.0000      -0.669637       -18.2218
  21   2.0000      -0.654016       -17.7967
  22   2.0000      -0.630955       -17.1692
  23   2.0000      -0.589953       -16.0534
  24   2.0000      -0.584473       -15.9043
  25   2.0000      -0.564342       -15.3565
  26   2.0000      -0.520875       -14.1737
  27   2.0000      -0.493628       -13.4323
  28   2.0000      -0.484486       -13.1835
  29   2.0000      -0.446091       -12.1388
  30   2.0000      -0.433463       -11.7951
  31   2.0000      -0.359778        -9.7901
  32   0.0000       0.019911         0.5418
  33   0.0000       0.030072         0.8183
  34   0.0000       0.031968         0.8699
  35   0.0000       0.037324         1.0156
  36   0.0000       0.045325         1.2334

MULLIKEN ATOMIC CHARGES
-----------------------
   0 C :    0.799704
   1 Si:    0.879733
   2 O :   -0.799682
   3 O :   -0.779951
   4 P :    0.194677
   5 C :   -1.085904
   6 H :    0.358493
   7 H :    0.251610
   8 H :    0.362138
   9 H :    0.354620
  10 H :   -0.069176
  11 H :   -0.282869
  12 H :   -0.183394
Sum of atomic charges:   -0.0000000

LOEWDIN ATOMIC CHARGES
----------------------
   0 C :   -1.077915
   1 Si:    0.519001
   2 O :    0.593014
   3 O :    1.169974
   4 P :    1.155911
   5 C :    0.672215
   6 H :   -0.369033
   7 H :   -0.369689
   8 H :   -0.405747
   9 H :   -0.863057
  10 H :   -0.494659
  11 H :   -0.266862
  12 H :   -0.263154

  Mayer bond orders larger than 0.100000
B(  0-C ,  1-Si) :   0.6361 B(  0-C ,  2-O ) :   1.5919 B(  0-C ,  3-O ) :   0.7992
B(  1-Si,  4-P ) :   0.8797 B(  1-Si, 11-H ) :   0.7448 B(  1-Si, 12-H ) :   0.7871
B(  3-O ,  9-H ) :   0.8402 B(  4-P ,  5-C ) :   0.8938 B(  4-P , 10-H ) :   0.9243
B(  5-C ,  6-H ) :   0.8620 B(  5-C ,  7-H ) :   0.9340 B(  5-C ,  8-H ) :   0.8634

MP2 TOTAL ENERGY:     -860.529270012 Eh
FINAL SINGLE POINT ENERGY      -860.529270011697

DIPOLE MOMENT
-------------
                                X             Y             Z
Electronic contribution:     -1.95516      -1.92270      -0.55220
Nuclear contribution   :      2.31649       0.85251       0.41584
                        -----------------------------------------
Total Dipole Moment    :      0.36133      -1.07019      -0.13636
                        -----------------------------------------
Magnitude (a.u.)       :      1.13774
Magnitude (Debye)      :      2.89191

Rotational constants in cm-1:     0.123605     0.045617     0.038039
Rotational constants in MHz :  3705.579779  1367.556676  1140.366502

                             ****ORCA TERMINATED NORMALLY****
TOTAL RUN TIME: 0 days 1 hours 2 minutes 24 seconds 795 msec
