                         Program Version 5.0.4 -  RELEASE  -
|  1> ! ri-mp2 aug-cc-pvdz aug-cc-pvdz/c tightscf
|  2> %pal nprocs 16 end
|  3> %maxcore 3800
|  4> %base "DZ_P-S_17_AB"
|  5>
|  6> *xyz 0 1
|  7> C        -4.469144   -0.319871    0.091903
|  8> C        -3.989634    0.977650   -0.002162
|  9> C        -2.630185    1.207858   -0.056649
| 10> C        -3.587375   -1.386933    0.131966
| 11> C        -2.225129   -1.160992    0.075007
| 12> C        -1.739409    0.138255   -0.021453
| 13> H        -5.535114   -0.499570    0.135800
| 14> H        -4.679045    1.810202   -0.033481
| 15> H        -2.237224    2.211648   -0.129181
| 16> H        -3.961299   -2.398381    0.210825
| 17> H        -1.542353   -1.997475    0.118829
| 18> C        -0.293785    0.450803   -0.088235
| 19> S         0.787146   -0.937269   -0.378351
| 20> P         2.703252   -0.092285   -0.014922
| 21> O         3.708953   -1.003427   -0.532054
| 22> O         0.111685    1.591126    0.010228
| 23> O         2.626801    1.349417   -0.589581
| 24> H         1.739611    1.749807   -0.392577
| 25> O         2.749171    0.147140    1.555345
| 26> H         3.107403   -0.610307    2.033462
| 27> *
| 28>
| 29> $new_job
| 30> ! ri-mp2 aug-cc-pvtz aug-cc-pvtz/c tightscf
| 31> %pal nprocs 16 end
| 32> %maxcore 3800
| 33> %base "TZ_P-S_17_AB"
| 34>
| 35> *xyz 0 1
| 36> C        -4.469144   -0.319871    0.091903
| 37> C        -3.989634    0.977650   -0.002162
| 38> C        -2.630185    1.207858   -0.056649
| 39> C        -3.587375   -1.386933    0.131966
| 40> C        -2.225129   -1.160992    0.075007
| 41> C        -1.739409    0.138255   -0.021453
| 42> H        -5.535114   -0.499570    0.135800
| 43> H        -4.679045    1.810202   -0.033481
| 44> H        -2.237224    2.211648   -0.129181
| 45> H        -3.961299   -2.398381    0.210825
| 46> H        -1.542353   -1.997475    0.118829
| 47> C        -0.293785    0.450803   -0.088235
| 48> S         0.787146   -0.937269   -0.378351
| 49> P         2.703252   -0.092285   -0.014922
| 50> O         3.708953   -1.003427   -0.532054
| 51> O         0.111685    1.591126    0.010228
| 52> O         2.626801    1.349417   -0.589581
| 53> H         1.739611    1.749807   -0.392577
| 54> O         2.749171    0.147140    1.555345
| 55> H         3.107403   -0.610307    2.033462
| 56> *
| 57>
| 58> $new_job
| 59> ! ri-mp2 aug-cc-pvqz aug-cc-pvqz/c tightscf
| 60> %pal nprocs 16 end
| 61> %maxcore 3800
| 62> %base "QZ_P-S_17_AB"
| 63>
| 64> *xyz 0 1
| 65> C        -4.469144   -0.319871    0.091903
| 66> C        -3.989634    0.977650   -0.002162
| 67> C        -2.630185    1.207858   -0.056649
| 68> C        -3.587375   -1.386933    0.131966
| 69> C        -2.225129   -1.160992    0.075007
| 70> C        -1.739409    0.138255   -0.021453
| 71> H        -5.535114   -0.499570    0.135800
| 72> H        -4.679045    1.810202   -0.033481
| 73> H        -2.237224    2.211648   -0.129181
| 74> H        -3.961299   -2.398381    0.210825
| 75> H        -1.542353   -1.997475    0.118829
| 76> C        -0.293785    0.450803   -0.088235
| 77> S         0.787146   -0.937269   -0.378351
| 78> P         2.703252   -0.092285   -0.014922
| 79> O         3.708953   -1.003427   -0.532054
| 80> O         0.111685    1.591126    0.010228
| 81> O         2.626801    1.349417   -0.589581
| 82> H         1.739611    1.749807   -0.392577
| 83> O         2.749171    0.147140    1.555345
| 84> H         3.107403   -0.610307    2.033462
| 85> *
| 86>
| 87>
| 88>
| 89>
| 90>                          ****END OF INPUT****
 Total Charge           Charge          ....    0
 Multiplicity           Mult            ....    1
 Number of Electrons    NEL             ....  112
MP2 TOTAL ENERGY:    -1309.036106823 Eh
FINAL SINGLE POINT ENERGY     -1309.036106823414
MP2 TOTAL ENERGY:    -1309.649724661 Eh
FINAL SINGLE POINT ENERGY     -1309.649724660664

CARTESIAN COORDINATES (ANGSTROEM)
---------------------------------
  C     -4.469144   -0.319871    0.091903
  C     -3.989634    0.977650   -0.002162
  C     -2.630185    1.207858   -0.056649
  C     -3.587375   -1.386933    0.131966
  C     -2.225129   -1.160992    0.075007
  C     -1.739409    0.138255   -0.021453
  H     -5.535114   -0.499570    0.135800
  H     -4.679045    1.810202   -0.033481
  H     -2.237224    2.211648   -0.129181
  H     -3.961299   -2.398381    0.210825
  H     -1.542353   -1.997475    0.118829
  C     -0.293785    0.450803   -0.088235
  S      0.787146   -0.937269   -0.378351
  P      2.703252   -0.092285   -0.014922
  O      3.708953   -1.003427   -0.532054
  O      0.111685    1.591126    0.010228
  O      2.626801    1.349417   -0.589581
  H      1.739611    1.749807   -0.392577
  O      2.749171    0.147140    1.555345
  H      3.107403   -0.610307    2.033462

 Multiplicity           Mult            ....    1
 Number of Electrons    NEL             ....  112
 Basis Dimension        Dim             .... 1370

ORBITAL ENERGIES
----------------

  NO   OCC          E(Eh)            E(eV)
   0   2.0000     -91.991485     -2503.2156
   1   2.0000     -80.095304     -2179.5040
   2   2.0000     -20.610071      -560.8285
   3   2.0000     -20.593594      -560.3802
   4   2.0000     -20.589785      -560.2765
   5   2.0000     -20.517628      -558.3130
   6   2.0000     -11.403063      -310.2931
   7   2.0000     -11.274059      -306.7827
   8   2.0000     -11.272535      -306.7413
   9   2.0000     -11.269665      -306.6632
  10   2.0000     -11.268018      -306.6184
  11   2.0000     -11.260096      -306.4028
  12   2.0000     -11.259085      -306.3753
  13   2.0000      -8.996203      -244.7991
  14   2.0000      -7.615554      -207.2298
  15   2.0000      -6.677445      -181.7025
  16   2.0000      -6.676469      -181.6760
  17   2.0000      -6.675820      -181.6583
  18   2.0000      -5.514040      -150.0446
  19   2.0000      -5.513541      -150.0311
  20   2.0000      -5.512531      -150.0036
  21   2.0000      -1.455040       -39.5937
  22   2.0000      -1.438537       -39.1446
  23   2.0000      -1.389764       -37.8174
  24   2.0000      -1.313486       -35.7418
  25   2.0000      -1.195747       -32.5379
  26   2.0000      -1.087182       -29.5837
  27   2.0000      -1.053539       -28.6683
  28   2.0000      -1.031497       -28.0685
  29   2.0000      -0.902197       -24.5500
  30   2.0000      -0.865131       -23.5414
  31   2.0000      -0.842438       -22.9239
  32   2.0000      -0.802155       -21.8277
  33   2.0000      -0.760079       -20.6828
  34   2.0000      -0.738423       -20.0935
  35   2.0000      -0.696888       -18.9633
  36   2.0000      -0.684256       -18.6196
  37   2.0000      -0.668765       -18.1980
  38   2.0000      -0.658297       -17.9132
  39   2.0000      -0.641643       -17.4600
  40   2.0000      -0.634170       -17.2566
  41   2.0000      -0.622668       -16.9437
  42   2.0000      -0.612225       -16.6595
  43   2.0000      -0.592231       -16.1154
  44   2.0000      -0.585937       -15.9442
  45   2.0000      -0.554420       -15.0865
  46   2.0000      -0.547833       -14.9073
  47   2.0000      -0.531525       -14.4635
  48   2.0000      -0.527779       -14.3616
  49   2.0000      -0.507896       -13.8206
  50   2.0000      -0.483151       -13.1472
  51   2.0000      -0.456506       -12.4222
  52   2.0000      -0.450282       -12.2528
  53   2.0000      -0.416341       -11.3292
  54   2.0000      -0.373629       -10.1670
  55   2.0000      -0.369713       -10.0604
  56   0.0000       0.016094         0.4379
  57   0.0000       0.023340         0.6351
  58   0.0000       0.026587         0.7235
  59   0.0000       0.033385         0.9084
  60   0.0000       0.037034         1.0078

MULLIKEN ATOMIC CHARGES
-----------------------
   0 C :   -0.289839
   1 C :   -0.251463
   2 C :   -0.298581
   3 C :   -0.342657
   4 C :   -0.174792
   5 C :   -0.083398
   6 H :    0.308588
   7 H :    0.273786
   8 H :    0.316409
   9 H :    0.251272
  10 H :    0.354369
  11 C :    0.707352
  12 S :   -0.045679
  13 P :    2.373168
  14 O :   -1.201098
  15 O :   -0.782413
  16 O :   -0.971497
  17 H :    0.359542
  18 O :   -0.889657
  19 H :    0.386587
Sum of atomic charges:    0.0000000

LOEWDIN ATOMIC CHARGES
----------------------
   0 C :    0.354165
   1 C :    0.364967
   2 C :    0.316479
   3 C :    0.361359
   4 C :    0.279819
   5 C :   -0.225713
   6 H :   -0.310524
   7 H :   -0.316035
   8 H :   -0.337403
   9 H :   -0.316108
  10 H :   -0.390994
  11 C :   -1.039028
  12 S :    1.224353
  13 P :   -1.030557
  14 O :    0.236254
  15 O :    0.801088
  16 O :    1.053335
  17 H :   -1.220330
  18 O :    1.064647
  19 H :   -0.869773

  Mayer bond orders larger than 0.100000
B(  0-C ,  1-C ) :   1.1275 B(  0-C ,  3-C ) :   1.1704 B(  0-C ,  5-C ) :   0.1104
B(  0-C ,  6-H ) :   1.0265 B(  0-C ,  7-H ) :  -0.1012 B(  1-C ,  2-C ) :   1.2582
B(  1-C ,  5-C ) :  -0.2924 B(  1-C ,  7-H ) :   1.0932 B(  2-C ,  3-C ) :   0.1194
B(  2-C ,  5-C ) :   1.1279 B(  2-C ,  7-H ) :  -0.1434 B(  2-C ,  8-H ) :   0.8926
B(  2-C , 11-C ) :  -0.3834 B(  2-C , 15-O ) :  -0.1011 B(  3-C ,  4-C ) :   1.2001
B(  3-C ,  5-C ) :  -0.2771 B(  3-C ,  9-H ) :   1.1226 B(  4-C ,  5-C ) :   1.0687
B(  4-C ,  9-H ) :  -0.1291 B(  4-C , 10-H ) :   0.9175 B(  4-C , 11-C ) :  -0.3661
B(  5-C , 10-H ) :  -0.1151 B(  5-C , 11-C ) :   0.7766 B(  5-C , 12-S ) :  -0.1385
B(  5-C , 15-O ) :   0.3756 B( 11-C , 12-S ) :   0.9532 B( 11-C , 15-O ) :   1.0800
B( 12-S , 13-P ) :   0.9391 B( 12-S , 14-O ) :  -0.1096 B( 13-P , 14-O ) :   1.3450
B( 13-P , 16-O ) :   0.6995 B( 13-P , 18-O ) :   0.6559 B( 14-O , 16-O ) :  -0.1085
B( 15-O , 17-H ) :   0.1556 B( 16-O , 17-H ) :   0.8018 B( 18-O , 19-H ) :   0.8968

MP2 TOTAL ENERGY:    -1309.849561810 Eh
FINAL SINGLE POINT ENERGY     -1309.849561810269

DIPOLE MOMENT
-------------
                                X             Y             Z
Electronic contribution:     12.42877      -0.68007      -1.02579
Nuclear contribution   :    -15.00411       0.40070       1.90572
                        -----------------------------------------
Total Dipole Moment    :     -2.57534      -0.27937       0.87993
                        -----------------------------------------
Magnitude (a.u.)       :      2.73582
Magnitude (Debye)      :      6.95390

Rotational constants in cm-1:     0.063191     0.010474     0.009579
Rotational constants in MHz :  1894.428202   313.987720   287.171111

                             ****ORCA TERMINATED NORMALLY****
TOTAL RUN TIME: 0 days 1 hours 16 minutes 45 seconds 522 msec
