                         Program Version 5.0.4 -  RELEASE  -
|  1> ! ri-mp2 aug-cc-pvdz aug-cc-pvdz/c tightscf
|  2> %pal nprocs 16 end
|  3> %maxcore 3800
|  4> %base "DZ_B-Si_50_AB"
|  5> %scf
|  6> STABPerform true
|  7> STABRestartUHFifUnstable true
|  8> end
|  9>
| 10> *xyz 0 1
| 11> C         0.008183    1.619325    0.521056
| 12> B         0.000431    0.103531    0.224008
| 13> Si        -1.752441   -0.846004   -0.032130
| 14> O        -0.019704    2.231498   -0.531740
| 15> Si         1.753945   -0.839698   -0.040152
| 16> H         0.028464    2.157930    1.486766
| 17> H        -1.752896   -2.028271    0.863624
| 18> H        -1.847575   -1.323324   -1.429831
| 19> H        -2.934861   -0.013482    0.279118
| 20> H         1.648004   -1.975325   -0.981764
| 21> H         2.121183   -1.379630    1.293985
| 22> H         2.822996    0.076345   -0.492409
| 23> *
| 24>
| 25> $new_job
| 26> ! ri-mp2 aug-cc-pvtz aug-cc-pvtz/c tightscf
| 27> %pal nprocs 16 end
| 28> %maxcore 3800
| 29> %base "TZ_B-Si_50_AB"
| 30>
| 31> *xyz 0 1
| 32> C         0.008183    1.619325    0.521056
| 33> B         0.000431    0.103531    0.224008
| 34> Si        -1.752441   -0.846004   -0.032130
| 35> O        -0.019704    2.231498   -0.531740
| 36> Si         1.753945   -0.839698   -0.040152
| 37> H         0.028464    2.157930    1.486766
| 38> H        -1.752896   -2.028271    0.863624
| 39> H        -1.847575   -1.323324   -1.429831
| 40> H        -2.934861   -0.013482    0.279118
| 41> H         1.648004   -1.975325   -0.981764
| 42> H         2.121183   -1.379630    1.293985
| 43> H         2.822996    0.076345   -0.492409
| 44> *
| 45>
| 46> $new_job
| 47> ! ri-mp2 aug-cc-pvqz aug-cc-pvqz/c tightscf
| 48> %pal nprocs 16 end
| 49> %maxcore 3800
| 50> %base "QZ_B-Si_50_AB"
| 51>
| 52> *xyz 0 1
| 53> C         0.008183    1.619325    0.521056
| 54> B         0.000431    0.103531    0.224008
| 55> Si        -1.752441   -0.846004   -0.032130
| 56> O        -0.019704    2.231498   -0.531740
| 57> Si         1.753945   -0.839698   -0.040152
| 58> H         0.028464    2.157930    1.486766
| 59> H        -1.752896   -2.028271    0.863624
| 60> H        -1.847575   -1.323324   -1.429831
| 61> H        -2.934861   -0.013482    0.279118
| 62> H         1.648004   -1.975325   -0.981764
| 63> H         2.121183   -1.379630    1.293985
| 64> H         2.822996    0.076345   -0.492409
| 65> *
| 66>
| 67>
| 68>
| 69>
| 70>                          ****END OF INPUT****
 Total Charge           Charge          ....    0
 Multiplicity           Mult            ....    1
 Number of Electrons    NEL             ....   54
MP2 TOTAL ENERGY:     -719.932438946 Eh
FINAL SINGLE POINT ENERGY      -719.932438946339
MP2 TOTAL ENERGY:     -720.120477397 Eh
FINAL SINGLE POINT ENERGY      -720.120477396619

CARTESIAN COORDINATES (ANGSTROEM)
---------------------------------
  C      0.008183    1.619325    0.521056
  B      0.000431    0.103531    0.224008
  Si    -1.752441   -0.846004   -0.032130
  O     -0.019704    2.231498   -0.531740
  Si     1.753945   -0.839698   -0.040152
  H      0.028464    2.157930    1.486766
  H     -1.752896   -2.028271    0.863624
  H     -1.847575   -1.323324   -1.429831
  H     -2.934861   -0.013482    0.279118
  H      1.648004   -1.975325   -0.981764
  H      2.121183   -1.379630    1.293985
  H      2.822996    0.076345   -0.492409

 Multiplicity           Mult            ....    1
 Number of Electrons    NEL             ....   54
 Basis Dimension        Dim             ....  730

ORBITAL ENERGIES
----------------

  NO   OCC          E(Eh)            E(eV)
   0   2.0000     -68.771070     -1871.3559
   1   2.0000     -68.771067     -1871.3559
   2   2.0000     -20.566525      -559.6436
   3   2.0000     -11.326708      -308.2154
   4   2.0000      -7.625818      -207.5090
   5   2.0000      -6.122507      -166.6019
   6   2.0000      -6.122448      -166.6003
   7   2.0000      -4.228842      -115.0726
   8   2.0000      -4.228707      -115.0690
   9   2.0000      -4.228543      -115.0645
  10   2.0000      -4.228523      -115.0640
  11   2.0000      -4.228450      -115.0620
  12   2.0000      -4.228395      -115.0605
  13   2.0000      -1.400088       -38.0983
  14   2.0000      -0.874899       -23.8072
  15   2.0000      -0.769476       -20.9385
  16   2.0000      -0.723815       -19.6960
  17   2.0000      -0.696223       -18.9452
  18   2.0000      -0.637724       -17.3534
  19   2.0000      -0.552379       -15.0310
  20   2.0000      -0.525348       -14.2954
  21   2.0000      -0.498809       -13.5733
  22   2.0000      -0.488468       -13.2919
  23   2.0000      -0.486651       -13.2424
  24   2.0000      -0.485050       -13.1989
  25   2.0000      -0.407390       -11.0856
  26   2.0000      -0.398429       -10.8418
  27   0.0000       0.020127         0.5477
  28   0.0000       0.027257         0.7417
  29   0.0000       0.028106         0.7648
  30   0.0000       0.031743         0.8638
  31   0.0000       0.041917         1.1406

MULLIKEN ATOMIC CHARGES
-----------------------
   0 C :    0.068501
   1 B :    0.317052
   2 Si:    0.330196
   3 O :   -0.840871
   4 Si:    0.327521
   5 H :    0.507912
   6 H :   -0.110530
   7 H :   -0.108133
   8 H :   -0.146564
   9 H :   -0.114500
  10 H :   -0.114846
  11 H :   -0.115739
Sum of atomic charges:    0.0000000

LOEWDIN ATOMIC CHARGES
----------------------
   0 C :   -0.242984
   1 B :   -0.752983
   2 Si:    1.136399
   3 O :    0.701403
   4 Si:    1.135351
   5 H :   -0.350538
   6 H :   -0.272592
   7 H :   -0.267298
   8 H :   -0.274302
   9 H :   -0.272595
  10 H :   -0.270538
  11 H :   -0.269324

  Mayer bond orders larger than 0.100000
B(  0-C ,  1-B ) :   0.9545 B(  0-C ,  3-O ) :   1.5938 B(  0-C ,  5-H ) :   0.7121
B(  1-B ,  2-Si) :   0.4775 B(  1-B ,  3-O ) :   0.1270 B(  1-B ,  4-Si) :   0.5072
B(  2-Si,  6-H ) :   0.6805 B(  2-Si,  7-H ) :   0.6809 B(  2-Si,  8-H ) :   0.6717
B(  4-Si,  9-H ) :   0.6758 B(  4-Si, 10-H ) :   0.6737 B(  4-Si, 11-H ) :   0.6760

MP2 TOTAL ENERGY:     -720.183216434 Eh
FINAL SINGLE POINT ENERGY      -720.183216434423

DIPOLE MOMENT
-------------
                                X             Y             Z
Electronic contribution:     -0.06643       3.90378       0.03820
Nuclear contribution   :      0.08404      -4.40422       0.82982
                        -----------------------------------------
Total Dipole Moment    :      0.01761      -0.50045       0.86802
                        -----------------------------------------
Magnitude (a.u.)       :      1.00210
Magnitude (Debye)      :      2.54714

Rotational constants in cm-1:     0.091680     0.076789     0.045472
Rotational constants in MHz :  2748.488485  2302.070058  1363.228363

                             ****ORCA TERMINATED NORMALLY****
TOTAL RUN TIME: 0 days 0 hours 42 minutes 21 seconds 530 msec
