                         Program Version 5.0.4 -  RELEASE  -
|  1> ! ri-mp2 aug-cc-pvdz aug-cc-pvdz/c tightscf
|  2> %pal nprocs 16 end
|  3> %maxcore 3800
|  4> %base "DZ_P-Cl_23_AB"
|  5> %scf
|  6> STABPerform true
|  7> STABRestartUHFifUnstable true
|  8> end
|  9>
| 10> *xyz 0 1
| 11> Cl        -1.693371    0.000000    1.393709
| 12> P        -1.275310    0.000000   -0.655267
| 13> C        -0.083818    1.407837   -0.756810
| 14> C         1.167964    1.262992    0.098866
| 15> C         1.979358    0.000000   -0.168892
| 16> C        -0.792679    2.733917   -0.512140
| 17> C         3.257663    0.000000    0.656425
| 18> H        -1.668956    2.846887   -1.151160
| 19> H        -1.121797    2.809889    0.524563
| 20> H        -0.117715    3.567908   -0.710573
| 21> H         3.864209    0.882335    0.447519
| 22> H         3.864209   -0.882336    0.447519
| 23> C         1.167964   -1.262992    0.098866
| 24> C        -0.083818   -1.407837   -0.756810
| 25> C        -0.792679   -2.733917   -0.512140
| 26> H        -1.668956   -2.846887   -1.151159
| 27> H        -1.121797   -2.809889    0.524563
| 28> H        -0.117715   -3.567908   -0.710573
| 29> H         3.026562    0.000000    1.723994
| 30> H         0.212235    1.367596   -1.814180
| 31> H         0.884879    1.292530    1.154991
| 32> H         1.802509    2.137983   -0.072393
| 33> H         2.259946    0.000000   -1.229779
| 34> H         0.884879   -1.292530    1.154991
| 35> H         1.802509   -2.137983   -0.072393
| 36> H         0.212235   -1.367596   -1.814180
| 37> *
| 38>
| 39> $new_job
| 40> ! ri-mp2 aug-cc-pvtz aug-cc-pvtz/c tightscf
| 41> %pal nprocs 16 end
| 42> %maxcore 3800
| 43> %base "TZ_P-Cl_23_AB"
| 44>
| 45> *xyz 0 1
| 46> Cl        -1.693371    0.000000    1.393709
| 47> P        -1.275310    0.000000   -0.655267
| 48> C        -0.083818    1.407837   -0.756810
| 49> C         1.167964    1.262992    0.098866
| 50> C         1.979358    0.000000   -0.168892
| 51> C        -0.792679    2.733917   -0.512140
| 52> C         3.257663    0.000000    0.656425
| 53> H        -1.668956    2.846887   -1.151160
| 54> H        -1.121797    2.809889    0.524563
| 55> H        -0.117715    3.567908   -0.710573
| 56> H         3.864209    0.882335    0.447519
| 57> H         3.864209   -0.882336    0.447519
| 58> C         1.167964   -1.262992    0.098866
| 59> C        -0.083818   -1.407837   -0.756810
| 60> C        -0.792679   -2.733917   -0.512140
| 61> H        -1.668956   -2.846887   -1.151159
| 62> H        -1.121797   -2.809889    0.524563
| 63> H        -0.117715   -3.567908   -0.710573
| 64> H         3.026562    0.000000    1.723994
| 65> H         0.212235    1.367596   -1.814180
| 66> H         0.884879    1.292530    1.154991
| 67> H         1.802509    2.137983   -0.072393
| 68> H         2.259946    0.000000   -1.229779
| 69> H         0.884879   -1.292530    1.154991
| 70> H         1.802509   -2.137983   -0.072393
| 71> H         0.212235   -1.367596   -1.814180
| 72> *
| 73>
| 74> $new_job
| 75> ! ri-mp2 aug-cc-pvqz aug-cc-pvqz/c tightscf
| 76> %pal nprocs 16 end
| 77> %maxcore 3800
| 78> %base "QZ_P-Cl_23_AB"
| 79>
| 80> *xyz 0 1
| 81> Cl        -1.693371    0.000000    1.393709
| 82> P        -1.275310    0.000000   -0.655267
| 83> C        -0.083818    1.407837   -0.756810
| 84> C         1.167964    1.262992    0.098866
| 85> C         1.979358    0.000000   -0.168892
| 86> C        -0.792679    2.733917   -0.512140
| 87> C         3.257663    0.000000    0.656425
| 88> H        -1.668956    2.846887   -1.151160
| 89> H        -1.121797    2.809889    0.524563
| 90> H        -0.117715    3.567908   -0.710573
| 91> H         3.864209    0.882335    0.447519
| 92> H         3.864209   -0.882336    0.447519
| 93> C         1.167964   -1.262992    0.098866
| 94> C        -0.083818   -1.407837   -0.756810
| 95> C        -0.792679   -2.733917   -0.512140
| 96> H        -1.668956   -2.846887   -1.151159
| 97> H        -1.121797   -2.809889    0.524563
| 98> H        -0.117715   -3.567908   -0.710573
| 99> H         3.026562    0.000000    1.723994
|100> H         0.212235    1.367596   -1.814180
|101> H         0.884879    1.292530    1.154991
|102> H         1.802509    2.137983   -0.072393
|103> H         2.259946    0.000000   -1.229779
|104> H         0.884879   -1.292530    1.154991
|105> H         1.802509   -2.137983   -0.072393
|106> H         0.212235   -1.367596   -1.814180
|107> *
|108>
|109>
|110>
|111>
|112>                          ****END OF INPUT****
 Total Charge           Charge          ....    0
 Multiplicity           Mult            ....    1
 Number of Electrons    NEL             ....   96
MP2 TOTAL ENERGY:    -1114.050434938 Eh
FINAL SINGLE POINT ENERGY     -1114.050434938485
MP2 TOTAL ENERGY:    -1114.452184052 Eh
FINAL SINGLE POINT ENERGY     -1114.452184051936

CARTESIAN COORDINATES (ANGSTROEM)
---------------------------------
  Cl    -1.693371    0.000000    1.393709
  P     -1.275310    0.000000   -0.655267
  C     -0.083818    1.407837   -0.756810
  C      1.167964    1.262992    0.098866
  C      1.979358    0.000000   -0.168892
  C     -0.792679    2.733917   -0.512140
  C      3.257663    0.000000    0.656425
  H     -1.668956    2.846887   -1.151160
  H     -1.121797    2.809889    0.524563
  H     -0.117715    3.567908   -0.710573
  H      3.864209    0.882335    0.447519
  H      3.864209   -0.882336    0.447519
  C      1.167964   -1.262992    0.098866
  C     -0.083818   -1.407837   -0.756810
  C     -0.792679   -2.733917   -0.512140
  H     -1.668956   -2.846887   -1.151159
  H     -1.121797   -2.809889    0.524563
  H     -0.117715   -3.567908   -0.710573
  H      3.026562    0.000000    1.723994
  H      0.212235    1.367596   -1.814180
  H      0.884879    1.292530    1.154991
  H      1.802509    2.137983   -0.072393
  H      2.259946    0.000000   -1.229779
  H      0.884879   -1.292530    1.154991
  H      1.802509   -2.137983   -0.072393
  H      0.212235   -1.367596   -1.814180

 Multiplicity           Mult            ....    1
 Number of Electrons    NEL             ....   96
 Basis Dimension        Dim             .... 1544

ORBITAL ENERGIES
----------------

  NO   OCC          E(Eh)            E(eV)
   0   2.0000    -104.814052     -2852.1354
   1   2.0000     -79.972145     -2176.1527
   2   2.0000     -11.238195      -305.8068
   3   2.0000     -11.238187      -305.8066
   4   2.0000     -11.227376      -305.5124
   5   2.0000     -11.221325      -305.3478
   6   2.0000     -11.221282      -305.3466
   7   2.0000     -11.218767      -305.2782
   8   2.0000     -11.218767      -305.2782
   9   2.0000     -11.213083      -305.1235
  10   2.0000     -10.540709      -286.8273
  11   2.0000      -8.007536      -217.8961
  12   2.0000      -8.006270      -217.8617
  13   2.0000      -8.006178      -217.8592
  14   2.0000      -7.510704      -204.3766
  15   2.0000      -5.404594      -147.0665
  16   2.0000      -5.403262      -147.0302
  17   2.0000      -5.402260      -147.0030
  18   2.0000      -1.136694       -30.9310
  19   2.0000      -1.086513       -29.5655
  20   2.0000      -1.063342       -28.9350
  21   2.0000      -1.034314       -28.1451
  22   2.0000      -0.933745       -25.4085
  23   2.0000      -0.929826       -25.3019
  24   2.0000      -0.874622       -23.7997
  25   2.0000      -0.800548       -21.7840
  26   2.0000      -0.784592       -21.3498
  27   2.0000      -0.725632       -19.7455
  28   2.0000      -0.638995       -17.3879
  29   2.0000      -0.629149       -17.1200
  30   2.0000      -0.613772       -16.7016
  31   2.0000      -0.609590       -16.5878
  32   2.0000      -0.580177       -15.7874
  33   2.0000      -0.559180       -15.2161
  34   2.0000      -0.558186       -15.1890
  35   2.0000      -0.540220       -14.7001
  36   2.0000      -0.539399       -14.6778
  37   2.0000      -0.527315       -14.3490
  38   2.0000      -0.520884       -14.1740
  39   2.0000      -0.485176       -13.2023
  40   2.0000      -0.484239       -13.1768
  41   2.0000      -0.470026       -12.7901
  42   2.0000      -0.469082       -12.7644
  43   2.0000      -0.463369       -12.6089
  44   2.0000      -0.453767       -12.3476
  45   2.0000      -0.446720       -12.1559
  46   2.0000      -0.407529       -11.0894
  47   2.0000      -0.341733        -9.2990
  48   0.0000       0.021552         0.5865
  49   0.0000       0.026978         0.7341
  50   0.0000       0.028143         0.7658
  51   0.0000       0.032639         0.8882
  52   0.0000       0.041174         1.1204

MULLIKEN ATOMIC CHARGES
-----------------------
   0 Cl:   -0.674690
   1 P :    0.615313
   2 C :    0.059893
   3 C :   -0.262785
   4 C :    0.146854
   5 C :   -1.047122
   6 C :   -1.017739
   7 H :    0.229990
   8 H :    0.206366
   9 H :    0.232950
  10 H :    0.197227
  11 H :    0.197228
  12 C :   -0.262786
  13 C :    0.059893
  14 C :   -1.047122
  15 H :    0.229991
  16 H :    0.206365
  17 H :    0.232950
  18 H :    0.188649
  19 H :    0.196698
  20 H :    0.245696
  21 H :    0.231145
  22 H :    0.161500
  23 H :    0.245695
  24 H :    0.231144
  25 H :    0.196697
Sum of atomic charges:    0.0000000

LOEWDIN ATOMIC CHARGES
----------------------
   0 Cl:    0.869347
   1 P :    0.349059
   2 C :   -0.076112
   3 C :    0.436220
   4 C :    0.102690
   5 C :    0.835614
   6 C :    0.938471
   7 H :   -0.292757
   8 H :   -0.311163
   9 H :   -0.275908
  10 H :   -0.270624
  11 H :   -0.270623
  12 C :    0.436220
  13 C :   -0.076112
  14 C :    0.835614
  15 H :   -0.292757
  16 H :   -0.311163
  17 H :   -0.275908
  18 H :   -0.268672
  19 H :   -0.342434
  20 H :   -0.302753
  21 H :   -0.264472
  22 H :   -0.262117
  23 H :   -0.302753
  24 H :   -0.264472
  25 H :   -0.342434

  Mayer bond orders larger than 0.100000
B(  0-Cl,  1-P ) :   0.7114 B(  0-Cl,  2-C ) :  -0.1375 B(  0-Cl, 13-C ) :  -0.1375
B(  1-P ,  2-C ) :   0.5912 B(  1-P , 13-C ) :   0.5912 B(  2-C ,  3-C ) :   0.7854
B(  2-C ,  5-C ) :   0.4701 B(  2-C ,  7-H ) :  -0.1262 B(  2-C ,  9-H ) :  -0.1584
B(  2-C , 19-H ) :   1.0042 B(  3-C ,  4-C ) :   0.6385 B(  3-C , 20-H ) :   0.9825
B(  3-C , 21-H ) :   0.9575 B(  4-C ,  6-C ) :   0.5880 B(  4-C , 10-H ) :  -0.1287
B(  4-C , 11-H ) :  -0.1287 B(  4-C , 12-C ) :   0.6385 B(  4-C , 18-H ) :  -0.1185
B(  4-C , 22-H ) :   1.0224 B(  5-C ,  7-H ) :   1.0896 B(  5-C ,  8-H ) :   1.0541
B(  5-C ,  9-H ) :   1.0806 B(  6-C , 10-H ) :   1.1161 B(  6-C , 11-H ) :   1.1161
B(  6-C , 18-H ) :   1.0473 B( 12-C , 13-C ) :   0.7854 B( 12-C , 23-H ) :   0.9825
B( 12-C , 24-H ) :   0.9575 B( 13-C , 14-C ) :   0.4701 B( 13-C , 15-H ) :  -0.1262
B( 13-C , 17-H ) :  -0.1584 B( 13-C , 25-H ) :   1.0042 B( 14-C , 15-H ) :   1.0896
B( 14-C , 16-H ) :   1.0541 B( 14-C , 17-H ) :   1.0806

MP2 TOTAL ENERGY:    -1114.576338116 Eh
FINAL SINGLE POINT ENERGY     -1114.576338115581

DIPOLE MOMENT
-------------
                                X             Y             Z
Electronic contribution:    -15.88136       0.00000       3.56305
Nuclear contribution   :     16.78826      -0.00000      -4.15619
                        -----------------------------------------
Total Dipole Moment    :      0.90691       0.00000      -0.59313
                        -----------------------------------------
Magnitude (a.u.)       :      1.08365
Magnitude (Debye)      :      2.75441

Rotational constants in cm-1:     0.036078     0.030085     0.021731
Rotational constants in MHz :  1081.603426   901.925751   651.492131

                             ****ORCA TERMINATED NORMALLY****
TOTAL RUN TIME: 0 days 9 hours 22 minutes 28 seconds 633 msec
