                         Program Version 5.0.4 -  RELEASE  -
|  1> ! ri-mp2 aug-cc-pvdz aug-cc-pvdz/c tightscf
|  2> %pal nprocs 16 end
|  3> %maxcore 3800
|  4> %base "DZ_B-P_75_AB"
|  5> %scf
|  6> STABPerform true
|  7> STABRestartUHFifUnstable true
|  8> end
|  9>
| 10> *xyz 0 1
| 11> P        -0.594975    0.013706    0.538929
| 12> B         1.146305   -0.714336    0.002367
| 13> F        -1.488481   -0.879488   -0.446330
| 14> F        -0.563353    1.361838   -0.317209
| 15> O         2.169005    0.145687   -0.094655
| 16> H         3.018889   -0.248579   -0.316406
| 17> H         1.288665   -1.891972   -0.150283
| 18> *
| 19>
| 20> $new_job
| 21> ! ri-mp2 aug-cc-pvtz aug-cc-pvtz/c tightscf
| 22> %pal nprocs 16 end
| 23> %maxcore 3800
| 24> %base "TZ_B-P_75_AB"
| 25>
| 26> *xyz 0 1
| 27> P        -0.594975    0.013706    0.538929
| 28> B         1.146305   -0.714336    0.002367
| 29> F        -1.488481   -0.879488   -0.446330
| 30> F        -0.563353    1.361838   -0.317209
| 31> O         2.169005    0.145687   -0.094655
| 32> H         3.018889   -0.248579   -0.316406
| 33> H         1.288665   -1.891972   -0.150283
| 34> *
| 35>
| 36> $new_job
| 37> ! ri-mp2 aug-cc-pvqz aug-cc-pvqz/c tightscf
| 38> %pal nprocs 16 end
| 39> %maxcore 3800
| 40> %base "QZ_B-P_75_AB"
| 41>
| 42> *xyz 0 1
| 43> P        -0.594975    0.013706    0.538929
| 44> B         1.146305   -0.714336    0.002367
| 45> F        -1.488481   -0.879488   -0.446330
| 46> F        -0.563353    1.361838   -0.317209
| 47> O         2.169005    0.145687   -0.094655
| 48> H         3.018889   -0.248579   -0.316406
| 49> H         1.288665   -1.891972   -0.150283
| 50> *
| 51>
| 52>
| 53>
| 54>
| 55>                          ****END OF INPUT****
 Total Charge           Charge          ....    0
 Multiplicity           Mult            ....    1
 Number of Electrons    NEL             ....   48
MP2 TOTAL ENERGY:     -641.256685543 Eh
FINAL SINGLE POINT ENERGY      -641.256685542740
MP2 TOTAL ENERGY:     -641.561480245 Eh
FINAL SINGLE POINT ENERGY      -641.561480245309

CARTESIAN COORDINATES (ANGSTROEM)
---------------------------------
  P     -0.594975    0.013706    0.538929
  B      1.146305   -0.714336    0.002367
  F     -1.488481   -0.879488   -0.446330
  F     -0.563353    1.361838   -0.317209
  O      2.169005    0.145687   -0.094655
  H      3.018889   -0.248579   -0.316406
  H      1.288665   -1.891972   -0.150283

 Multiplicity           Mult            ....    1
 Number of Electrons    NEL             ....   48
 Basis Dimension        Dim             ....  496

ORBITAL ENERGIES
----------------

  NO   OCC          E(Eh)            E(eV)
   0   2.0000     -80.041115     -2178.0295
   1   2.0000     -26.304705      -715.7874
   2   2.0000     -26.303746      -715.7613
   3   2.0000     -20.608729      -560.7920
   4   2.0000      -7.651810      -208.2163
   5   2.0000      -7.570375      -206.0004
   6   2.0000      -5.464815      -148.7052
   7   2.0000      -5.463632      -148.6730
   8   2.0000      -5.461958      -148.6274
   9   2.0000      -1.627835       -44.2956
  10   2.0000      -1.596535       -43.4439
  11   2.0000      -1.405128       -38.2355
  12   2.0000      -0.883030       -24.0285
  13   2.0000      -0.796306       -21.6686
  14   2.0000      -0.734527       -19.9875
  15   2.0000      -0.714837       -19.4517
  16   2.0000      -0.709607       -19.3094
  17   2.0000      -0.681965       -18.5572
  18   2.0000      -0.664310       -18.0768
  19   2.0000      -0.641942       -17.4681
  20   2.0000      -0.597901       -16.2697
  21   2.0000      -0.571651       -15.5554
  22   2.0000      -0.514609       -14.0032
  23   2.0000      -0.369156       -10.0453
  24   0.0000       0.018589         0.5058
  25   0.0000       0.032038         0.8718
  26   0.0000       0.036237         0.9861
  27   0.0000       0.039360         1.0710
  28   0.0000       0.058549         1.5932

MULLIKEN ATOMIC CHARGES
-----------------------
   0 P :    1.405259
   1 B :    0.655455
   2 F :   -0.673861
   3 F :   -0.662356
   4 O :   -0.908453
   5 H :    0.362814
   6 H :   -0.178858
Sum of atomic charges:    0.0000000

LOEWDIN ATOMIC CHARGES
----------------------
   0 P :   -0.066409
   1 B :   -0.642973
   2 F :    0.236541
   3 F :    0.245576
   4 O :    1.256336
   5 H :   -0.791354
   6 H :   -0.237716

  Mayer bond orders larger than 0.100000
B(  0-P ,  1-B ) :   1.0673 B(  0-P ,  2-F ) :   0.5230 B(  0-P ,  3-F ) :   0.5166
B(  1-B ,  4-O ) :   0.6821 B(  1-B ,  6-H ) :   0.8772 B(  4-O ,  5-H ) :   0.8940

MP2 TOTAL ENERGY:     -641.662635003 Eh
FINAL SINGLE POINT ENERGY      -641.662635002743

DIPOLE MOMENT
-------------
                                X             Y             Z
Electronic contribution:     -4.31128       1.24043       0.31861
Nuclear contribution   :      5.54100      -1.89159      -0.21136
                        -----------------------------------------
Total Dipole Moment    :      1.22972      -0.65116       0.10726
                        -----------------------------------------
Magnitude (a.u.)       :      1.39561
Magnitude (Debye)      :      3.54736

Rotational constants in cm-1:     0.227015     0.096823     0.077153
Rotational constants in MHz :  6805.743473  2902.669097  2312.988846

                             ****ORCA TERMINATED NORMALLY****
TOTAL RUN TIME: 0 days 0 hours 6 minutes 11 seconds 761 msec
