                         Program Version 5.0.4 -  RELEASE  -
|  1> ! ri-mp2 aug-cc-pvdz aug-cc-pvdz/c tightscf
|  2> %pal nprocs 16 end
|  3> %maxcore 3800
|  4> %base "DZ_Si-S_40_AB"
|  5> %scf
|  6> STABPerform true
|  7> STABRestartUHFifUnstable true
|  8> end
|  9>
| 10> *xyz 0 1
| 11> S        -0.117424    0.982743   -0.000003
| 12> Si         1.483699   -0.484819    0.000000
| 13> C        -1.399082   -0.117135    0.000003
| 14> N        -2.281601   -0.852648    0.000004
| 15> H         2.695744    0.352514   -0.000006
| 16> H         1.388478   -1.308803   -1.215050
| 17> H         1.388483   -1.308793    1.215057
| 18> *
| 19>
| 20> $new_job
| 21> ! ri-mp2 aug-cc-pvtz aug-cc-pvtz/c tightscf
| 22> %pal nprocs 16 end
| 23> %maxcore 3800
| 24> %base "TZ_Si-S_40_AB"
| 25>
| 26> *xyz 0 1
| 27> S        -0.117424    0.982743   -0.000003
| 28> Si         1.483699   -0.484819    0.000000
| 29> C        -1.399082   -0.117135    0.000003
| 30> N        -2.281601   -0.852648    0.000004
| 31> H         2.695744    0.352514   -0.000006
| 32> H         1.388478   -1.308803   -1.215050
| 33> H         1.388483   -1.308793    1.215057
| 34> *
| 35>
| 36> $new_job
| 37> ! ri-mp2 aug-cc-pvqz aug-cc-pvqz/c tightscf
| 38> %pal nprocs 16 end
| 39> %maxcore 3800
| 40> %base "QZ_Si-S_40_AB"
| 41>
| 42> *xyz 0 1
| 43> S        -0.117424    0.982743   -0.000003
| 44> Si         1.483699   -0.484819    0.000000
| 45> C        -1.399082   -0.117135    0.000003
| 46> N        -2.281601   -0.852648    0.000004
| 47> H         2.695744    0.352514   -0.000006
| 48> H         1.388478   -1.308803   -1.215050
| 49> H         1.388483   -1.308793    1.215057
| 50> *
| 51>
| 52>
| 53>
| 54>
| 55>                          ****END OF INPUT****
 Total Charge           Charge          ....    0
 Multiplicity           Mult            ....    1
 Number of Electrons    NEL             ....   46
MP2 TOTAL ENERGY:     -781.073909951 Eh
FINAL SINGLE POINT ENERGY      -781.073909951240
MP2 TOTAL ENERGY:     -781.239187249 Eh
FINAL SINGLE POINT ENERGY      -781.239187248668

CARTESIAN COORDINATES (ANGSTROEM)
---------------------------------
  S     -0.117424    0.982743   -0.000003
  Si     1.483699   -0.484819    0.000000
  C     -1.399082   -0.117135    0.000003
  N     -2.281601   -0.852648    0.000004
  H      2.695744    0.352514   -0.000006
  H      1.388478   -1.308803   -1.215050
  H      1.388483   -1.308793    1.215057

 Multiplicity           Mult            ....    1
 Number of Electrons    NEL             ....   46
 Basis Dimension        Dim             ....  466

ORBITAL ENERGIES
----------------

  NO   OCC          E(Eh)            E(eV)
   0   2.0000     -92.009320     -2503.7009
   1   2.0000     -68.829460     -1872.9448
   2   2.0000     -15.580631      -423.9705
   3   2.0000     -11.299666      -307.4795
   4   2.0000      -9.012571      -245.2445
   5   2.0000      -6.694345      -182.1624
   6   2.0000      -6.692861      -182.1220
   7   2.0000      -6.692163      -182.1030
   8   2.0000      -6.176992      -168.0845
   9   2.0000      -4.283806      -116.5683
  10   2.0000      -4.282849      -116.5422
  11   2.0000      -4.282536      -116.5337
  12   2.0000      -1.236791       -33.6548
  13   2.0000      -1.051874       -28.6230
  14   2.0000      -0.765523       -20.8309
  15   2.0000      -0.660443       -17.9716
  16   2.0000      -0.564979       -15.3739
  17   2.0000      -0.552107       -15.0236
  18   2.0000      -0.551905       -15.0181
  19   2.0000      -0.518097       -14.0981
  20   2.0000      -0.512627       -13.9493
  21   2.0000      -0.443862       -12.0781
  22   2.0000      -0.397991       -10.8299
  23   0.0000       0.021095         0.5740
  24   0.0000       0.030385         0.8268
  25   0.0000       0.035277         0.9599
  26   0.0000       0.040714         1.1079
  27   0.0000       0.060423         1.6442

MULLIKEN ATOMIC CHARGES
-----------------------
   0 S :    0.174415
   1 Si:    0.866817
   2 C :   -0.106850
   3 N :   -0.494937
   4 H :   -0.175828
   5 H :   -0.131808
   6 H :   -0.131808
Sum of atomic charges:    0.0000000

LOEWDIN ATOMIC CHARGES
----------------------
   0 S :    1.011609
   1 Si:    0.648488
   2 C :   -1.018026
   3 N :    0.268265
   4 H :   -0.318199
   5 H :   -0.296068
   6 H :   -0.296068

  Mayer bond orders larger than 0.100000
B(  0-S ,  1-Si) :   0.6482 B(  0-S ,  2-C ) :   0.9235 B(  1-Si,  4-H ) :   0.8397
B(  1-Si,  5-H ) :   0.8390 B(  1-Si,  6-H ) :   0.8390 B(  2-C ,  3-N ) :   2.6206

MP2 TOTAL ENERGY:     -781.294107573 Eh
FINAL SINGLE POINT ENERGY      -781.294107572763

DIPOLE MOMENT
-------------
                                X             Y             Z
Electronic contribution:     -3.59285       2.55391      -0.00000
Nuclear contribution   :      5.20439      -2.19977       0.00000
                        -----------------------------------------
Total Dipole Moment    :      1.61154       0.35414      -0.00000
                        -----------------------------------------
Magnitude (a.u.)       :      1.65000
Magnitude (Debye)      :      4.19396

Rotational constants in cm-1:     0.310187     0.097653     0.076271
Rotational constants in MHz :  9299.173081  2927.552939  2286.550242

                             ****ORCA TERMINATED NORMALLY****
TOTAL RUN TIME: 0 days 0 hours 9 minutes 48 seconds 692 msec
