                         Program Version 5.0.4 -  RELEASE  -
|  1> ! ri-mp2 aug-cc-pvdz aug-cc-pvdz/c tightscf
|  2> %pal nprocs 16 end
|  3> %maxcore 3800
|  4> %base "DZ_P-O_5_A"
|  5> %scf
|  6> STABPerform true
|  7> STABRestartUHFifUnstable true
|  8> end
|  9>
| 10> *xyz 0 2
| 11> P        -0.070197   -0.028681    0.003114
| 12> O        -0.992874    0.049005    1.184171
| 13> O        -1.025017   -0.273343   -1.132269
| 14> O         0.833603    1.259855   -0.162422
| 15> H         0.345603    2.091484   -0.134464
| 16> O         1.032227   -1.139281    0.086332
| 17> H         1.923838   -0.831155    0.281265
| 18> *
| 19>
| 20> $new_job
| 21> ! ri-mp2 aug-cc-pvtz aug-cc-pvtz/c tightscf
| 22> %pal nprocs 16 end
| 23> %maxcore 3800
| 24> %base "TZ_P-O_5_A"
| 25>
| 26> *xyz 0 2
| 27> P        -0.070197   -0.028681    0.003114
| 28> O        -0.992874    0.049005    1.184171
| 29> O        -1.025017   -0.273343   -1.132269
| 30> O         0.833603    1.259855   -0.162422
| 31> H         0.345603    2.091484   -0.134464
| 32> O         1.032227   -1.139281    0.086332
| 33> H         1.923838   -0.831155    0.281265
| 34> *
| 35>
| 36> $new_job
| 37> ! ri-mp2 aug-cc-pvqz aug-cc-pvqz/c tightscf
| 38> %pal nprocs 16 end
| 39> %maxcore 3800
| 40> %base "QZ_P-O_5_A"
| 41>
| 42> *xyz 0 2
| 43> P        -0.070197   -0.028681    0.003114
| 44> O        -0.992874    0.049005    1.184171
| 45> O        -1.025017   -0.273343   -1.132269
| 46> O         0.833603    1.259855   -0.162422
| 47> H         0.345603    2.091484   -0.134464
| 48> O         1.032227   -1.139281    0.086332
| 49> H         1.923838   -0.831155    0.281265
| 50> *
| 51>
| 52>
| 53>
| 54>
| 55>                          ****END OF INPUT****
 Total Charge           Charge          ....    0
 Multiplicity           Mult            ....    2
 Number of Electrons    NEL             ....   49
MP2 TOTAL ENERGY:     -642.299787419 Eh
FINAL SINGLE POINT ENERGY      -642.299787418610
MP2 TOTAL ENERGY:     -642.637901140 Eh
FINAL SINGLE POINT ENERGY      -642.637901140365

CARTESIAN COORDINATES (ANGSTROEM)
---------------------------------
  P     -0.070197   -0.028681    0.003114
  O     -0.992874    0.049005    1.184171
  O     -1.025017   -0.273343   -1.132269
  O      0.833603    1.259855   -0.162422
  H      0.345603    2.091484   -0.134464
  O      1.032227   -1.139281    0.086332
  H      1.923838   -0.831155    0.281265

 Multiplicity           Mult            ....    2
 Number of Electrons    NEL             ....   49
 Basis Dimension        Dim             ....  496

ORBITAL ENERGIES
----------------
                 SPIN UP ORBITALS
  NO   OCC          E(Eh)            E(eV)
   0   1.0000     -80.113479     -2179.9986
   1   1.0000     -20.682712      -562.8052
   2   1.0000     -20.633970      -561.4789
   3   1.0000     -20.629746      -561.3639
   4   1.0000     -20.531029      -558.6777
   5   1.0000      -7.633169      -207.7091
   6   1.0000      -5.532259      -150.5404
   7   1.0000      -5.532091      -150.5359
   8   1.0000      -5.529864      -150.4753
   9   1.0000      -1.513779       -41.1920
  10   1.0000      -1.445381       -39.3308
  11   1.0000      -1.416802       -38.5531
  12   1.0000      -1.308733       -35.6124
  13   1.0000      -0.881060       -23.9749
  14   1.0000      -0.807986       -21.9864
  15   1.0000      -0.765538       -20.8313
  16   1.0000      -0.725274       -19.7357
  17   1.0000      -0.685585       -18.6557
  18   1.0000      -0.649379       -17.6705
  19   1.0000      -0.630897       -17.1676
  20   1.0000      -0.611293       -16.6341
  21   1.0000      -0.587961       -15.9992
  22   1.0000      -0.566999       -15.4288
  23   1.0000      -0.495376       -13.4799
  24   1.0000      -0.481814       -13.1108
  25   0.0000       0.016419         0.4468
  26   0.0000       0.031207         0.8492
  27   0.0000       0.054229         1.4756
  28   0.0000       0.062323         1.6959
  29   0.0000       0.076262         2.0752

                 SPIN DOWN ORBITALS
  NO   OCC          E(Eh)            E(eV)
   0   1.0000     -80.114406     -2180.0238
   1   1.0000     -20.646108      -561.8092
   2   1.0000     -20.633902      -561.4770
   3   1.0000     -20.629479      -561.3567
   4   1.0000     -20.519796      -558.3720
   5   1.0000      -7.634558      -207.7469
   6   1.0000      -5.533977      -150.5872
   7   1.0000      -5.533139      -150.5644
   8   1.0000      -5.531703      -150.5253
   9   1.0000      -1.482935       -40.3527
  10   1.0000      -1.416493       -38.5447
  11   1.0000      -1.353482       -36.8301
  12   1.0000      -1.262635       -34.3580
  13   1.0000      -0.872675       -23.7467
  14   1.0000      -0.806853       -21.9556
  15   1.0000      -0.718485       -19.5510
  16   1.0000      -0.675810       -18.3897
  17   1.0000      -0.647429       -17.6174
  18   1.0000      -0.620589       -16.8871
  19   1.0000      -0.606004       -16.4902
  20   1.0000      -0.571835       -15.5604
  21   1.0000      -0.549221       -14.9451
  22   1.0000      -0.468229       -12.7412
  23   1.0000      -0.442962       -12.0536
  24   0.0000      -0.001710        -0.0465
  25   0.0000       0.017486         0.4758
  26   0.0000       0.031284         0.8513
  27   0.0000       0.056954         1.5498
  28   0.0000       0.064042         1.7427

MULLIKEN ATOMIC CHARGES AND SPIN POPULATIONS
--------------------------------------------
   0 P :    2.476693   -0.221365
   1 O :   -0.977642    0.233857
   2 O :   -0.609384    0.975375
   3 O :   -0.799968    0.003624
   4 H :    0.354340    0.000323
   5 O :   -0.813850    0.009335
   6 H :    0.369812   -0.001149
Sum of atomic charges         :   -0.0000000

LOEWDIN ATOMIC CHARGES AND SPIN POPULATIONS
-------------------------------------------
   0 P :   -1.145566    0.120920
   1 O :    0.249402    0.167685
   2 O :    0.453622    0.718725
   3 O :    1.079683   -0.003181
   4 H :   -0.847273   -0.002643
   5 O :    1.072064   -0.000765
   6 H :   -0.861930   -0.000741

  Mayer bond orders larger than 0.100000
B(  0-P ,  1-O ) :   1.4024 B(  0-P ,  2-O ) :   0.7232 B(  0-P ,  3-O ) :   0.7574
B(  0-P ,  5-O ) :   0.7250 B(  1-O ,  2-O ) :   0.1027 B(  3-O ,  4-H ) :   0.9072
B(  5-O ,  6-H ) :   0.8750

MP2 TOTAL ENERGY:     -642.747975242 Eh
FINAL SINGLE POINT ENERGY      -642.747975242145

DIPOLE MOMENT
-------------
                                X             Y             Z
Electronic contribution:     -0.82332      -0.48423      -0.92164
Nuclear contribution   :      2.21453       1.22023       0.13612
                        -----------------------------------------
Total Dipole Moment    :      1.39120       0.73601      -0.78553
                        -----------------------------------------
Magnitude (a.u.)       :      1.75904
Magnitude (Debye)      :      4.47111

Rotational constants in cm-1:     0.175553     0.155651     0.143781
Rotational constants in MHz :  5262.938168  4666.294793  4310.449348

                             ****ORCA TERMINATED NORMALLY****
TOTAL RUN TIME: 0 days 0 hours 24 minutes 35 seconds 677 msec
