                         Program Version 5.0.4 -  RELEASE  -
|  1> ! ri-mp2 aug-cc-pvdz aug-cc-pvdz/c tightscf
|  2> %pal nprocs 16 end
|  3> %maxcore 3800
|  4> %base "DZ_B-F_5_AB"
|  5> %scf
|  6> STABPerform true
|  7> STABRestartUHFifUnstable true
|  8> end
|  9>
| 10> *xyz 0 1
| 11> F         1.689475   -0.723326   -0.000007
| 12> F         0.679901    1.314852   -0.000008
| 13> N        -0.677189   -0.634967    0.000004
| 14> B         0.562757   -0.012021   -0.000004
| 15> C        -1.964802    0.029436    0.000013
| 16> H        -0.702800   -1.640793    0.000010
| 17> H        -1.811121    1.105829   -0.000012
| 18> H        -2.547543   -0.230236    0.885498
| 19> H        -2.547574   -0.230274   -0.885440
| 20> *
| 21>
| 22> $new_job
| 23> ! ri-mp2 aug-cc-pvtz aug-cc-pvtz/c tightscf
| 24> %pal nprocs 16 end
| 25> %maxcore 3800
| 26> %base "TZ_B-F_5_AB"
| 27>
| 28> *xyz 0 1
| 29> F         1.689475   -0.723326   -0.000007
| 30> F         0.679901    1.314852   -0.000008
| 31> N        -0.677189   -0.634967    0.000004
| 32> B         0.562757   -0.012021   -0.000004
| 33> C        -1.964802    0.029436    0.000013
| 34> H        -0.702800   -1.640793    0.000010
| 35> H        -1.811121    1.105829   -0.000012
| 36> H        -2.547543   -0.230236    0.885498
| 37> H        -2.547574   -0.230274   -0.885440
| 38> *
| 39>
| 40> $new_job
| 41> ! ri-mp2 aug-cc-pvqz aug-cc-pvqz/c tightscf
| 42> %pal nprocs 16 end
| 43> %maxcore 3800
| 44> %base "QZ_B-F_5_AB"
| 45>
| 46> *xyz 0 1
| 47> F         1.689475   -0.723326   -0.000007
| 48> F         0.679901    1.314852   -0.000008
| 49> N        -0.677189   -0.634967    0.000004
| 50> B         0.562757   -0.012021   -0.000004
| 51> C        -1.964802    0.029436    0.000013
| 52> H        -0.702800   -1.640793    0.000010
| 53> H        -1.811121    1.105829   -0.000012
| 54> H        -2.547543   -0.230236    0.885498
| 55> H        -2.547574   -0.230274   -0.885440
| 56> *
| 57>
| 58>
| 59>
| 60>
| 61>                          ****END OF INPUT****
 Total Charge           Charge          ....    0
 Multiplicity           Mult            ....    1
 Number of Electrons    NEL             ....   40
MP2 TOTAL ENERGY:     -319.224818721 Eh
FINAL SINGLE POINT ENERGY      -319.224818721457
MP2 TOTAL ENERGY:     -319.510268122 Eh
FINAL SINGLE POINT ENERGY      -319.510268121586

CARTESIAN COORDINATES (ANGSTROEM)
---------------------------------
  F      1.689475   -0.723326   -0.000007
  F      0.679901    1.314852   -0.000008
  N     -0.677189   -0.634967    0.000004
  B      0.562757   -0.012021   -0.000004
  C     -1.964802    0.029436    0.000013
  H     -0.702800   -1.640793    0.000010
  H     -1.811121    1.105829   -0.000012
  H     -2.547543   -0.230236    0.885498
  H     -2.547574   -0.230274   -0.885440

 Multiplicity           Mult            ....    1
 Number of Electrons    NEL             ....   40
 Basis Dimension        Dim             ....  584

ORBITAL ENERGIES
----------------

  NO   OCC          E(Eh)            E(eV)
   0   2.0000     -26.293257      -715.4759
   1   2.0000     -26.291487      -715.4277
   2   2.0000     -15.564301      -423.5262
   3   2.0000     -11.264627      -306.5261
   4   2.0000      -7.693514      -209.3512
   5   2.0000      -1.624289       -44.1991
   6   2.0000      -1.593610       -43.3643
   7   2.0000      -1.209838       -32.9214
   8   2.0000      -0.935094       -25.4452
   9   2.0000      -0.800744       -21.7894
  10   2.0000      -0.756310       -20.5803
  11   2.0000      -0.732125       -19.9221
  12   2.0000      -0.700933       -19.0733
  13   2.0000      -0.659163       -17.9367
  14   2.0000      -0.646356       -17.5882
  15   2.0000      -0.630409       -17.1543
  16   2.0000      -0.608211       -16.5503
  17   2.0000      -0.603762       -16.4292
  18   2.0000      -0.545673       -14.8485
  19   2.0000      -0.417047       -11.3484
  20   0.0000       0.021644         0.5890
  21   0.0000       0.034468         0.9379
  22   0.0000       0.036035         0.9806
  23   0.0000       0.039941         1.0869
  24   0.0000       0.055541         1.5114

MULLIKEN ATOMIC CHARGES
-----------------------
   0 F :   -0.801645
   1 F :   -0.784147
   2 N :   -0.448268
   3 B :    1.631928
   4 C :   -0.691032
   5 H :    0.211672
   6 H :    0.311908
   7 H :    0.284792
   8 H :    0.284793
Sum of atomic charges:   -0.0000000

LOEWDIN ATOMIC CHARGES
----------------------
   0 F :    0.802380
   1 F :    0.821671
   2 N :    0.892621
   3 B :   -1.872752
   4 C :    0.769824
   5 H :   -0.520087
   6 H :   -0.324590
   7 H :   -0.284534
   8 H :   -0.284534

  Mayer bond orders larger than 0.100000
B(  0-F ,  3-B ) :   0.3126 B(  1-F ,  2-N ) :  -0.1154 B(  1-F ,  3-B ) :   0.4332
B(  2-N ,  3-B ) :   1.1807 B(  2-N ,  4-C ) :   0.8902 B(  2-N ,  5-H ) :   1.0322
B(  4-C ,  6-H ) :   0.9145 B(  4-C ,  7-H ) :   0.9319 B(  4-C ,  8-H ) :   0.9319

MP2 TOTAL ENERGY:     -319.600946348 Eh
FINAL SINGLE POINT ENERGY      -319.600946347517

DIPOLE MOMENT
-------------
                                X             Y             Z
Electronic contribution:      8.88993       1.04391      -0.00006
Nuclear contribution   :     -9.91381      -1.49920       0.00007
                        -----------------------------------------
Total Dipole Moment    :     -1.02388      -0.45529       0.00001
                        -----------------------------------------
Magnitude (a.u.)       :      1.12055
Magnitude (Debye)      :      2.84820

Rotational constants in cm-1:     0.311962     0.123640     0.090041
Rotational constants in MHz :  9352.380548  3706.631618  2699.375538

                             ****ORCA TERMINATED NORMALLY****
TOTAL RUN TIME: 0 days 0 hours 12 minutes 1 seconds 921 msec
