                         Program Version 5.0.4 -  RELEASE  -
|  1> ! ri-mp2 aug-cc-pvdz aug-cc-pvdz/c tightscf
|  2> %pal nprocs 16 end
|  3> %maxcore 3800
|  4> %base "DZ_P-Cl_32_AB"
|  5>
|  6> *xyz 0 1
|  7> C        -0.817528   -0.468039   -0.312716
|  8> C        -1.773661   -0.080269   -1.242491
|  9> H        -1.490557    0.064088   -2.277126
| 10> C        -3.085586    0.124987   -0.848241
| 11> H        -3.825472    0.428555   -1.576374
| 12> C        -3.445982   -0.066078    0.473017
| 13> H        -4.471029    0.090331    0.781710
| 14> C        -2.496105   -0.460935    1.403989
| 15> H        -2.778618   -0.609453    2.437466
| 16> C        -1.186377   -0.658563    1.015386
| 17> H        -0.447760   -0.968845    1.742793
| 18> P         0.888354   -0.677591   -0.916602
| 19> Cl         1.500872   -2.387697    0.029170
| 20> C         1.715562    0.551685    0.240817
| 21> O         2.567118    0.283543    1.034690
| 22> C         1.307668    2.024002    0.073551
| 23> F         0.738882    2.221252   -1.142768
| 24> F         0.390015    2.333762    1.016778
| 25> H         2.168344    2.685825    0.181173
| 26> *
| 27>
| 28> $new_job
| 29> ! ri-mp2 aug-cc-pvtz aug-cc-pvtz/c tightscf
| 30> %pal nprocs 16 end
| 31> %maxcore 3800
| 32> %base "TZ_P-Cl_32_AB"
| 33>
| 34> *xyz 0 1
| 35> C        -0.817528   -0.468039   -0.312716
| 36> C        -1.773661   -0.080269   -1.242491
| 37> H        -1.490557    0.064088   -2.277126
| 38> C        -3.085586    0.124987   -0.848241
| 39> H        -3.825472    0.428555   -1.576374
| 40> C        -3.445982   -0.066078    0.473017
| 41> H        -4.471029    0.090331    0.781710
| 42> C        -2.496105   -0.460935    1.403989
| 43> H        -2.778618   -0.609453    2.437466
| 44> C        -1.186377   -0.658563    1.015386
| 45> H        -0.447760   -0.968845    1.742793
| 46> P         0.888354   -0.677591   -0.916602
| 47> Cl         1.500872   -2.387697    0.029170
| 48> C         1.715562    0.551685    0.240817
| 49> O         2.567118    0.283543    1.034690
| 50> C         1.307668    2.024002    0.073551
| 51> F         0.738882    2.221252   -1.142768
| 52> F         0.390015    2.333762    1.016778
| 53> H         2.168344    2.685825    0.181173
| 54> *
| 55>
| 56> $new_job
| 57> ! ri-mp2 aug-cc-pvqz aug-cc-pvqz/c tightscf
| 58> %pal nprocs 16 end
| 59> %maxcore 3800
| 60> %base "QZ_P-Cl_32_AB"
| 61>
| 62> *xyz 0 1
| 63> C        -0.817528   -0.468039   -0.312716
| 64> C        -1.773661   -0.080269   -1.242491
| 65> H        -1.490557    0.064088   -2.277126
| 66> C        -3.085586    0.124987   -0.848241
| 67> H        -3.825472    0.428555   -1.576374
| 68> C        -3.445982   -0.066078    0.473017
| 69> H        -4.471029    0.090331    0.781710
| 70> C        -2.496105   -0.460935    1.403989
| 71> H        -2.778618   -0.609453    2.437466
| 72> C        -1.186377   -0.658563    1.015386
| 73> H        -0.447760   -0.968845    1.742793
| 74> P         0.888354   -0.677591   -0.916602
| 75> Cl         1.500872   -2.387697    0.029170
| 76> C         1.715562    0.551685    0.240817
| 77> O         2.567118    0.283543    1.034690
| 78> C         1.307668    2.024002    0.073551
| 79> F         0.738882    2.221252   -1.142768
| 80> F         0.390015    2.333762    1.016778
| 81> H         2.168344    2.685825    0.181173
| 82> *
| 83>
| 84>
| 85>
| 86>
| 87>                          ****END OF INPUT****
 Total Charge           Charge          ....    0
 Multiplicity           Mult            ....    1
 Number of Electrons    NEL             ....  112
MP2 TOTAL ENERGY:    -1382.437113671 Eh
FINAL SINGLE POINT ENERGY     -1382.437113670616
MP2 TOTAL ENERGY:    -1383.031698030 Eh
FINAL SINGLE POINT ENERGY     -1383.031698029678

CARTESIAN COORDINATES (ANGSTROEM)
---------------------------------
  C     -0.817528   -0.468039   -0.312716
  C     -1.773661   -0.080269   -1.242491
  H     -1.490557    0.064088   -2.277126
  C     -3.085586    0.124987   -0.848241
  H     -3.825472    0.428555   -1.576374
  C     -3.445982   -0.066078    0.473017
  H     -4.471029    0.090331    0.781710
  C     -2.496105   -0.460935    1.403989
  H     -2.778618   -0.609453    2.437466
  C     -1.186377   -0.658563    1.015386
  H     -0.447760   -0.968845    1.742793
  P      0.888354   -0.677591   -0.916602
  Cl     1.500872   -2.387697    0.029170
  C      1.715562    0.551685    0.240817
  O      2.567118    0.283543    1.034690
  C      1.307668    2.024002    0.073551
  F      0.738882    2.221252   -1.142768
  F      0.390015    2.333762    1.016778
  H      2.168344    2.685825    0.181173

 Multiplicity           Mult            ....    1
 Number of Electrons    NEL             ....  112
 Basis Dimension        Dim             .... 1324

ORBITAL ENERGIES
----------------

  NO   OCC          E(Eh)            E(eV)
   0   2.0000    -104.838446     -2852.7991
   1   2.0000     -80.013003     -2177.2645
   2   2.0000     -26.334818      -716.6068
   3   2.0000     -26.330189      -716.4809
   4   2.0000     -20.595280      -560.4261
   5   2.0000     -11.432292      -311.0885
   6   2.0000     -11.363931      -309.2283
   7   2.0000     -11.260171      -306.4048
   8   2.0000     -11.258318      -306.3544
   9   2.0000     -11.256101      -306.2941
  10   2.0000     -11.254958      -306.2630
  11   2.0000     -11.248474      -306.0865
  12   2.0000     -11.248249      -306.0804
  13   2.0000     -10.564900      -287.4855
  14   2.0000      -8.031760      -218.5553
  15   2.0000      -8.030265      -218.5146
  16   2.0000      -8.030175      -218.5122
  17   2.0000      -7.550591      -205.4620
  18   2.0000      -5.444309      -148.1472
  19   2.0000      -5.443405      -148.1226
  20   2.0000      -5.442530      -148.0988
  21   2.0000      -1.687490       -45.9189
  22   2.0000      -1.624938       -44.2168
  23   2.0000      -1.439886       -39.1813
  24   2.0000      -1.180810       -32.1315
  25   2.0000      -1.122170       -30.5358
  26   2.0000      -1.046459       -28.4756
  27   2.0000      -1.039204       -28.2782
  28   2.0000      -1.024963       -27.8906
  29   2.0000      -0.908472       -24.7208
  30   2.0000      -0.850747       -23.1500
  31   2.0000      -0.844492       -22.9798
  32   2.0000      -0.804260       -21.8850
  33   2.0000      -0.794389       -21.6164
  34   2.0000      -0.780704       -21.2440
  35   2.0000      -0.735086       -20.0027
  36   2.0000      -0.711652       -19.3650
  37   2.0000      -0.692189       -18.8354
  38   2.0000      -0.669429       -18.2161
  39   2.0000      -0.655901       -17.8480
  40   2.0000      -0.651046       -17.7159
  41   2.0000      -0.646922       -17.6036
  42   2.0000      -0.625333       -17.0162
  43   2.0000      -0.609947       -16.5975
  44   2.0000      -0.595812       -16.2129
  45   2.0000      -0.582293       -15.8450
  46   2.0000      -0.560871       -15.2621
  47   2.0000      -0.531567       -14.4647
  48   2.0000      -0.517921       -14.0933
  49   2.0000      -0.510803       -13.8997
  50   2.0000      -0.491830       -13.3834
  51   2.0000      -0.474074       -12.9002
  52   2.0000      -0.437175       -11.8961
  53   2.0000      -0.384907       -10.4738
  54   2.0000      -0.358453        -9.7540
  55   2.0000      -0.353338        -9.6148
  56   0.0000       0.021034         0.5724
  57   0.0000       0.027535         0.7493
  58   0.0000       0.029193         0.7944
  59   0.0000       0.035792         0.9740
  60   0.0000       0.043989         1.1970

MULLIKEN ATOMIC CHARGES
-----------------------
   0 C :    0.112366
   1 C :   -0.265746
   2 H :    0.372287
   3 C :   -0.307219
   4 H :    0.269713
   5 C :   -0.384485
   6 H :    0.355077
   7 C :   -0.167345
   8 H :    0.247021
   9 C :   -0.589096
  10 H :    0.294074
  11 P :    0.961880
  12 Cl:   -0.561413
  13 C :    0.430578
  14 O :   -0.808241
  15 C :    0.843945
  16 F :   -0.718632
  17 F :   -0.672665
  18 H :    0.587900
Sum of atomic charges:   -0.0000000

LOEWDIN ATOMIC CHARGES
----------------------
   0 C :   -0.378588
   1 C :    0.227396
   2 H :   -0.343179
   3 C :    0.347826
   4 H :   -0.317855
   5 C :    0.346542
   6 H :   -0.314093
   7 C :    0.351794
   8 H :   -0.315936
   9 C :    0.218107
  10 H :   -0.355989
  11 P :    0.118230
  12 Cl:    0.812210
  13 C :   -0.980340
  14 O :    0.625963
  15 C :   -1.188014
  16 F :    0.774936
  17 F :    0.786033
  18 H :   -0.415044

  Mayer bond orders larger than 0.100000
B(  0-C ,  1-C ) :   0.7205 B(  0-C ,  2-H ) :  -0.1337 B(  0-C ,  3-C ) :  -0.2748
B(  0-C ,  7-C ) :  -0.3012 B(  0-C ,  9-C ) :   0.9806 B(  0-C , 11-P ) :   0.8772
B(  0-C , 12-Cl) :  -0.1773 B(  1-C ,  2-H ) :   0.9096 B(  1-C ,  3-C ) :   1.3943
B(  1-C ,  4-H ) :  -0.1324 B(  1-C ,  5-C ) :   0.1688 B(  1-C ,  7-C ) :   0.1366
B(  1-C , 11-P ) :  -0.2464 B(  3-C ,  4-H ) :   1.0984 B(  3-C ,  5-C ) :   1.1246
B(  3-C ,  7-C ) :  -0.1001 B(  3-C ,  9-C ) :   0.1206 B(  5-C ,  6-H ) :   0.9822
B(  5-C ,  7-C ) :   1.0981 B(  5-C ,  9-C ) :   0.1424 B(  7-C ,  8-H ) :   1.1478
B(  7-C ,  9-C ) :   1.1960 B(  8-H ,  9-C ) :  -0.1635 B(  9-C , 10-H ) :   0.9710
B( 11-P , 12-Cl) :   0.7434 B( 11-P , 13-C ) :   0.7135 B( 13-C , 14-O ) :   1.3458
B( 13-C , 15-C ) :   0.9628 B( 15-C , 16-F ) :   0.5059 B( 15-C , 17-F ) :   0.4780
B( 15-C , 18-H ) :   0.6499

MP2 TOTAL ENERGY:    -1383.226513234 Eh
FINAL SINGLE POINT ENERGY     -1383.226513233707

DIPOLE MOMENT
-------------
                                X             Y             Z
Electronic contribution:     13.12611      -0.68738      -2.40557
Nuclear contribution   :    -14.09438       1.18875       2.13748
                        -----------------------------------------
Total Dipole Moment    :     -0.96828       0.50137      -0.26809
                        -----------------------------------------
Magnitude (a.u.)       :      1.12286
Magnitude (Debye)      :      2.85407

Rotational constants in cm-1:     0.025551     0.018825     0.013937
Rotational constants in MHz :   766.003683   564.352870   417.828981

                             ****ORCA TERMINATED NORMALLY****
TOTAL RUN TIME: 0 days 1 hours 20 minutes 36 seconds 925 msec
