                         Program Version 5.0.4 -  RELEASE  -
|  1> ! ri-mp2 aug-cc-pvdz aug-cc-pvdz/c tightscf
|  2> %pal nprocs 16 end
|  3> %maxcore 3800
|  4> %base "DZ_B-B_72_AB"
|  5>
|  6> *xyz 0 1
|  7> B         0.492953   -0.663408    1.546419
|  8> B        -0.492953    0.663408    1.546419
|  9> C        -0.240301    1.909066    0.666197
| 10> C         0.842161    1.976693   -0.202154
| 11> C        -1.078855    3.029481    0.683170
| 12> C        -0.842161    4.131488   -0.115949
| 13> C         0.256033    4.140075   -0.962945
| 14> C         1.114359    3.054884   -1.013187
| 15> H         1.976740    3.036185   -1.664222
| 16> H        -1.934820    3.017330    1.345225
| 17> H        -1.507580    4.983167   -0.083007
| 18> H         0.448789    4.999227   -1.591891
| 19> C         0.240301   -1.909066    0.666197
| 20> C        -0.842161   -1.976693   -0.202154
| 21> C         1.078855   -3.029481    0.683170
| 22> C         0.842161   -4.131488   -0.115949
| 23> C        -0.256033   -4.140075   -0.962945
| 24> C        -1.114359   -3.054884   -1.013187
| 25> H        -1.976740   -3.036185   -1.664222
| 26> H         1.934820   -3.017330    1.345225
| 27> H         1.507580   -4.983167   -0.083007
| 28> H        -0.448789   -4.999227   -1.591891
| 29> F         1.684811    0.925639   -0.261241
| 30> F        -1.684811   -0.925639   -0.261241
| 31> H        -1.435899    0.720922    2.282170
| 32> H         1.435899   -0.720922    2.282170
| 33> *
| 34>
| 35> $new_job
| 36> ! ri-mp2 aug-cc-pvtz aug-cc-pvtz/c tightscf
| 37> %pal nprocs 16 end
| 38> %maxcore 3800
| 39> %base "TZ_B-B_72_AB"
| 40>
| 41> *xyz 0 1
| 42> B         0.492953   -0.663408    1.546419
| 43> B        -0.492953    0.663408    1.546419
| 44> C        -0.240301    1.909066    0.666197
| 45> C         0.842161    1.976693   -0.202154
| 46> C        -1.078855    3.029481    0.683170
| 47> C        -0.842161    4.131488   -0.115949
| 48> C         0.256033    4.140075   -0.962945
| 49> C         1.114359    3.054884   -1.013187
| 50> H         1.976740    3.036185   -1.664222
| 51> H        -1.934820    3.017330    1.345225
| 52> H        -1.507580    4.983167   -0.083007
| 53> H         0.448789    4.999227   -1.591891
| 54> C         0.240301   -1.909066    0.666197
| 55> C        -0.842161   -1.976693   -0.202154
| 56> C         1.078855   -3.029481    0.683170
| 57> C         0.842161   -4.131488   -0.115949
| 58> C        -0.256033   -4.140075   -0.962945
| 59> C        -1.114359   -3.054884   -1.013187
| 60> H        -1.976740   -3.036185   -1.664222
| 61> H         1.934820   -3.017330    1.345225
| 62> H         1.507580   -4.983167   -0.083007
| 63> H        -0.448789   -4.999227   -1.591891
| 64> F         1.684811    0.925639   -0.261241
| 65> F        -1.684811   -0.925639   -0.261241
| 66> H        -1.435899    0.720922    2.282170
| 67> H         1.435899   -0.720922    2.282170
| 68> *
| 69>
| 70> $new_job
| 71> ! ri-mp2 aug-cc-pvqz aug-cc-pvqz/c tightscf
| 72> %pal nprocs 16 end
| 73> %maxcore 3800
| 74> %base "QZ_B-B_72_AB"
| 75>
| 76> *xyz 0 1
| 77> B         0.492953   -0.663408    1.546419
| 78> B        -0.492953    0.663408    1.546419
| 79> C        -0.240301    1.909066    0.666197
| 80> C         0.842161    1.976693   -0.202154
| 81> C        -1.078855    3.029481    0.683170
| 82> C        -0.842161    4.131488   -0.115949
| 83> C         0.256033    4.140075   -0.962945
| 84> C         1.114359    3.054884   -1.013187
| 85> H         1.976740    3.036185   -1.664222
| 86> H        -1.934820    3.017330    1.345225
| 87> H        -1.507580    4.983167   -0.083007
| 88> H         0.448789    4.999227   -1.591891
| 89> C         0.240301   -1.909066    0.666197
| 90> C        -0.842161   -1.976693   -0.202154
| 91> C         1.078855   -3.029481    0.683170
| 92> C         0.842161   -4.131488   -0.115949
| 93> C        -0.256033   -4.140075   -0.962945
| 94> C        -1.114359   -3.054884   -1.013187
| 95> H        -1.976740   -3.036185   -1.664222
| 96> H         1.934820   -3.017330    1.345225
| 97> H         1.507580   -4.983167   -0.083007
| 98> H        -0.448789   -4.999227   -1.591891
| 99> F         1.684811    0.925639   -0.261241
|100> F        -1.684811   -0.925639   -0.261241
|101> H        -1.435899    0.720922    2.282170
|102> H         1.435899   -0.720922    2.282170
|103> *
|104>
|105>
|106>
|107>
|108>                          ****END OF INPUT****
 Total Charge           Charge          ....    0
 Multiplicity           Mult            ....    1
 Number of Electrons    NEL             ....  110
MP2 TOTAL ENERGY:     -710.708761340 Eh
FINAL SINGLE POINT ENERGY      -710.708761339996
MP2 TOTAL ENERGY:     -711.313222132 Eh
FINAL SINGLE POINT ENERGY      -711.313222131855

CARTESIAN COORDINATES (ANGSTROEM)
---------------------------------
  B      0.492953   -0.663408    1.546419
  B     -0.492953    0.663408    1.546419
  C     -0.240301    1.909066    0.666197
  C      0.842161    1.976693   -0.202154
  C     -1.078855    3.029481    0.683170
  C     -0.842161    4.131488   -0.115949
  C      0.256033    4.140075   -0.962945
  C      1.114359    3.054884   -1.013187
  H      1.976740    3.036185   -1.664222
  H     -1.934820    3.017330    1.345225
  H     -1.507580    4.983167   -0.083007
  H      0.448789    4.999227   -1.591891
  C      0.240301   -1.909066    0.666197
  C     -0.842161   -1.976693   -0.202154
  C      1.078855   -3.029481    0.683170
  C      0.842161   -4.131488   -0.115949
  C     -0.256033   -4.140075   -0.962945
  C     -1.114359   -3.054884   -1.013187
  H     -1.976740   -3.036185   -1.664222
  H      1.934820   -3.017330    1.345225
  H      1.507580   -4.983167   -0.083007
  H     -0.448789   -4.999227   -1.591891
  F      1.684811    0.925639   -0.261241
  F     -1.684811   -0.925639   -0.261241
  H     -1.435899    0.720922    2.282170
  H      1.435899   -0.720922    2.282170

 Multiplicity           Mult            ....    1
 Number of Electrons    NEL             ....  110
 Basis Dimension        Dim             .... 1740

ORBITAL ENERGIES
----------------

  NO   OCC          E(Eh)            E(eV)
   0   2.0000     -26.309824      -715.9267
   1   2.0000     -26.309824      -715.9267
   2   2.0000     -11.329566      -308.2932
   3   2.0000     -11.329566      -308.2932
   4   2.0000     -11.254214      -306.2427
   5   2.0000     -11.254214      -306.2427
   6   2.0000     -11.247874      -306.0702
   7   2.0000     -11.247874      -306.0702
   8   2.0000     -11.238681      -305.8201
   9   2.0000     -11.238681      -305.8201
  10   2.0000     -11.233482      -305.6786
  11   2.0000     -11.233482      -305.6786
  12   2.0000     -11.215868      -305.1993
  13   2.0000     -11.215868      -305.1993
  14   2.0000      -7.570397      -206.0010
  15   2.0000      -7.569473      -205.9758
  16   2.0000      -1.631208       -44.3874
  17   2.0000      -1.630890       -44.3788
  18   2.0000      -1.166761       -31.7492
  19   2.0000      -1.166708       -31.7477
  20   2.0000      -1.034249       -28.1434
  21   2.0000      -1.032275       -28.0896
  22   2.0000      -1.024306       -27.8728
  23   2.0000      -1.024059       -27.8661
  24   2.0000      -0.865441       -23.5499
  25   2.0000      -0.855057       -23.2673
  26   2.0000      -0.844858       -22.9898
  27   2.0000      -0.842828       -22.9345
  28   2.0000      -0.752566       -20.4784
  29   2.0000      -0.750527       -20.4229
  30   2.0000      -0.720130       -19.5957
  31   2.0000      -0.710437       -19.3320
  32   2.0000      -0.704945       -19.1825
  33   2.0000      -0.699697       -19.0397
  34   2.0000      -0.696547       -18.9540
  35   2.0000      -0.681621       -18.5478
  36   2.0000      -0.655854       -17.8467
  37   2.0000      -0.625044       -17.0083
  38   2.0000      -0.616497       -16.7757
  39   2.0000      -0.613240       -16.6871
  40   2.0000      -0.600930       -16.3521
  41   2.0000      -0.596842       -16.2409
  42   2.0000      -0.559425       -15.2227
  43   2.0000      -0.533541       -14.5184
  44   2.0000      -0.523311       -14.2400
  45   2.0000      -0.523163       -14.2360
  46   2.0000      -0.512020       -13.9328
  47   2.0000      -0.510784       -13.8991
  48   2.0000      -0.473363       -12.8809
  49   2.0000      -0.472542       -12.8585
  50   2.0000      -0.413550       -11.2533
  51   2.0000      -0.354716        -9.6523
  52   2.0000      -0.354049        -9.6342
  53   2.0000      -0.342707        -9.3255
  54   2.0000      -0.341987        -9.3059
  55   0.0000       0.020982         0.5710
  56   0.0000       0.023653         0.6436
  57   0.0000       0.028631         0.7791
  58   0.0000       0.029644         0.8066
  59   0.0000       0.034830         0.9478

MULLIKEN ATOMIC CHARGES
-----------------------
   0 B :    1.096138
   1 B :    1.096056
   2 C :   -0.252174
   3 C :    1.066894
   4 C :   -0.482390
   5 C :   -0.407294
   6 C :   -0.309985
   7 C :   -0.438276
   8 H :    0.386634
   9 H :    0.244506
  10 H :    0.237269
  11 H :    0.273116
  12 C :   -0.252188
  13 C :    1.066928
  14 C :   -0.482402
  15 C :   -0.407278
  16 C :   -0.309986
  17 C :   -0.438265
  18 H :    0.386637
  19 H :    0.244493
  20 H :    0.237268
  21 H :    0.273110
  22 F :   -0.881982
  23 F :   -0.881981
  24 H :   -0.532420
  25 H :   -0.532427
Sum of atomic charges:   -0.0000000

LOEWDIN ATOMIC CHARGES
----------------------
   0 B :   -0.064529
   1 B :   -0.064529
   2 C :   -0.004475
   3 C :   -0.684006
   4 C :    0.318865
   5 C :    0.357879
   6 C :    0.334999
   7 C :    0.317777
   8 H :   -0.327484
   9 H :   -0.317491
  10 H :   -0.322609
  11 H :   -0.312623
  12 C :   -0.004475
  13 C :   -0.684006
  14 C :    0.318865
  15 C :    0.357879
  16 C :    0.334999
  17 C :    0.317777
  18 H :   -0.327484
  19 H :   -0.317491
  20 H :   -0.322609
  21 H :   -0.312623
  22 F :    0.851209
  23 F :    0.851209
  24 H :   -0.147512
  25 H :   -0.147512

  Mayer bond orders larger than 0.100000
B(  0-B ,  1-B ) :   1.1010 B(  0-B ,  2-C ) :  -0.1203 B(  0-B , 12-C ) :   0.5487
B(  0-B , 14-C ) :  -0.1563 B(  0-B , 22-F ) :  -0.1347 B(  0-B , 25-H ) :   0.5248
B(  1-B ,  2-C ) :   0.5487 B(  1-B ,  4-C ) :  -0.1563 B(  1-B , 12-C ) :  -0.1203
B(  1-B , 23-F ) :  -0.1347 B(  1-B , 24-H ) :   0.5248 B(  2-C ,  3-C ) :   1.2542
B(  2-C ,  4-C ) :   0.8087 B(  2-C ,  5-C ) :  -0.3841 B(  2-C ,  7-C ) :  -0.1575
B(  2-C , 22-F ) :   0.3829 B(  2-C , 24-H ) :   0.1789 B(  3-C ,  4-C ) :  -0.1039
B(  3-C ,  6-C ) :  -0.2233 B(  3-C ,  7-C ) :   1.2095 B(  3-C , 22-F ) :  -0.1926
B(  4-C ,  5-C ) :   1.3227 B(  4-C ,  6-C ) :   0.1133 B(  4-C ,  7-C ) :   0.1659
B(  4-C ,  9-H ) :   0.9949 B(  4-C , 10-H ) :  -0.1354 B(  5-C ,  6-C ) :   1.2069
B(  5-C , 10-H ) :   1.1315 B(  6-C ,  7-C ) :   1.2510 B(  6-C , 11-H ) :   1.1008
B(  7-C ,  8-H ) :   0.8691 B(  7-C , 11-H ) :  -0.1309 B( 12-C , 13-C ) :   1.2542
B( 12-C , 14-C ) :   0.8087 B( 12-C , 15-C ) :  -0.3841 B( 12-C , 17-C ) :  -0.1575
B( 12-C , 23-F ) :   0.3829 B( 12-C , 25-H ) :   0.1789 B( 13-C , 14-C ) :  -0.1039
B( 13-C , 16-C ) :  -0.2233 B( 13-C , 17-C ) :   1.2095 B( 13-C , 23-F ) :  -0.1926
B( 14-C , 15-C ) :   1.3227 B( 14-C , 16-C ) :   0.1133 B( 14-C , 17-C ) :   0.1659
B( 14-C , 19-H ) :   0.9949 B( 14-C , 20-H ) :  -0.1354 B( 15-C , 16-C ) :   1.2069
B( 15-C , 20-H ) :   1.1315 B( 16-C , 17-C ) :   1.2510 B( 16-C , 21-H ) :   1.1008
B( 17-C , 18-H ) :   0.8691 B( 17-C , 21-H ) :  -0.1309

MP2 TOTAL ENERGY:     -711.508056332 Eh
FINAL SINGLE POINT ENERGY      -711.508056331721

DIPOLE MOMENT
-------------
                                X             Y             Z
Electronic contribution:     -0.00000      -0.00000       0.87822
Nuclear contribution   :      0.00000      -0.00000      -1.35228
                        -----------------------------------------
Total Dipole Moment    :     -0.00000      -0.00000      -0.47406
                        -----------------------------------------
Magnitude (a.u.)       :      0.47406
Magnitude (Debye)      :      1.20495

Rotational constants in cm-1:     0.044174     0.009483     0.009059
Rotational constants in MHz :  1324.305588   284.283266   271.586040

                             ****ORCA TERMINATED NORMALLY****
TOTAL RUN TIME: 0 days 2 hours 12 minutes 58 seconds 499 msec
