                         Program Version 5.0.4 -  RELEASE  -
|  1> ! ri-mp2 aug-cc-pvdz aug-cc-pvdz/c tightscf
|  2> %pal nprocs 16 end
|  3> %maxcore 3800
|  4> %base "DZ_Si-Cl_33_A"
|  5> %scf
|  6> STABPerform true
|  7> STABRestartUHFifUnstable true
|  8> end
|  9>
| 10> *xyz 0 2
| 11> C         1.302468    0.024339   -0.014499
| 12> O         2.286355   -0.610785   -0.282059
| 13> Si        -0.367361   -0.848278    0.288518
| 14> O         1.310302    1.352880    0.160687
| 15> Cl        -1.956518    0.363559   -0.143832
| 16> H         2.221131    1.664822    0.026873
| 17> H        -0.405349   -2.052234   -0.562994
| 18> *
| 19>
| 20> $new_job
| 21> ! ri-mp2 aug-cc-pvtz aug-cc-pvtz/c tightscf
| 22> %pal nprocs 16 end
| 23> %maxcore 3800
| 24> %base "TZ_Si-Cl_33_A"
| 25>
| 26> *xyz 0 2
| 27> C         1.302468    0.024339   -0.014499
| 28> O         2.286355   -0.610785   -0.282059
| 29> Si        -0.367361   -0.848278    0.288518
| 30> O         1.310302    1.352880    0.160687
| 31> Cl        -1.956518    0.363559   -0.143832
| 32> H         2.221131    1.664822    0.026873
| 33> H        -0.405349   -2.052234   -0.562994
| 34> *
| 35>
| 36> $new_job
| 37> ! ri-mp2 aug-cc-pvqz aug-cc-pvqz/c tightscf
| 38> %pal nprocs 16 end
| 39> %maxcore 3800
| 40> %base "QZ_Si-Cl_33_A"
| 41>
| 42> *xyz 0 2
| 43> C         1.302468    0.024339   -0.014499
| 44> O         2.286355   -0.610785   -0.282059
| 45> Si        -0.367361   -0.848278    0.288518
| 46> O         1.310302    1.352880    0.160687
| 47> Cl        -1.956518    0.363559   -0.143832
| 48> H         2.221131    1.664822    0.026873
| 49> H        -0.405349   -2.052234   -0.562994
| 50> *
| 51>
| 52>
| 53>
| 54>
| 55>                          ****END OF INPUT****
 Total Charge           Charge          ....    0
 Multiplicity           Mult            ....    2
 Number of Electrons    NEL             ....   55
MP2 TOTAL ENERGY:     -937.996480651 Eh
FINAL SINGLE POINT ENERGY      -937.996480651296
MP2 TOTAL ENERGY:     -938.247246268 Eh
FINAL SINGLE POINT ENERGY      -938.247246267630

CARTESIAN COORDINATES (ANGSTROEM)
---------------------------------
  C      1.302468    0.024339   -0.014499
  O      2.286355   -0.610785   -0.282059
  Si    -0.367361   -0.848278    0.288518
  O      1.310302    1.352880    0.160687
  Cl    -1.956518    0.363559   -0.143832
  H      2.221131    1.664822    0.026873
  H     -0.405349   -2.052234   -0.562994

 Multiplicity           Mult            ....    2
 Number of Electrons    NEL             ....   55
 Basis Dimension        Dim             ....  500

ORBITAL ENERGIES
----------------
                 SPIN UP ORBITALS
  NO   OCC          E(Eh)            E(eV)
   0   1.0000    -104.847097     -2853.0345
   1   1.0000     -68.849083     -1873.4788
   2   1.0000     -20.625381      -561.2451
   3   1.0000     -20.571415      -559.7766
   4   1.0000     -11.387778      -309.8772
   5   1.0000     -10.574233      -287.7395
   6   1.0000      -8.041950      -218.8326
   7   1.0000      -8.040050      -218.7809
   8   1.0000      -8.039541      -218.7670
   9   1.0000      -6.195302      -168.5827
  10   1.0000      -4.307219      -117.2054
  11   1.0000      -4.298317      -116.9632
  12   1.0000      -4.297267      -116.9346
  13   1.0000      -1.482037       -40.3283
  14   1.0000      -1.382827       -37.6286
  15   1.0000      -1.119167       -30.4541
  16   1.0000      -0.889295       -24.1990
  17   1.0000      -0.756466       -20.5845
  18   1.0000      -0.720544       -19.6070
  19   1.0000      -0.661839       -18.0096
  20   1.0000      -0.647120       -17.6090
  21   1.0000      -0.575898       -15.6710
  22   1.0000      -0.548719       -14.9314
  23   1.0000      -0.511232       -13.9113
  24   1.0000      -0.508842       -13.8463
  25   1.0000      -0.493808       -13.4372
  26   1.0000      -0.449068       -12.2197
  27   1.0000      -0.361477        -9.8363
  28   0.0000       0.025520         0.6944
  29   0.0000       0.033931         0.9233
  30   0.0000       0.039845         1.0842
  31   0.0000       0.042206         1.1485
  32   0.0000       0.052189         1.4201

                 SPIN DOWN ORBITALS
  NO   OCC          E(Eh)            E(eV)
   0   1.0000    -104.846113     -2853.0078
   1   1.0000     -68.843074     -1873.3153
   2   1.0000     -20.625602      -561.2512
   3   1.0000     -20.568273      -559.6912
   4   1.0000     -11.387449      -309.8682
   5   1.0000     -10.573171      -287.7106
   6   1.0000      -8.040083      -218.7818
   7   1.0000      -8.039009      -218.7526
   8   1.0000      -8.037440      -218.7099
   9   1.0000      -6.185767      -168.3233
  10   1.0000      -4.294435      -116.8575
  11   1.0000      -4.293434      -116.8303
  12   1.0000      -4.284896      -116.5980
  13   1.0000      -1.480225       -40.2790
  14   1.0000      -1.377829       -37.4926
  15   1.0000      -1.111221       -30.2379
  16   1.0000      -0.881548       -23.9882
  17   1.0000      -0.735879       -20.0243
  18   1.0000      -0.717828       -19.5331
  19   1.0000      -0.647765       -17.6266
  20   1.0000      -0.641053       -17.4439
  21   1.0000      -0.570277       -15.5180
  22   1.0000      -0.537657       -14.6304
  23   1.0000      -0.495489       -13.4829
  24   1.0000      -0.490894       -13.3579
  25   1.0000      -0.485096       -13.2001
  26   1.0000      -0.440517       -11.9871
  27   0.0000       0.009403         0.2559
  28   0.0000       0.026564         0.7228
  29   0.0000       0.036446         0.9917
  30   0.0000       0.040968         1.1148
  31   0.0000       0.047057         1.2805

MULLIKEN ATOMIC CHARGES AND SPIN POPULATIONS
--------------------------------------------
   0 C :    0.559174   -0.011667
   1 O :   -0.689377    0.066350
   2 Si:    1.153424    0.871370
   3 O :   -0.637352   -0.002732
   4 Cl:   -0.525469    0.037466
   5 H :    0.314855    0.000992
   6 H :   -0.175256    0.038221
Sum of atomic charges         :   -0.0000000

LOEWDIN ATOMIC CHARGES AND SPIN POPULATIONS
-------------------------------------------
   0 C :   -1.207900    0.136342
   1 O :    0.577686    0.054328
   2 Si:   -0.079451    0.544400
   3 O :    1.131385    0.003066
   4 Cl:    0.784829    0.136904
   5 H :   -0.828663   -0.000202
   6 H :   -0.377886    0.125162

  Mayer bond orders larger than 0.100000
B(  0-C ,  1-O ) :   1.6543 B(  0-C ,  2-Si) :   0.7446 B(  0-C ,  3-O ) :   1.0012
B(  2-Si,  4-Cl) :   0.6965 B(  2-Si,  6-H ) :   0.9429 B(  3-O ,  5-H ) :   0.8993

MP2 TOTAL ENERGY:     -938.332193625 Eh
FINAL SINGLE POINT ENERGY      -938.332193624688

DIPOLE MOMENT
-------------
                                X             Y             Z
Electronic contribution:     -4.51784       0.97593       0.53888
Nuclear contribution   :      4.42527      -0.79603      -0.32976
                        -----------------------------------------
Total Dipole Moment    :     -0.09257       0.17990       0.20912
                        -----------------------------------------
Magnitude (a.u.)       :      0.29097
Magnitude (Debye)      :      0.73960

Rotational constants in cm-1:     0.233734     0.059967     0.049128
Rotational constants in MHz :  7007.183213  1797.761669  1472.831273

                             ****ORCA TERMINATED NORMALLY****
TOTAL RUN TIME: 0 days 0 hours 24 minutes 40 seconds 150 msec
