                         Program Version 5.0.4 -  RELEASE  -
|  1> ! ri-mp2 aug-cc-pvdz aug-cc-pvdz/c tightscf
|  2> %pal nprocs 16 end
|  3> %maxcore 3800
|  4> %base "DZ_P-Si_36_AB"
|  5> %scf
|  6> STABPerform true
|  7> STABRestartUHFifUnstable true
|  8> end
|  9>
| 10> *xyz 0 1
| 11> P         0.822928    0.130943   -0.638737
| 12> C         1.035519    1.632503    0.421899
| 13> H         0.965583    1.416763    1.488969
| 14> H         0.281210    2.375057    0.162543
| 15> H         2.011392    2.074736    0.220261
| 16> Si        -1.072266   -0.671373    0.261525
| 17> C         2.031796   -1.013488    0.166951
| 18> H         3.044274   -0.674414   -0.053078
| 19> H         1.921030   -2.013587   -0.251327
| 20> H         1.911531   -1.070131    1.249569
| 21> C        -2.527251    0.415641   -0.181820
| 22> H        -2.396842    1.424103    0.212337
| 23> H        -3.453321    0.013698    0.230252
| 24> H        -2.640457    0.488138   -1.263723
| 25> H        -0.940452   -0.761962    1.740404
| 26> H        -1.276535   -2.045265   -0.258683
| 27> *
| 28>
| 29> $new_job
| 30> ! ri-mp2 aug-cc-pvtz aug-cc-pvtz/c tightscf
| 31> %pal nprocs 16 end
| 32> %maxcore 3800
| 33> %base "TZ_P-Si_36_AB"
| 34>
| 35> *xyz 0 1
| 36> P         0.822928    0.130943   -0.638737
| 37> C         1.035519    1.632503    0.421899
| 38> H         0.965583    1.416763    1.488969
| 39> H         0.281210    2.375057    0.162543
| 40> H         2.011392    2.074736    0.220261
| 41> Si        -1.072266   -0.671373    0.261525
| 42> C         2.031796   -1.013488    0.166951
| 43> H         3.044274   -0.674414   -0.053078
| 44> H         1.921030   -2.013587   -0.251327
| 45> H         1.911531   -1.070131    1.249569
| 46> C        -2.527251    0.415641   -0.181820
| 47> H        -2.396842    1.424103    0.212337
| 48> H        -3.453321    0.013698    0.230252
| 49> H        -2.640457    0.488138   -1.263723
| 50> H        -0.940452   -0.761962    1.740404
| 51> H        -1.276535   -2.045265   -0.258683
| 52> *
| 53>
| 54> $new_job
| 55> ! ri-mp2 aug-cc-pvqz aug-cc-pvqz/c tightscf
| 56> %pal nprocs 16 end
| 57> %maxcore 3800
| 58> %base "QZ_P-Si_36_AB"
| 59>
| 60> *xyz 0 1
| 61> P         0.822928    0.130943   -0.638737
| 62> C         1.035519    1.632503    0.421899
| 63> H         0.965583    1.416763    1.488969
| 64> H         0.281210    2.375057    0.162543
| 65> H         2.011392    2.074736    0.220261
| 66> Si        -1.072266   -0.671373    0.261525
| 67> C         2.031796   -1.013488    0.166951
| 68> H         3.044274   -0.674414   -0.053078
| 69> H         1.921030   -2.013587   -0.251327
| 70> H         1.911531   -1.070131    1.249569
| 71> C        -2.527251    0.415641   -0.181820
| 72> H        -2.396842    1.424103    0.212337
| 73> H        -3.453321    0.013698    0.230252
| 74> H        -2.640457    0.488138   -1.263723
| 75> H        -0.940452   -0.761962    1.740404
| 76> H        -1.276535   -2.045265   -0.258683
| 77> *
| 78>
| 79>
| 80>
| 81>
| 82>                          ****END OF INPUT****
 Total Charge           Charge          ....    0
 Multiplicity           Mult            ....    1
 Number of Electrons    NEL             ....   58
MP2 TOTAL ENERGY:     -750.400721445 Eh
FINAL SINGLE POINT ENERGY      -750.400721444766
MP2 TOTAL ENERGY:     -750.605794587 Eh
FINAL SINGLE POINT ENERGY      -750.605794586925

CARTESIAN COORDINATES (ANGSTROEM)
---------------------------------
  P      0.822928    0.130943   -0.638737
  C      1.035519    1.632503    0.421899
  H      0.965583    1.416763    1.488969
  H      0.281210    2.375057    0.162543
  H      2.011392    2.074736    0.220261
  Si    -1.072266   -0.671373    0.261525
  C      2.031796   -1.013488    0.166951
  H      3.044274   -0.674414   -0.053078
  H      1.921030   -2.013587   -0.251327
  H      1.911531   -1.070131    1.249569
  C     -2.527251    0.415641   -0.181820
  H     -2.396842    1.424103    0.212337
  H     -3.453321    0.013698    0.230252
  H     -2.640457    0.488138   -1.263723
  H     -0.940452   -0.761962    1.740404
  H     -1.276535   -2.045265   -0.258683

 Multiplicity           Mult            ....    1
 Number of Electrons    NEL             ....   58
 Basis Dimension        Dim             ....  914

ORBITAL ENERGIES
----------------

  NO   OCC          E(Eh)            E(eV)
   0   2.0000     -79.917704     -2174.6713
   1   2.0000     -68.761524     -1871.0962
   2   2.0000     -11.223782      -305.4146
   3   2.0000     -11.222588      -305.3821
   4   2.0000     -11.206539      -304.9454
   5   2.0000      -7.461020      -203.0247
   6   2.0000      -6.111402      -166.2997
   7   2.0000      -5.355143      -145.7209
   8   2.0000      -5.355040      -145.7180
   9   2.0000      -5.354147      -145.6937
  10   2.0000      -4.217632      -114.7676
  11   2.0000      -4.217515      -114.7644
  12   2.0000      -4.217237      -114.7569
  13   2.0000      -1.001914       -27.2635
  14   2.0000      -0.949237       -25.8301
  15   2.0000      -0.937454       -25.5094
  16   2.0000      -0.754668       -20.5356
  17   2.0000      -0.659655       -17.9501
  18   2.0000      -0.587154       -15.9773
  19   2.0000      -0.583859       -15.8876
  20   2.0000      -0.566226       -15.4078
  21   2.0000      -0.561167       -15.2701
  22   2.0000      -0.554936       -15.1006
  23   2.0000      -0.551119       -14.9967
  24   2.0000      -0.474371       -12.9083
  25   2.0000      -0.466080       -12.6827
  26   2.0000      -0.449509       -12.2318
  27   2.0000      -0.408273       -11.1097
  28   2.0000      -0.324058        -8.8181
  29   0.0000       0.024113         0.6561
  30   0.0000       0.030799         0.8381
  31   0.0000       0.032498         0.8843
  32   0.0000       0.036142         0.9835
  33   0.0000       0.046348         1.2612

MULLIKEN ATOMIC CHARGES
-----------------------
   0 P :    0.401682
   1 C :   -1.203928
   2 H :    0.286616
   3 H :    0.352568
   4 H :    0.375768
   5 Si:    0.924788
   6 C :   -1.231125
   7 H :    0.365259
   8 H :    0.346008
   9 H :    0.296519
  10 C :   -1.082032
  11 H :    0.243315
  12 H :    0.294814
  13 H :    0.262475
  14 H :   -0.270119
  15 H :   -0.362607
Sum of atomic charges:   -0.0000000

LOEWDIN ATOMIC CHARGES
----------------------
   0 P :    0.875838
   1 C :    0.705080
   2 H :   -0.357788
   3 H :   -0.369387
   4 H :   -0.359609
   5 Si:    0.588806
   6 C :    0.698123
   7 H :   -0.361314
   8 H :   -0.368731
   9 H :   -0.360119
  10 C :    0.870878
  11 H :   -0.363236
  12 H :   -0.359874
  13 H :   -0.360777
  14 H :   -0.228735
  15 H :   -0.249155

  Mayer bond orders larger than 0.100000
B(  0-P ,  1-C ) :   0.8465 B(  0-P ,  5-Si) :   0.9094 B(  0-P ,  6-C ) :   0.8693
B(  1-C ,  2-H ) :   0.9008 B(  1-C ,  3-H ) :   0.8721 B(  1-C ,  4-H ) :   0.8649
B(  5-Si, 10-C ) :   0.8585 B(  5-Si, 14-H ) :   0.7919 B(  5-Si, 15-H ) :   0.7189
B(  6-C ,  7-H ) :   0.8723 B(  6-C ,  8-H ) :   0.8816 B(  6-C ,  9-H ) :   0.8980
B( 10-C , 11-H ) :   0.9494 B( 10-C , 12-H ) :   0.9396 B( 10-C , 13-H ) :   0.9341

MP2 TOTAL ENERGY:     -750.667509225 Eh
FINAL SINGLE POINT ENERGY      -750.667509225110

DIPOLE MOMENT
-------------
                                X             Y             Z
Electronic contribution:      1.30558      -0.99978      -3.77138
Nuclear contribution   :     -1.32463       1.17277       4.17527
                        -----------------------------------------
Total Dipole Moment    :     -0.01906       0.17298       0.40389
                        -----------------------------------------
Magnitude (a.u.)       :      0.43979
Magnitude (Debye)      :      1.11785

Rotational constants in cm-1:     0.152821     0.062960     0.051677
Rotational constants in MHz :  4581.471011  1887.507006  1549.245399

                             ****ORCA TERMINATED NORMALLY****
TOTAL RUN TIME: 0 days 1 hours 30 minutes 6 seconds 161 msec
