                         Program Version 5.0.4 -  RELEASE  -
|  1> ! ri-mp2 aug-cc-pvdz aug-cc-pvdz/c tightscf
|  2> %pal nprocs 16 end
|  3> %maxcore 3800
|  4> %base "DZ_Si-Cl_63_AB"
|  5>
|  6> *xyz 0 1
|  7> C        -2.337636    1.134617   -0.213881
|  8> C        -1.007573    1.185665    0.166313
|  9> N        -2.998422   -0.000015   -0.402590
| 10> C        -2.337625   -1.134635   -0.213840
| 11> C        -1.007562   -1.185656    0.166356
| 12> C        -0.308811    0.000011    0.364004
| 13> H        -2.897834    2.049404   -0.372323
| 14> H        -0.530396    2.147570    0.305398
| 15> H        -2.897815   -2.049432   -0.372249
| 16> H        -0.530376   -2.147552    0.305475
| 17> Si         1.483565    0.000030    0.858517
| 18> Cl         2.675120   -0.000025   -0.819527
| 19> H         1.796835   -1.218149    1.625462
| 20> H         1.796830    1.218260    1.625381
| 21> *
| 22>
| 23> $new_job
| 24> ! ri-mp2 aug-cc-pvtz aug-cc-pvtz/c tightscf
| 25> %pal nprocs 16 end
| 26> %maxcore 3800
| 27> %base "TZ_Si-Cl_63_AB"
| 28>
| 29> *xyz 0 1
| 30> C        -2.337636    1.134617   -0.213881
| 31> C        -1.007573    1.185665    0.166313
| 32> N        -2.998422   -0.000015   -0.402590
| 33> C        -2.337625   -1.134635   -0.213840
| 34> C        -1.007562   -1.185656    0.166356
| 35> C        -0.308811    0.000011    0.364004
| 36> H        -2.897834    2.049404   -0.372323
| 37> H        -0.530396    2.147570    0.305398
| 38> H        -2.897815   -2.049432   -0.372249
| 39> H        -0.530376   -2.147552    0.305475
| 40> Si         1.483565    0.000030    0.858517
| 41> Cl         2.675120   -0.000025   -0.819527
| 42> H         1.796835   -1.218149    1.625462
| 43> H         1.796830    1.218260    1.625381
| 44> *
| 45>
| 46> $new_job
| 47> ! ri-mp2 aug-cc-pvqz aug-cc-pvqz/c tightscf
| 48> %pal nprocs 16 end
| 49> %maxcore 3800
| 50> %base "QZ_Si-Cl_63_AB"
| 51>
| 52> *xyz 0 1
| 53> C        -2.337636    1.134617   -0.213881
| 54> C        -1.007573    1.185665    0.166313
| 55> N        -2.998422   -0.000015   -0.402590
| 56> C        -2.337625   -1.134635   -0.213840
| 57> C        -1.007562   -1.185656    0.166356
| 58> C        -0.308811    0.000011    0.364004
| 59> H        -2.897834    2.049404   -0.372323
| 60> H        -0.530396    2.147570    0.305398
| 61> H        -2.897815   -2.049432   -0.372249
| 62> H        -0.530376   -2.147552    0.305475
| 63> Si         1.483565    0.000030    0.858517
| 64> Cl         2.675120   -0.000025   -0.819527
| 65> H         1.796835   -1.218149    1.625462
| 66> H         1.796830    1.218260    1.625381
| 67> *
| 68>
| 69>
| 70>
| 71>
| 72>                          ****END OF INPUT****
 Total Charge           Charge          ....    0
 Multiplicity           Mult            ....    1
 Number of Electrons    NEL             ....   74
MP2 TOTAL ENERGY:     -996.881610478 Eh
FINAL SINGLE POINT ENERGY      -996.881610477511
MP2 TOTAL ENERGY:     -997.193489979 Eh
FINAL SINGLE POINT ENERGY      -997.193489978840

CARTESIAN COORDINATES (ANGSTROEM)
---------------------------------
  C     -2.337636    1.134617   -0.213881
  C     -1.007573    1.185665    0.166313
  N     -2.998422   -0.000015   -0.402590
  C     -2.337625   -1.134635   -0.213840
  C     -1.007562   -1.185656    0.166356
  C     -0.308811    0.000011    0.364004
  H     -2.897834    2.049404   -0.372323
  H     -0.530396    2.147570    0.305398
  H     -2.897815   -2.049432   -0.372249
  H     -0.530376   -2.147552    0.305475
  Si     1.483565    0.000030    0.858517
  Cl     2.675120   -0.000025   -0.819527
  H      1.796835   -1.218149    1.625462
  H      1.796830    1.218260    1.625381

 Multiplicity           Mult            ....    1
 Number of Electrons    NEL             ....   74
 Basis Dimension        Dim             ....  924

ORBITAL ENERGIES
----------------

  NO   OCC          E(Eh)            E(eV)
   0   2.0000    -104.830025     -2852.5700
   1   2.0000     -68.823108     -1872.7720
   2   2.0000     -15.573353      -423.7725
   3   2.0000     -11.279386      -306.9277
   4   2.0000     -11.279369      -306.9272
   5   2.0000     -11.253890      -306.2339
   6   2.0000     -11.252472      -306.1953
   7   2.0000     -11.251917      -306.1802
   8   2.0000     -10.557510      -287.2845
   9   2.0000      -8.024302      -218.3524
  10   2.0000      -8.023187      -218.3220
  11   2.0000      -8.023178      -218.3218
  12   2.0000      -6.168832      -167.8624
  13   2.0000      -4.275788      -116.3501
  14   2.0000      -4.274914      -116.3263
  15   2.0000      -4.274727      -116.3212
  16   2.0000      -1.274156       -34.6715
  17   2.0000      -1.107607       -30.1395
  18   2.0000      -1.092642       -29.7323
  19   2.0000      -1.046143       -28.4670
  20   2.0000      -0.869049       -23.6480
  21   2.0000      -0.868341       -23.6288
  22   2.0000      -0.751630       -20.4529
  23   2.0000      -0.682692       -18.5770
  24   2.0000      -0.678043       -18.4505
  25   2.0000      -0.658229       -17.9113
  26   2.0000      -0.608487       -16.5578
  27   2.0000      -0.560354       -15.2480
  28   2.0000      -0.537016       -14.6130
  29   2.0000      -0.530688       -14.4408
  30   2.0000      -0.527868       -14.3640
  31   2.0000      -0.525226       -14.2921
  32   2.0000      -0.463551       -12.6139
  33   2.0000      -0.455251       -12.3880
  34   2.0000      -0.418859       -11.3977
  35   2.0000      -0.395673       -10.7668
  36   2.0000      -0.358148        -9.7457
  37   0.0000       0.021128         0.5749
  38   0.0000       0.027256         0.7417
  39   0.0000       0.032033         0.8717
  40   0.0000       0.036334         0.9887
  41   0.0000       0.041819         1.1380

MULLIKEN ATOMIC CHARGES
-----------------------
   0 C :   -0.200475
   1 C :   -0.482478
   2 N :   -0.616898
   3 C :   -0.200476
   4 C :   -0.482471
   5 C :    0.067112
   6 H :    0.480575
   7 H :    0.299318
   8 H :    0.480576
   9 H :    0.299317
  10 Si:    1.458416
  11 Cl:   -0.604690
  12 H :   -0.248911
  13 H :   -0.248915
Sum of atomic charges:   -0.0000000

LOEWDIN ATOMIC CHARGES
----------------------
   0 C :    0.077858
   1 C :    0.236217
   2 N :    0.598175
   3 C :    0.077859
   4 C :    0.236216
   5 C :   -0.180809
   6 H :   -0.346950
   7 H :   -0.341201
   8 H :   -0.346950
   9 H :   -0.341200
  10 Si:   -0.024502
  11 Cl:    0.901658
  12 H :   -0.273186
  13 H :   -0.273186

  Mayer bond orders larger than 0.100000
B(  0-C ,  1-C ) :   1.3219 B(  0-C ,  2-N ) :   1.1695 B(  0-C ,  4-C ) :   0.1011
B(  0-C ,  5-C ) :  -0.2685 B(  0-C ,  6-H ) :   0.8826 B(  1-C ,  3-C ) :   0.1011
B(  1-C ,  5-C ) :   1.0003 B(  1-C ,  6-H ) :  -0.1218 B(  1-C ,  7-H ) :   0.9681
B(  1-C , 10-Si) :  -0.1195 B(  2-N ,  3-C ) :   1.1695 B(  2-N ,  6-H ) :  -0.1174
B(  2-N ,  8-H ) :  -0.1174 B(  3-C ,  4-C ) :   1.3219 B(  3-C ,  5-C ) :  -0.2685
B(  3-C ,  8-H ) :   0.8826 B(  4-C ,  5-C ) :   1.0003 B(  4-C ,  8-H ) :  -0.1218
B(  4-C ,  9-H ) :   0.9681 B(  4-C , 10-Si) :  -0.1195 B(  5-C ,  7-H ) :  -0.1130
B(  5-C ,  9-H ) :  -0.1130 B(  5-C , 10-Si) :   1.0485 B( 10-Si, 11-Cl) :   0.3955
B( 10-Si, 12-H ) :   0.7688 B( 10-Si, 13-H ) :   0.7688

MP2 TOTAL ENERGY:     -997.295313649 Eh
FINAL SINGLE POINT ENERGY      -997.295313648729

DIPOLE MOMENT
-------------
                                X             Y             Z
Electronic contribution:      7.16004      -0.00011      -3.50157
Nuclear contribution   :     -6.96352       0.00013       4.09739
                        -----------------------------------------
Total Dipole Moment    :      0.19652       0.00002       0.59582
                        -----------------------------------------
Magnitude (a.u.)       :      0.62740
Magnitude (Debye)      :      1.59472

Rotational constants in cm-1:     0.119502     0.024874     0.023825
Rotational constants in MHz :  3582.568650   745.710827   714.263313

                             ****ORCA TERMINATED NORMALLY****
TOTAL RUN TIME: 0 days 0 hours 19 minutes 44 seconds 745 msec
