                         Program Version 5.0.4 -  RELEASE  -
|  1> ! ri-mp2 aug-cc-pvdz aug-cc-pvdz/c tightscf
|  2> %pal nprocs 16 end
|  3> %maxcore 3800
|  4> %base "DZ_Si-Cl_17_AB"
|  5> %scf
|  6> STABPerform true
|  7> STABRestartUHFifUnstable true
|  8> end
|  9>
| 10> *xyz 0 1
| 11> C         1.161570   -1.542799   -0.261187
| 12> Si         0.378435    0.000000    0.409694
| 13> C         1.161570    1.542799   -0.261187
| 14> H         1.101746    1.567199   -1.349822
| 15> H         2.214646    1.588505    0.023625
| 16> H         0.666189    2.432975    0.125999
| 17> H         0.666189   -2.432975    0.125999
| 18> H         2.214646   -1.588505    0.023625
| 19> H         1.101746   -1.567199   -1.349822
| 20> Cl        -1.624440    0.000000   -0.122823
| 21> H         0.413388    0.000000    1.886908
| 22> *
| 23>
| 24> $new_job
| 25> ! ri-mp2 aug-cc-pvtz aug-cc-pvtz/c tightscf
| 26> %pal nprocs 16 end
| 27> %maxcore 3800
| 28> %base "TZ_Si-Cl_17_AB"
| 29>
| 30> *xyz 0 1
| 31> C         1.161570   -1.542799   -0.261187
| 32> Si         0.378435    0.000000    0.409694
| 33> C         1.161570    1.542799   -0.261187
| 34> H         1.101746    1.567199   -1.349822
| 35> H         2.214646    1.588505    0.023625
| 36> H         0.666189    2.432975    0.125999
| 37> H         0.666189   -2.432975    0.125999
| 38> H         2.214646   -1.588505    0.023625
| 39> H         1.101746   -1.567199   -1.349822
| 40> Cl        -1.624440    0.000000   -0.122823
| 41> H         0.413388    0.000000    1.886908
| 42> *
| 43>
| 44> $new_job
| 45> ! ri-mp2 aug-cc-pvqz aug-cc-pvqz/c tightscf
| 46> %pal nprocs 16 end
| 47> %maxcore 3800
| 48> %base "QZ_Si-Cl_17_AB"
| 49>
| 50> *xyz 0 1
| 51> C         1.161570   -1.542799   -0.261187
| 52> Si         0.378435    0.000000    0.409694
| 53> C         1.161570    1.542799   -0.261187
| 54> H         1.101746    1.567199   -1.349822
| 55> H         2.214646    1.588505    0.023625
| 56> H         0.666189    2.432975    0.125999
| 57> H         0.666189   -2.432975    0.125999
| 58> H         2.214646   -1.588505    0.023625
| 59> H         1.101746   -1.567199   -1.349822
| 60> Cl        -1.624440    0.000000   -0.122823
| 61> H         0.413388    0.000000    1.886908
| 62> *
| 63>
| 64>
| 65>
| 66>
| 67>                          ****END OF INPUT****
 Total Charge           Charge          ....    0
 Multiplicity           Mult            ....    1
 Number of Electrons    NEL             ....   50
MP2 TOTAL ENERGY:     -828.889622644 Eh
FINAL SINGLE POINT ENERGY      -828.889622643747
MP2 TOTAL ENERGY:     -829.073703490 Eh
FINAL SINGLE POINT ENERGY      -829.073703489746

CARTESIAN COORDINATES (ANGSTROEM)
---------------------------------
  C      1.161570   -1.542799   -0.261187
  Si     0.378435    0.000000    0.409694
  C      1.161570    1.542799   -0.261187
  H      1.101746    1.567199   -1.349822
  H      2.214646    1.588505    0.023625
  H      0.666189    2.432975    0.125999
  H      0.666189   -2.432975    0.125999
  H      2.214646   -1.588505    0.023625
  H      1.101746   -1.567199   -1.349822
  Cl    -1.624440    0.000000   -0.122823
  H      0.413388    0.000000    1.886908

 Multiplicity           Mult            ....    1
 Number of Electrons    NEL             ....   50
 Basis Dimension        Dim             ....  650

ORBITAL ENERGIES
----------------

  NO   OCC          E(Eh)            E(eV)
   0   2.0000    -104.812649     -2852.0972
   1   2.0000     -68.798338     -1872.0980
   2   2.0000     -11.211634      -305.0841
   3   2.0000     -11.211626      -305.0839
   4   2.0000     -10.540252      -286.8148
   5   2.0000      -8.007046      -217.8828
   6   2.0000      -8.006009      -217.8546
   7   2.0000      -8.006008      -217.8546
   8   2.0000      -6.144209      -167.1924
   9   2.0000      -4.251440      -115.6876
  10   2.0000      -4.250195      -115.6537
  11   2.0000      -4.249874      -115.6449
  12   2.0000      -1.084796       -29.5188
  13   2.0000      -0.968523       -26.3548
  14   2.0000      -0.941936       -25.6314
  15   2.0000      -0.672923       -18.3112
  16   2.0000      -0.586213       -15.9517
  17   2.0000      -0.579629       -15.7725
  18   2.0000      -0.562687       -15.3115
  19   2.0000      -0.558299       -15.1921
  20   2.0000      -0.498272       -13.5587
  21   2.0000      -0.491805       -13.3827
  22   2.0000      -0.484789       -13.1918
  23   2.0000      -0.434698       -11.8287
  24   2.0000      -0.431462       -11.7407
  25   0.0000       0.022154         0.6028
  26   0.0000       0.034880         0.9491
  27   0.0000       0.036658         0.9975
  28   0.0000       0.037687         1.0255
  29   0.0000       0.051856         1.4111

MULLIKEN ATOMIC CHARGES
-----------------------
   0 C :   -1.054654
   1 Si:    1.527434
   2 C :   -1.054654
   3 H :    0.233369
   4 H :    0.250802
   5 H :    0.278706
   6 H :    0.278706
   7 H :    0.250802
   8 H :    0.233369
   9 Cl:   -0.682636
  10 H :   -0.261243
Sum of atomic charges:   -0.0000000

LOEWDIN ATOMIC CHARGES
----------------------
   0 C :    0.882365
   1 Si:   -0.290781
   2 C :    0.882365
   3 H :   -0.359921
   4 H :   -0.353665
   5 H :   -0.365536
   6 H :   -0.365536
   7 H :   -0.353665
   8 H :   -0.359921
   9 Cl:    0.929709
  10 H :   -0.245414

  Mayer bond orders larger than 0.100000
B(  0-C ,  1-Si) :   0.8320 B(  0-C ,  6-H ) :   0.9418 B(  0-C ,  7-H ) :   0.9432
B(  0-C ,  8-H ) :   0.9708 B(  1-Si,  2-C ) :   0.8320 B(  1-Si,  9-Cl) :   0.3346
B(  1-Si, 10-H ) :   0.8785 B(  2-C ,  3-H ) :   0.9708 B(  2-C ,  4-H ) :   0.9432
B(  2-C ,  5-H ) :   0.9418

MP2 TOTAL ENERGY:     -829.131559361 Eh
FINAL SINGLE POINT ENERGY      -829.131559360737

DIPOLE MOMENT
-------------
                                X             Y             Z
Electronic contribution:     -9.72246       0.00000       0.32635
Nuclear contribution   :     10.59907      -0.00000      -0.35991
                        -----------------------------------------
Total Dipole Moment    :      0.87662       0.00000      -0.03355
                        -----------------------------------------
Magnitude (a.u.)       :      0.87726
Magnitude (Debye)      :      2.22981

Rotational constants in cm-1:     0.180697     0.107799     0.076145
Rotational constants in MHz :  5417.165679  3231.733348  2282.778562

                             ****ORCA TERMINATED NORMALLY****
TOTAL RUN TIME: 0 days 0 hours 45 minutes 33 seconds 151 msec
