                         Program Version 5.0.4 -  RELEASE  -
|  1> ! ri-mp2 aug-cc-pvdz aug-cc-pvdz/c tightscf
|  2> %pal nprocs 16 end
|  3> %maxcore 3800
|  4> %base "DZ_P-Cl_7_AB"
|  5>
|  6> *xyz 0 1
|  7> Cl         3.867902    0.458245    0.190859
|  8> N        -0.092846   -1.013055   -0.051166
|  9> P         2.495555   -1.042988   -0.222830
| 10> C         0.890460   -0.155938   -0.097866
| 11> C         0.709034    1.241624   -0.125954
| 12> H         1.563931    1.899614   -0.165595
| 13> C        -0.563155    1.724696   -0.090950
| 14> H        -0.750961    2.791340   -0.108090
| 15> C        -2.998701    1.257847    0.015548
| 16> H        -3.213424    2.319038    0.000904
| 17> C        -4.007697    0.344437    0.075537
| 18> H        -5.037367    0.673948    0.108963
| 19> C        -3.718422   -1.035697    0.094431
| 20> H        -4.531539   -1.747776    0.141600
| 21> C        -2.429771   -1.476096    0.053121
| 22> H        -2.184175   -2.528858    0.065482
| 23> C        -1.365584   -0.551044   -0.008702
| 24> C        -1.652942    0.833394   -0.027882
| 25> H         2.436468   -1.560595    1.089041
| 26> *
| 27>
| 28> $new_job
| 29> ! ri-mp2 aug-cc-pvtz aug-cc-pvtz/c tightscf
| 30> %pal nprocs 16 end
| 31> %maxcore 3800
| 32> %base "TZ_P-Cl_7_AB"
| 33>
| 34> *xyz 0 1
| 35> Cl         3.867902    0.458245    0.190859
| 36> N        -0.092846   -1.013055   -0.051166
| 37> P         2.495555   -1.042988   -0.222830
| 38> C         0.890460   -0.155938   -0.097866
| 39> C         0.709034    1.241624   -0.125954
| 40> H         1.563931    1.899614   -0.165595
| 41> C        -0.563155    1.724696   -0.090950
| 42> H        -0.750961    2.791340   -0.108090
| 43> C        -2.998701    1.257847    0.015548
| 44> H        -3.213424    2.319038    0.000904
| 45> C        -4.007697    0.344437    0.075537
| 46> H        -5.037367    0.673948    0.108963
| 47> C        -3.718422   -1.035697    0.094431
| 48> H        -4.531539   -1.747776    0.141600
| 49> C        -2.429771   -1.476096    0.053121
| 50> H        -2.184175   -2.528858    0.065482
| 51> C        -1.365584   -0.551044   -0.008702
| 52> C        -1.652942    0.833394   -0.027882
| 53> H         2.436468   -1.560595    1.089041
| 54> *
| 55>
| 56> $new_job
| 57> ! ri-mp2 aug-cc-pvqz aug-cc-pvqz/c tightscf
| 58> %pal nprocs 16 end
| 59> %maxcore 3800
| 60> %base "QZ_P-Cl_7_AB"
| 61>
| 62> *xyz 0 1
| 63> Cl         3.867902    0.458245    0.190859
| 64> N        -0.092846   -1.013055   -0.051166
| 65> P         2.495555   -1.042988   -0.222830
| 66> C         0.890460   -0.155938   -0.097866
| 67> C         0.709034    1.241624   -0.125954
| 68> H         1.563931    1.899614   -0.165595
| 69> C        -0.563155    1.724696   -0.090950
| 70> H        -0.750961    2.791340   -0.108090
| 71> C        -2.998701    1.257847    0.015548
| 72> H        -3.213424    2.319038    0.000904
| 73> C        -4.007697    0.344437    0.075537
| 74> H        -5.037367    0.673948    0.108963
| 75> C        -3.718422   -1.035697    0.094431
| 76> H        -4.531539   -1.747776    0.141600
| 77> C        -2.429771   -1.476096    0.053121
| 78> H        -2.184175   -2.528858    0.065482
| 79> C        -1.365584   -0.551044   -0.008702
| 80> C        -1.652942    0.833394   -0.027882
| 81> H         2.436468   -1.560595    1.089041
| 82> *
| 83>
| 84>
| 85>
| 86>
| 87>                          ****END OF INPUT****
 Total Charge           Charge          ....    0
 Multiplicity           Mult            ....    1
 Number of Electrons    NEL             ....  100
MP2 TOTAL ENERGY:    -1201.291030205 Eh
FINAL SINGLE POINT ENERGY     -1201.291030204644
MP2 TOTAL ENERGY:    -1201.736897367 Eh
FINAL SINGLE POINT ENERGY     -1201.736897366636

CARTESIAN COORDINATES (ANGSTROEM)
---------------------------------
  Cl     3.867902    0.458245    0.190859
  N     -0.092846   -1.013055   -0.051166
  P      2.495555   -1.042988   -0.222830
  C      0.890460   -0.155938   -0.097866
  C      0.709034    1.241624   -0.125954
  H      1.563931    1.899614   -0.165595
  C     -0.563155    1.724696   -0.090950
  H     -0.750961    2.791340   -0.108090
  C     -2.998701    1.257847    0.015548
  H     -3.213424    2.319038    0.000904
  C     -4.007697    0.344437    0.075537
  H     -5.037367    0.673948    0.108963
  C     -3.718422   -1.035697    0.094431
  H     -4.531539   -1.747776    0.141600
  C     -2.429771   -1.476096    0.053121
  H     -2.184175   -2.528858    0.065482
  C     -1.365584   -0.551044   -0.008702
  C     -1.652942    0.833394   -0.027882
  H      2.436468   -1.560595    1.089041

 Multiplicity           Mult            ....    1
 Number of Electrons    NEL             ....  100
 Basis Dimension        Dim             .... 1290

ORBITAL ENERGIES
----------------

  NO   OCC          E(Eh)            E(eV)
   0   2.0000    -104.831666     -2852.6147
   1   2.0000     -79.997650     -2176.8467
   2   2.0000     -15.573849      -423.7860
   3   2.0000     -11.295112      -307.3556
   4   2.0000     -11.282369      -307.0089
   5   2.0000     -11.267141      -306.5945
   6   2.0000     -11.254192      -306.2421
   7   2.0000     -11.249245      -306.1075
   8   2.0000     -11.248236      -306.0801
   9   2.0000     -11.247647      -306.0640
  10   2.0000     -11.244446      -305.9769
  11   2.0000     -11.239506      -305.8425
  12   2.0000     -10.558041      -287.2989
  13   2.0000      -8.024912      -218.3690
  14   2.0000      -8.023542      -218.3317
  15   2.0000      -8.023415      -218.3282
  16   2.0000      -7.535560      -205.0530
  17   2.0000      -5.429268      -147.7379
  18   2.0000      -5.428064      -147.7051
  19   2.0000      -5.427162      -147.6806
  20   2.0000      -1.283417       -34.9236
  21   2.0000      -1.161726       -31.6122
  22   2.0000      -1.112701       -30.2781
  23   2.0000      -1.103991       -30.0411
  24   2.0000      -1.036714       -28.2104
  25   2.0000      -1.022492       -27.8234
  26   2.0000      -0.903061       -24.5735
  27   2.0000      -0.879445       -23.9309
  28   2.0000      -0.835506       -22.7353
  29   2.0000      -0.808318       -21.9954
  30   2.0000      -0.730018       -19.8648
  31   2.0000      -0.718095       -19.5403
  32   2.0000      -0.683408       -18.5965
  33   2.0000      -0.642971       -17.4961
  34   2.0000      -0.622428       -16.9371
  35   2.0000      -0.610502       -16.6126
  36   2.0000      -0.587069       -15.9750
  37   2.0000      -0.584499       -15.9050
  38   2.0000      -0.561965       -15.2918
  39   2.0000      -0.549205       -14.9446
  40   2.0000      -0.524676       -14.2772
  41   2.0000      -0.507667       -13.8143
  42   2.0000      -0.495358       -13.4794
  43   2.0000      -0.477747       -13.0002
  44   2.0000      -0.460598       -12.5335
  45   2.0000      -0.427048       -11.6206
  46   2.0000      -0.421985       -11.4828
  47   2.0000      -0.380832       -10.3630
  48   2.0000      -0.332756        -9.0547
  49   2.0000      -0.319251        -8.6873
  50   0.0000       0.020415         0.5555
  51   0.0000       0.025150         0.6844
  52   0.0000       0.030347         0.8258
  53   0.0000       0.037971         1.0332
  54   0.0000       0.041088         1.1181

MULLIKEN ATOMIC CHARGES
-----------------------
   0 Cl:   -0.541563
   1 N :   -0.666812
   2 P :    0.701011
   3 C :   -0.132240
   4 C :   -0.315167
   5 H :    0.349424
   6 C :   -0.246054
   7 H :    0.260648
   8 C :   -0.305715
   9 H :    0.215389
  10 C :   -0.504125
  11 H :    0.255295
  12 C :   -0.346676
  13 H :    0.262381
  14 C :   -0.831318
  15 H :    0.277302
  16 C :    1.029436
  17 C :    0.588987
  18 H :   -0.050201
Sum of atomic charges:   -0.0000000

LOEWDIN ATOMIC CHARGES
----------------------
   0 Cl:    0.701108
   1 N :    0.493894
   2 P :    0.459146
   3 C :   -0.638618
   4 C :    0.245067
   5 H :   -0.408287
   6 C :    0.358668
   7 H :   -0.302929
   8 C :    0.353309
   9 H :   -0.316324
  10 C :    0.352395
  11 H :   -0.321740
  12 C :    0.350304
  13 H :   -0.319532
  14 C :    0.341957
  15 H :   -0.322911
  16 C :   -0.375058
  17 C :   -0.125040
  18 H :   -0.525408

  Mayer bond orders larger than 0.100000
B(  0-Cl,  2-P ) :   0.7784 B(  1-N ,  3-C ) :   1.3403 B(  1-N , 14-C ) :   0.1565
B(  1-N , 16-C ) :   0.5043 B(  2-P ,  3-C ) :   0.7832 B(  2-P ,  4-C ) :  -0.1920
B(  2-P , 18-H ) :   0.8978 B(  3-C ,  4-C ) :   0.9645 B(  3-C ,  5-H ) :  -0.1071
B(  3-C ,  6-C ) :  -0.2645 B(  4-C ,  5-H ) :   0.9867 B(  4-C ,  6-C ) :   1.2928
B(  4-C ,  7-H ) :  -0.1615 B(  4-C , 17-C ) :  -0.2878 B(  5-H ,  6-C ) :  -0.1349
B(  6-C ,  7-H ) :   1.0639 B(  6-C ,  8-C ) :  -0.1409 B(  6-C , 16-C ) :  -0.2040
B(  6-C , 17-C ) :   0.6663 B(  7-H , 17-C ) :  -0.1571 B(  8-C ,  9-H ) :   1.0918
B(  8-C , 10-C ) :   1.3971 B(  8-C , 11-H ) :  -0.1724 B(  8-C , 14-C ) :   0.1763
B(  8-C , 16-C ) :  -0.1386 B(  8-C , 17-C ) :   0.5403 B(  9-H , 17-C ) :  -0.1725
B( 10-C , 11-H ) :   1.1318 B( 10-C , 12-C ) :   1.1049 B( 10-C , 14-C ) :   0.1262
B( 10-C , 17-C ) :  -0.2735 B( 12-C , 13-H ) :   1.1318 B( 12-C , 14-C ) :   1.4040
B( 12-C , 16-C ) :  -0.3969 B( 13-H , 14-C ) :  -0.1718 B( 14-C , 15-H ) :   0.9519
B( 14-C , 16-C ) :   0.7391 B( 14-C , 17-C ) :  -0.1789 B( 16-C , 17-C ) :   1.2472

MP2 TOTAL ENERGY:    -1201.881200465 Eh
FINAL SINGLE POINT ENERGY     -1201.881200465156

DIPOLE MOMENT
-------------
                                X             Y             Z
Electronic contribution:     17.74564      -1.53166      -0.86522
Nuclear contribution   :    -18.84703       2.09181       1.02855
                        -----------------------------------------
Total Dipole Moment    :     -1.10139       0.56015       0.16333
                        -----------------------------------------
Magnitude (a.u.)       :      1.24639
Magnitude (Debye)      :      3.16808

Rotational constants in cm-1:     0.078187     0.011963     0.010436
Rotational constants in MHz :  2343.977955   358.629881   312.856794

                             ****ORCA TERMINATED NORMALLY****
TOTAL RUN TIME: 0 days 1 hours 13 minutes 6 seconds 556 msec
