                         Program Version 5.0.4 -  RELEASE  -
|  1> ! ri-mp2 aug-cc-pvdz aug-cc-pvdz/c tightscf
|  2> %pal nprocs 16 end
|  3> %maxcore 3800
|  4> %base "DZ_B-P_84_AB"
|  5> %scf
|  6> STABPerform true
|  7> STABRestartUHFifUnstable true
|  8> end
|  9>
| 10> *xyz 0 1
| 11> C        -2.752236    0.022244    0.852711
| 12> C        -2.178438    0.558472   -0.450089
| 13> H        -2.304842   -0.936548    1.114751
| 14> H        -3.828927   -0.127001    0.773534
| 15> H        -2.572926    0.716108    1.676605
| 16> C        -0.680070    0.813308   -0.378347
| 17> H        -2.673495    1.494891   -0.714141
| 18> H        -2.377224   -0.145080   -1.258918
| 19> C         0.140981   -0.452275   -0.292421
| 20> H        -0.427327    1.465548    0.461089
| 21> H        -0.332514    1.333550   -1.276332
| 22> O        -0.249384   -1.520976   -0.676420
| 23> B         2.724669    1.151343   -0.119089
| 24> P         1.814227   -0.321864    0.486888
| 25> H         3.906935    1.101278   -0.211954
| 26> H         2.143670    2.173848   -0.283006
| 27> H         2.443552   -1.488039    0.030730
| 28> *
| 29>
| 30> $new_job
| 31> ! ri-mp2 aug-cc-pvtz aug-cc-pvtz/c tightscf
| 32> %pal nprocs 16 end
| 33> %maxcore 3800
| 34> %base "TZ_B-P_84_AB"
| 35>
| 36> *xyz 0 1
| 37> C        -2.752236    0.022244    0.852711
| 38> C        -2.178438    0.558472   -0.450089
| 39> H        -2.304842   -0.936548    1.114751
| 40> H        -3.828927   -0.127001    0.773534
| 41> H        -2.572926    0.716108    1.676605
| 42> C        -0.680070    0.813308   -0.378347
| 43> H        -2.673495    1.494891   -0.714141
| 44> H        -2.377224   -0.145080   -1.258918
| 45> C         0.140981   -0.452275   -0.292421
| 46> H        -0.427327    1.465548    0.461089
| 47> H        -0.332514    1.333550   -1.276332
| 48> O        -0.249384   -1.520976   -0.676420
| 49> B         2.724669    1.151343   -0.119089
| 50> P         1.814227   -0.321864    0.486888
| 51> H         3.906935    1.101278   -0.211954
| 52> H         2.143670    2.173848   -0.283006
| 53> H         2.443552   -1.488039    0.030730
| 54> *
| 55>
| 56> $new_job
| 57> ! ri-mp2 aug-cc-pvqz aug-cc-pvqz/c tightscf
| 58> %pal nprocs 16 end
| 59> %maxcore 3800
| 60> %base "QZ_B-P_84_AB"
| 61>
| 62> *xyz 0 1
| 63> C        -2.752236    0.022244    0.852711
| 64> C        -2.178438    0.558472   -0.450089
| 65> H        -2.304842   -0.936548    1.114751
| 66> H        -3.828927   -0.127001    0.773534
| 67> H        -2.572926    0.716108    1.676605
| 68> C        -0.680070    0.813308   -0.378347
| 69> H        -2.673495    1.494891   -0.714141
| 70> H        -2.377224   -0.145080   -1.258918
| 71> C         0.140981   -0.452275   -0.292421
| 72> H        -0.427327    1.465548    0.461089
| 73> H        -0.332514    1.333550   -1.276332
| 74> O        -0.249384   -1.520976   -0.676420
| 75> B         2.724669    1.151343   -0.119089
| 76> P         1.814227   -0.321864    0.486888
| 77> H         3.906935    1.101278   -0.211954
| 78> H         2.143670    2.173848   -0.283006
| 79> H         2.443552   -1.488039    0.030730
| 80> *
| 81>
| 82>
| 83>
| 84>
| 85>                          ****END OF INPUT****
 Total Charge           Charge          ....    0
 Multiplicity           Mult            ....    1
 Number of Electrons    NEL             ....   62
MP2 TOTAL ENERGY:     -598.576861405 Eh
FINAL SINGLE POINT ENERGY      -598.576861405198
MP2 TOTAL ENERGY:     -598.851196190 Eh
FINAL SINGLE POINT ENERGY      -598.851196190263

CARTESIAN COORDINATES (ANGSTROEM)
---------------------------------
  C     -2.752236    0.022244    0.852711
  C     -2.178438    0.558472   -0.450089
  H     -2.304842   -0.936548    1.114751
  H     -3.828927   -0.127001    0.773534
  H     -2.572926    0.716108    1.676605
  C     -0.680070    0.813308   -0.378347
  H     -2.673495    1.494891   -0.714141
  H     -2.377224   -0.145080   -1.258918
  C      0.140981   -0.452275   -0.292421
  H     -0.427327    1.465548    0.461089
  H     -0.332514    1.333550   -1.276332
  O     -0.249384   -1.520976   -0.676420
  B      2.724669    1.151343   -0.119089
  P      1.814227   -0.321864    0.486888
  H      3.906935    1.101278   -0.211954
  H      2.143670    2.173848   -0.283006
  H      2.443552   -1.488039    0.030730

 Multiplicity           Mult            ....    1
 Number of Electrons    NEL             ....   62
 Basis Dimension        Dim             .... 1024

ORBITAL ENERGIES
----------------

  NO   OCC          E(Eh)            E(eV)
   0   2.0000     -79.940206     -2175.2836
   1   2.0000     -20.557311      -559.3929
   2   2.0000     -11.345059      -308.7148
   3   2.0000     -11.243287      -305.9454
   4   2.0000     -11.226744      -305.4952
   5   2.0000     -11.212745      -305.1143
   6   2.0000      -7.623713      -207.4518
   7   2.0000      -7.488159      -203.7632
   8   2.0000      -5.382639      -146.4690
   9   2.0000      -5.382464      -146.4643
  10   2.0000      -5.382202      -146.4572
  11   2.0000      -1.406218       -38.2651
  12   2.0000      -1.084778       -29.5183
  13   2.0000      -0.981403       -26.7053
  14   2.0000      -0.902141       -24.5485
  15   2.0000      -0.827252       -22.5107
  16   2.0000      -0.743529       -20.2324
  17   2.0000      -0.694294       -18.8927
  18   2.0000      -0.650568       -17.7029
  19   2.0000      -0.637363       -17.3435
  20   2.0000      -0.623412       -16.9639
  21   2.0000      -0.585196       -15.9240
  22   2.0000      -0.559806       -15.2331
  23   2.0000      -0.534873       -14.5546
  24   2.0000      -0.527120       -14.3437
  25   2.0000      -0.501229       -13.6391
  26   2.0000      -0.490890       -13.3578
  27   2.0000      -0.486801       -13.2465
  28   2.0000      -0.484038       -13.1714
  29   2.0000      -0.403250       -10.9730
  30   2.0000      -0.358341        -9.7510
  31   0.0000       0.021332         0.5805
  32   0.0000       0.025802         0.7021
  33   0.0000       0.028242         0.7685
  34   0.0000       0.032510         0.8846
  35   0.0000       0.039284         1.0690

MULLIKEN ATOMIC CHARGES
-----------------------
   0 C :   -0.900335
   1 C :   -0.364472
   2 H :    0.246877
   3 H :    0.311625
   4 H :    0.207681
   5 C :   -0.324973
   6 H :    0.228040
   7 H :    0.233643
   8 C :    0.547332
   9 H :    0.226175
  10 H :    0.343174
  11 O :   -0.885091
  12 B :    0.240929
  13 P :    0.289362
  14 H :   -0.242248
  15 H :   -0.133567
  16 H :   -0.024152
Sum of atomic charges:   -0.0000000

LOEWDIN ATOMIC CHARGES
----------------------
   0 C :    0.921833
   1 C :    0.484914
   2 H :   -0.295460
   3 H :   -0.277872
   4 H :   -0.280743
   5 C :    0.378578
   6 H :   -0.270409
   7 H :   -0.290595
   8 C :   -0.867990
   9 H :   -0.319249
  10 H :   -0.289815
  11 O :    0.673595
  12 B :    0.099625
  13 P :    1.296335
  14 H :   -0.263499
  15 H :   -0.254082
  16 H :   -0.445165

  Mayer bond orders larger than 0.100000
B(  0-C ,  1-C ) :   0.9445 B(  0-C ,  2-H ) :   0.9390 B(  0-C ,  3-H ) :   0.9550
B(  0-C ,  4-H ) :   0.9652 B(  1-C ,  5-C ) :   0.8550 B(  1-C ,  6-H ) :   0.9712
B(  1-C ,  7-H ) :   0.8880 B(  5-C ,  8-C ) :   0.8182 B(  5-C ,  9-H ) :   0.9464
B(  5-C , 10-H ) :   0.7888 B(  5-C , 11-O ) :   0.1692 B(  8-C , 11-O ) :   1.1317
B(  8-C , 13-P ) :   0.8251 B( 12-B , 13-P ) :   1.2891 B( 12-B , 14-H ) :   0.9400
B( 12-B , 15-H ) :   0.9295 B( 13-P , 16-H ) :   1.0031

MP2 TOTAL ENERGY:     -598.938038902 Eh
FINAL SINGLE POINT ENERGY      -598.938038902285

DIPOLE MOMENT
-------------
                                X             Y             Z
Electronic contribution:     10.11881      -4.05051       0.06749
Nuclear contribution   :     -9.99620       4.96611      -0.06635
                        -----------------------------------------
Total Dipole Moment    :      0.12262       0.91561       0.00114
                        -----------------------------------------
Magnitude (a.u.)       :      0.92378
Magnitude (Debye)      :      2.34806

Rotational constants in cm-1:     0.138458     0.038352     0.034631
Rotational constants in MHz :  4150.867272  1149.753046  1038.224095

                             ****ORCA TERMINATED NORMALLY****
TOTAL RUN TIME: 0 days 2 hours 15 minutes 5 seconds 411 msec
