                         Program Version 5.0.4 -  RELEASE  -
|  1> ! ri-mp2 aug-cc-pvdz aug-cc-pvdz/c tightscf
|  2> %pal nprocs 16 end
|  3> %maxcore 3800
|  4> %base "DZ_Si-Si_12_AB"
|  5> %scf
|  6> STABPerform true
|  7> STABRestartUHFifUnstable true
|  8> end
|  9>
| 10> *xyz 0 1
| 11> Si        -1.893105    0.000014    0.000017
| 12> Si         0.430184   -0.000003    0.000002
| 13> F         1.021620    0.466813    1.390045
| 14> H        -2.367140   -0.925067    1.048219
| 15> F         1.021557    0.970423   -1.099312
| 16> H        -2.367145   -0.445224   -1.325222
| 17> F         1.021527   -1.437256   -0.290767
| 18> H        -2.367167    1.370314    0.277053
| 19> *
| 20>
| 21> $new_job
| 22> ! ri-mp2 aug-cc-pvtz aug-cc-pvtz/c tightscf
| 23> %pal nprocs 16 end
| 24> %maxcore 3800
| 25> %base "TZ_Si-Si_12_AB"
| 26>
| 27> *xyz 0 1
| 28> Si        -1.893105    0.000014    0.000017
| 29> Si         0.430184   -0.000003    0.000002
| 30> F         1.021620    0.466813    1.390045
| 31> H        -2.367140   -0.925067    1.048219
| 32> F         1.021557    0.970423   -1.099312
| 33> H        -2.367145   -0.445224   -1.325222
| 34> F         1.021527   -1.437256   -0.290767
| 35> H        -2.367167    1.370314    0.277053
| 36> *
| 37>
| 38> $new_job
| 39> ! ri-mp2 aug-cc-pvqz aug-cc-pvqz/c tightscf
| 40> %pal nprocs 16 end
| 41> %maxcore 3800
| 42> %base "QZ_Si-Si_12_AB"
| 43>
| 44> *xyz 0 1
| 45> Si        -1.893105    0.000014    0.000017
| 46> Si         0.430184   -0.000003    0.000002
| 47> F         1.021620    0.466813    1.390045
| 48> H        -2.367140   -0.925067    1.048219
| 49> F         1.021557    0.970423   -1.099312
| 50> H        -2.367145   -0.445224   -1.325222
| 51> F         1.021527   -1.437256   -0.290767
| 52> H        -2.367167    1.370314    0.277053
| 53> *
| 54>
| 55>
| 56>
| 57>
| 58>                          ****END OF INPUT****
 Total Charge           Charge          ....    0
 Multiplicity           Mult            ....    1
 Number of Electrons    NEL             ....   58
MP2 TOTAL ENERGY:     -878.965279818 Eh
FINAL SINGLE POINT ENERGY      -878.965279818121
MP2 TOTAL ENERGY:     -879.303700379 Eh
FINAL SINGLE POINT ENERGY      -879.303700378854

CARTESIAN COORDINATES (ANGSTROEM)
---------------------------------
  Si    -1.893105    0.000014    0.000017
  Si     0.430184   -0.000003    0.000002
  F      1.021620    0.466813    1.390045
  H     -2.367140   -0.925067    1.048219
  F      1.021557    0.970423   -1.099312
  H     -2.367145   -0.445224   -1.325222
  F      1.021527   -1.437256   -0.290767
  H     -2.367167    1.370314    0.277053

 Multiplicity           Mult            ....    1
 Number of Electrons    NEL             ....   58
 Basis Dimension        Dim             ....  546

ORBITAL ENERGIES
----------------

  NO   OCC          E(Eh)            E(eV)
   0   2.0000     -68.883010     -1874.4020
   1   2.0000     -68.794304     -1871.9882
   2   2.0000     -26.309355      -715.9139
   3   2.0000     -26.309354      -715.9139
   4   2.0000     -26.309341      -715.9136
   5   2.0000      -6.218235      -169.2068
   6   2.0000      -6.145573      -167.2295
   7   2.0000      -4.326585      -117.7324
   8   2.0000      -4.326585      -117.7324
   9   2.0000      -4.325039      -117.6903
  10   2.0000      -4.251895      -115.6999
  11   2.0000      -4.251612      -115.6922
  12   2.0000      -4.251612      -115.6922
  13   2.0000      -1.634340       -44.4727
  14   2.0000      -1.605950       -43.7001
  15   2.0000      -1.605948       -43.7001
  16   2.0000      -0.828547       -22.5459
  17   2.0000      -0.758184       -20.6312
  18   2.0000      -0.745308       -20.2809
  19   2.0000      -0.745306       -20.2808
  20   2.0000      -0.705794       -19.2056
  21   2.0000      -0.694773       -18.9057
  22   2.0000      -0.694772       -18.9057
  23   2.0000      -0.667621       -18.1669
  24   2.0000      -0.667619       -18.1668
  25   2.0000      -0.651235       -17.7210
  26   2.0000      -0.512394       -13.9429
  27   2.0000      -0.512393       -13.9429
  28   2.0000      -0.460095       -12.5198
  29   0.0000       0.023358         0.6356
  30   0.0000       0.033553         0.9130
  31   0.0000       0.039781         1.0825
  32   0.0000       0.039781         1.0825
  33   0.0000       0.052899         1.4395

MULLIKEN ATOMIC CHARGES
-----------------------
   0 Si:    0.290218
   1 Si:    2.222041
   2 F :   -0.704871
   3 H :   -0.132551
   4 F :   -0.704869
   5 H :   -0.132552
   6 F :   -0.704867
   7 H :   -0.132548
Sum of atomic charges:   -0.0000000

LOEWDIN ATOMIC CHARGES
----------------------
   0 Si:    1.114797
   1 Si:   -1.345015
   2 F :    0.395332
   3 H :   -0.318593
   4 F :    0.395331
   5 H :   -0.318592
   6 F :    0.395334
   7 H :   -0.318593

  Mayer bond orders larger than 0.100000
B(  0-Si,  1-Si) :   0.8770 B(  0-Si,  3-H ) :   0.8077 B(  0-Si,  5-H ) :   0.8077
B(  0-Si,  7-H ) :   0.8077 B(  1-Si,  2-F ) :   0.4217 B(  1-Si,  4-F ) :   0.4217
B(  1-Si,  6-F ) :   0.4217

MP2 TOTAL ENERGY:     -879.417310006 Eh
FINAL SINGLE POINT ENERGY      -879.417310006195

DIPOLE MOMENT
-------------
                                X             Y             Z
Electronic contribution:      8.50743      -0.00004      -0.00006
Nuclear contribution   :     -9.41186       0.00004       0.00008
                        -----------------------------------------
Total Dipole Moment    :     -0.90444       0.00000       0.00002
                        -----------------------------------------
Magnitude (a.u.)       :      0.90444
Magnitude (Debye)      :      2.29890

Rotational constants in cm-1:     0.131230     0.068625     0.068624
Rotational constants in MHz :  3934.174830  2057.323467  2057.310339

                             ****ORCA TERMINATED NORMALLY****
TOTAL RUN TIME: 0 days 0 hours 15 minutes 27 seconds 953 msec
