                         Program Version 5.0.4 -  RELEASE  -
|  1> ! ri-mp2 aug-cc-pvdz aug-cc-pvdz/c tightscf
|  2> %pal nprocs 16 end
|  3> %maxcore 3800
|  4> %base "DZ_S-F_76_AB"
|  5>
|  6> *xyz 0 1
|  7> F        -2.419882    0.159637    0.992758
|  8> S        -1.869925   -0.090586   -0.524443
|  9> C        -0.146559   -0.021084   -0.230116
| 10> C         0.534304    1.189963   -0.185561
| 11> C         0.581561   -1.195543   -0.061642
| 12> N         1.890291   -1.216874    0.138079
| 13> C         1.895735    1.174112    0.034672
| 14> C         2.524641   -0.051945    0.187517
| 15> H        -0.005678    2.117134   -0.321908
| 16> H         2.467566    2.090195    0.081157
| 17> H         0.070990   -2.150999   -0.095078
| 18> H         3.594724   -0.098591    0.356322
| 19> *
| 20>
| 21> $new_job
| 22> ! ri-mp2 aug-cc-pvtz aug-cc-pvtz/c tightscf
| 23> %pal nprocs 16 end
| 24> %maxcore 3800
| 25> %base "TZ_S-F_76_AB"
| 26>
| 27> *xyz 0 1
| 28> F        -2.419882    0.159637    0.992758
| 29> S        -1.869925   -0.090586   -0.524443
| 30> C        -0.146559   -0.021084   -0.230116
| 31> C         0.534304    1.189963   -0.185561
| 32> C         0.581561   -1.195543   -0.061642
| 33> N         1.890291   -1.216874    0.138079
| 34> C         1.895735    1.174112    0.034672
| 35> C         2.524641   -0.051945    0.187517
| 36> H        -0.005678    2.117134   -0.321908
| 37> H         2.467566    2.090195    0.081157
| 38> H         0.070990   -2.150999   -0.095078
| 39> H         3.594724   -0.098591    0.356322
| 40> *
| 41>
| 42> $new_job
| 43> ! ri-mp2 aug-cc-pvqz aug-cc-pvqz/c tightscf
| 44> %pal nprocs 16 end
| 45> %maxcore 3800
| 46> %base "QZ_S-F_76_AB"
| 47>
| 48> *xyz 0 1
| 49> F        -2.419882    0.159637    0.992758
| 50> S        -1.869925   -0.090586   -0.524443
| 51> C        -0.146559   -0.021084   -0.230116
| 52> C         0.534304    1.189963   -0.185561
| 53> C         0.581561   -1.195543   -0.061642
| 54> N         1.890291   -1.216874    0.138079
| 55> C         1.895735    1.174112    0.034672
| 56> C         2.524641   -0.051945    0.187517
| 57> H        -0.005678    2.117134   -0.321908
| 58> H         2.467566    2.090195    0.081157
| 59> H         0.070990   -2.150999   -0.095078
| 60> H         3.594724   -0.098591    0.356322
| 61> *
| 62>
| 63>
| 64>
| 65>
| 66>                          ****END OF INPUT****
 Total Charge           Charge          ....    0
 Multiplicity           Mult            ....    1
 Number of Electrons    NEL             ....   66
MP2 TOTAL ENERGY:     -744.264923782 Eh
FINAL SINGLE POINT ENERGY      -744.264923782078
MP2 TOTAL ENERGY:     -744.611148944 Eh
FINAL SINGLE POINT ENERGY      -744.611148943971

CARTESIAN COORDINATES (ANGSTROEM)
---------------------------------
  F     -2.419882    0.159637    0.992758
  S     -1.869925   -0.090586   -0.524443
  C     -0.146559   -0.021084   -0.230116
  C      0.534304    1.189963   -0.185561
  C      0.581561   -1.195543   -0.061642
  N      1.890291   -1.216874    0.138079
  C      1.895735    1.174112    0.034672
  C      2.524641   -0.051945    0.187517
  H     -0.005678    2.117134   -0.321908
  H      2.467566    2.090195    0.081157
  H      0.070990   -2.150999   -0.095078
  H      3.594724   -0.098591    0.356322

 Multiplicity           Mult            ....    1
 Number of Electrons    NEL             ....   66
 Basis Dimension        Dim             ....  828

ORBITAL ENERGIES
----------------

  NO   OCC          E(Eh)            E(eV)
   0   2.0000     -92.033760     -2504.3659
   1   2.0000     -26.300766      -715.6802
   2   2.0000     -15.580085      -423.9557
   3   2.0000     -11.299414      -307.4727
   4   2.0000     -11.299122      -307.4647
   5   2.0000     -11.283092      -307.0285
   6   2.0000     -11.279020      -306.9177
   7   2.0000     -11.256944      -306.3170
   8   2.0000      -9.027943      -245.6628
   9   2.0000      -6.709574      -182.5768
  10   2.0000      -6.707726      -182.5265
  11   2.0000      -6.706477      -182.4925
  12   2.0000      -1.598280       -43.4914
  13   2.0000      -1.288202       -35.0538
  14   2.0000      -1.128471       -30.7073
  15   2.0000      -1.075207       -29.2579
  16   2.0000      -0.965866       -26.2826
  17   2.0000      -0.885993       -24.1091
  18   2.0000      -0.852918       -23.2091
  19   2.0000      -0.741712       -20.1830
  20   2.0000      -0.700603       -19.0644
  21   2.0000      -0.694348       -18.8942
  22   2.0000      -0.676263       -18.4021
  23   2.0000      -0.671046       -18.2601
  24   2.0000      -0.637800       -17.3554
  25   2.0000      -0.599355       -16.3093
  26   2.0000      -0.573922       -15.6172
  27   2.0000      -0.565658       -15.3923
  28   2.0000      -0.501882       -13.6569
  29   2.0000      -0.437471       -11.9042
  30   2.0000      -0.411460       -11.1964
  31   2.0000      -0.380894       -10.3646
  32   2.0000      -0.372567       -10.1381
  33   0.0000       0.020698         0.5632
  34   0.0000       0.030471         0.8292
  35   0.0000       0.033949         0.9238
  36   0.0000       0.043441         1.1821
  37   0.0000       0.047077         1.2810

MULLIKEN ATOMIC CHARGES
-----------------------
   0 F :   -0.645841
   1 S :    0.493039
   2 C :   -0.281818
   3 C :   -0.115525
   4 C :   -0.054794
   5 N :   -0.634632
   6 C :   -0.340622
   7 C :   -0.269758
   8 H :    0.431647
   9 H :    0.329851
  10 H :    0.585531
  11 H :    0.502921
Sum of atomic charges:    0.0000000

LOEWDIN ATOMIC CHARGES
----------------------
   0 F :    0.078664
   1 S :    0.726545
   2 C :   -0.609551
   3 C :    0.213839
   4 C :   -0.046569
   5 N :    0.600287
   6 C :    0.337861
   7 C :    0.078556
   8 H :   -0.334654
   9 H :   -0.324426
  10 H :   -0.378243
  11 H :   -0.342310

  Mayer bond orders larger than 0.100000
B(  0-F ,  1-S ) :   0.5719 B(  1-S ,  2-C ) :   0.9392 B(  1-S ,  3-C ) :  -0.1353
B(  1-S ,  4-C ) :  -0.1437 B(  2-C ,  3-C ) :   1.0789 B(  2-C ,  4-C ) :   1.1845
B(  3-C ,  6-C ) :   1.2287 B(  3-C ,  8-H ) :   0.8333 B(  4-C ,  5-N ) :   1.2774
B(  4-C , 10-H ) :   0.7215 B(  5-N ,  7-C ) :   1.3298 B(  5-N , 10-H ) :  -0.1123
B(  6-C ,  7-C ) :   1.1808 B(  6-C ,  9-H ) :   0.9883 B(  7-C , 11-H ) :   0.8125

MP2 TOTAL ENERGY:     -744.724560449 Eh
FINAL SINGLE POINT ENERGY      -744.724560449159

DIPOLE MOMENT
-------------
                                X             Y             Z
Electronic contribution:     -7.48338      -0.99104       0.51354
Nuclear contribution   :      8.24060       1.72345      -0.90499
                        -----------------------------------------
Total Dipole Moment    :      0.75722       0.73240      -0.39146
                        -----------------------------------------
Magnitude (a.u.)       :      1.12385
Magnitude (Debye)      :      2.85659

Rotational constants in cm-1:     0.146208     0.037534     0.033359
Rotational constants in MHz :  4383.216921  1125.238271  1000.068571

                             ****ORCA TERMINATED NORMALLY****
TOTAL RUN TIME: 0 days 0 hours 15 minutes 1 seconds 72 msec
