                         Program Version 5.0.4 -  RELEASE  -
|  1> ! ri-mp2 aug-cc-pvdz aug-cc-pvdz/c tightscf
|  2> %pal nprocs 16 end
|  3> %maxcore 3800
|  4> %base "DZ_S-F_13_AB"
|  5>
|  6> *xyz 0 1
|  7> F         1.490688    0.777336    0.000013
|  8> S         0.658759   -0.631829   -0.000004
|  9> Si        -1.332126    0.161201   -0.000003
| 10> H        -1.585020    0.967200   -1.208636
| 11> H        -2.136517   -1.077950   -0.000019
| 12> H        -1.585028    0.967175    1.208645
| 13> *
| 14>
| 15> $new_job
| 16> ! ri-mp2 aug-cc-pvtz aug-cc-pvtz/c tightscf
| 17> %pal nprocs 16 end
| 18> %maxcore 3800
| 19> %base "TZ_S-F_13_AB"
| 20>
| 21> *xyz 0 1
| 22> F         1.490688    0.777336    0.000013
| 23> S         0.658759   -0.631829   -0.000004
| 24> Si        -1.332126    0.161201   -0.000003
| 25> H        -1.585020    0.967200   -1.208636
| 26> H        -2.136517   -1.077950   -0.000019
| 27> H        -1.585028    0.967175    1.208645
| 28> *
| 29>
| 30> $new_job
| 31> ! ri-mp2 aug-cc-pvqz aug-cc-pvqz/c tightscf
| 32> %pal nprocs 16 end
| 33> %maxcore 3800
| 34> %base "QZ_S-F_13_AB"
| 35>
| 36> *xyz 0 1
| 37> F         1.490688    0.777336    0.000013
| 38> S         0.658759   -0.631829   -0.000004
| 39> Si        -1.332126    0.161201   -0.000003
| 40> H        -1.585020    0.967200   -1.208636
| 41> H        -2.136517   -1.077950   -0.000019
| 42> H        -1.585028    0.967175    1.208645
| 43> *
| 44>
| 45>
| 46>
| 47>
| 48>                          ****END OF INPUT****
 Total Charge           Charge          ....    0
 Multiplicity           Mult            ....    1
 Number of Electrons    NEL             ....   42
MP2 TOTAL ENERGY:     -788.090363647 Eh
FINAL SINGLE POINT ENERGY      -788.090363646790
MP2 TOTAL ENERGY:     -788.265007820 Eh
FINAL SINGLE POINT ENERGY      -788.265007819521

CARTESIAN COORDINATES (ANGSTROEM)
---------------------------------
  F      1.490688    0.777336    0.000013
  S      0.658759   -0.631829   -0.000004
  Si    -1.332126    0.161201   -0.000003
  H     -1.585020    0.967200   -1.208636
  H     -2.136517   -1.077950   -0.000019
  H     -1.585028    0.967175    1.208645

 Multiplicity           Mult            ....    1
 Number of Electrons    NEL             ....   42
 Basis Dimension        Dim             ....  386

ORBITAL ENERGIES
----------------

  NO   OCC          E(Eh)            E(eV)
   0   2.0000     -92.023211     -2504.0789
   1   2.0000     -68.811433     -1872.4543
   2   2.0000     -26.309127      -715.9078
   3   2.0000      -9.019520      -245.4336
   4   2.0000      -6.701167      -182.3480
   5   2.0000      -6.698981      -182.2885
   6   2.0000      -6.698121      -182.2651
   7   2.0000      -6.159476      -167.6079
   8   2.0000      -4.266274      -116.0912
   9   2.0000      -4.265488      -116.0698
  10   2.0000      -4.265103      -116.0594
  11   2.0000      -1.603890       -43.6441
  12   2.0000      -0.967049       -26.3147
  13   2.0000      -0.750042       -20.4097
  14   2.0000      -0.688087       -18.7238
  15   2.0000      -0.683216       -18.5913
  16   2.0000      -0.644617       -17.5409
  17   2.0000      -0.517049       -14.0696
  18   2.0000      -0.514255       -13.9936
  19   2.0000      -0.454698       -12.3730
  20   2.0000      -0.386142       -10.5074
  21   0.0000       0.025725         0.7000
  22   0.0000       0.036688         0.9983
  23   0.0000       0.040125         1.0919
  24   0.0000       0.041115         1.1188
  25   0.0000       0.059650         1.6232

MULLIKEN ATOMIC CHARGES
-----------------------
   0 F :   -0.597559
   1 S :    0.180198
   2 Si:    0.903879
   3 H :   -0.155258
   4 H :   -0.176002
   5 H :   -0.155258
Sum of atomic charges:    0.0000000

LOEWDIN ATOMIC CHARGES
----------------------
   0 F :   -0.010594
   1 S :    0.421588
   2 Si:    0.573411
   3 H :   -0.323011
   4 H :   -0.338383
   5 H :   -0.323011

  Mayer bond orders larger than 0.100000
B(  0-F ,  1-S ) :   0.6110 B(  1-S ,  2-Si) :   0.7351 B(  2-Si,  3-H ) :   0.8561
B(  2-Si,  4-H ) :   0.8791 B(  2-Si,  5-H ) :   0.8561

MP2 TOTAL ENERGY:     -788.323664653 Eh
FINAL SINGLE POINT ENERGY      -788.323664653205

DIPOLE MOMENT
-------------
                                X             Y             Z
Electronic contribution:      5.62685      -0.24740       0.00002
Nuclear contribution   :     -6.44930       0.09451      -0.00002
                        -----------------------------------------
Total Dipole Moment    :     -0.82246      -0.15289      -0.00000
                        -----------------------------------------
Magnitude (a.u.)       :      0.83655
Magnitude (Debye)      :      2.12633

Rotational constants in cm-1:     0.544330     0.142766     0.117755
Rotational constants in MHz : 16318.603116  4280.028038  3530.219704

                             ****ORCA TERMINATED NORMALLY****
TOTAL RUN TIME: 0 days 0 hours 1 minutes 35 seconds 438 msec
