                         Program Version 5.0.4 -  RELEASE  -
|  1> ! ri-mp2 aug-cc-pvdz aug-cc-pvdz/c tightscf
|  2> %pal nprocs 16 end
|  3> %maxcore 3800
|  4> %base "DZ_P-C_28_AB"
|  5>
|  6> *xyz 0 1
|  7> C        -1.943259   -1.411251   -0.088101
|  8> C        -0.592878   -1.111105   -0.105513
|  9> C        -0.168080    0.208707   -0.021308
| 10> C         1.274195    0.580196   -0.049732
| 11> O         1.629643    1.726300   -0.167347
| 12> P         2.569362   -0.772188   -0.010950
| 13> C        -2.874829   -0.393250    0.023179
| 14> C        -2.456909    0.926634    0.109402
| 15> C        -1.109967    1.227208    0.082595
| 16> H        -0.760972    2.248724    0.140492
| 17> H        -2.268515   -2.440069   -0.161396
| 18> H         0.126694   -1.913501   -0.201093
| 19> H        -3.930901   -0.628003    0.041307
| 20> H        -3.186237    1.720845    0.195540
| 21> H         2.135848   -1.413158    1.170073
| 22> H         3.536872    0.034754    0.614983
| 23> *
| 24>
| 25> $new_job
| 26> ! ri-mp2 aug-cc-pvtz aug-cc-pvtz/c tightscf
| 27> %pal nprocs 16 end
| 28> %maxcore 3800
| 29> %base "TZ_P-C_28_AB"
| 30>
| 31> *xyz 0 1
| 32> C        -1.943259   -1.411251   -0.088101
| 33> C        -0.592878   -1.111105   -0.105513
| 34> C        -0.168080    0.208707   -0.021308
| 35> C         1.274195    0.580196   -0.049732
| 36> O         1.629643    1.726300   -0.167347
| 37> P         2.569362   -0.772188   -0.010950
| 38> C        -2.874829   -0.393250    0.023179
| 39> C        -2.456909    0.926634    0.109402
| 40> C        -1.109967    1.227208    0.082595
| 41> H        -0.760972    2.248724    0.140492
| 42> H        -2.268515   -2.440069   -0.161396
| 43> H         0.126694   -1.913501   -0.201093
| 44> H        -3.930901   -0.628003    0.041307
| 45> H        -3.186237    1.720845    0.195540
| 46> H         2.135848   -1.413158    1.170073
| 47> H         3.536872    0.034754    0.614983
| 48> *
| 49>
| 50> $new_job
| 51> ! ri-mp2 aug-cc-pvqz aug-cc-pvqz/c tightscf
| 52> %pal nprocs 16 end
| 53> %maxcore 3800
| 54> %base "QZ_P-C_28_AB"
| 55>
| 56> *xyz 0 1
| 57> C        -1.943259   -1.411251   -0.088101
| 58> C        -0.592878   -1.111105   -0.105513
| 59> C        -0.168080    0.208707   -0.021308
| 60> C         1.274195    0.580196   -0.049732
| 61> O         1.629643    1.726300   -0.167347
| 62> P         2.569362   -0.772188   -0.010950
| 63> C        -2.874829   -0.393250    0.023179
| 64> C        -2.456909    0.926634    0.109402
| 65> C        -1.109967    1.227208    0.082595
| 66> H        -0.760972    2.248724    0.140492
| 67> H        -2.268515   -2.440069   -0.161396
| 68> H         0.126694   -1.913501   -0.201093
| 69> H        -3.930901   -0.628003    0.041307
| 70> H        -3.186237    1.720845    0.195540
| 71> H         2.135848   -1.413158    1.170073
| 72> H         3.536872    0.034754    0.614983
| 73> *
| 74>
| 75>
| 76>
| 77>
| 78>                          ****END OF INPUT****
 Total Charge           Charge          ....    0
 Multiplicity           Mult            ....    1
 Number of Electrons    NEL             ....   72
MP2 TOTAL ENERGY:     -686.041922915 Eh
FINAL SINGLE POINT ENERGY      -686.041922915133
MP2 TOTAL ENERGY:     -686.379375355 Eh
FINAL SINGLE POINT ENERGY      -686.379375354570

CARTESIAN COORDINATES (ANGSTROEM)
---------------------------------
  C     -1.943259   -1.411251   -0.088101
  C     -0.592878   -1.111105   -0.105513
  C     -0.168080    0.208707   -0.021308
  C      1.274195    0.580196   -0.049732
  O      1.629643    1.726300   -0.167347
  P      2.569362   -0.772188   -0.010950
  C     -2.874829   -0.393250    0.023179
  C     -2.456909    0.926634    0.109402
  C     -1.109967    1.227208    0.082595
  H     -0.760972    2.248724    0.140492
  H     -2.268515   -2.440069   -0.161396
  H      0.126694   -1.913501   -0.201093
  H     -3.930901   -0.628003    0.041307
  H     -3.186237    1.720845    0.195540
  H      2.135848   -1.413158    1.170073
  H      3.536872    0.034754    0.614983

 Multiplicity           Mult            ....    1
 Number of Electrons    NEL             ....   72
 Basis Dimension        Dim             .... 1046

ORBITAL ENERGIES
----------------

  NO   OCC          E(Eh)            E(eV)
   0   2.0000     -79.953932     -2175.6571
   1   2.0000     -20.554769      -559.3237
   2   2.0000     -11.342477      -308.6445
   3   2.0000     -11.257097      -306.3212
   4   2.0000     -11.253617      -306.2265
   5   2.0000     -11.251919      -306.1803
   6   2.0000     -11.248862      -306.0971
   7   2.0000     -11.247195      -306.0517
   8   2.0000     -11.245102      -305.9948
   9   2.0000      -7.498065      -204.0327
  10   2.0000      -5.391894      -146.7209
  11   2.0000      -5.391768      -146.7175
  12   2.0000      -5.390905      -146.6940
  13   2.0000      -1.401645       -38.1407
  14   2.0000      -1.177727       -32.0476
  15   2.0000      -1.053698       -28.6726
  16   2.0000      -1.036823       -28.2134
  17   2.0000      -0.921149       -25.0657
  18   2.0000      -0.861476       -23.4420
  19   2.0000      -0.839363       -22.8402
  20   2.0000      -0.763529       -20.7767
  21   2.0000      -0.711793       -19.3689
  22   2.0000      -0.656893       -17.8750
  23   2.0000      -0.655311       -17.8319
  24   2.0000      -0.627633       -17.0788
  25   2.0000      -0.607465       -16.5300
  26   2.0000      -0.592740       -16.1293
  27   2.0000      -0.569286       -15.4911
  28   2.0000      -0.533828       -14.5262
  29   2.0000      -0.527632       -14.3576
  30   2.0000      -0.510841       -13.9007
  31   2.0000      -0.509808       -13.8726
  32   2.0000      -0.429941       -11.6993
  33   2.0000      -0.374717       -10.1966
  34   2.0000      -0.356231        -9.6935
  35   2.0000      -0.354033        -9.6337
  36   0.0000       0.020673         0.5626
  37   0.0000       0.027501         0.7483
  38   0.0000       0.030879         0.8403
  39   0.0000       0.039950         1.0871
  40   0.0000       0.044765         1.2181

MULLIKEN ATOMIC CHARGES
-----------------------
   0 C :   -0.418406
   1 C :   -0.051843
   2 C :   -0.152514
   3 C :    0.671762
   4 O :   -0.822808
   5 P :    0.231767
   6 C :   -0.293196
   7 C :   -0.355802
   8 C :   -0.142464
   9 H :    0.299757
  10 H :    0.259338
  11 H :    0.323240
  12 H :    0.306436
  13 H :    0.283871
  14 H :   -0.049835
  15 H :   -0.089303
Sum of atomic charges:    0.0000000

LOEWDIN ATOMIC CHARGES
----------------------
   0 C :    0.355445
   1 C :    0.275346
   2 C :   -0.218899
   3 C :   -0.911763
   4 O :    0.643320
   5 P :    1.484595
   6 C :    0.346116
   7 C :    0.357505
   8 C :    0.309325
   9 H :   -0.338724
  10 H :   -0.317927
  11 H :   -0.379334
  12 H :   -0.315160
  13 H :   -0.318286
  14 H :   -0.474526
  15 H :   -0.497032

  Mayer bond orders larger than 0.100000
B(  0-C ,  1-C ) :   1.1229 B(  0-C ,  2-C ) :  -0.2174 B(  0-C ,  6-C ) :   1.2180
B(  0-C ,  8-C ) :   0.1319 B(  0-C , 10-H ) :   1.1064 B(  0-C , 11-H ) :  -0.1103
B(  1-C ,  2-C ) :   1.0732 B(  1-C ,  3-C ) :  -0.3958 B(  1-C , 10-H ) :  -0.1291
B(  1-C , 11-H ) :   0.9486 B(  2-C ,  3-C ) :   0.7816 B(  2-C ,  4-O ) :   0.4329
B(  2-C ,  5-P ) :  -0.1730 B(  2-C ,  6-C ) :   0.1062 B(  2-C ,  7-C ) :  -0.2532
B(  2-C ,  8-C ) :   1.1079 B(  2-C , 11-H ) :  -0.1233 B(  3-C ,  4-O ) :   0.9894
B(  3-C ,  5-P ) :   0.9341 B(  3-C ,  8-C ) :  -0.2887 B(  5-P , 14-H ) :   0.9122
B(  5-P , 15-H ) :   0.9563 B(  6-C ,  7-C ) :   1.1515 B(  6-C , 12-H ) :   1.0217
B(  6-C , 13-H ) :  -0.1016 B(  7-C ,  8-C ) :   1.2982 B(  7-C , 13-H ) :   1.0689
B(  8-C ,  9-H ) :   0.8955 B(  8-C , 13-H ) :  -0.1260

MP2 TOTAL ENERGY:     -686.488543932 Eh
FINAL SINGLE POINT ENERGY      -686.488543931899

DIPOLE MOMENT
-------------
                                X             Y             Z
Electronic contribution:      5.77406       0.72224      -1.40599
Nuclear contribution   :     -6.62713      -1.59378       1.76994
                        -----------------------------------------
Total Dipole Moment    :     -0.85307      -0.87154       0.36394
                        -----------------------------------------
Magnitude (a.u.)       :      1.27270
Magnitude (Debye)      :      3.23495

Rotational constants in cm-1:     0.103630     0.030416     0.023698
Rotational constants in MHz :  3106.735081   911.840176   710.449745

                             ****ORCA TERMINATED NORMALLY****
TOTAL RUN TIME: 0 days 0 hours 31 minutes 31 seconds 254 msec
