                         Program Version 5.0.4 -  RELEASE  -
|  1> ! ri-mp2 aug-cc-pvdz aug-cc-pvdz/c tightscf
|  2> %pal nprocs 16 end
|  3> %maxcore 3800
|  4> %base "DZ_Si-Si_131_AB"
|  5> %scf
|  6> STABPerform true
|  7> STABRestartUHFifUnstable true
|  8> end
|  9>
| 10> *xyz 0 1
| 11> Si         2.251274   -0.412434   -0.291274
| 12> Si         0.537105    0.970555    0.475545
| 13> C        -1.140053    0.253603   -0.056246
| 14> H         0.625135    2.341892   -0.100356
| 15> H         0.519412    1.102729    1.947111
| 16> S        -1.437531   -1.317454    0.180764
| 17> O        -2.058653    1.052810   -0.614089
| 18> H         2.287547   -1.662452    0.490919
| 19> H         3.543886    0.295605   -0.148002
| 20> H        -1.723479    1.955662   -0.691419
| 21> H         2.020229   -0.711955   -1.720078
| 22> *
| 23>
| 24> $new_job
| 25> ! ri-mp2 aug-cc-pvtz aug-cc-pvtz/c tightscf
| 26> %pal nprocs 16 end
| 27> %maxcore 3800
| 28> %base "TZ_Si-Si_131_AB"
| 29>
| 30> *xyz 0 1
| 31> Si         2.251274   -0.412434   -0.291274
| 32> Si         0.537105    0.970555    0.475545
| 33> C        -1.140053    0.253603   -0.056246
| 34> H         0.625135    2.341892   -0.100356
| 35> H         0.519412    1.102729    1.947111
| 36> S        -1.437531   -1.317454    0.180764
| 37> O        -2.058653    1.052810   -0.614089
| 38> H         2.287547   -1.662452    0.490919
| 39> H         3.543886    0.295605   -0.148002
| 40> H        -1.723479    1.955662   -0.691419
| 41> H         2.020229   -0.711955   -1.720078
| 42> *
| 43>
| 44> $new_job
| 45> ! ri-mp2 aug-cc-pvqz aug-cc-pvqz/c tightscf
| 46> %pal nprocs 16 end
| 47> %maxcore 3800
| 48> %base "QZ_Si-Si_131_AB"
| 49>
| 50> *xyz 0 1
| 51> Si         2.251274   -0.412434   -0.291274
| 52> Si         0.537105    0.970555    0.475545
| 53> C        -1.140053    0.253603   -0.056246
| 54> H         0.625135    2.341892   -0.100356
| 55> H         0.519412    1.102729    1.947111
| 56> S        -1.437531   -1.317454    0.180764
| 57> O        -2.058653    1.052810   -0.614089
| 58> H         2.287547   -1.662452    0.490919
| 59> H         3.543886    0.295605   -0.148002
| 60> H        -1.723479    1.955662   -0.691419
| 61> H         2.020229   -0.711955   -1.720078
| 62> *
| 63>
| 64>
| 65>
| 66>
| 67>                          ****END OF INPUT****
 Total Charge           Charge          ....    0
 Multiplicity           Mult            ....    1
 Number of Electrons    NEL             ....   64
MP2 TOTAL ENERGY:    -1092.299483505 Eh
FINAL SINGLE POINT ENERGY     -1092.299483505240
MP2 TOTAL ENERGY:    -1092.517466647 Eh
FINAL SINGLE POINT ENERGY     -1092.517466646570

CARTESIAN COORDINATES (ANGSTROEM)
---------------------------------
  Si     2.251274   -0.412434   -0.291274
  Si     0.537105    0.970555    0.475545
  C     -1.140053    0.253603   -0.056246
  H      0.625135    2.341892   -0.100356
  H      0.519412    1.102729    1.947111
  S     -1.437531   -1.317454    0.180764
  O     -2.058653    1.052810   -0.614089
  H      2.287547   -1.662452    0.490919
  H      3.543886    0.295605   -0.148002
  H     -1.723479    1.955662   -0.691419
  H      2.020229   -0.711955   -1.720078

 Multiplicity           Mult            ....    1
 Number of Electrons    NEL             ....   64
 Basis Dimension        Dim             ....  688

ORBITAL ENERGIES
----------------

  NO   OCC          E(Eh)            E(eV)
   0   2.0000     -91.929626     -2501.5323
   1   2.0000     -68.795289     -1872.0150
   2   2.0000     -68.779455     -1871.5841
   3   2.0000     -20.633021      -561.4530
   4   2.0000     -11.364614      -309.2469
   5   2.0000      -8.934446      -243.1186
   6   2.0000      -6.615670      -180.0215
   7   2.0000      -6.614744      -179.9963
   8   2.0000      -6.613571      -179.9644
   9   2.0000      -6.145867      -167.2375
  10   2.0000      -6.130229      -166.8120
  11   2.0000      -4.252059      -115.7044
  12   2.0000      -4.251786      -115.6970
  13   2.0000      -4.251616      -115.6923
  14   2.0000      -4.236463      -115.2800
  15   2.0000      -4.236265      -115.2746
  16   2.0000      -4.236148      -115.2715
  17   2.0000      -1.451666       -39.5018
  18   2.0000      -1.044966       -28.4350
  19   2.0000      -0.820525       -22.3276
  20   2.0000      -0.800580       -21.7849
  21   2.0000      -0.728670       -19.8281
  22   2.0000      -0.653212       -17.7748
  23   2.0000      -0.616891       -16.7865
  24   2.0000      -0.596408       -16.2291
  25   2.0000      -0.517123       -14.0716
  26   2.0000      -0.503181       -13.6922
  27   2.0000      -0.487622       -13.2689
  28   2.0000      -0.481210       -13.0944
  29   2.0000      -0.428162       -11.6509
  30   2.0000      -0.377306       -10.2670
  31   2.0000      -0.344291        -9.3686
  32   0.0000       0.019565         0.5324
  33   0.0000       0.026567         0.7229
  34   0.0000       0.032907         0.8954
  35   0.0000       0.039652         1.0790
  36   0.0000       0.045699         1.2435

MULLIKEN ATOMIC CHARGES
-----------------------
   0 Si:    0.350578
   1 Si:    0.847976
   2 C :    0.054433
   3 H :   -0.250384
   4 H :   -0.181201
   5 S :   -0.035326
   6 O :   -0.786892
   7 H :   -0.107713
   8 H :   -0.167486
   9 H :    0.404506
  10 H :   -0.128490
Sum of atomic charges:    0.0000000

LOEWDIN ATOMIC CHARGES
----------------------
   0 Si:    1.002051
   1 Si:    0.488913
   2 C :   -1.296877
   3 H :   -0.266273
   4 H :   -0.270494
   5 S :    1.027036
   6 O :    1.098812
   7 H :   -0.308385
   8 H :   -0.317831
   9 H :   -0.850345
  10 H :   -0.306607

  Mayer bond orders larger than 0.100000
B(  0-Si,  1-Si) :   0.7293 B(  0-Si,  7-H ) :   0.7801 B(  0-Si,  8-H ) :   0.7671
B(  0-Si, 10-H ) :   0.7428 B(  1-Si,  2-C ) :   0.6825 B(  1-Si,  3-H ) :   0.8429
B(  1-Si,  4-H ) :   0.8334 B(  2-C ,  5-S ) :   1.6018 B(  2-C ,  6-O ) :   0.8529
B(  6-O ,  9-H ) :   0.8095

MP2 TOTAL ENERGY:    -1092.590671986 Eh
FINAL SINGLE POINT ENERGY     -1092.590671985623

DIPOLE MOMENT
-------------
                                X             Y             Z
Electronic contribution:     -6.20975      -2.05230       0.18969
Nuclear contribution   :      6.99356       3.28759      -0.24402
                        -----------------------------------------
Total Dipole Moment    :      0.78381       1.23529      -0.05433
                        -----------------------------------------
Magnitude (a.u.)       :      1.46398
Magnitude (Debye)      :      3.72115

Rotational constants in cm-1:     0.118248     0.048308     0.037907
Rotational constants in MHz :  3544.979670  1448.242322  1136.412162

                             ****ORCA TERMINATED NORMALLY****
TOTAL RUN TIME: 0 days 0 hours 34 minutes 5 seconds 699 msec
