                         Program Version 5.0.4 -  RELEASE  -
|  1> ! ri-mp2 aug-cc-pvdz aug-cc-pvdz/c tightscf
|  2> %pal nprocs 16 end
|  3> %maxcore 3800
|  4> %base "DZ_P-Si_18_AB"
|  5>
|  6> *xyz 0 1
|  7> Si        -0.478957    0.048876    0.562328
|  8> N        -1.035446    1.554770   -0.377200
|  9> P         1.679959   -0.292621    0.044379
| 10> N        -1.408211   -1.297306   -0.332804
| 11> C        -1.041448    0.180962    2.294459
| 12> O        -0.912891   -1.666751   -1.390592
| 13> O         2.142420   -1.448488    0.800505
| 14> O        -0.185679    2.438075   -0.412656
| 15> O         2.449248    1.049167    0.346939
| 16> O        -2.141788    1.639013   -0.852092
| 17> O        -2.426911   -1.738989    0.142096
| 18> H        -0.607002    1.063450    2.764891
| 19> H        -0.714061   -0.700901    2.846164
| 20> H        -2.128331    0.242174    2.337189
| 21> O         1.708414   -0.344509   -1.537701
| 22> H         1.118275   -1.023267   -1.903581
| 23> H         2.128916    1.815444   -0.151665
| 24> *
| 25>
| 26> $new_job
| 27> ! ri-mp2 aug-cc-pvtz aug-cc-pvtz/c tightscf
| 28> %pal nprocs 16 end
| 29> %maxcore 3800
| 30> %base "TZ_P-Si_18_AB"
| 31>
| 32> *xyz 0 1
| 33> Si        -0.478957    0.048876    0.562328
| 34> N        -1.035446    1.554770   -0.377200
| 35> P         1.679959   -0.292621    0.044379
| 36> N        -1.408211   -1.297306   -0.332804
| 37> C        -1.041448    0.180962    2.294459
| 38> O        -0.912891   -1.666751   -1.390592
| 39> O         2.142420   -1.448488    0.800505
| 40> O        -0.185679    2.438075   -0.412656
| 41> O         2.449248    1.049167    0.346939
| 42> O        -2.141788    1.639013   -0.852092
| 43> O        -2.426911   -1.738989    0.142096
| 44> H        -0.607002    1.063450    2.764891
| 45> H        -0.714061   -0.700901    2.846164
| 46> H        -2.128331    0.242174    2.337189
| 47> O         1.708414   -0.344509   -1.537701
| 48> H         1.118275   -1.023267   -1.903581
| 49> H         2.128916    1.815444   -0.151665
| 50> *
| 51>
| 52> $new_job
| 53> ! ri-mp2 aug-cc-pvqz aug-cc-pvqz/c tightscf
| 54> %pal nprocs 16 end
| 55> %maxcore 3800
| 56> %base "QZ_P-Si_18_AB"
| 57>
| 58> *xyz 0 1
| 59> Si        -0.478957    0.048876    0.562328
| 60> N        -1.035446    1.554770   -0.377200
| 61> P         1.679959   -0.292621    0.044379
| 62> N        -1.408211   -1.297306   -0.332804
| 63> C        -1.041448    0.180962    2.294459
| 64> O        -0.912891   -1.666751   -1.390592
| 65> O         2.142420   -1.448488    0.800505
| 66> O        -0.185679    2.438075   -0.412656
| 67> O         2.449248    1.049167    0.346939
| 68> O        -2.141788    1.639013   -0.852092
| 69> O        -2.426911   -1.738989    0.142096
| 70> H        -0.607002    1.063450    2.764891
| 71> H        -0.714061   -0.700901    2.846164
| 72> H        -2.128331    0.242174    2.337189
| 73> O         1.708414   -0.344509   -1.537701
| 74> H         1.118275   -1.023267   -1.903581
| 75> H         2.128916    1.815444   -0.151665
| 76> *
| 77>
| 78>
| 79>
| 80>
| 81>                          ****END OF INPUT****
 Total Charge           Charge          ....    0
 Multiplicity           Mult            ....    1
 Number of Electrons    NEL             ....  110
MP2 TOTAL ENERGY:    -1305.491668872 Eh
FINAL SINGLE POINT ENERGY     -1305.491668871564
MP2 TOTAL ENERGY:    -1306.164323711 Eh
FINAL SINGLE POINT ENERGY     -1306.164323710877

CARTESIAN COORDINATES (ANGSTROEM)
---------------------------------
  Si    -0.478957    0.048876    0.562328
  N     -1.035446    1.554770   -0.377200
  P      1.679959   -0.292621    0.044379
  N     -1.408211   -1.297306   -0.332804
  C     -1.041448    0.180962    2.294459
  O     -0.912891   -1.666751   -1.390592
  O      2.142420   -1.448488    0.800505
  O     -0.185679    2.438075   -0.412656
  O      2.449248    1.049167    0.346939
  O     -2.141788    1.639013   -0.852092
  O     -2.426911   -1.738989    0.142096
  H     -0.607002    1.063450    2.764891
  H     -0.714061   -0.700901    2.846164
  H     -2.128331    0.242174    2.337189
  O      1.708414   -0.344509   -1.537701
  H      1.118275   -1.023267   -1.903581
  H      2.128916    1.815444   -0.151665

 Multiplicity           Mult            ....    1
 Number of Electrons    NEL             ....  110
 Basis Dimension        Dim             .... 1198

ORBITAL ENERGIES
----------------

  NO   OCC          E(Eh)            E(eV)
   0   2.0000     -80.104331     -2179.7497
   1   2.0000     -68.908407     -1875.0931
   2   2.0000     -20.649894      -561.9122
   3   2.0000     -20.648067      -561.8625
   4   2.0000     -20.640754      -561.6635
   5   2.0000     -20.638084      -561.5908
   6   2.0000     -20.631039      -561.3991
   7   2.0000     -20.628509      -561.3303
   8   2.0000     -20.539560      -558.9098
   9   2.0000     -15.860511      -431.5865
  10   2.0000     -15.859067      -431.5471
  11   2.0000     -11.278621      -306.9069
  12   2.0000      -7.626929      -207.5393
  13   2.0000      -6.254502      -170.1937
  14   2.0000      -5.525270      -150.3502
  15   2.0000      -5.524728      -150.3355
  16   2.0000      -5.523581      -150.3043
  17   2.0000      -4.361017      -118.6693
  18   2.0000      -4.360251      -118.6485
  19   2.0000      -4.358941      -118.6128
  20   2.0000      -1.644503       -44.7492
  21   2.0000      -1.639997       -44.6266
  22   2.0000      -1.471175       -40.0327
  23   2.0000      -1.442725       -39.2585
  24   2.0000      -1.440351       -39.1939
  25   2.0000      -1.414827       -38.4994
  26   2.0000      -1.334107       -36.3029
  27   2.0000      -1.052460       -28.6389
  28   2.0000      -0.997043       -27.1309
  29   2.0000      -0.971471       -26.4351
  30   2.0000      -0.880141       -23.9499
  31   2.0000      -0.845939       -23.0192
  32   2.0000      -0.816329       -22.2134
  33   2.0000      -0.788521       -21.4567
  34   2.0000      -0.766880       -20.8679
  35   2.0000      -0.763563       -20.7776
  36   2.0000      -0.753316       -20.4988
  37   2.0000      -0.751686       -20.4544
  38   2.0000      -0.730618       -19.8811
  39   2.0000      -0.673321       -18.3220
  40   2.0000      -0.638157       -17.3651
  41   2.0000      -0.629249       -17.1227
  42   2.0000      -0.624274       -16.9874
  43   2.0000      -0.618563       -16.8320
  44   2.0000      -0.602696       -16.4002
  45   2.0000      -0.591980       -16.1086
  46   2.0000      -0.547836       -14.9074
  47   2.0000      -0.546228       -14.8636
  48   2.0000      -0.534047       -14.5322
  49   2.0000      -0.511999       -13.9322
  50   2.0000      -0.502124       -13.6635
  51   2.0000      -0.498905       -13.5759
  52   2.0000      -0.496105       -13.4997
  53   2.0000      -0.490618       -13.3504
  54   2.0000      -0.457413       -12.4468
  55   0.0000       0.016530         0.4498
  56   0.0000       0.026071         0.7094
  57   0.0000       0.029512         0.8031
  58   0.0000       0.030699         0.8354
  59   0.0000       0.036167         0.9842

MULLIKEN ATOMIC CHARGES
-----------------------
   0 Si:    1.362312
   1 N :    0.719237
   2 P :    2.328482
   3 N :    0.753558
   4 C :   -1.092039
   5 O :   -0.662527
   6 O :   -1.237847
   7 O :   -0.669813
   8 O :   -1.036141
   9 O :   -0.625995
  10 O :   -0.608251
  11 H :    0.322167
  12 H :    0.290933
  13 H :    0.304489
  14 O :   -1.004956
  15 H :    0.418409
  16 H :    0.437984
Sum of atomic charges:   -0.0000000

LOEWDIN ATOMIC CHARGES
----------------------
   0 Si:   -0.200328
   1 N :   -0.853767
   2 P :   -0.605099
   3 N :   -0.836977
   4 C :    0.986009
   5 O :    0.503620
   6 O :    0.263544
   7 O :    0.478922
   8 O :    1.074437
   9 O :    0.488562
  10 O :    0.495247
  11 H :   -0.330593
  12 H :   -0.331275
  13 H :   -0.336124
  14 O :    1.088260
  15 H :   -0.968107
  16 H :   -0.916331

  Mayer bond orders larger than 0.100000
B(  0-Si,  1-N ) :   0.5057 B(  0-Si,  2-P ) :   0.9300 B(  0-Si,  3-N ) :   0.5115
B(  0-Si,  4-C ) :   0.9047 B(  1-N ,  7-O ) :   1.1705 B(  1-N ,  9-O ) :   1.2635
B(  2-P ,  6-O ) :   1.2846 B(  2-P ,  8-O ) :   0.5512 B(  2-P , 14-O ) :   0.6581
B(  3-N ,  5-O ) :   1.1476 B(  3-N , 10-O ) :   1.2375 B(  4-C , 11-H ) :   0.8999
B(  4-C , 12-H ) :   0.9158 B(  4-C , 13-H ) :   0.9203 B(  5-O , 10-O ) :   0.1424
B(  7-O ,  9-O ) :   0.1463 B(  8-O , 16-H ) :   0.7944 B( 14-O , 15-H ) :   0.8302

MP2 TOTAL ENERGY:    -1306.387463163 Eh
FINAL SINGLE POINT ENERGY     -1306.387463162609

DIPOLE MOMENT
-------------
                                X             Y             Z
Electronic contribution:      1.40022      -0.77542      -4.62013
Nuclear contribution   :     -1.69906       1.59921       5.51237
                        -----------------------------------------
Total Dipole Moment    :     -0.29884       0.82380       0.89224
                        -----------------------------------------
Magnitude (a.u.)       :      1.25062
Magnitude (Debye)      :      3.17882

Rotational constants in cm-1:     0.030850     0.022335     0.018534
Rotational constants in MHz :   924.845314   669.588814   555.632246

                             ****ORCA TERMINATED NORMALLY****
TOTAL RUN TIME: 0 days 0 hours 47 minutes 42 seconds 997 msec
