                         Program Version 5.0.4 -  RELEASE  -
|  1> ! ri-mp2 aug-cc-pvdz aug-cc-pvdz/c tightscf
|  2> %pal nprocs 16 end
|  3> %maxcore 3800
|  4> %base "DZ_Si-Si_39_AB"
|  5> %scf
|  6> STABPerform true
|  7> STABRestartUHFifUnstable true
|  8> end
|  9>
| 10> *xyz 0 1
| 11> Si        -0.908816    0.014119    0.369213
| 12> Si         1.284592   -0.715788    0.013413
| 13> O        -1.958553   -0.930169   -0.471954
| 14> H        -2.871211   -0.999235   -0.187238
| 15> O         2.211616    0.642920   -0.124516
| 16> H         1.359170   -1.551463   -1.208096
| 17> H         1.810680   -1.514575    1.141458
| 18> H         1.740649    1.442098   -0.376326
| 19> O        -0.801880    1.560009   -0.207539
| 20> H        -1.396536    0.076672    1.772133
| 21> H        -1.513088    2.187791   -0.066630
| 22> *
| 23>
| 24> $new_job
| 25> ! ri-mp2 aug-cc-pvtz aug-cc-pvtz/c tightscf
| 26> %pal nprocs 16 end
| 27> %maxcore 3800
| 28> %base "TZ_Si-Si_39_AB"
| 29>
| 30> *xyz 0 1
| 31> Si        -0.908816    0.014119    0.369213
| 32> Si         1.284592   -0.715788    0.013413
| 33> O        -1.958553   -0.930169   -0.471954
| 34> H        -2.871211   -0.999235   -0.187238
| 35> O         2.211616    0.642920   -0.124516
| 36> H         1.359170   -1.551463   -1.208096
| 37> H         1.810680   -1.514575    1.141458
| 38> H         1.740649    1.442098   -0.376326
| 39> O        -0.801880    1.560009   -0.207539
| 40> H        -1.396536    0.076672    1.772133
| 41> H        -1.513088    2.187791   -0.066630
| 42> *
| 43>
| 44> $new_job
| 45> ! ri-mp2 aug-cc-pvqz aug-cc-pvqz/c tightscf
| 46> %pal nprocs 16 end
| 47> %maxcore 3800
| 48> %base "QZ_Si-Si_39_AB"
| 49>
| 50> *xyz 0 1
| 51> Si        -0.908816    0.014119    0.369213
| 52> Si         1.284592   -0.715788    0.013413
| 53> O        -1.958553   -0.930169   -0.471954
| 54> H        -2.871211   -0.999235   -0.187238
| 55> O         2.211616    0.642920   -0.124516
| 56> H         1.359170   -1.551463   -1.208096
| 57> H         1.810680   -1.514575    1.141458
| 58> H         1.740649    1.442098   -0.376326
| 59> O        -0.801880    1.560009   -0.207539
| 60> H        -1.396536    0.076672    1.772133
| 61> H        -1.513088    2.187791   -0.066630
| 62> *
| 63>
| 64>
| 65>
| 66>
| 67>                          ****END OF INPUT****
 Total Charge           Charge          ....    0
 Multiplicity           Mult            ....    1
 Number of Electrons    NEL             ....   58
MP2 TOTAL ENERGY:     -806.918978191 Eh
FINAL SINGLE POINT ENERGY      -806.918978191213
MP2 TOTAL ENERGY:     -807.206895705 Eh
FINAL SINGLE POINT ENERGY      -807.206895704862

CARTESIAN COORDINATES (ANGSTROEM)
---------------------------------
  Si    -0.908816    0.014119    0.369213
  Si     1.284592   -0.715788    0.013413
  O     -1.958553   -0.930169   -0.471954
  H     -2.871211   -0.999235   -0.187238
  O      2.211616    0.642920   -0.124516
  H      1.359170   -1.551463   -1.208096
  H      1.810680   -1.514575    1.141458
  H      1.740649    1.442098   -0.376326
  O     -0.801880    1.560009   -0.207539
  H     -1.396536    0.076672    1.772133
  H     -1.513088    2.187791   -0.066630

 Multiplicity           Mult            ....    1
 Number of Electrons    NEL             ....   58
 Basis Dimension        Dim             ....  684

ORBITAL ENERGIES
----------------

  NO   OCC          E(Eh)            E(eV)
   0   2.0000     -68.806736     -1872.3265
   1   2.0000     -68.780022     -1871.5995
   2   2.0000     -20.566941      -559.6549
   3   2.0000     -20.563828      -559.5702
   4   2.0000     -20.546816      -559.1073
   5   2.0000      -6.148723      -167.3153
   6   2.0000      -6.126187      -166.7020
   7   2.0000      -4.255957      -115.8105
   8   2.0000      -4.255811      -115.8065
   9   2.0000      -4.255304      -115.7927
  10   2.0000      -4.232977      -115.1852
  11   2.0000      -4.232738      -115.1787
  12   2.0000      -4.232495      -115.1721
  13   2.0000      -1.360995       -37.0346
  14   2.0000      -1.341542       -36.5052
  15   2.0000      -1.331677       -36.2368
  16   2.0000      -0.788407       -21.4536
  17   2.0000      -0.737923       -20.0799
  18   2.0000      -0.713104       -19.4046
  19   2.0000      -0.636459       -17.3189
  20   2.0000      -0.631911       -17.1952
  21   2.0000      -0.571826       -15.5602
  22   2.0000      -0.560001       -15.2384
  23   2.0000      -0.547424       -14.8962
  24   2.0000      -0.541098       -14.7240
  25   2.0000      -0.512310       -13.9407
  26   2.0000      -0.491066       -13.3626
  27   2.0000      -0.451242       -12.2789
  28   2.0000      -0.395748       -10.7688
  29   0.0000       0.017592         0.4787
  30   0.0000       0.032285         0.8785
  31   0.0000       0.034456         0.9376
  32   0.0000       0.041388         1.1262
  33   0.0000       0.050581         1.3764

MULLIKEN ATOMIC CHARGES
-----------------------
   0 Si:    1.414289
   1 Si:    0.955953
   2 O :   -0.919302
   3 H :    0.342293
   4 O :   -0.950363
   5 H :   -0.202427
   6 H :   -0.222330
   7 H :    0.381306
   8 O :   -0.877830
   9 H :   -0.247590
  10 H :    0.326001
Sum of atomic charges:   -0.0000000

LOEWDIN ATOMIC CHARGES
----------------------
   0 Si:   -0.111128
   1 Si:    0.508810
   2 O :    1.055318
   3 H :   -0.900686
   4 O :    1.034623
   5 H :   -0.280738
   6 H :   -0.290009
   7 H :   -0.949766
   8 O :    1.060576
   9 H :   -0.245999
  10 H :   -0.881001

  Mayer bond orders larger than 0.100000
B(  0-Si,  1-Si) :   0.9686 B(  0-Si,  2-O ) :   0.5466 B(  0-Si,  8-O ) :   0.5585
B(  0-Si,  9-H ) :   0.8997 B(  1-Si,  4-O ) :   0.5044 B(  1-Si,  5-H ) :   0.8512
B(  1-Si,  6-H ) :   0.8731 B(  2-O ,  3-H ) :   0.9059 B(  4-O ,  7-H ) :   0.8938
B(  8-O , 10-H ) :   0.9171

MP2 TOTAL ENERGY:     -807.300955030 Eh
FINAL SINGLE POINT ENERGY      -807.300955029870

DIPOLE MOMENT
-------------
                                X             Y             Z
Electronic contribution:     -0.49622       0.72665      -0.64216
Nuclear contribution   :     -0.89125      -0.29259       1.02725
                        -----------------------------------------
Total Dipole Moment    :     -1.38747       0.43406       0.38509
                        -----------------------------------------
Magnitude (a.u.)       :      1.50392
Magnitude (Debye)      :      3.82266

Rotational constants in cm-1:     0.167161     0.066170     0.051595
Rotational constants in MHz :  5011.354691  1983.727931  1546.770635

                             ****ORCA TERMINATED NORMALLY****
TOTAL RUN TIME: 0 days 0 hours 41 minutes 51 seconds 338 msec
