                         Program Version 5.0.4 -  RELEASE  -
|  1> ! ri-mp2 aug-cc-pvdz aug-cc-pvdz/c tightscf
|  2> %pal nprocs 16 end
|  3> %maxcore 3800
|  4> %base "DZ_Si-Cl_42_AB"
|  5>
|  6> *xyz 0 1
|  7> C        -0.457264    1.543984    0.072906
|  8> C        -1.781437    1.720843   -0.290722
|  9> C        -2.639757    0.636849   -0.352556
| 10> C        -2.143117   -0.611322   -0.044368
| 11> C        -0.830982   -0.813204    0.319603
| 12> C         0.034258    0.276909    0.379765
| 13> H         0.198401    2.404295    0.117942
| 14> H        -2.151620    2.709363   -0.526747
| 15> Si         1.814448    0.039737    0.842767
| 16> F        -2.971004   -1.667412   -0.098369
| 17> H        -3.678549    0.744806   -0.631329
| 18> H        -0.502182   -1.818100    0.551434
| 19> Cl         2.945319   -0.369395   -0.831109
| 20> H         1.958567   -1.108871    1.754661
| 21> H         2.351533    1.274241    1.441694
| 22> *
| 23>
| 24> $new_job
| 25> ! ri-mp2 aug-cc-pvtz aug-cc-pvtz/c tightscf
| 26> %pal nprocs 16 end
| 27> %maxcore 3800
| 28> %base "TZ_Si-Cl_42_AB"
| 29>
| 30> *xyz 0 1
| 31> C        -0.457264    1.543984    0.072906
| 32> C        -1.781437    1.720843   -0.290722
| 33> C        -2.639757    0.636849   -0.352556
| 34> C        -2.143117   -0.611322   -0.044368
| 35> C        -0.830982   -0.813204    0.319603
| 36> C         0.034258    0.276909    0.379765
| 37> H         0.198401    2.404295    0.117942
| 38> H        -2.151620    2.709363   -0.526747
| 39> Si         1.814448    0.039737    0.842767
| 40> F        -2.971004   -1.667412   -0.098369
| 41> H        -3.678549    0.744806   -0.631329
| 42> H        -0.502182   -1.818100    0.551434
| 43> Cl         2.945319   -0.369395   -0.831109
| 44> H         1.958567   -1.108871    1.754661
| 45> H         2.351533    1.274241    1.441694
| 46> *
| 47>
| 48> $new_job
| 49> ! ri-mp2 aug-cc-pvqz aug-cc-pvqz/c tightscf
| 50> %pal nprocs 16 end
| 51> %maxcore 3800
| 52> %base "QZ_Si-Cl_42_AB"
| 53>
| 54> *xyz 0 1
| 55> C        -0.457264    1.543984    0.072906
| 56> C        -1.781437    1.720843   -0.290722
| 57> C        -2.639757    0.636849   -0.352556
| 58> C        -2.143117   -0.611322   -0.044368
| 59> C        -0.830982   -0.813204    0.319603
| 60> C         0.034258    0.276909    0.379765
| 61> H         0.198401    2.404295    0.117942
| 62> H        -2.151620    2.709363   -0.526747
| 63> Si         1.814448    0.039737    0.842767
| 64> F        -2.971004   -1.667412   -0.098369
| 65> H        -3.678549    0.744806   -0.631329
| 66> H        -0.502182   -1.818100    0.551434
| 67> Cl         2.945319   -0.369395   -0.831109
| 68> H         1.958567   -1.108871    1.754661
| 69> H         2.351533    1.274241    1.441694
| 70> *
| 71>
| 72>
| 73>
| 74>
| 75>                          ****END OF INPUT****
 Total Charge           Charge          ....    0
 Multiplicity           Mult            ....    1
 Number of Electrons    NEL             ....   82
MP2 TOTAL ENERGY:    -1079.917743666 Eh
FINAL SINGLE POINT ENERGY     -1079.917743665772
MP2 TOTAL ENERGY:    -1080.300243422 Eh
FINAL SINGLE POINT ENERGY     -1080.300243421632

CARTESIAN COORDINATES (ANGSTROEM)
---------------------------------
  C     -0.457264    1.543984    0.072906
  C     -1.781437    1.720843   -0.290722
  C     -2.639757    0.636849   -0.352556
  C     -2.143117   -0.611322   -0.044368
  C     -0.830982   -0.813204    0.319603
  C      0.034258    0.276909    0.379765
  H      0.198401    2.404295    0.117942
  H     -2.151620    2.709363   -0.526747
  Si     1.814448    0.039737    0.842767
  F     -2.971004   -1.667412   -0.098369
  H     -3.678549    0.744806   -0.631329
  H     -0.502182   -1.818100    0.551434
  Cl     2.945319   -0.369395   -0.831109
  H      1.958567   -1.108871    1.754661
  H      2.351533    1.274241    1.441694

 Multiplicity           Mult            ....    1
 Number of Electrons    NEL             ....   82
 Basis Dimension        Dim             .... 1004

ORBITAL ENERGIES
----------------

  NO   OCC          E(Eh)            E(eV)
   0   2.0000    -104.824731     -2852.4259
   1   2.0000     -68.817479     -1872.6188
   2   2.0000     -26.313171      -716.0178
   3   2.0000     -11.334256      -308.4208
   4   2.0000     -11.256328      -306.3003
   5   2.0000     -11.255748      -306.2845
   6   2.0000     -11.254438      -306.2488
   7   2.0000     -11.252443      -306.1945
   8   2.0000     -11.245026      -305.9927
   9   2.0000     -10.552233      -287.1409
  10   2.0000      -8.019021      -218.2087
  11   2.0000      -8.017920      -218.1787
  12   2.0000      -8.017911      -218.1785
  13   2.0000      -6.163149      -167.7078
  14   2.0000      -4.270095      -116.1952
  15   2.0000      -4.269269      -116.1727
  16   2.0000      -4.269014      -116.1658
  17   2.0000      -1.634627       -44.4805
  18   2.0000      -1.179323       -32.0910
  19   2.0000      -1.095673       -29.8148
  20   2.0000      -1.044822       -28.4310
  21   2.0000      -1.035269       -28.1711
  22   2.0000      -0.868115       -23.6226
  23   2.0000      -0.853894       -23.2356
  24   2.0000      -0.764700       -20.8085
  25   2.0000      -0.715588       -19.4721
  26   2.0000      -0.702436       -19.1143
  27   2.0000      -0.699563       -19.0361
  28   2.0000      -0.696524       -18.9534
  29   2.0000      -0.627191       -17.0667
  30   2.0000      -0.609148       -16.5758
  31   2.0000      -0.580859       -15.8060
  32   2.0000      -0.541029       -14.7221
  33   2.0000      -0.536635       -14.6026
  34   2.0000      -0.527346       -14.3498
  35   2.0000      -0.512791       -13.9538
  36   2.0000      -0.496972       -13.5233
  37   2.0000      -0.450230       -12.2514
  38   2.0000      -0.447055       -12.1650
  39   2.0000      -0.365057        -9.9337
  40   2.0000      -0.352392        -9.5891
  41   0.0000       0.020796         0.5659
  42   0.0000       0.028265         0.7691
  43   0.0000       0.031163         0.8480
  44   0.0000       0.037670         1.0251
  45   0.0000       0.041143         1.1196

MULLIKEN ATOMIC CHARGES
-----------------------
   0 C :   -0.370803
   1 C :   -0.437914
   2 C :   -0.542547
   3 C :    1.015580
   4 C :   -0.600297
   5 C :   -0.024778
   6 H :    0.311687
   7 H :    0.217555
   8 Si:    1.434530
   9 F :   -0.765414
  10 H :    0.451086
  11 H :    0.427654
  12 Cl:   -0.614504
  13 H :   -0.249331
  14 H :   -0.252506
Sum of atomic charges:   -0.0000000

LOEWDIN ATOMIC CHARGES
----------------------
   0 C :    0.242762
   1 C :    0.335771
   2 C :    0.304934
   3 C :   -0.689091
   4 C :    0.203950
   5 C :   -0.178933
   6 H :   -0.342126
   7 H :   -0.315218
   8 Si:   -0.030002
   9 F :    0.786156
  10 H :   -0.324146
  11 H :   -0.344401
  12 Cl:    0.895864
  13 H :   -0.273147
  14 H :   -0.272372

  Mayer bond orders larger than 0.100000
B(  0-C ,  1-C ) :   1.2796 B(  0-C ,  3-C ) :   0.1296 B(  0-C ,  5-C ) :   0.9188
B(  0-C ,  6-H ) :   0.9372 B(  0-C ,  7-H ) :  -0.1456 B(  1-C ,  2-C ) :   1.2440
B(  1-C ,  3-C ) :  -0.1789 B(  1-C ,  4-C ) :   0.1106 B(  1-C ,  5-C ) :  -0.2677
B(  1-C ,  7-H ) :   1.1577 B(  2-C ,  3-C ) :   1.3425 B(  2-C ,  4-C ) :   0.1706
B(  2-C ,  9-F ) :   0.1829 B(  2-C , 10-H ) :   0.7848 B(  3-C ,  4-C ) :   1.5341
B(  3-C ,  5-C ) :  -0.3283 B(  4-C ,  5-C ) :   0.9958 B(  4-C ,  8-Si) :  -0.1465
B(  4-C ,  9-F ) :   0.1001 B(  4-C , 11-H ) :   0.7728 B(  5-C ,  6-H ) :  -0.1262
B(  5-C ,  8-Si) :   1.0597 B(  5-C , 11-H ) :  -0.1434 B(  5-C , 14-H ) :  -0.1169
B(  8-Si, 12-Cl) :   0.3737 B(  8-Si, 13-H ) :   0.7594 B(  8-Si, 14-H ) :   0.7558

MP2 TOTAL ENERGY:    -1080.425298858 Eh
FINAL SINGLE POINT ENERGY     -1080.425298857761

DIPOLE MOMENT
-------------
                                X             Y             Z
Electronic contribution:      2.75140      -5.40357      -3.40853
Nuclear contribution   :     -3.08060       6.11452       3.77949
                        -----------------------------------------
Total Dipole Moment    :     -0.32920       0.71095       0.37097
                        -----------------------------------------
Magnitude (a.u.)       :      0.86686
Magnitude (Debye)      :      2.20337

Rotational constants in cm-1:     0.078129     0.020073     0.017863
Rotational constants in MHz :  2342.240959   601.777763   535.533049

                             ****ORCA TERMINATED NORMALLY****
TOTAL RUN TIME: 0 days 0 hours 26 minutes 0 seconds 619 msec
