                         Program Version 5.0.4 -  RELEASE  -
|  1> ! ri-mp2 aug-cc-pvdz aug-cc-pvdz/c tightscf
|  2> %pal nprocs 16 end
|  3> %maxcore 3800
|  4> %base "DZ_B-F_18_AB"
|  5> %scf
|  6> STABPerform true
|  7> STABRestartUHFifUnstable true
|  8> end
|  9>
| 10> *xyz 0 1
| 11> F         1.753236   -0.670439    0.000004
| 12> F         0.695568    1.305581    0.000008
| 13> B         0.603936   -0.013926    0.000008
| 14> C        -0.759728   -0.763187   -0.000007
| 15> C        -2.001444    0.123110   -0.000009
| 16> H        -0.762438   -1.436697   -0.863704
| 17> H        -2.026493    0.769825    0.877153
| 18> H        -2.914022   -0.472443   -0.000018
| 19> H        -2.026483    0.769834   -0.877165
| 20> H        -0.762449   -1.436708    0.863682
| 21> *
| 22>
| 23> $new_job
| 24> ! ri-mp2 aug-cc-pvtz aug-cc-pvtz/c tightscf
| 25> %pal nprocs 16 end
| 26> %maxcore 3800
| 27> %base "TZ_B-F_18_AB"
| 28>
| 29> *xyz 0 1
| 30> F         1.753236   -0.670439    0.000004
| 31> F         0.695568    1.305581    0.000008
| 32> B         0.603936   -0.013926    0.000008
| 33> C        -0.759728   -0.763187   -0.000007
| 34> C        -2.001444    0.123110   -0.000009
| 35> H        -0.762438   -1.436697   -0.863704
| 36> H        -2.026493    0.769825    0.877153
| 37> H        -2.914022   -0.472443   -0.000018
| 38> H        -2.026483    0.769834   -0.877165
| 39> H        -0.762449   -1.436708    0.863682
| 40> *
| 41>
| 42> $new_job
| 43> ! ri-mp2 aug-cc-pvqz aug-cc-pvqz/c tightscf
| 44> %pal nprocs 16 end
| 45> %maxcore 3800
| 46> %base "QZ_B-F_18_AB"
| 47>
| 48> *xyz 0 1
| 49> F         1.753236   -0.670439    0.000004
| 50> F         0.695568    1.305581    0.000008
| 51> B         0.603936   -0.013926    0.000008
| 52> C        -0.759728   -0.763187   -0.000007
| 53> C        -2.001444    0.123110   -0.000009
| 54> H        -0.762438   -1.436697   -0.863704
| 55> H        -2.026493    0.769825    0.877153
| 56> H        -2.914022   -0.472443   -0.000018
| 57> H        -2.026483    0.769834   -0.877165
| 58> H        -0.762449   -1.436708    0.863682
| 59> *
| 60>
| 61>
| 62>
| 63>
| 64>                          ****END OF INPUT****
 Total Charge           Charge          ....    0
 Multiplicity           Mult            ....    1
 Number of Electrons    NEL             ....   40
MP2 TOTAL ENERGY:     -303.160690415 Eh
FINAL SINGLE POINT ENERGY      -303.160690415107
MP2 TOTAL ENERGY:     -303.435368518 Eh
FINAL SINGLE POINT ENERGY      -303.435368518310

CARTESIAN COORDINATES (ANGSTROEM)
---------------------------------
  F      1.753236   -0.670439    0.000004
  F      0.695568    1.305581    0.000008
  B      0.603936   -0.013926    0.000008
  C     -0.759728   -0.763187   -0.000007
  C     -2.001444    0.123110   -0.000009
  H     -0.762438   -1.436697   -0.863704
  H     -2.026493    0.769825    0.877153
  H     -2.914022   -0.472443   -0.000018
  H     -2.026483    0.769834   -0.877165
  H     -0.762449   -1.436708    0.863682

 Multiplicity           Mult            ....    1
 Number of Electrons    NEL             ....   40
 Basis Dimension        Dim             ....  630

ORBITAL ENERGIES
----------------

  NO   OCC          E(Eh)            E(eV)
   0   2.0000     -26.304939      -715.7938
   1   2.0000     -26.303404      -715.7520
   2   2.0000     -11.224271      -305.4279
   3   2.0000     -11.219648      -305.3021
   4   2.0000      -7.698288      -209.4811
   5   2.0000      -1.638553       -44.5873
   6   2.0000      -1.605009       -43.6745
   7   2.0000      -1.041011       -28.3273
   8   2.0000      -0.873525       -23.7698
   9   2.0000      -0.807121       -21.9629
  10   2.0000      -0.754134       -20.5210
  11   2.0000      -0.715739       -19.4762
  12   2.0000      -0.709773       -19.3139
  13   2.0000      -0.653246       -17.7757
  14   2.0000      -0.645938       -17.5769
  15   2.0000      -0.612093       -16.6559
  16   2.0000      -0.589716       -16.0470
  17   2.0000      -0.526670       -14.3314
  18   2.0000      -0.503377       -13.6976
  19   2.0000      -0.483741       -13.1633
  20   0.0000       0.023166         0.6304
  21   0.0000       0.033658         0.9159
  22   0.0000       0.034779         0.9464
  23   0.0000       0.035621         0.9693
  24   0.0000       0.051816         1.4100

MULLIKEN ATOMIC CHARGES
-----------------------
   0 F :   -0.833979
   1 F :   -0.799268
   2 B :    1.631307
   3 C :   -0.465625
   4 C :   -0.818891
   5 H :    0.272042
   6 H :    0.237572
   7 H :    0.267229
   8 H :    0.237571
   9 H :    0.272042
Sum of atomic charges:    0.0000000

LOEWDIN ATOMIC CHARGES
----------------------
   0 F :    0.821912
   1 F :    0.834536
   2 B :   -1.680504
   3 C :    0.593038
   4 C :    0.895323
   5 H :   -0.304218
   6 H :   -0.286738
   7 H :   -0.282392
   8 H :   -0.286738
   9 H :   -0.304218

  Mayer bond orders larger than 0.100000
B(  0-F ,  2-B ) :   0.2880 B(  1-F ,  2-B ) :   0.3769 B(  1-F ,  3-C ) :  -0.1460
B(  2-B ,  3-C ) :   0.9854 B(  3-C ,  4-C ) :   0.9678 B(  3-C ,  5-H ) :   0.8817
B(  3-C ,  9-H ) :   0.8817 B(  4-C ,  6-H ) :   0.9413 B(  4-C ,  7-H ) :   0.9458
B(  4-C ,  8-H ) :   0.9413

MP2 TOTAL ENERGY:     -303.521176489 Eh
FINAL SINGLE POINT ENERGY      -303.521176488574

DIPOLE MOMENT
-------------
                                X             Y             Z
Electronic contribution:     10.34208       2.00626       0.00007
Nuclear contribution   :    -10.99518      -2.33684      -0.00007
                        -----------------------------------------
Total Dipole Moment    :     -0.65309      -0.33057       0.00000
                        -----------------------------------------
Magnitude (a.u.)       :      0.73199
Magnitude (Debye)      :      1.86057

Rotational constants in cm-1:     0.297569     0.115457     0.085768
Rotational constants in MHz :  8920.902041  3461.323777  2571.267850

                             ****ORCA TERMINATED NORMALLY****
TOTAL RUN TIME: 0 days 0 hours 29 minutes 36 seconds 379 msec
