                         Program Version 5.0.4 -  RELEASE  -
|  1> ! ri-mp2 aug-cc-pvdz aug-cc-pvdz/c tightscf
|  2> %pal nprocs 16 end
|  3> %maxcore 3800
|  4> %base "DZ_P-S_4_AB"
|  5> %scf
|  6> STABPerform true
|  7> STABRestartUHFifUnstable true
|  8> end
|  9>
| 10> *xyz 0 1
| 11> S        -0.681418   -0.971315   -0.910421
| 12> P        -2.071692    0.272015    0.082323
| 13> O        -1.914069    1.673958   -0.265861
| 14> O        -2.059261   -0.109510    1.612436
| 15> O         0.631508    0.070640   -0.993891
| 16> C         1.497909    0.094546    0.054062
| 17> F         0.849615    0.434979    1.198799
| 18> Cl         2.689011    1.331445   -0.297020
| 19> Cl         2.276298   -1.472050    0.356194
| 20> H        -1.312868    0.272243    2.090826
| 21> O        -3.403705   -0.479970   -0.320157
| 22> H        -3.789089   -0.144171   -1.138680
| 23> *
| 24>
| 25> $new_job
| 26> ! ri-mp2 aug-cc-pvtz aug-cc-pvtz/c tightscf
| 27> %pal nprocs 16 end
| 28> %maxcore 3800
| 29> %base "TZ_P-S_4_AB"
| 30>
| 31> *xyz 0 1
| 32> S        -0.681418   -0.971315   -0.910421
| 33> P        -2.071692    0.272015    0.082323
| 34> O        -1.914069    1.673958   -0.265861
| 35> O        -2.059261   -0.109510    1.612436
| 36> O         0.631508    0.070640   -0.993891
| 37> C         1.497909    0.094546    0.054062
| 38> F         0.849615    0.434979    1.198799
| 39> Cl         2.689011    1.331445   -0.297020
| 40> Cl         2.276298   -1.472050    0.356194
| 41> H        -1.312868    0.272243    2.090826
| 42> O        -3.403705   -0.479970   -0.320157
| 43> H        -3.789089   -0.144171   -1.138680
| 44> *
| 45>
| 46> $new_job
| 47> ! ri-mp2 aug-cc-pvqz aug-cc-pvqz/c tightscf
| 48> %pal nprocs 16 end
| 49> %maxcore 3800
| 50> %base "QZ_P-S_4_AB"
| 51>
| 52> *xyz 0 1
| 53> S        -0.681418   -0.971315   -0.910421
| 54> P        -2.071692    0.272015    0.082323
| 55> O        -1.914069    1.673958   -0.265861
| 56> O        -2.059261   -0.109510    1.612436
| 57> O         0.631508    0.070640   -0.993891
| 58> C         1.497909    0.094546    0.054062
| 59> F         0.849615    0.434979    1.198799
| 60> Cl         2.689011    1.331445   -0.297020
| 61> Cl         2.276298   -1.472050    0.356194
| 62> H        -1.312868    0.272243    2.090826
| 63> O        -3.403705   -0.479970   -0.320157
| 64> H        -3.789089   -0.144171   -1.138680
| 65> *
| 66>
| 67>
| 68>
| 69>
| 70>                          ****END OF INPUT****
 Total Charge           Charge          ....    0
 Multiplicity           Mult            ....    1
 Number of Electrons    NEL             ....  114
MP2 TOTAL ENERGY:    -2096.990389206 Eh
FINAL SINGLE POINT ENERGY     -2096.990389206101
MP2 TOTAL ENERGY:    -2097.609981199 Eh
FINAL SINGLE POINT ENERGY     -2097.609981199379

CARTESIAN COORDINATES (ANGSTROEM)
---------------------------------
  S     -0.681418   -0.971315   -0.910421
  P     -2.071692    0.272015    0.082323
  O     -1.914069    1.673958   -0.265861
  O     -2.059261   -0.109510    1.612436
  O      0.631508    0.070640   -0.993891
  C      1.497909    0.094546    0.054062
  F      0.849615    0.434979    1.198799
  Cl     2.689011    1.331445   -0.297020
  Cl     2.276298   -1.472050    0.356194
  H     -1.312868    0.272243    2.090826
  O     -3.403705   -0.479970   -0.320157
  H     -3.789089   -0.144171   -1.138680

 Multiplicity           Mult            ....    1
 Number of Electrons    NEL             ....  114
 Basis Dimension        Dim             ....  908

ORBITAL ENERGIES
----------------

  NO   OCC          E(Eh)            E(eV)
   0   2.0000    -104.873497     -2853.7529
   1   2.0000    -104.873358     -2853.7492
   2   2.0000     -92.043654     -2504.6352
   3   2.0000     -80.111084     -2179.9334
   4   2.0000     -26.362495      -717.3600
   5   2.0000     -20.657885      -562.1296
   6   2.0000     -20.631841      -561.4209
   7   2.0000     -20.622810      -561.1752
   8   2.0000     -20.533540      -558.7460
   9   2.0000     -11.531580      -313.7902
  10   2.0000     -10.599598      -288.4297
  11   2.0000     -10.599526      -288.4278
  12   2.0000      -9.041472      -246.0310
  13   2.0000      -8.066641      -219.5045
  14   2.0000      -8.066508      -219.5009
  15   2.0000      -8.064561      -219.4479
  16   2.0000      -8.064551      -219.4476
  17   2.0000      -8.064542      -219.4474
  18   2.0000      -8.064541      -219.4473
  19   2.0000      -7.631593      -207.6662
  20   2.0000      -6.722788      -182.9364
  21   2.0000      -6.720984      -182.8873
  22   2.0000      -6.720089      -182.8629
  23   2.0000      -5.530055      -150.4805
  24   2.0000      -5.529460      -150.4643
  25   2.0000      -5.528447      -150.4367
  26   2.0000      -1.696233       -46.1568
  27   2.0000      -1.477655       -40.2091
  28   2.0000      -1.469086       -39.9759
  29   2.0000      -1.413451       -38.4619
  30   2.0000      -1.328881       -36.1607
  31   2.0000      -1.202654       -32.7259
  32   2.0000      -1.134095       -30.8603
  33   2.0000      -1.022759       -27.8307
  34   2.0000      -0.913046       -24.8452
  35   2.0000      -0.872664       -23.7464
  36   2.0000      -0.799083       -21.7442
  37   2.0000      -0.775882       -21.1128
  38   2.0000      -0.768435       -20.9102
  39   2.0000      -0.743076       -20.2201
  40   2.0000      -0.715877       -19.4800
  41   2.0000      -0.685318       -18.6485
  42   2.0000      -0.663097       -18.0438
  43   2.0000      -0.652892       -17.7661
  44   2.0000      -0.628428       -17.1004
  45   2.0000      -0.619751       -16.8643
  46   2.0000      -0.595379       -16.2011
  47   2.0000      -0.585846       -15.9417
  48   2.0000      -0.552970       -15.0471
  49   2.0000      -0.519180       -14.1276
  50   2.0000      -0.516382       -14.0515
  51   2.0000      -0.501565       -13.6483
  52   2.0000      -0.496386       -13.5073
  53   2.0000      -0.486957       -13.2508
  54   2.0000      -0.470427       -12.8010
  55   2.0000      -0.457317       -12.4442
  56   2.0000      -0.415716       -11.3122
  57   0.0000       0.023041         0.6270
  58   0.0000       0.033510         0.9119
  59   0.0000       0.044754         1.2178
  60   0.0000       0.049702         1.3525
  61   0.0000       0.062082         1.6893

MULLIKEN ATOMIC CHARGES
-----------------------
   0 S :    0.222444
   1 P :    2.394109
   2 O :   -1.114849
   3 O :   -0.881310
   4 O :   -0.659157
   5 C :    1.155396
   6 F :   -0.573130
   7 Cl:   -0.162623
   8 Cl:   -0.193428
   9 H :    0.408136
  10 O :   -0.987284
  11 H :    0.391696
Sum of atomic charges:    0.0000000

LOEWDIN ATOMIC CHARGES
----------------------
   0 S :    0.776153
   1 P :   -1.080561
   2 O :    0.258688
   3 O :    1.056585
   4 O :    0.063311
   5 C :   -3.021061
   6 F :    0.627889
   7 Cl:    1.050768
   8 Cl:    1.009107
   9 H :   -0.920827
  10 O :    1.042381
  11 H :   -0.862433

  Mayer bond orders larger than 0.100000
B(  0-S ,  1-P ) :   0.9127 B(  0-S ,  4-O ) :   0.7237 B(  1-P ,  2-O ) :   1.4050
B(  1-P ,  3-O ) :   0.6699 B(  1-P , 10-O ) :   0.5384 B(  3-O ,  9-H ) :   0.8667
B(  4-O ,  5-C ) :   0.8901 B(  5-C ,  6-F ) :   0.4561 B(  5-C ,  7-Cl) :   0.8007
B(  5-C ,  8-Cl) :   0.8405 B( 10-O , 11-H ) :   0.9017

MP2 TOTAL ENERGY:    -2097.814656407 Eh
FINAL SINGLE POINT ENERGY     -2097.814656407290

DIPOLE MOMENT
-------------
                                X             Y             Z
Electronic contribution:     10.16185      -0.48306       0.29290
Nuclear contribution   :    -10.34248      -0.28851      -0.33949
                        -----------------------------------------
Total Dipole Moment    :     -0.18062      -0.77157      -0.04659
                        -----------------------------------------
Magnitude (a.u.)       :      0.79380
Magnitude (Debye)      :      2.01768

Rotational constants in cm-1:     0.047833     0.015465     0.014199
Rotational constants in MHz :  1433.990642   463.643041   425.679286

                             ****ORCA TERMINATED NORMALLY****
TOTAL RUN TIME: 0 days 1 hours 25 minutes 10 seconds 854 msec
