                         Program Version 5.0.4 -  RELEASE  -
|  1> ! ri-mp2 aug-cc-pvdz aug-cc-pvdz/c tightscf
|  2> %pal nprocs 16 end
|  3> %maxcore 3800
|  4> %base "DZ_B-F_24_AB"
|  5> %scf
|  6> STABPerform true
|  7> STABRestartUHFifUnstable true
|  8> end
|  9>
| 10> *xyz 0 1
| 11> F         1.730630    1.211378   -0.048374
| 12> F         1.924713   -1.050095    0.007997
| 13> B         1.195389    0.023841   -0.024596
| 14> S        -0.682836   -0.153382    0.039211
| 15> O        -1.090825   -1.207162   -0.818956
| 16> O        -1.041086   -0.111936    1.423942
| 17> O        -1.187540    1.198335   -0.629739
| 18> H        -1.394048    1.849468    0.057025
| 19> *
| 20>
| 21> $new_job
| 22> ! ri-mp2 aug-cc-pvtz aug-cc-pvtz/c tightscf
| 23> %pal nprocs 16 end
| 24> %maxcore 3800
| 25> %base "TZ_B-F_24_AB"
| 26>
| 27> *xyz 0 1
| 28> F         1.730630    1.211378   -0.048374
| 29> F         1.924713   -1.050095    0.007997
| 30> B         1.195389    0.023841   -0.024596
| 31> S        -0.682836   -0.153382    0.039211
| 32> O        -1.090825   -1.207162   -0.818956
| 33> O        -1.041086   -0.111936    1.423942
| 34> O        -1.187540    1.198335   -0.629739
| 35> H        -1.394048    1.849468    0.057025
| 36> *
| 37>
| 38> $new_job
| 39> ! ri-mp2 aug-cc-pvqz aug-cc-pvqz/c tightscf
| 40> %pal nprocs 16 end
| 41> %maxcore 3800
| 42> %base "QZ_B-F_24_AB"
| 43>
| 44> *xyz 0 1
| 45> F         1.730630    1.211378   -0.048374
| 46> F         1.924713   -1.050095    0.007997
| 47> B         1.195389    0.023841   -0.024596
| 48> S        -0.682836   -0.153382    0.039211
| 49> O        -1.090825   -1.207162   -0.818956
| 50> O        -1.041086   -0.111936    1.423942
| 51> O        -1.187540    1.198335   -0.629739
| 52> H        -1.394048    1.849468    0.057025
| 53> *
| 54>
| 55>
| 56>
| 57>
| 58>                          ****END OF INPUT****
 Total Charge           Charge          ....    0
 Multiplicity           Mult            ....    1
 Number of Electrons    NEL             ....   64
MP2 TOTAL ENERGY:     -847.573553875 Eh
FINAL SINGLE POINT ENERGY      -847.573553874946
MP2 TOTAL ENERGY:     -848.058820015 Eh
FINAL SINGLE POINT ENERGY      -848.058820014977

CARTESIAN COORDINATES (ANGSTROEM)
---------------------------------
  F      1.730630    1.211378   -0.048374
  F      1.924713   -1.050095    0.007997
  B      1.195389    0.023841   -0.024596
  S     -0.682836   -0.153382    0.039211
  O     -1.090825   -1.207162   -0.818956
  O     -1.041086   -0.111936    1.423942
  O     -1.187540    1.198335   -0.629739
  H     -1.394048    1.849468    0.057025

 Multiplicity           Mult            ....    1
 Number of Electrons    NEL             ....   64
 Basis Dimension        Dim             ....  610

ORBITAL ENERGIES
----------------

  NO   OCC          E(Eh)            E(eV)
   0   2.0000     -92.226584     -2509.6129
   1   2.0000     -26.372749      -717.6390
   2   2.0000     -26.369283      -717.5447
   3   2.0000     -20.653566      -562.0121
   4   2.0000     -20.584436      -560.1310
   5   2.0000     -20.580159      -560.0146
   6   2.0000      -9.192924      -250.1522
   7   2.0000      -7.791290      -212.0118
   8   2.0000      -6.879365      -187.1970
   9   2.0000      -6.877667      -187.1508
  10   2.0000      -6.877474      -187.1456
  11   2.0000      -1.705734       -46.4154
  12   2.0000      -1.676990       -45.6332
  13   2.0000      -1.539136       -41.8820
  14   2.0000      -1.420345       -38.6496
  15   2.0000      -1.389885       -37.8207
  16   2.0000      -0.955057       -25.9884
  17   2.0000      -0.873943       -23.7812
  18   2.0000      -0.829105       -22.5611
  19   2.0000      -0.821930       -22.3658
  20   2.0000      -0.772774       -21.0282
  21   2.0000      -0.759143       -20.6573
  22   2.0000      -0.721391       -19.6300
  23   2.0000      -0.716167       -19.4879
  24   2.0000      -0.714795       -19.4506
  25   2.0000      -0.705523       -19.1983
  26   2.0000      -0.655662       -17.8415
  27   2.0000      -0.598567       -16.2878
  28   2.0000      -0.555641       -15.1198
  29   2.0000      -0.540492       -14.7075
  30   2.0000      -0.513484       -13.9726
  31   2.0000      -0.492878       -13.4119
  32   0.0000       0.019998         0.5442
  33   0.0000       0.032317         0.8794
  34   0.0000       0.035631         0.9696
  35   0.0000       0.041722         1.1353
  36   0.0000       0.059676         1.6239

MULLIKEN ATOMIC CHARGES
-----------------------
   0 F :   -0.737431
   1 F :   -0.744234
   2 B :    1.606609
   3 S :    2.508471
   4 O :   -1.142640
   5 O :   -1.110428
   6 O :   -0.736687
   7 H :    0.356340
Sum of atomic charges:    0.0000000

LOEWDIN ATOMIC CHARGES
----------------------
   0 F :    0.809970
   1 F :    0.813914
   2 B :   -1.875552
   3 S :   -0.475035
   4 O :    0.276661
   5 O :    0.295672
   6 O :    1.026025
   7 H :   -0.871655

  Mayer bond orders larger than 0.100000
B(  0-F ,  2-B ) :   0.3972 B(  1-F ,  2-B ) :   0.3987 B(  2-B ,  3-S ) :   0.8850
B(  3-S ,  4-O ) :   1.2266 B(  3-S ,  5-O ) :   1.2171 B(  3-S ,  6-O ) :   0.7040
B(  6-O ,  7-H ) :   0.8871

MP2 TOTAL ENERGY:     -848.217587691 Eh
FINAL SINGLE POINT ENERGY      -848.217587690938

DIPOLE MOMENT
-------------
                                X             Y             Z
Electronic contribution:      6.14975      -0.37825      -0.08357
Nuclear contribution   :     -5.55169       1.54912       0.10654
                        -----------------------------------------
Total Dipole Moment    :      0.59806       1.17087       0.02298
                        -----------------------------------------
Magnitude (a.u.)       :      1.31497
Magnitude (Debye)      :      3.34238

Rotational constants in cm-1:     0.113093     0.062906     0.053044
Rotational constants in MHz :  3390.434878  1885.869453  1590.219984

                             ****ORCA TERMINATED NORMALLY****
TOTAL RUN TIME: 0 days 0 hours 22 minutes 8 seconds 62 msec
