                         Program Version 5.0.4 -  RELEASE  -
|  1> ! ri-mp2 aug-cc-pvdz aug-cc-pvdz/c tightscf
|  2> %pal nprocs 16 end
|  3> %maxcore 3800
|  4> %base "DZ_S-F_5_AB"
|  5> %scf
|  6> STABPerform true
|  7> STABRestartUHFifUnstable true
|  8> end
|  9>
| 10> *xyz 0 1
| 11> F        -1.283534    0.529613    0.000015
| 12> N         1.288644    0.355657    0.000000
| 13> S        -0.041322   -0.553121   -0.000009
| 14> H         1.596216    0.796908    0.852815
| 15> H         1.596230    0.796906   -0.852811
| 16> *
| 17>
| 18> $new_job
| 19> ! ri-mp2 aug-cc-pvtz aug-cc-pvtz/c tightscf
| 20> %pal nprocs 16 end
| 21> %maxcore 3800
| 22> %base "TZ_S-F_5_AB"
| 23>
| 24> *xyz 0 1
| 25> F        -1.283534    0.529613    0.000015
| 26> N         1.288644    0.355657    0.000000
| 27> S        -0.041322   -0.553121   -0.000009
| 28> H         1.596216    0.796908    0.852815
| 29> H         1.596230    0.796906   -0.852811
| 30> *
| 31>
| 32> $new_job
| 33> ! ri-mp2 aug-cc-pvqz aug-cc-pvqz/c tightscf
| 34> %pal nprocs 16 end
| 35> %maxcore 3800
| 36> %base "QZ_S-F_5_AB"
| 37>
| 38> *xyz 0 1
| 39> F        -1.283534    0.529613    0.000015
| 40> N         1.288644    0.355657    0.000000
| 41> S        -0.041322   -0.553121   -0.000009
| 42> H         1.596216    0.796908    0.852815
| 43> H         1.596230    0.796906   -0.852811
| 44> *
| 45>
| 46>
| 47>
| 48>
| 49>                          ****END OF INPUT****
 Total Charge           Charge          ....    0
 Multiplicity           Mult            ....    1
 Number of Electrons    NEL             ....   34
MP2 TOTAL ENERGY:     -553.099619962 Eh
FINAL SINGLE POINT ENERGY      -553.099619961600
MP2 TOTAL ENERGY:     -553.291154713 Eh
FINAL SINGLE POINT ENERGY      -553.291154712503

CARTESIAN COORDINATES (ANGSTROEM)
---------------------------------
  F     -1.283534    0.529613    0.000015
  N      1.288644    0.355657    0.000000
  S     -0.041322   -0.553121   -0.000009
  H      1.596216    0.796908    0.852815
  H      1.596230    0.796906   -0.852811

 Multiplicity           Mult            ....    1
 Number of Electrons    NEL             ....   34
 Basis Dimension        Dim             ....  336

ORBITAL ENERGIES
----------------

  NO   OCC          E(Eh)            E(eV)
   0   2.0000     -92.047070     -2504.7281
   1   2.0000     -26.284028      -715.2248
   2   2.0000     -15.608001      -424.7153
   3   2.0000      -9.037678      -245.9277
   4   2.0000      -6.719275      -182.8408
   5   2.0000      -6.717472      -182.7917
   6   2.0000      -6.715918      -182.7494
   7   2.0000      -1.581803       -43.0430
   8   2.0000      -1.237629       -33.6776
   9   2.0000      -0.922142       -25.0927
  10   2.0000      -0.729454       -19.8495
  11   2.0000      -0.708883       -19.2897
  12   2.0000      -0.665335       -18.1047
  13   2.0000      -0.660202       -17.9650
  14   2.0000      -0.539080       -14.6691
  15   2.0000      -0.467748       -12.7281
  16   2.0000      -0.371517       -10.1095
  17   0.0000       0.022531         0.6131
  18   0.0000       0.039296         1.0693
  19   0.0000       0.060772         1.6537
  20   0.0000       0.071991         1.9590
  21   0.0000       0.094431         2.5696

MULLIKEN ATOMIC CHARGES
-----------------------
   0 F :   -0.587914
   1 N :   -0.784226
   2 S :    0.798991
   3 H :    0.286574
   4 H :    0.286575
Sum of atomic charges:    0.0000000

LOEWDIN ATOMIC CHARGES
----------------------
   0 F :    0.020905
   1 N :    0.671026
   2 S :    0.566840
   3 H :   -0.629386
   4 H :   -0.629386

  Mayer bond orders larger than 0.100000
B(  0-F ,  2-S ) :   0.5951 B(  1-N ,  2-S ) :   1.1512 B(  1-N ,  3-H ) :   0.9258
B(  1-N ,  4-H ) :   0.9258

MP2 TOTAL ENERGY:     -553.354467214 Eh
FINAL SINGLE POINT ENERGY      -553.354467213900

DIPOLE MOMENT
-------------
                                X             Y             Z
Electronic contribution:     -3.22918      -0.75233       0.00000
Nuclear contribution   :      4.25394       1.03750      -0.00001
                        -----------------------------------------
Total Dipole Moment    :      1.02477       0.28517      -0.00001
                        -----------------------------------------
Magnitude (a.u.)       :      1.06371
Magnitude (Debye)      :      2.70372

Rotational constants in cm-1:     0.869813     0.275545     0.217160
Rotational constants in MHz : 26076.346162  8260.625136  6510.301972

                             ****ORCA TERMINATED NORMALLY****
TOTAL RUN TIME: 0 days 0 hours 5 minutes 26 seconds 731 msec
