                         Program Version 5.0.4 -  RELEASE  -
|  1> ! ri-mp2 aug-cc-pvdz aug-cc-pvdz/c tightscf
|  2> %pal nprocs 16 end
|  3> %maxcore 3800
|  4> %base "DZ_Si-Cl_19_AB"
|  5>
|  6> *xyz 0 1
|  7> C        -3.275816   -1.005412    0.000000
|  8> C        -2.076452   -1.695155   -0.000002
|  9> C        -0.879783   -0.999329   -0.000001
| 10> C        -3.285071    0.383571    0.000003
| 11> C        -2.095088    1.079139    0.000003
| 12> C        -0.883189    0.390334    0.000001
| 13> H        -4.210902   -1.550003    0.000000
| 14> H        -2.071449   -2.776602   -0.000004
| 15> H         0.055695   -1.538868   -0.000003
| 16> H        -4.225429    0.918140    0.000004
| 17> H        -2.075884    2.160205    0.000005
| 18> C         0.373260    1.164518    0.000001
| 19> Si         2.211137    0.632907   -0.000001
| 20> Cl         2.686699   -1.380361   -0.000002
| 21> O         0.381907    2.381906    0.000003
| 22> H         2.787873    1.215666    1.219098
| 23> H         2.787872    1.215668   -1.219099
| 24> *
| 25>
| 26> $new_job
| 27> ! ri-mp2 aug-cc-pvtz aug-cc-pvtz/c tightscf
| 28> %pal nprocs 16 end
| 29> %maxcore 3800
| 30> %base "TZ_Si-Cl_19_AB"
| 31>
| 32> *xyz 0 1
| 33> C        -3.275816   -1.005412    0.000000
| 34> C        -2.076452   -1.695155   -0.000002
| 35> C        -0.879783   -0.999329   -0.000001
| 36> C        -3.285071    0.383571    0.000003
| 37> C        -2.095088    1.079139    0.000003
| 38> C        -0.883189    0.390334    0.000001
| 39> H        -4.210902   -1.550003    0.000000
| 40> H        -2.071449   -2.776602   -0.000004
| 41> H         0.055695   -1.538868   -0.000003
| 42> H        -4.225429    0.918140    0.000004
| 43> H        -2.075884    2.160205    0.000005
| 44> C         0.373260    1.164518    0.000001
| 45> Si         2.211137    0.632907   -0.000001
| 46> Cl         2.686699   -1.380361   -0.000002
| 47> O         0.381907    2.381906    0.000003
| 48> H         2.787873    1.215666    1.219098
| 49> H         2.787872    1.215668   -1.219099
| 50> *
| 51>
| 52> $new_job
| 53> ! ri-mp2 aug-cc-pvqz aug-cc-pvqz/c tightscf
| 54> %pal nprocs 16 end
| 55> %maxcore 3800
| 56> %base "QZ_Si-Cl_19_AB"
| 57>
| 58> *xyz 0 1
| 59> C        -3.275816   -1.005412    0.000000
| 60> C        -2.076452   -1.695155   -0.000002
| 61> C        -0.879783   -0.999329   -0.000001
| 62> C        -3.285071    0.383571    0.000003
| 63> C        -2.095088    1.079139    0.000003
| 64> C        -0.883189    0.390334    0.000001
| 65> H        -4.210902   -1.550003    0.000000
| 66> H        -2.071449   -2.776602   -0.000004
| 67> H         0.055695   -1.538868   -0.000003
| 68> H        -4.225429    0.918140    0.000004
| 69> H        -2.075884    2.160205    0.000005
| 70> C         0.373260    1.164518    0.000001
| 71> Si         2.211137    0.632907   -0.000001
| 72> Cl         2.686699   -1.380361   -0.000002
| 73> O         0.381907    2.381906    0.000003
| 74> H         2.787873    1.215666    1.219098
| 75> H         2.787872    1.215668   -1.219099
| 76> *
| 77>
| 78>
| 79>
| 80>
| 81>                          ****END OF INPUT****
 Total Charge           Charge          ....    0
 Multiplicity           Mult            ....    1
 Number of Electrons    NEL             ....   88
MP2 TOTAL ENERGY:    -1093.911891726 Eh
FINAL SINGLE POINT ENERGY     -1093.911891726365
MP2 TOTAL ENERGY:    -1094.304153557 Eh
FINAL SINGLE POINT ENERGY     -1094.304153557143

CARTESIAN COORDINATES (ANGSTROEM)
---------------------------------
  C     -3.275816   -1.005412    0.000000
  C     -2.076452   -1.695155   -0.000002
  C     -0.879783   -0.999329   -0.000001
  C     -3.285071    0.383571    0.000003
  C     -2.095088    1.079139    0.000003
  C     -0.883189    0.390334    0.000001
  H     -4.210902   -1.550003    0.000000
  H     -2.071449   -2.776602   -0.000004
  H      0.055695   -1.538868   -0.000003
  H     -4.225429    0.918140    0.000004
  H     -2.075884    2.160205    0.000005
  C      0.373260    1.164518    0.000001
  Si     2.211137    0.632907   -0.000001
  Cl     2.686699   -1.380361   -0.000002
  O      0.381907    2.381906    0.000003
  H      2.787873    1.215666    1.219098
  H      2.787872    1.215668   -1.219099

 Multiplicity           Mult            ....    1
 Number of Electrons    NEL             ....   88
 Basis Dimension        Dim             .... 1130

ORBITAL ENERGIES
----------------

  NO   OCC          E(Eh)            E(eV)
   0   2.0000    -104.835025     -2852.7061
   1   2.0000     -68.826263     -1872.8578
   2   2.0000     -20.565896      -559.6265
   3   2.0000     -11.333922      -308.4117
   4   2.0000     -11.256735      -306.3113
   5   2.0000     -11.256659      -306.3093
   6   2.0000     -11.252572      -306.1981
   7   2.0000     -11.251361      -306.1651
   8   2.0000     -11.247322      -306.0552
   9   2.0000     -11.246799      -306.0409
  10   2.0000     -10.562579      -287.4224
  11   2.0000      -8.029352      -218.4898
  12   2.0000      -8.028299      -218.4611
  13   2.0000      -8.028249      -218.4598
  14   2.0000      -6.171477      -167.9344
  15   2.0000      -4.278525      -116.4246
  16   2.0000      -4.277193      -116.3883
  17   2.0000      -4.277080      -116.3853
  18   2.0000      -1.405657       -38.2499
  19   2.0000      -1.178977       -32.0816
  20   2.0000      -1.105363       -30.0785
  21   2.0000      -1.053479       -28.6666
  22   2.0000      -1.038159       -28.2497
  23   2.0000      -0.891114       -24.2484
  24   2.0000      -0.850523       -23.1439
  25   2.0000      -0.799133       -21.7455
  26   2.0000      -0.747651       -20.3446
  27   2.0000      -0.703062       -19.1313
  28   2.0000      -0.659097       -17.9349
  29   2.0000      -0.652407       -17.7529
  30   2.0000      -0.626558       -17.0495
  31   2.0000      -0.609742       -16.5919
  32   2.0000      -0.587470       -15.9859
  33   2.0000      -0.578032       -15.7290
  34   2.0000      -0.533048       -14.5050
  35   2.0000      -0.530862       -14.4455
  36   2.0000      -0.529237       -14.4013
  37   2.0000      -0.514004       -13.9868
  38   2.0000      -0.508425       -13.8349
  39   2.0000      -0.479961       -13.0604
  40   2.0000      -0.455585       -12.3971
  41   2.0000      -0.400609       -10.9011
  42   2.0000      -0.359718        -9.7884
  43   2.0000      -0.355810        -9.6821
  44   0.0000       0.020416         0.5555
  45   0.0000       0.028176         0.7667
  46   0.0000       0.030194         0.8216
  47   0.0000       0.038943         1.0597
  48   0.0000       0.039162         1.0657

MULLIKEN ATOMIC CHARGES
-----------------------
   0 C :   -0.373108
   1 C :   -0.444295
   2 C :   -0.136086
   3 C :   -0.356987
   4 C :   -0.153730
   5 C :   -0.222448
   6 H :    0.309263
   7 H :    0.245980
   8 H :    0.548960
   9 H :    0.267808
  10 H :    0.327744
  11 C :    0.700878
  12 Si:    1.133600
  13 Cl:   -0.696410
  14 O :   -0.869802
  15 H :   -0.140684
  16 H :   -0.140684
Sum of atomic charges:    0.0000000

LOEWDIN ATOMIC CHARGES
----------------------
   0 C :    0.348135
   1 C :    0.356866
   2 C :    0.284526
   3 C :    0.359205
   4 C :    0.310344
   5 C :   -0.193488
   6 H :   -0.313845
   7 H :   -0.317722
   8 H :   -0.439369
   9 H :   -0.318288
  10 H :   -0.336510
  11 C :   -0.711840
  12 Si:   -0.029677
  13 Cl:    0.922109
  14 O :    0.657714
  15 H :   -0.289080
  16 H :   -0.289080

  Mayer bond orders larger than 0.100000
B(  0-C ,  1-C ) :   1.2550 B(  0-C ,  3-C ) :   1.1813 B(  0-C ,  6-H ) :   1.0193
B(  1-C ,  2-C ) :   1.1172 B(  1-C ,  4-C ) :   0.1583 B(  1-C ,  5-C ) :  -0.2784
B(  1-C ,  7-H ) :   1.1177 B(  1-C ,  8-H ) :  -0.1199 B(  2-C ,  5-C ) :   0.9762
B(  2-C ,  7-H ) :  -0.1320 B(  2-C ,  8-H ) :   0.8176 B(  2-C , 11-C ) :  -0.3982
B(  3-C ,  4-C ) :   1.2931 B(  3-C ,  5-C ) :  -0.3095 B(  3-C ,  9-H ) :   1.1018
B(  4-C ,  5-C ) :   1.1190 B(  4-C ,  9-H ) :  -0.1467 B(  4-C , 10-H ) :   0.8660
B(  4-C , 11-C ) :  -0.3417 B(  5-C ,  8-H ) :  -0.1468 B(  5-C , 10-H ) :  -0.1094
B(  5-C , 11-C ) :   0.7810 B(  5-C , 12-Si) :  -0.2072 B(  5-C , 14-O ) :   0.4852
B(  8-H , 13-Cl) :  -0.1293 B( 11-C , 12-Si) :   0.9890 B( 11-C , 14-O ) :   0.8223
B( 12-Si, 13-Cl) :   0.3418 B( 12-Si, 15-H ) :   0.8721 B( 12-Si, 16-H ) :   0.8721

MP2 TOTAL ENERGY:    -1094.432519532 Eh
FINAL SINGLE POINT ENERGY     -1094.432519532022

DIPOLE MOMENT
-------------
                                X             Y             Z
Electronic contribution:      9.82514      -2.25912      -0.00001
Nuclear contribution   :    -10.57850       1.56695       0.00000
                        -----------------------------------------
Total Dipole Moment    :     -0.75336      -0.69217      -0.00000
                        -----------------------------------------
Magnitude (a.u.)       :      1.02306
Magnitude (Debye)      :      2.60041

Rotational constants in cm-1:     0.058995     0.020024     0.015030
Rotational constants in MHz :  1768.613097   600.302174   450.575201

                             ****ORCA TERMINATED NORMALLY****
TOTAL RUN TIME: 0 days 0 hours 40 minutes 39 seconds 393 msec
