                         Program Version 5.0.4 -  RELEASE  -
|  1> ! ri-mp2 aug-cc-pvdz aug-cc-pvdz/c tightscf
|  2> %pal nprocs 16 end
|  3> %maxcore 3800
|  4> %base "DZ_P-C_16_AB"
|  5> %scf
|  6> STABPerform true
|  7> STABRestartUHFifUnstable true
|  8> end
|  9>
| 10> *xyz 0 1
| 11> C        -0.649609   -0.000754    0.336162
| 12> P         1.165500   -0.124938    0.030753
| 13> O         1.755421   -1.222896    0.776423
| 14> O         1.728173    1.300469    0.403319
| 15> C        -0.961923    0.000739    1.814201
| 16> H        -0.568412   -0.908657    2.263331
| 17> H        -2.038049    0.050839    1.965736
| 18> H        -0.493066    0.862219    2.287685
| 19> Cl        -1.280204    1.497103   -0.426258
| 20> Cl        -1.410216   -1.414844   -0.448811
| 21> O         1.318034   -0.144446   -1.546341
| 22> H         1.218343   -1.020948   -1.935828
| 23> H         1.392000    2.027294   -0.135425
| 24> *
| 25>
| 26> $new_job
| 27> ! ri-mp2 aug-cc-pvtz aug-cc-pvtz/c tightscf
| 28> %pal nprocs 16 end
| 29> %maxcore 3800
| 30> %base "TZ_P-C_16_AB"
| 31>
| 32> *xyz 0 1
| 33> C        -0.649609   -0.000754    0.336162
| 34> P         1.165500   -0.124938    0.030753
| 35> O         1.755421   -1.222896    0.776423
| 36> O         1.728173    1.300469    0.403319
| 37> C        -0.961923    0.000739    1.814201
| 38> H        -0.568412   -0.908657    2.263331
| 39> H        -2.038049    0.050839    1.965736
| 40> H        -0.493066    0.862219    2.287685
| 41> Cl        -1.280204    1.497103   -0.426258
| 42> Cl        -1.410216   -1.414844   -0.448811
| 43> O         1.318034   -0.144446   -1.546341
| 44> H         1.218343   -1.020948   -1.935828
| 45> H         1.392000    2.027294   -0.135425
| 46> *
| 47>
| 48> $new_job
| 49> ! ri-mp2 aug-cc-pvqz aug-cc-pvqz/c tightscf
| 50> %pal nprocs 16 end
| 51> %maxcore 3800
| 52> %base "QZ_P-C_16_AB"
| 53>
| 54> *xyz 0 1
| 55> C        -0.649609   -0.000754    0.336162
| 56> P         1.165500   -0.124938    0.030753
| 57> O         1.755421   -1.222896    0.776423
| 58> O         1.728173    1.300469    0.403319
| 59> C        -0.961923    0.000739    1.814201
| 60> H        -0.568412   -0.908657    2.263331
| 61> H        -2.038049    0.050839    1.965736
| 62> H        -0.493066    0.862219    2.287685
| 63> Cl        -1.280204    1.497103   -0.426258
| 64> Cl        -1.410216   -1.414844   -0.448811
| 65> O         1.318034   -0.144446   -1.546341
| 66> H         1.218343   -1.020948   -1.935828
| 67> H         1.392000    2.027294   -0.135425
| 68> *
| 69>
| 70>
| 71>
| 72>
| 73>                          ****END OF INPUT****
 Total Charge           Charge          ....    0
 Multiplicity           Mult            ....    1
 Number of Electrons    NEL             ....   90
MP2 TOTAL ENERGY:    -1564.416501446 Eh
FINAL SINGLE POINT ENERGY     -1564.416501446490
MP2 TOTAL ENERGY:    -1564.877220485 Eh
FINAL SINGLE POINT ENERGY     -1564.877220484639

CARTESIAN COORDINATES (ANGSTROEM)
---------------------------------
  C     -0.649609   -0.000754    0.336162
  P      1.165500   -0.124938    0.030753
  O      1.755421   -1.222896    0.776423
  O      1.728173    1.300469    0.403319
  C     -0.961923    0.000739    1.814201
  H     -0.568412   -0.908657    2.263331
  H     -2.038049    0.050839    1.965736
  H     -0.493066    0.862219    2.287685
  Cl    -1.280204    1.497103   -0.426258
  Cl    -1.410216   -1.414844   -0.448811
  O      1.318034   -0.144446   -1.546341
  H      1.218343   -1.020948   -1.935828
  H      1.392000    2.027294   -0.135425

 Multiplicity           Mult            ....    1
 Number of Electrons    NEL             ....   90
 Basis Dimension        Dim             ....  882

ORBITAL ENERGIES
----------------

  NO   OCC          E(Eh)            E(eV)
   0   2.0000    -104.863836     -2853.4900
   1   2.0000    -104.861250     -2853.4197
   2   2.0000     -80.090811     -2179.3818
   3   2.0000     -20.618866      -561.0679
   4   2.0000     -20.618144      -561.0482
   5   2.0000     -20.520165      -558.3821
   6   2.0000     -11.386391      -309.8395
   7   2.0000     -11.255964      -306.2903
   8   2.0000     -10.589774      -288.1624
   9   2.0000     -10.587099      -288.0896
  10   2.0000      -8.056738      -219.2350
  11   2.0000      -8.054999      -219.1877
  12   2.0000      -8.054924      -219.1856
  13   2.0000      -8.054089      -219.1629
  14   2.0000      -8.052261      -219.1132
  15   2.0000      -8.052225      -219.1122
  16   2.0000      -7.613347      -207.1697
  17   2.0000      -5.511916      -149.9869
  18   2.0000      -5.511073      -149.9639
  19   2.0000      -5.510079      -149.9369
  20   2.0000      -1.461357       -39.7655
  21   2.0000      -1.405330       -38.2410
  22   2.0000      -1.319031       -35.8927
  23   2.0000      -1.217594       -33.1324
  24   2.0000      -1.111977       -30.2584
  25   2.0000      -1.024397       -27.8753
  26   2.0000      -0.898704       -24.4550
  27   2.0000      -0.819960       -22.3123
  28   2.0000      -0.783697       -21.3255
  29   2.0000      -0.711333       -19.3564
  30   2.0000      -0.672263       -18.2932
  31   2.0000      -0.648187       -17.6381
  32   2.0000      -0.631256       -17.1774
  33   2.0000      -0.622078       -16.9276
  34   2.0000      -0.593771       -16.1573
  35   2.0000      -0.586819       -15.9682
  36   2.0000      -0.570473       -15.5234
  37   2.0000      -0.549654       -14.9568
  38   2.0000      -0.540391       -14.7048
  39   2.0000      -0.505007       -13.7419
  40   2.0000      -0.489723       -13.3260
  41   2.0000      -0.482683       -13.1345
  42   2.0000      -0.479124       -13.0376
  43   2.0000      -0.458120       -12.4661
  44   2.0000      -0.442434       -12.0392
  45   0.0000       0.023820         0.6482
  46   0.0000       0.031915         0.8685
  47   0.0000       0.035457         0.9648
  48   0.0000       0.046008         1.2520
  49   0.0000       0.051887         1.4119

MULLIKEN ATOMIC CHARGES
-----------------------
   0 C :    0.614445
   1 P :    2.533393
   2 O :   -1.233096
   3 O :   -0.992147
   4 C :   -0.922046
   5 H :    0.322168
   6 H :    0.393008
   7 H :    0.265399
   8 Cl:   -0.423870
   9 Cl:   -0.396781
  10 O :   -0.972397
  11 H :    0.396189
  12 H :    0.415736
Sum of atomic charges:   -0.0000000

LOEWDIN ATOMIC CHARGES
----------------------
   0 C :   -1.713449
   1 P :   -0.946100
   2 O :    0.316716
   3 O :    1.096608
   4 C :    0.622418
   5 H :   -0.331934
   6 H :   -0.332724
   7 H :   -0.319147
   8 Cl:    1.137575
   9 Cl:    1.140410
  10 O :    1.091397
  11 H :   -0.862009
  12 H :   -0.899761

  Mayer bond orders larger than 0.100000
B(  0-C ,  1-P ) :   0.7441 B(  0-C ,  2-O ) :  -0.1209 B(  0-C ,  3-O ) :  -0.1294
B(  0-C ,  4-C ) :   0.7938 B(  0-C ,  8-Cl) :   0.4821 B(  0-C ,  9-Cl) :   0.4704
B(  1-P ,  2-O ) :   1.3311 B(  1-P ,  3-O ) :   0.5766 B(  1-P , 10-O ) :   0.5688
B(  3-O , 12-H ) :   0.8080 B(  4-C ,  5-H ) :   0.8850 B(  4-C ,  6-H ) :   0.8867
B(  4-C ,  7-H ) :   0.9296 B( 10-O , 11-H ) :   0.8709

MP2 TOTAL ENERGY:    -1565.027984338 Eh
FINAL SINGLE POINT ENERGY     -1565.027984338439

DIPOLE MOMENT
-------------
                                X             Y             Z
Electronic contribution:     -2.91995      -0.24292      -5.78611
Nuclear contribution   :      2.19676       0.95499       5.34868
                        -----------------------------------------
Total Dipole Moment    :     -0.72320       0.71207      -0.43743
                        -----------------------------------------
Magnitude (a.u.)       :      1.10517
Magnitude (Debye)      :      2.80912

Rotational constants in cm-1:     0.050872     0.038064     0.031836
Rotational constants in MHz :  1525.105949  1141.137017   954.409454

                             ****ORCA TERMINATED NORMALLY****
TOTAL RUN TIME: 0 days 1 hours 39 minutes 59 seconds 800 msec
