                         Program Version 5.0.4 -  RELEASE  -
|  1> ! ri-mp2 aug-cc-pvdz aug-cc-pvdz/c tightscf
|  2> %pal nprocs 16 end
|  3> %maxcore 3800
|  4> %base "DZ_P-P_10_AB"
|  5> %scf
|  6> STABPerform true
|  7> STABRestartUHFifUnstable true
|  8> end
|  9>
| 10> *xyz 0 1
| 11> P        -1.393109    0.329304   -0.097173
| 12> P         0.550366   -0.726076    0.128308
| 13> C         1.677451    0.730257   -0.038438
| 14> H         1.412382    1.390359   -0.862095
| 15> H         2.696348    0.370532   -0.180696
| 16> H         1.657120    1.300131    0.890387
| 17> H         0.575711   -1.126410   -1.229877
| 18> H        -1.610091    0.497638    1.291642
| 19> H        -2.155020   -0.862217   -0.145752
| 20> *
| 21>
| 22> $new_job
| 23> ! ri-mp2 aug-cc-pvtz aug-cc-pvtz/c tightscf
| 24> %pal nprocs 16 end
| 25> %maxcore 3800
| 26> %base "TZ_P-P_10_AB"
| 27>
| 28> *xyz 0 1
| 29> P        -1.393109    0.329304   -0.097173
| 30> P         0.550366   -0.726076    0.128308
| 31> C         1.677451    0.730257   -0.038438
| 32> H         1.412382    1.390359   -0.862095
| 33> H         2.696348    0.370532   -0.180696
| 34> H         1.657120    1.300131    0.890387
| 35> H         0.575711   -1.126410   -1.229877
| 36> H        -1.610091    0.497638    1.291642
| 37> H        -2.155020   -0.862217   -0.145752
| 38> *
| 39>
| 40> $new_job
| 41> ! ri-mp2 aug-cc-pvqz aug-cc-pvqz/c tightscf
| 42> %pal nprocs 16 end
| 43> %maxcore 3800
| 44> %base "QZ_P-P_10_AB"
| 45>
| 46> *xyz 0 1
| 47> P        -1.393109    0.329304   -0.097173
| 48> P         0.550366   -0.726076    0.128308
| 49> C         1.677451    0.730257   -0.038438
| 50> H         1.412382    1.390359   -0.862095
| 51> H         2.696348    0.370532   -0.180696
| 52> H         1.657120    1.300131    0.890387
| 53> H         0.575711   -1.126410   -1.229877
| 54> H        -1.610091    0.497638    1.291642
| 55> H        -2.155020   -0.862217   -0.145752
| 56> *
| 57>
| 58>
| 59>
| 60>
| 61>                          ****END OF INPUT****
 Total Charge           Charge          ....    0
 Multiplicity           Mult            ....    1
 Number of Electrons    NEL             ....   42
MP2 TOTAL ENERGY:     -723.253169622 Eh
FINAL SINGLE POINT ENERGY      -723.253169622120
MP2 TOTAL ENERGY:     -723.383481062 Eh
FINAL SINGLE POINT ENERGY      -723.383481062439

CARTESIAN COORDINATES (ANGSTROEM)
---------------------------------
  P     -1.393109    0.329304   -0.097173
  P      0.550366   -0.726076    0.128308
  C      1.677451    0.730257   -0.038438
  H      1.412382    1.390359   -0.862095
  H      2.696348    0.370532   -0.180696
  H      1.657120    1.300131    0.890387
  H      0.575711   -1.126410   -1.229877
  H     -1.610091    0.497638    1.291642
  H     -2.155020   -0.862217   -0.145752

 Multiplicity           Mult            ....    1
 Number of Electrons    NEL             ....   42
 Basis Dimension        Dim             ....  524

ORBITAL ENERGIES
----------------

  NO   OCC          E(Eh)            E(eV)
   0   2.0000     -79.944759     -2175.4075
   1   2.0000     -79.943218     -2175.3656
   2   2.0000     -11.230781      -305.6051
   3   2.0000      -7.486618      -203.7212
   4   2.0000      -7.486390      -203.7150
   5   2.0000      -5.380325      -146.4061
   6   2.0000      -5.380204      -146.4028
   7   2.0000      -5.380017      -146.3977
   8   2.0000      -5.379802      -146.3919
   9   2.0000      -5.379088      -146.3724
  10   2.0000      -5.378942      -146.3684
  11   2.0000      -0.989881       -26.9360
  12   2.0000      -0.868838       -23.6423
  13   2.0000      -0.744790       -20.2668
  14   2.0000      -0.586621       -15.9628
  15   2.0000      -0.582096       -15.8397
  16   2.0000      -0.532626       -14.4935
  17   2.0000      -0.482387       -13.1264
  18   2.0000      -0.444090       -12.0843
  19   2.0000      -0.425944       -11.5905
  20   2.0000      -0.327366        -8.9081
  21   0.0000       0.026401         0.7184
  22   0.0000       0.034027         0.9259
  23   0.0000       0.036219         0.9856
  24   0.0000       0.042435         1.1547
  25   0.0000       0.052389         1.4256

MULLIKEN ATOMIC CHARGES
-----------------------
   0 P :    0.076475
   1 P :    0.292267
   2 C :   -1.003521
   3 H :    0.275419
   4 H :    0.328906
   5 H :    0.250671
   6 H :   -0.086674
   7 H :   -0.064471
   8 H :   -0.069071
Sum of atomic charges:   -0.0000000

LOEWDIN ATOMIC CHARGES
----------------------
   0 P :    1.232039
   1 P :    0.914884
   2 C :    0.638191
   3 H :   -0.380043
   4 H :   -0.379811
   5 H :   -0.382899
   6 H :   -0.510592
   7 H :   -0.563717
   8 H :   -0.568053

  Mayer bond orders larger than 0.100000
B(  0-P ,  1-P ) :   0.9844 B(  0-P ,  7-H ) :   0.9006 B(  0-P ,  8-H ) :   0.9179
B(  1-P ,  2-C ) :   0.9007 B(  1-P ,  6-H ) :   0.9198 B(  2-C ,  3-H ) :   0.9098
B(  2-C ,  4-H ) :   0.8788 B(  2-C ,  5-H ) :   0.9346

MP2 TOTAL ENERGY:     -723.423737835 Eh
FINAL SINGLE POINT ENERGY      -723.423737834814

DIPOLE MOMENT
-------------
                                X             Y             Z
Electronic contribution:     -3.10240      -1.77119       0.21243
Nuclear contribution   :      3.33142       1.92045      -0.26229
                        -----------------------------------------
Total Dipole Moment    :      0.22901       0.14926      -0.04986
                        -----------------------------------------
Magnitude (a.u.)       :      0.27787
Magnitude (Debye)      :      0.70629

Rotational constants in cm-1:     0.452942     0.130863     0.108603
Rotational constants in MHz : 13578.872198  3923.170630  3255.828967

                             ****ORCA TERMINATED NORMALLY****
TOTAL RUN TIME: 0 days 0 hours 8 minutes 58 seconds 557 msec
