                         Program Version 5.0.4 -  RELEASE  -
|  1> ! ri-mp2 aug-cc-pvdz aug-cc-pvdz/c tightscf
|  2> %pal nprocs 16 end
|  3> %maxcore 3800
|  4> %base "DZ_P-F_17_AB"
|  5>
|  6> *xyz 0 1
|  7> F         2.315142   -0.971466    0.865984
|  8> P         1.672607   -0.433182   -0.491771
|  9> N         1.688056    1.319185   -0.117128
| 10> N         0.563605    1.811139    0.035358
| 11> C        -0.101057   -0.466192   -0.153044
| 12> C        -0.505340    0.853678    0.010180
| 13> C        -1.828007    1.205534    0.160664
| 14> H        -2.104782    2.244147    0.277437
| 15> C        -2.772257    0.188888    0.156508
| 16> H        -3.819637    0.429107    0.279055
| 17> C        -2.386935   -1.133689   -0.007021
| 18> H        -3.137331   -1.912711   -0.003899
| 19> C        -1.049763   -1.469575   -0.179883
| 20> H        -0.765103   -2.503755   -0.321922
| 21> *
| 22>
| 23> $new_job
| 24> ! ri-mp2 aug-cc-pvtz aug-cc-pvtz/c tightscf
| 25> %pal nprocs 16 end
| 26> %maxcore 3800
| 27> %base "TZ_P-F_17_AB"
| 28>
| 29> *xyz 0 1
| 30> F         2.315142   -0.971466    0.865984
| 31> P         1.672607   -0.433182   -0.491771
| 32> N         1.688056    1.319185   -0.117128
| 33> N         0.563605    1.811139    0.035358
| 34> C        -0.101057   -0.466192   -0.153044
| 35> C        -0.505340    0.853678    0.010180
| 36> C        -1.828007    1.205534    0.160664
| 37> H        -2.104782    2.244147    0.277437
| 38> C        -2.772257    0.188888    0.156508
| 39> H        -3.819637    0.429107    0.279055
| 40> C        -2.386935   -1.133689   -0.007021
| 41> H        -3.137331   -1.912711   -0.003899
| 42> C        -1.049763   -1.469575   -0.179883
| 43> H        -0.765103   -2.503755   -0.321922
| 44> *
| 45>
| 46> $new_job
| 47> ! ri-mp2 aug-cc-pvqz aug-cc-pvqz/c tightscf
| 48> %pal nprocs 16 end
| 49> %maxcore 3800
| 50> %base "QZ_P-F_17_AB"
| 51>
| 52> *xyz 0 1
| 53> F         2.315142   -0.971466    0.865984
| 54> P         1.672607   -0.433182   -0.491771
| 55> N         1.688056    1.319185   -0.117128
| 56> N         0.563605    1.811139    0.035358
| 57> C        -0.101057   -0.466192   -0.153044
| 58> C        -0.505340    0.853678    0.010180
| 59> C        -1.828007    1.205534    0.160664
| 60> H        -2.104782    2.244147    0.277437
| 61> C        -2.772257    0.188888    0.156508
| 62> H        -3.819637    0.429107    0.279055
| 63> C        -2.386935   -1.133689   -0.007021
| 64> H        -3.137331   -1.912711   -0.003899
| 65> C        -1.049763   -1.469575   -0.179883
| 66> H        -0.765103   -2.503755   -0.321922
| 67> *
| 68>
| 69>
| 70>
| 71>
| 72>                          ****END OF INPUT****
 Total Charge           Charge          ....    0
 Multiplicity           Mult            ....    1
 Number of Electrons    NEL             ....   78
MP2 TOTAL ENERGY:     -780.084005088 Eh
FINAL SINGLE POINT ENERGY      -780.084005088256
MP2 TOTAL ENERGY:     -780.498783269 Eh
FINAL SINGLE POINT ENERGY      -780.498783269057

CARTESIAN COORDINATES (ANGSTROEM)
---------------------------------
  F      2.315142   -0.971466    0.865984
  P      1.672607   -0.433182   -0.491771
  N      1.688056    1.319185   -0.117128
  N      0.563605    1.811139    0.035358
  C     -0.101057   -0.466192   -0.153044
  C     -0.505340    0.853678    0.010180
  C     -1.828007    1.205534    0.160664
  H     -2.104782    2.244147    0.277437
  C     -2.772257    0.188888    0.156508
  H     -3.819637    0.429107    0.279055
  C     -2.386935   -1.133689   -0.007021
  H     -3.137331   -1.912711   -0.003899
  C     -1.049763   -1.469575   -0.179883
  H     -0.765103   -2.503755   -0.321922

 Multiplicity           Mult            ....    1
 Number of Electrons    NEL             ....   78
 Basis Dimension        Dim             ....  988

ORBITAL ENERGIES
----------------

  NO   OCC          E(Eh)            E(eV)
   0   2.0000     -80.035460     -2177.8756
   1   2.0000     -26.312286      -715.9937
   2   2.0000     -15.652194      -425.9179
   3   2.0000     -15.626611      -425.2217
   4   2.0000     -11.289244      -307.1959
   5   2.0000     -11.271415      -306.7108
   6   2.0000     -11.265947      -306.5620
   7   2.0000     -11.263135      -306.4855
   8   2.0000     -11.262027      -306.4553
   9   2.0000     -11.258549      -306.3607
  10   2.0000      -7.567945      -205.9342
  11   2.0000      -5.461915      -148.6263
  12   2.0000      -5.461119      -148.6046
  13   2.0000      -5.459784      -148.5683
  14   2.0000      -1.620617       -44.0992
  15   2.0000      -1.390053       -37.8253
  16   2.0000      -1.189273       -32.3618
  17   2.0000      -1.066305       -29.0156
  18   2.0000      -1.057434       -28.7743
  19   2.0000      -0.970317       -26.4037
  20   2.0000      -0.884752       -24.0753
  21   2.0000      -0.836135       -22.7524
  22   2.0000      -0.809385       -22.0245
  23   2.0000      -0.741445       -20.1757
  24   2.0000      -0.708076       -19.2677
  25   2.0000      -0.695744       -18.9322
  26   2.0000      -0.676289       -18.4028
  27   2.0000      -0.667792       -18.1715
  28   2.0000      -0.646801       -17.6004
  29   2.0000      -0.620783       -16.8924
  30   2.0000      -0.589858       -16.0508
  31   2.0000      -0.574737       -15.6394
  32   2.0000      -0.543356       -14.7855
  33   2.0000      -0.529978       -14.4214
  34   2.0000      -0.511779       -13.9262
  35   2.0000      -0.420640       -11.4462
  36   2.0000      -0.388879       -10.5819
  37   2.0000      -0.363644        -9.8953
  38   2.0000      -0.360198        -9.8015
  39   0.0000       0.018260         0.4969
  40   0.0000       0.024491         0.6664
  41   0.0000       0.028540         0.7766
  42   0.0000       0.034554         0.9403
  43   0.0000       0.044730         1.2172

MULLIKEN ATOMIC CHARGES
-----------------------
   0 F :   -0.704921
   1 P :    1.346918
   2 N :   -0.512586
   3 N :   -0.342198
   4 C :   -0.160044
   5 C :    0.557433
   6 C :   -0.316914
   7 H :    0.422721
   8 C :   -0.424970
   9 H :    0.263305
  10 C :   -0.346167
  11 H :    0.249443
  12 C :   -0.380995
  13 H :    0.348975
Sum of atomic charges:    0.0000000

LOEWDIN ATOMIC CHARGES
----------------------
   0 F :    0.292873
   1 P :    0.250856
   2 N :    0.073956
   3 N :    0.204659
   4 C :   -0.340775
   5 C :   -0.507898
   6 C :    0.330548
   7 H :   -0.314822
   8 C :    0.348024
   9 H :   -0.315957
  10 C :    0.344599
  11 H :   -0.319123
  12 C :    0.279557
  13 H :   -0.326497

  Mayer bond orders larger than 0.100000
B(  0-F ,  1-P ) :   0.5006 B(  0-F ,  4-C ) :  -0.1244 B(  1-P ,  2-N ) :   0.7510
B(  1-P ,  4-C ) :   0.8675 B(  1-P ,  5-C ) :  -0.1425 B(  2-N ,  3-N ) :   1.4393
B(  2-N ,  5-C ) :  -0.1519 B(  3-N ,  5-C ) :   0.2827 B(  4-C ,  5-C ) :   1.1618
B(  4-C ,  6-C ) :  -0.1831 B(  4-C , 10-C ) :  -0.2640 B(  4-C , 12-C ) :   0.9219
B(  4-C , 13-H ) :  -0.1184 B(  5-C ,  6-C ) :   1.2260 B(  5-C ,  8-C ) :  -0.1961
B(  6-C ,  7-H ) :   0.8153 B(  6-C ,  8-C ) :   1.3438 B(  6-C ,  9-H ) :  -0.1040
B(  6-C , 12-C ) :   0.1378 B(  8-C ,  9-H ) :   1.0823 B(  8-C , 10-C ) :   1.2058
B(  8-C , 11-H ) :  -0.1001 B( 10-C , 11-H ) :   1.1106 B( 10-C , 12-C ) :   1.2005
B( 11-H , 12-C ) :  -0.1358 B( 12-C , 13-H ) :   0.9403

MP2 TOTAL ENERGY:     -780.634685438 Eh
FINAL SINGLE POINT ENERGY      -780.634685438160

DIPOLE MOMENT
-------------
                                X             Y             Z
Electronic contribution:     11.43442      -0.44935      -0.09729
Nuclear contribution   :    -13.01811      -0.33549      -0.14897
                        -----------------------------------------
Total Dipole Moment    :     -1.58369      -0.78484      -0.24627
                        -----------------------------------------
Magnitude (a.u.)       :      1.78457
Magnitude (Debye)      :      4.53601

Rotational constants in cm-1:     0.082897     0.033571     0.025595
Rotational constants in MHz :  2485.176055  1006.429623   767.321507

                             ****ORCA TERMINATED NORMALLY****
TOTAL RUN TIME: 0 days 0 hours 28 minutes 28 seconds 229 msec
