                         Program Version 5.0.4 -  RELEASE  -
|  1> ! ri-mp2 aug-cc-pvdz aug-cc-pvdz/c tightscf
|  2> %pal nprocs 16 end
|  3> %maxcore 3800
|  4> %base "DZ_B-Cl_72_AB"
|  5> %scf
|  6> STABPerform true
|  7> STABRestartUHFifUnstable true
|  8> end
|  9>
| 10> *xyz 0 1
| 11> B         1.002926   -0.000000   -0.099387
| 12> Cl         2.753604   -0.000000    0.137071
| 13> O         0.377970    1.193722   -0.181098
| 14> O         0.377970   -1.193722   -0.181098
| 15> C        -1.687076    0.000000    0.197465
| 16> C        -1.042379   -1.251465   -0.366553
| 17> C        -1.042379    1.251465   -0.366553
| 18> C        -1.540316    2.523533    0.274667
| 19> H        -1.358004    2.502043    1.349509
| 20> H        -2.610607    2.643791    0.103765
| 21> H        -1.021790    3.384680   -0.143700
| 22> H        -1.220644    1.293929   -1.445919
| 23> H        -1.582854    0.000000    1.286837
| 24> H        -2.753660    0.000000   -0.032011
| 25> C        -1.540316   -2.523533    0.274667
| 26> H        -1.220644   -1.293929   -1.445919
| 27> H        -1.358005   -2.502043    1.349509
| 28> H        -1.021791   -3.384679   -0.143700
| 29> H        -2.610608   -2.643790    0.103765
| 30> *
| 31>
| 32> $new_job
| 33> ! ri-mp2 aug-cc-pvtz aug-cc-pvtz/c tightscf
| 34> %pal nprocs 16 end
| 35> %maxcore 3800
| 36> %base "TZ_B-Cl_72_AB"
| 37>
| 38> *xyz 0 1
| 39> B         1.002926   -0.000000   -0.099387
| 40> Cl         2.753604   -0.000000    0.137071
| 41> O         0.377970    1.193722   -0.181098
| 42> O         0.377970   -1.193722   -0.181098
| 43> C        -1.687076    0.000000    0.197465
| 44> C        -1.042379   -1.251465   -0.366553
| 45> C        -1.042379    1.251465   -0.366553
| 46> C        -1.540316    2.523533    0.274667
| 47> H        -1.358004    2.502043    1.349509
| 48> H        -2.610607    2.643791    0.103765
| 49> H        -1.021790    3.384680   -0.143700
| 50> H        -1.220644    1.293929   -1.445919
| 51> H        -1.582854    0.000000    1.286837
| 52> H        -2.753660    0.000000   -0.032011
| 53> C        -1.540316   -2.523533    0.274667
| 54> H        -1.220644   -1.293929   -1.445919
| 55> H        -1.358005   -2.502043    1.349509
| 56> H        -1.021791   -3.384679   -0.143700
| 57> H        -2.610608   -2.643790    0.103765
| 58> *
| 59>
| 60> $new_job
| 61> ! ri-mp2 aug-cc-pvqz aug-cc-pvqz/c tightscf
| 62> %pal nprocs 16 end
| 63> %maxcore 3800
| 64> %base "QZ_B-Cl_72_AB"
| 65>
| 66> *xyz 0 1
| 67> B         1.002926   -0.000000   -0.099387
| 68> Cl         2.753604   -0.000000    0.137071
| 69> O         0.377970    1.193722   -0.181098
| 70> O         0.377970   -1.193722   -0.181098
| 71> C        -1.687076    0.000000    0.197465
| 72> C        -1.042379   -1.251465   -0.366553
| 73> C        -1.042379    1.251465   -0.366553
| 74> C        -1.540316    2.523533    0.274667
| 75> H        -1.358004    2.502043    1.349509
| 76> H        -2.610607    2.643791    0.103765
| 77> H        -1.021790    3.384680   -0.143700
| 78> H        -1.220644    1.293929   -1.445919
| 79> H        -1.582854    0.000000    1.286837
| 80> H        -2.753660    0.000000   -0.032011
| 81> C        -1.540316   -2.523533    0.274667
| 82> H        -1.220644   -1.293929   -1.445919
| 83> H        -1.358005   -2.502043    1.349509
| 84> H        -1.021791   -3.384679   -0.143700
| 85> H        -2.610608   -2.643790    0.103765
| 86> *
| 87>
| 88>
| 89>
| 90>
| 91>                          ****END OF INPUT****
 Total Charge           Charge          ....    0
 Multiplicity           Mult            ....    1
 Number of Electrons    NEL             ....   78
MP2 TOTAL ENERGY:     -830.628168134 Eh
FINAL SINGLE POINT ENERGY      -830.628168134377
MP2 TOTAL ENERGY:     -831.023739712 Eh
FINAL SINGLE POINT ENERGY      -831.023739712422

CARTESIAN COORDINATES (ANGSTROEM)
---------------------------------
  B      1.002926   -0.000000   -0.099387
  Cl     2.753604   -0.000000    0.137071
  O      0.377970    1.193722   -0.181098
  O      0.377970   -1.193722   -0.181098
  C     -1.687076    0.000000    0.197465
  C     -1.042379   -1.251465   -0.366553
  C     -1.042379    1.251465   -0.366553
  C     -1.540316    2.523533    0.274667
  H     -1.358004    2.502043    1.349509
  H     -2.610607    2.643791    0.103765
  H     -1.021790    3.384680   -0.143700
  H     -1.220644    1.293929   -1.445919
  H     -1.582854    0.000000    1.286837
  H     -2.753660    0.000000   -0.032011
  C     -1.540316   -2.523533    0.274667
  H     -1.220644   -1.293929   -1.445919
  H     -1.358005   -2.502043    1.349509
  H     -1.021791   -3.384679   -0.143700
  H     -2.610608   -2.643790    0.103765

 Multiplicity           Mult            ....    1
 Number of Electrons    NEL             ....   78
 Basis Dimension        Dim             .... 1184

ORBITAL ENERGIES
----------------

  NO   OCC          E(Eh)            E(eV)
   0   2.0000    -104.807599     -2851.9598
   1   2.0000     -20.569616      -559.7277
   2   2.0000     -20.569597      -559.7272
   3   2.0000     -11.301209      -307.5215
   4   2.0000     -11.301202      -307.5213
   5   2.0000     -11.240033      -305.8569
   6   2.0000     -11.225181      -305.4527
   7   2.0000     -11.225180      -305.4527
   8   2.0000     -10.535540      -286.6866
   9   2.0000      -8.002486      -217.7587
  10   2.0000      -8.001370      -217.7283
  11   2.0000      -8.001232      -217.7246
  12   2.0000      -7.683092      -209.0675
  13   2.0000      -1.413750       -38.4701
  14   2.0000      -1.367852       -37.2212
  15   2.0000      -1.108424       -30.1618
  16   2.0000      -1.075235       -29.2586
  17   2.0000      -1.034769       -28.1575
  18   2.0000      -0.958276       -26.0760
  19   2.0000      -0.847571       -23.0636
  20   2.0000      -0.832544       -22.6547
  21   2.0000      -0.736634       -20.0448
  22   2.0000      -0.698757       -19.0141
  23   2.0000      -0.686134       -18.6707
  24   2.0000      -0.659564       -17.9476
  25   2.0000      -0.619399       -16.8547
  26   2.0000      -0.577628       -15.7180
  27   2.0000      -0.573878       -15.6160
  28   2.0000      -0.565516       -15.3885
  29   2.0000      -0.562289       -15.3007
  30   2.0000      -0.548631       -14.9290
  31   2.0000      -0.540052       -14.6956
  32   2.0000      -0.537639       -14.6299
  33   2.0000      -0.505579       -13.7575
  34   2.0000      -0.486121       -13.2280
  35   2.0000      -0.459680       -12.5085
  36   2.0000      -0.457299       -12.4437
  37   2.0000      -0.444040       -12.0830
  38   2.0000      -0.441687       -12.0189
  39   0.0000       0.019432         0.5288
  40   0.0000       0.027507         0.7485
  41   0.0000       0.027847         0.7578
  42   0.0000       0.032822         0.8931
  43   0.0000       0.043940         1.1957

MULLIKEN ATOMIC CHARGES
-----------------------
   0 B :    1.578052
   1 Cl:   -0.292641
   2 O :   -1.202941
   3 O :   -1.202941
   4 C :   -0.549900
   5 C :    0.481585
   6 C :    0.481585
   7 C :   -0.915997
   8 H :    0.223413
   9 H :    0.251637
  10 H :    0.255754
  11 H :    0.218588
  12 H :    0.239994
  13 H :    0.400414
  14 C :   -0.915997
  15 H :    0.218588
  16 H :    0.223413
  17 H :    0.255755
  18 H :    0.251636
Sum of atomic charges:    0.0000000

LOEWDIN ATOMIC CHARGES
----------------------
   0 B :   -2.245168
   1 Cl:    1.269440
   2 O :    0.902708
   3 O :    0.902708
   4 C :    0.489436
   5 C :   -0.223264
   6 C :   -0.223264
   7 C :    0.928331
   8 H :   -0.278584
   9 H :   -0.274598
  10 H :   -0.276878
  11 H :   -0.278015
  12 H :   -0.264497
  13 H :   -0.248611
  14 C :    0.928332
  15 H :   -0.278015
  16 H :   -0.278584
  17 H :   -0.276879
  18 H :   -0.274597

  Mayer bond orders larger than 0.100000
B(  0-B ,  1-Cl) :   0.6909 B(  0-B ,  2-O ) :   0.3862 B(  0-B ,  3-O ) :   0.3862
B(  1-Cl,  2-O ) :   0.1100 B(  1-Cl,  3-O ) :   0.1100 B(  2-O ,  6-C ) :   0.4137
B(  3-O ,  5-C ) :   0.4137 B(  4-C ,  5-C ) :   0.7915 B(  4-C ,  6-C ) :   0.7915
B(  4-C , 12-H ) :   0.9049 B(  4-C , 13-H ) :   0.8185 B(  5-C , 14-C ) :   0.7047
B(  5-C , 15-H ) :   0.9504 B(  5-C , 17-H ) :  -0.1110 B(  6-C ,  7-C ) :   0.7047
B(  6-C , 10-H ) :  -0.1110 B(  6-C , 11-H ) :   0.9504 B(  7-C ,  8-H ) :   0.9747
B(  7-C ,  9-H ) :   0.9978 B(  7-C , 10-H ) :   1.0428 B( 14-C , 16-H ) :   0.9747
B( 14-C , 17-H ) :   1.0428 B( 14-C , 18-H ) :   0.9978

MP2 TOTAL ENERGY:     -831.149224918 Eh
FINAL SINGLE POINT ENERGY      -831.149224917611

DIPOLE MOMENT
-------------
                                X             Y             Z
Electronic contribution:     19.37102      -0.00000      -1.02628
Nuclear contribution   :    -21.21819       0.00000       0.84936
                        -----------------------------------------
Total Dipole Moment    :     -1.84717      -0.00000      -0.17693
                        -----------------------------------------
Magnitude (a.u.)       :      1.85562
Magnitude (Debye)      :      4.71662

Rotational constants in cm-1:     0.055036     0.037616     0.023394
Rotational constants in MHz :  1649.929992  1127.707749   701.330724

                             ****ORCA TERMINATED NORMALLY****
TOTAL RUN TIME: 0 days 4 hours 35 minutes 15 seconds 832 msec
