                         Program Version 5.0.4 -  RELEASE  -
|  1> ! ri-mp2 aug-cc-pvdz aug-cc-pvdz/c tightscf
|  2> %pal nprocs 16 end
|  3> %maxcore 3800
|  4> %base "DZ_B-B_68_A"
|  5> %scf
|  6> STABPerform true
|  7> STABRestartUHFifUnstable true
|  8> end
|  9>
| 10> *xyz 0 2
| 11> B         0.473028    1.737217   -0.000069
| 12> B         0.480075    0.123047   -0.000063
| 13> O        -0.622999   -0.679989   -0.000247
| 14> C         1.884791   -0.599356    0.000086
| 15> H         2.746514    0.069196   -0.000198
| 16> H         1.962352   -1.244873   -0.878605
| 17> H         1.962488   -1.244267    0.879210
| 18> C        -1.922355   -0.128943    0.000145
| 19> H        -2.640668   -0.946458   -0.004148
| 20> H        -2.086230    0.486795   -0.888444
| 21> H        -2.088600    0.479570    0.893217
| 22> H         0.587998    2.908425    0.000215
| 23> *
| 24>
| 25> $new_job
| 26> ! ri-mp2 aug-cc-pvtz aug-cc-pvtz/c tightscf
| 27> %pal nprocs 16 end
| 28> %maxcore 3800
| 29> %base "TZ_B-B_68_A"
| 30>
| 31> *xyz 0 2
| 32> B         0.473028    1.737217   -0.000069
| 33> B         0.480075    0.123047   -0.000063
| 34> O        -0.622999   -0.679989   -0.000247
| 35> C         1.884791   -0.599356    0.000086
| 36> H         2.746514    0.069196   -0.000198
| 37> H         1.962352   -1.244873   -0.878605
| 38> H         1.962488   -1.244267    0.879210
| 39> C        -1.922355   -0.128943    0.000145
| 40> H        -2.640668   -0.946458   -0.004148
| 41> H        -2.086230    0.486795   -0.888444
| 42> H        -2.088600    0.479570    0.893217
| 43> H         0.587998    2.908425    0.000215
| 44> *
| 45>
| 46> $new_job
| 47> ! ri-mp2 aug-cc-pvqz aug-cc-pvqz/c tightscf
| 48> %pal nprocs 16 end
| 49> %maxcore 3800
| 50> %base "QZ_B-B_68_A"
| 51>
| 52> *xyz 0 2
| 53> B         0.473028    1.737217   -0.000069
| 54> B         0.480075    0.123047   -0.000063
| 55> O        -0.622999   -0.679989   -0.000247
| 56> C         1.884791   -0.599356    0.000086
| 57> H         2.746514    0.069196   -0.000198
| 58> H         1.962352   -1.244873   -0.878605
| 59> H         1.962488   -1.244267    0.879210
| 60> C        -1.922355   -0.128943    0.000145
| 61> H        -2.640668   -0.946458   -0.004148
| 62> H        -2.086230    0.486795   -0.888444
| 63> H        -2.088600    0.479570    0.893217
| 64> H         0.587998    2.908425    0.000215
| 65> *
| 66>
| 67>
| 68>
| 69>
| 70>                          ****END OF INPUT****
 Total Charge           Charge          ....    0
 Multiplicity           Mult            ....    2
 Number of Electrons    NEL             ....   37
MP2 TOTAL ENERGY:     -204.665244509 Eh
FINAL SINGLE POINT ENERGY      -204.665244508997
MP2 TOTAL ENERGY:     -204.852668113 Eh
FINAL SINGLE POINT ENERGY      -204.852668112673

CARTESIAN COORDINATES (ANGSTROEM)
---------------------------------
  B      0.473028    1.737217   -0.000069
  B      0.480075    0.123047   -0.000063
  O     -0.622999   -0.679989   -0.000247
  C      1.884791   -0.599356    0.000086
  H      2.746514    0.069196   -0.000198
  H      1.962352   -1.244873   -0.878605
  H      1.962488   -1.244267    0.879210
  C     -1.922355   -0.128943    0.000145
  H     -2.640668   -0.946458   -0.004148
  H     -2.086230    0.486795   -0.888444
  H     -2.088600    0.479570    0.893217
  H      0.587998    2.908425    0.000215

 Multiplicity           Mult            ....    2
 Number of Electrons    NEL             ....   37
 Basis Dimension        Dim             ....  722

ORBITAL ENERGIES
----------------
                 SPIN UP ORBITALS
  NO   OCC          E(Eh)            E(eV)
   0   1.0000     -20.553874      -559.2994
   1   1.0000     -11.276606      -306.8520
   2   1.0000     -11.185300      -304.3675
   3   1.0000      -7.622271      -207.4125
   4   1.0000      -7.594555      -206.6583
   5   1.0000      -1.366630       -37.1879
   6   1.0000      -0.956536       -26.0287
   7   1.0000      -0.919876       -25.0311
   8   1.0000      -0.736393       -20.0383
   9   1.0000      -0.672614       -18.3028
  10   1.0000      -0.638190       -17.3660
  11   1.0000      -0.626720       -17.0539
  12   1.0000      -0.571172       -15.5424
  13   1.0000      -0.544128       -14.8065
  14   1.0000      -0.525008       -14.2862
  15   1.0000      -0.499305       -13.5868
  16   1.0000      -0.468745       -12.7552
  17   1.0000      -0.429454       -11.6860
  18   1.0000      -0.306870        -8.3503
  19   0.0000       0.021731         0.5913
  20   0.0000       0.029271         0.7965
  21   0.0000       0.030841         0.8392
  22   0.0000       0.038091         1.0365
  23   0.0000       0.044797         1.2190

                 SPIN DOWN ORBITALS
  NO   OCC          E(Eh)            E(eV)
   0   1.0000     -20.552271      -559.2557
   1   1.0000     -11.276696      -306.8545
   2   1.0000     -11.185707      -304.3786
   3   1.0000      -7.610581      -207.0944
   4   1.0000      -7.595203      -206.6760
   5   1.0000      -1.362805       -37.0838
   6   1.0000      -0.955762       -26.0076
   7   1.0000      -0.919394       -25.0180
   8   1.0000      -0.714291       -19.4368
   9   1.0000      -0.646380       -17.5889
  10   1.0000      -0.631127       -17.1738
  11   1.0000      -0.619124       -16.8472
  12   1.0000      -0.566920       -15.4267
  13   1.0000      -0.540125       -14.6976
  14   1.0000      -0.523796       -14.2532
  15   1.0000      -0.499206       -13.5841
  16   1.0000      -0.458585       -12.4787
  17   1.0000      -0.420974       -11.4553
  18   0.0000       0.022264         0.6058
  19   0.0000       0.030568         0.8318
  20   0.0000       0.031278         0.8511
  21   0.0000       0.031892         0.8678
  22   0.0000       0.045349         1.2340

MULLIKEN ATOMIC CHARGES AND SPIN POPULATIONS
--------------------------------------------
   0 B :    0.327287    0.940774
   1 B :    0.936482    0.074276
   2 O :   -1.185018    0.011725
   3 C :   -0.913318   -0.003845
   4 H :    0.294164   -0.004345
   5 H :    0.277170    0.006164
   6 H :    0.277251    0.006182
   7 C :   -0.675069   -0.000166
   8 H :    0.467710   -0.000396
   9 H :    0.286389    0.003417
  10 H :    0.287030    0.003360
  11 H :   -0.380078   -0.037145
Sum of atomic charges         :    0.0000000

LOEWDIN ATOMIC CHARGES AND SPIN POPULATIONS
-------------------------------------------
   0 B :    0.520099    0.446662
   1 B :   -0.879364    0.255690
   2 O :    0.927423    0.042989
   3 C :    0.979856    0.047623
   4 H :   -0.320347    0.006218
   5 H :   -0.305806    0.003768
   6 H :   -0.305796    0.003771
   7 C :    0.558487    0.019079
   8 H :   -0.308325   -0.000078
   9 H :   -0.304030    0.005774
  10 H :   -0.303718    0.005704
  11 H :   -0.258479    0.162800

  Mayer bond orders larger than 0.100000
B(  0-B ,  1-B ) :   1.2428 B(  0-B , 11-H ) :   0.8726 B(  1-B ,  2-O ) :   0.3797
B(  1-B ,  3-C ) :   0.9011 B(  2-O ,  7-C ) :   0.9707 B(  3-C ,  4-H ) :   0.9092
B(  3-C ,  5-H ) :   0.9163 B(  3-C ,  6-H ) :   0.9163 B(  7-C ,  8-H ) :   0.7900
B(  7-C ,  9-H ) :   0.9033 B(  7-C , 10-H ) :   0.9033

MP2 TOTAL ENERGY:     -204.910275396 Eh
FINAL SINGLE POINT ENERGY      -204.910275396048

DIPOLE MOMENT
-------------
                                X             Y             Z
Electronic contribution:      0.00138       1.51200      -0.00106
Nuclear contribution   :     -0.33783      -1.01288       0.00137
                        -----------------------------------------
Total Dipole Moment    :     -0.33645       0.49913       0.00030
                        -----------------------------------------
Magnitude (a.u.)       :      0.60193
Magnitude (Debye)      :      1.52999

Rotational constants in cm-1:     0.277585     0.126750     0.089948
Rotational constants in MHz :  8321.775717  3799.864972  2696.584191

                             ****ORCA TERMINATED NORMALLY****
TOTAL RUN TIME: 0 days 1 hours 32 minutes 53 seconds 448 msec
