                         Program Version 5.0.4 -  RELEASE  -
|  1> ! ri-mp2 aug-cc-pvdz aug-cc-pvdz/c tightscf
|  2> %pal nprocs 16 end
|  3> %maxcore 3800
|  4> %base "DZ_Si-Cl_89_A"
|  5> %scf
|  6> STABPerform true
|  7> STABRestartUHFifUnstable true
|  8> end
|  9>
| 10> *xyz 0 2
| 11> C        -0.915016   -0.573960   -0.441784
| 12> Si         0.728088    0.373040   -0.633619
| 13> H        -0.972871   -1.369848   -1.177798
| 14> Cl        -2.265429    0.534911   -0.767730
| 15> Cl        -1.061475   -1.337493    1.153709
| 16> Cl         2.241558   -0.995523   -0.477876
| 17> Cl         0.865919    1.774050    0.838907
| 18> *
| 19>
| 20> $new_job
| 21> ! ri-mp2 aug-cc-pvtz aug-cc-pvtz/c tightscf
| 22> %pal nprocs 16 end
| 23> %maxcore 3800
| 24> %base "TZ_Si-Cl_89_A"
| 25>
| 26> *xyz 0 2
| 27> C        -0.915016   -0.573960   -0.441784
| 28> Si         0.728088    0.373040   -0.633619
| 29> H        -0.972871   -1.369848   -1.177798
| 30> Cl        -2.265429    0.534911   -0.767730
| 31> Cl        -1.061475   -1.337493    1.153709
| 32> Cl         2.241558   -0.995523   -0.477876
| 33> Cl         0.865919    1.774050    0.838907
| 34> *
| 35>
| 36> $new_job
| 37> ! ri-mp2 aug-cc-pvqz aug-cc-pvqz/c tightscf
| 38> %pal nprocs 16 end
| 39> %maxcore 3800
| 40> %base "QZ_Si-Cl_89_A"
| 41>
| 42> *xyz 0 2
| 43> C        -0.915016   -0.573960   -0.441784
| 44> Si         0.728088    0.373040   -0.633619
| 45> H        -0.972871   -1.369848   -1.177798
| 46> Cl        -2.265429    0.534911   -0.767730
| 47> Cl        -1.061475   -1.337493    1.153709
| 48> Cl         2.241558   -0.995523   -0.477876
| 49> Cl         0.865919    1.774050    0.838907
| 50> *
| 51>
| 52>
| 53>
| 54>
| 55>                          ****END OF INPUT****
 Total Charge           Charge          ....    0
 Multiplicity           Mult            ....    2
 Number of Electrons    NEL             ....   89
MP2 TOTAL ENERGY:    -2166.278376374 Eh
FINAL SINGLE POINT ENERGY     -2166.278376374323
MP2 TOTAL ENERGY:    -2166.590130459 Eh
FINAL SINGLE POINT ENERGY     -2166.590130459371

CARTESIAN COORDINATES (ANGSTROEM)
---------------------------------
  C     -0.915016   -0.573960   -0.441784
  Si     0.728088    0.373040   -0.633619
  H     -0.972871   -1.369848   -1.177798
  Cl    -2.265429    0.534911   -0.767730
  Cl    -1.061475   -1.337493    1.153709
  Cl     2.241558   -0.995523   -0.477876
  Cl     0.865919    1.774050    0.838907

 Multiplicity           Mult            ....    2
 Number of Electrons    NEL             ....   89
 Basis Dimension        Dim             ....  546

ORBITAL ENERGIES
----------------
                 SPIN UP ORBITALS
  NO   OCC          E(Eh)            E(eV)
   0   1.0000    -104.860234     -2853.3920
   1   1.0000    -104.857989     -2853.3309
   2   1.0000    -104.854932     -2853.2478
   3   1.0000    -104.853513     -2853.2091
   4   1.0000     -68.888795     -1874.5594
   5   1.0000     -11.369739      -309.3863
   6   1.0000     -10.585701      -288.0516
   7   1.0000     -10.583424      -287.9896
   8   1.0000     -10.582180      -287.9558
   9   1.0000     -10.580768      -287.9173
  10   1.0000      -8.052619      -219.1229
  11   1.0000      -8.050997      -219.0788
  12   1.0000      -8.050942      -219.0773
  13   1.0000      -8.050791      -219.0731
  14   1.0000      -8.050217      -219.0576
  15   1.0000      -8.048795      -219.0189
  16   1.0000      -8.048560      -219.0124
  17   1.0000      -8.048430      -219.0089
  18   1.0000      -8.047700      -218.9891
  19   1.0000      -8.047392      -218.9807
  20   1.0000      -8.046284      -218.9505
  21   1.0000      -8.045963      -218.9418
  22   1.0000      -6.230012      -169.5272
  23   1.0000      -4.340439      -118.1094
  24   1.0000      -4.332823      -117.9021
  25   1.0000      -4.331766      -117.8733
  26   1.0000      -1.203808       -32.7573
  27   1.0000      -1.139640       -31.0112
  28   1.0000      -1.113994       -30.3133
  29   1.0000      -1.107246       -30.1297
  30   1.0000      -0.901890       -24.5417
  31   1.0000      -0.725674       -19.7466
  32   1.0000      -0.651989       -17.7415
  33   1.0000      -0.604237       -16.4421
  34   1.0000      -0.600364       -16.3367
  35   1.0000      -0.569694       -15.5022
  36   1.0000      -0.537373       -14.6226
  37   1.0000      -0.506929       -13.7943
  38   1.0000      -0.496825       -13.5193
  39   1.0000      -0.485615       -13.2143
  40   1.0000      -0.476970       -12.9790
  41   1.0000      -0.474566       -12.9136
  42   1.0000      -0.457402       -12.4466
  43   1.0000      -0.442222       -12.0335
  44   1.0000      -0.370202       -10.0737
  45   0.0000       0.025669         0.6985
  46   0.0000       0.036489         0.9929
  47   0.0000       0.040081         1.0906
  48   0.0000       0.041703         1.1348
  49   0.0000       0.060744         1.6529

                 SPIN DOWN ORBITALS
  NO   OCC          E(Eh)            E(eV)
   0   1.0000    -104.860310     -2853.3941
   1   1.0000    -104.857584     -2853.3199
   2   1.0000    -104.853815     -2853.2174
   3   1.0000    -104.852419     -2853.1794
   4   1.0000     -68.882549     -1874.3894
   5   1.0000     -11.366935      -309.3100
   6   1.0000     -10.585780      -288.0537
   7   1.0000     -10.583001      -287.9781
   8   1.0000     -10.580957      -287.9225
   9   1.0000     -10.579572      -287.8848
  10   1.0000      -8.052919      -219.1311
  11   1.0000      -8.050966      -219.0779
  12   1.0000      -8.050867      -219.0752
  13   1.0000      -8.049687      -219.0431
  14   1.0000      -8.048237      -219.0037
  15   1.0000      -8.047933      -218.9954
  16   1.0000      -8.047518      -218.9841
  17   1.0000      -8.046811      -218.9648
  18   1.0000      -8.046150      -218.9469
  19   1.0000      -8.045398      -218.9264
  20   1.0000      -8.045332      -218.9246
  21   1.0000      -8.043957      -218.8872
  22   1.0000      -6.219557      -169.2428
  23   1.0000      -4.328801      -117.7927
  24   1.0000      -4.327953      -117.7696
  25   1.0000      -4.319696      -117.5449
  26   1.0000      -1.200432       -32.6654
  27   1.0000      -1.130482       -30.7620
  28   1.0000      -1.107238       -30.1295
  29   1.0000      -1.103904       -30.0387
  30   1.0000      -0.893677       -24.3182
  31   1.0000      -0.700324       -19.0568
  32   1.0000      -0.642854       -17.4929
  33   1.0000      -0.599193       -16.3049
  34   1.0000      -0.588943       -16.0260
  35   1.0000      -0.557515       -15.1708
  36   1.0000      -0.517903       -14.0929
  37   1.0000      -0.503566       -13.7027
  38   1.0000      -0.488542       -13.2939
  39   1.0000      -0.483109       -13.1461
  40   1.0000      -0.474739       -12.9183
  41   1.0000      -0.472258       -12.8508
  42   1.0000      -0.456266       -12.4156
  43   1.0000      -0.431856       -11.7514
  44   0.0000       0.005037         0.1371
  45   0.0000       0.031549         0.8585
  46   0.0000       0.038917         1.0590
  47   0.0000       0.041082         1.1179
  48   0.0000       0.042825         1.1653

MULLIKEN ATOMIC CHARGES AND SPIN POPULATIONS
--------------------------------------------
   0 C :   -0.198646    0.022660
   1 Si:    1.446769    0.855392
   2 H :    0.375826    0.000294
   3 Cl:   -0.238854   -0.003565
   4 Cl:   -0.230423    0.029629
   5 Cl:   -0.581315    0.049357
   6 Cl:   -0.573355    0.046233
Sum of atomic charges         :    0.0000000

LOEWDIN ATOMIC CHARGES AND SPIN POPULATIONS
-------------------------------------------
   0 C :   -1.504983    0.130345
   1 Si:   -1.496037    0.546807
   2 H :   -0.654404    0.015912
   3 Cl:    1.025338    0.013875
   4 Cl:    1.025929    0.034822
   5 Cl:    0.798231    0.130192
   6 Cl:    0.805927    0.128047

  Mayer bond orders larger than 0.100000
B(  0-C ,  1-Si) :   0.7802 B(  0-C ,  2-H ) :   0.7897 B(  0-C ,  3-Cl) :   0.8484
B(  0-C ,  4-Cl) :   0.8393 B(  1-Si,  5-Cl) :   0.6645 B(  1-Si,  6-Cl) :   0.6723

MP2 TOTAL ENERGY:    -2166.694892633 Eh
FINAL SINGLE POINT ENERGY     -2166.694892633022

DIPOLE MOMENT
-------------
                                X             Y             Z
Electronic contribution:      0.72433       1.08820       1.38911
Nuclear contribution   :     -0.64253      -1.24100      -2.01770
                        -----------------------------------------
Total Dipole Moment    :      0.08180      -0.15281      -0.62859
                        -----------------------------------------
Magnitude (a.u.)       :      0.65205
Magnitude (Debye)      :      1.65739

Rotational constants in cm-1:     0.048703     0.029646     0.024697
Rotational constants in MHz :  1460.076434   888.763260   740.410358

                             ****ORCA TERMINATED NORMALLY****
TOTAL RUN TIME: 0 days 0 hours 47 minutes 8 seconds 254 msec
