                         Program Version 5.0.4 -  RELEASE  -
|  1> ! ri-mp2 aug-cc-pvdz aug-cc-pvdz/c tightscf
|  2> %pal nprocs 16 end
|  3> %maxcore 3800
|  4> %base "DZ_P-S_20_A"
|  5> %scf
|  6> STABPerform true
|  7> STABRestartUHFifUnstable true
|  8> end
|  9>
| 10> *xyz 0 2
| 11> C        -1.396128   -0.898241    0.000000
| 12> C        -0.396928    0.216459   -0.000002
| 13> H        -2.399518   -0.477841   -0.000009
| 14> H        -1.255281   -1.524049    0.881710
| 15> H        -1.255270   -1.524064   -0.881697
| 16> S         1.314024   -0.216859    0.000002
| 17> O        -0.669497    1.385799   -0.000002
| 18> *
| 19>
| 20> $new_job
| 21> ! ri-mp2 aug-cc-pvtz aug-cc-pvtz/c tightscf
| 22> %pal nprocs 16 end
| 23> %maxcore 3800
| 24> %base "TZ_P-S_20_A"
| 25>
| 26> *xyz 0 2
| 27> C        -1.396128   -0.898241    0.000000
| 28> C        -0.396928    0.216459   -0.000002
| 29> H        -2.399518   -0.477841   -0.000009
| 30> H        -1.255281   -1.524049    0.881710
| 31> H        -1.255270   -1.524064   -0.881697
| 32> S         1.314024   -0.216859    0.000002
| 33> O        -0.669497    1.385799   -0.000002
| 34> *
| 35>
| 36> $new_job
| 37> ! ri-mp2 aug-cc-pvqz aug-cc-pvqz/c tightscf
| 38> %pal nprocs 16 end
| 39> %maxcore 3800
| 40> %base "QZ_P-S_20_A"
| 41>
| 42> *xyz 0 2
| 43> C        -1.396128   -0.898241    0.000000
| 44> C        -0.396928    0.216459   -0.000002
| 45> H        -2.399518   -0.477841   -0.000009
| 46> H        -1.255281   -1.524049    0.881710
| 47> H        -1.255270   -1.524064   -0.881697
| 48> S         1.314024   -0.216859    0.000002
| 49> O        -0.669497    1.385799   -0.000002
| 50> *
| 51>
| 52>
| 53>
| 54>
| 55>                          ****END OF INPUT****
 Total Charge           Charge          ....    0
 Multiplicity           Mult            ....    2
 Number of Electrons    NEL             ....   39
MP2 TOTAL ENERGY:     -550.467623360 Eh
FINAL SINGLE POINT ENERGY      -550.467623359637
MP2 TOTAL ENERGY:     -550.646053176 Eh
FINAL SINGLE POINT ENERGY      -550.646053176220

CARTESIAN COORDINATES (ANGSTROEM)
---------------------------------
  C     -1.396128   -0.898241    0.000000
  C     -0.396928    0.216459   -0.000002
  H     -2.399518   -0.477841   -0.000009
  H     -1.255281   -1.524049    0.881710
  H     -1.255270   -1.524064   -0.881697
  S      1.314024   -0.216859    0.000002
  O     -0.669497    1.385799   -0.000002

 Multiplicity           Mult            ....    2
 Number of Electrons    NEL             ....   39
 Basis Dimension        Dim             ....  462

ORBITAL ENERGIES
----------------
                 SPIN UP ORBITALS
  NO   OCC          E(Eh)            E(eV)
   0   1.0000     -92.000583     -2503.4631
   1   1.0000     -20.565720      -559.6217
   2   1.0000     -11.374027      -309.5030
   3   1.0000     -11.256267      -306.2986
   4   1.0000      -9.003636      -245.0014
   5   1.0000      -6.699676      -182.3074
   6   1.0000      -6.680646      -181.7896
   7   1.0000      -6.679495      -181.7583
   8   1.0000      -1.420566       -38.6556
   9   1.0000      -1.071791       -29.1649
  10   1.0000      -0.995530       -27.0897
  11   1.0000      -0.751225       -20.4419
  12   1.0000      -0.658246       -17.9118
  13   1.0000      -0.649971       -17.6866
  14   1.0000      -0.630821       -17.1655
  15   1.0000      -0.569084       -15.4856
  16   1.0000      -0.536719       -14.6049
  17   1.0000      -0.472689       -12.8625
  18   1.0000      -0.429084       -11.6760
  19   1.0000      -0.408304       -11.1105
  20   0.0000       0.023106         0.6287
  21   0.0000       0.038565         1.0494
  22   0.0000       0.041824         1.1381
  23   0.0000       0.050559         1.3758
  24   0.0000       0.065520         1.7829

                 SPIN DOWN ORBITALS
  NO   OCC          E(Eh)            E(eV)
   0   1.0000     -91.991226     -2503.2085
   1   1.0000     -20.564224      -559.5810
   2   1.0000     -11.374921      -309.5273
   3   1.0000     -11.256151      -306.2954
   4   1.0000      -8.993308      -244.7204
   5   1.0000      -6.675744      -181.6562
   6   1.0000      -6.673875      -181.6054
   7   1.0000      -6.657485      -181.1594
   8   1.0000      -1.416008       -38.5315
   9   1.0000      -1.051738       -28.6192
  10   1.0000      -0.939976       -25.5781
  11   1.0000      -0.735800       -20.0221
  12   1.0000      -0.644626       -17.5412
  13   1.0000      -0.636349       -17.3159
  14   1.0000      -0.630248       -17.1499
  15   1.0000      -0.560609       -15.2550
  16   1.0000      -0.535275       -14.5656
  17   1.0000      -0.421037       -11.4570
  18   1.0000      -0.388538       -10.5727
  19   0.0000      -0.003535        -0.0962
  20   0.0000       0.024418         0.6644
  21   0.0000       0.038593         1.0502
  22   0.0000       0.042466         1.1555
  23   0.0000       0.051813         1.4099

MULLIKEN ATOMIC CHARGES AND SPIN POPULATIONS
--------------------------------------------
   0 C :   -0.769264   -0.001804
   1 C :    0.492199   -0.116090
   2 H :    0.283012    0.005164
   3 H :    0.266223   -0.002532
   4 H :    0.266222   -0.002532
   5 S :    0.124608    1.105053
   6 O :   -0.663001    0.012740
Sum of atomic charges         :    0.0000000

LOEWDIN ATOMIC CHARGES AND SPIN POPULATIONS
-------------------------------------------
   0 C :    0.747104    0.023350
   1 C :   -1.357430    0.190996
   2 H :   -0.324718    0.001825
   3 H :   -0.322789    0.005965
   4 H :   -0.322790    0.005965
   5 S :    1.012629    0.742156
   6 O :    0.567995    0.029744

  Mayer bond orders larger than 0.100000
B(  0-C ,  1-C ) :   0.9984 B(  0-C ,  2-H ) :   0.9373 B(  0-C ,  3-H ) :   0.9255
B(  0-C ,  4-H ) :   0.9255 B(  1-C ,  5-S ) :   0.9549 B(  1-C ,  6-O ) :   1.5637

MP2 TOTAL ENERGY:     -550.704383893 Eh
FINAL SINGLE POINT ENERGY      -550.704383893497

DIPOLE MOMENT
-------------
                                X             Y             Z
Electronic contribution:      4.61138       2.22335      -0.00000
Nuclear contribution   :     -4.83829      -3.41079       0.00000
                        -----------------------------------------
Total Dipole Moment    :     -0.22691      -1.18744       0.00000
                        -----------------------------------------
Magnitude (a.u.)       :      1.20893
Magnitude (Debye)      :      3.07285

Rotational constants in cm-1:     0.349237     0.170985     0.117289
Rotational constants in MHz : 10469.854342  5125.998681  3516.248385

                             ****ORCA TERMINATED NORMALLY****
TOTAL RUN TIME: 0 days 0 hours 19 minutes 26 seconds 940 msec
