                         Program Version 5.0.4 -  RELEASE  -
|  1> ! ri-mp2 aug-cc-pvdz aug-cc-pvdz/c tightscf
|  2> %pal nprocs 16 end
|  3> %maxcore 3800
|  4> %base "DZ_S-Cl_48_AB"
|  5> %scf
|  6> STABPerform true
|  7> STABRestartUHFifUnstable true
|  8> end
|  9>
| 10> *xyz 0 1
| 11> Cl         1.753105   -1.069149    0.000003
| 12> S         1.361650    0.932186   -0.000004
| 13> N        -0.269281    1.029956    0.000003
| 14> C        -1.278167    0.385570    0.000009
| 15> S        -2.627200   -0.391410   -0.000003
| 16> *
| 17>
| 18> $new_job
| 19> ! ri-mp2 aug-cc-pvtz aug-cc-pvtz/c tightscf
| 20> %pal nprocs 16 end
| 21> %maxcore 3800
| 22> %base "TZ_S-Cl_48_AB"
| 23>
| 24> *xyz 0 1
| 25> Cl         1.753105   -1.069149    0.000003
| 26> S         1.361650    0.932186   -0.000004
| 27> N        -0.269281    1.029956    0.000003
| 28> C        -1.278167    0.385570    0.000009
| 29> S        -2.627200   -0.391410   -0.000003
| 30> *
| 31>
| 32> $new_job
| 33> ! ri-mp2 aug-cc-pvqz aug-cc-pvqz/c tightscf
| 34> %pal nprocs 16 end
| 35> %maxcore 3800
| 36> %base "QZ_S-Cl_48_AB"
| 37>
| 38> *xyz 0 1
| 39> Cl         1.753105   -1.069149    0.000003
| 40> S         1.361650    0.932186   -0.000004
| 41> N        -0.269281    1.029956    0.000003
| 42> C        -1.278167    0.385570    0.000009
| 43> S        -2.627200   -0.391410   -0.000003
| 44> *
| 45>
| 46>
| 47>
| 48>
| 49>                          ****END OF INPUT****
 Total Charge           Charge          ....    0
 Multiplicity           Mult            ....    1
 Number of Electrons    NEL             ....   62
MP2 TOTAL ENERGY:    -1347.563368320 Eh
FINAL SINGLE POINT ENERGY     -1347.563368320367
MP2 TOTAL ENERGY:    -1347.807644757 Eh
FINAL SINGLE POINT ENERGY     -1347.807644757298

CARTESIAN COORDINATES (ANGSTROEM)
---------------------------------
  Cl     1.753105   -1.069149    0.000003
  S      1.361650    0.932186   -0.000004
  N     -0.269281    1.029956    0.000003
  C     -1.278167    0.385570    0.000009
  S     -2.627200   -0.391410   -0.000003

 Multiplicity           Mult            ....    1
 Number of Electrons    NEL             ....   62
 Basis Dimension        Dim             ....  412

ORBITAL ENERGIES
----------------

  NO   OCC          E(Eh)            E(eV)
   0   2.0000    -104.875053     -2853.7953
   1   2.0000     -92.080729     -2505.6440
   2   2.0000     -91.976797     -2502.8159
   3   2.0000     -15.639090      -425.5613
   4   2.0000     -11.398225      -310.1615
   5   2.0000     -10.599420      -288.4249
   6   2.0000      -9.073338      -246.8981
   7   2.0000      -8.981187      -244.3905
   8   2.0000      -8.066358      -219.4968
   9   2.0000      -8.064446      -219.4447
  10   2.0000      -8.064179      -219.4375
  11   2.0000      -6.754492      -183.7991
  12   2.0000      -6.752827      -183.7538
  13   2.0000      -6.751054      -183.7055
  14   2.0000      -6.662901      -181.3068
  15   2.0000      -6.660778      -181.2490
  16   2.0000      -6.660282      -181.2355
  17   2.0000      -1.328643       -36.1542
  18   2.0000      -1.162117       -31.6228
  19   2.0000      -1.074947       -29.2508
  20   2.0000      -0.983775       -26.7699
  21   2.0000      -0.729922       -19.8622
  22   2.0000      -0.629864       -17.1395
  23   2.0000      -0.625930       -17.0324
  24   2.0000      -0.622411       -16.9367
  25   2.0000      -0.528179       -14.3725
  26   2.0000      -0.526263       -14.3203
  27   2.0000      -0.491083       -13.3631
  28   2.0000      -0.432959       -11.7814
  29   2.0000      -0.402263       -10.9461
  30   2.0000      -0.345371        -9.3980
  31   0.0000       0.022359         0.6084
  32   0.0000       0.042710         1.1622
  33   0.0000       0.046650         1.2694
  34   0.0000       0.059940         1.6310
  35   0.0000       0.064759         1.7622

MULLIKEN ATOMIC CHARGES
-----------------------
   0 Cl:   -0.234516
   1 S :    0.620609
   2 N :   -0.635559
   3 C :    0.071610
   4 S :    0.177856
Sum of atomic charges:    0.0000000

LOEWDIN ATOMIC CHARGES
----------------------
   0 Cl:    0.456005
   1 S :    0.159435
   2 N :   -0.346516
   3 C :   -1.251162
   4 S :    0.982237

  Mayer bond orders larger than 0.100000
B(  0-Cl,  1-S ) :   0.9804 B(  1-S ,  2-N ) :   0.9226 B(  2-N ,  3-C ) :   2.0154
B(  3-C ,  4-S ) :   1.7052

MP2 TOTAL ENERGY:    -1347.888657403 Eh
FINAL SINGLE POINT ENERGY     -1347.888657403397

DIPOLE MOMENT
-------------
                                X             Y             Z
Electronic contribution:      2.55444      -1.21598       0.00000
Nuclear contribution   :     -2.29061       1.40827      -0.00000
                        -----------------------------------------
Total Dipole Moment    :      0.26383       0.19229       0.00000
                        -----------------------------------------
Magnitude (a.u.)       :      0.32647
Magnitude (Debye)      :      0.82982

Rotational constants in cm-1:     0.187511     0.041086     0.033702
Rotational constants in MHz :  5621.438763  1231.740137  1010.356194

                             ****ORCA TERMINATED NORMALLY****
TOTAL RUN TIME: 0 days 0 hours 5 minutes 45 seconds 120 msec
