                         Program Version 5.0.4 -  RELEASE  -
|  1> ! ri-mp2 aug-cc-pvdz aug-cc-pvdz/c tightscf
|  2> %pal nprocs 16 end
|  3> %maxcore 3800
|  4> %base "DZ_P-S_14_AB"
|  5> %scf
|  6> STABPerform true
|  7> STABRestartUHFifUnstable true
|  8> end
|  9>
| 10> *xyz 0 1
| 11> S         0.708796   -1.110764   -0.043110
| 12> P        -0.901841    0.202448   -0.049728
| 13> O        -0.642685    1.524503   -0.616943
| 14> O        -1.455545    0.222098    1.432827
| 15> O         1.865404   -0.139867    0.607355
| 16> C         2.562642    0.694181   -0.324156
| 17> H         3.331862    1.198517    0.256515
| 18> H         1.884273    1.423829   -0.764283
| 19> H         3.025609    0.089682   -1.105570
| 20> H        -1.704096    1.112854    1.709557
| 21> O        -1.983302   -0.695514   -0.794321
| 22> H        -1.997603   -0.544232   -1.746954
| 23> *
| 24>
| 25> $new_job
| 26> ! ri-mp2 aug-cc-pvtz aug-cc-pvtz/c tightscf
| 27> %pal nprocs 16 end
| 28> %maxcore 3800
| 29> %base "TZ_P-S_14_AB"
| 30>
| 31> *xyz 0 1
| 32> S         0.708796   -1.110764   -0.043110
| 33> P        -0.901841    0.202448   -0.049728
| 34> O        -0.642685    1.524503   -0.616943
| 35> O        -1.455545    0.222098    1.432827
| 36> O         1.865404   -0.139867    0.607355
| 37> C         2.562642    0.694181   -0.324156
| 38> H         3.331862    1.198517    0.256515
| 39> H         1.884273    1.423829   -0.764283
| 40> H         3.025609    0.089682   -1.105570
| 41> H        -1.704096    1.112854    1.709557
| 42> O        -1.983302   -0.695514   -0.794321
| 43> H        -1.997603   -0.544232   -1.746954
| 44> *
| 45>
| 46> $new_job
| 47> ! ri-mp2 aug-cc-pvqz aug-cc-pvqz/c tightscf
| 48> %pal nprocs 16 end
| 49> %maxcore 3800
| 50> %base "QZ_P-S_14_AB"
| 51>
| 52> *xyz 0 1
| 53> S         0.708796   -1.110764   -0.043110
| 54> P        -0.901841    0.202448   -0.049728
| 55> O        -0.642685    1.524503   -0.616943
| 56> O        -1.455545    0.222098    1.432827
| 57> O         1.865404   -0.139867    0.607355
| 58> C         2.562642    0.694181   -0.324156
| 59> H         3.331862    1.198517    0.256515
| 60> H         1.884273    1.423829   -0.764283
| 61> H         3.025609    0.089682   -1.105570
| 62> H        -1.704096    1.112854    1.709557
| 63> O        -1.983302   -0.695514   -0.794321
| 64> H        -1.997603   -0.544232   -1.746954
| 65> *
| 66>
| 67>
| 68>
| 69>
| 70>                          ****END OF INPUT****
 Total Charge           Charge          ....    0
 Multiplicity           Mult            ....    1
 Number of Electrons    NEL             ....   74
MP2 TOTAL ENERGY:    -1079.800923947 Eh
FINAL SINGLE POINT ENERGY     -1079.800923947338
MP2 TOTAL ENERGY:    -1080.228970533 Eh
FINAL SINGLE POINT ENERGY     -1080.228970533351

CARTESIAN COORDINATES (ANGSTROEM)
---------------------------------
  S      0.708796   -1.110764   -0.043110
  P     -0.901841    0.202448   -0.049728
  O     -0.642685    1.524503   -0.616943
  O     -1.455545    0.222098    1.432827
  O      1.865404   -0.139867    0.607355
  C      2.562642    0.694181   -0.324156
  H      3.331862    1.198517    0.256515
  H      1.884273    1.423829   -0.764283
  H      3.025609    0.089682   -1.105570
  H     -1.704096    1.112854    1.709557
  O     -1.983302   -0.695514   -0.794321
  H     -1.997603   -0.544232   -1.746954

 Multiplicity           Mult            ....    1
 Number of Electrons    NEL             ....   74
 Basis Dimension        Dim             ....  798

ORBITAL ENERGIES
----------------

  NO   OCC          E(Eh)            E(eV)
   0   2.0000     -92.016066     -2503.8845
   1   2.0000     -80.096901     -2179.5475
   2   2.0000     -20.617766      -561.0379
   3   2.0000     -20.610846      -560.8496
   4   2.0000     -20.603422      -560.6476
   5   2.0000     -20.523261      -558.4663
   6   2.0000     -11.282045      -307.0001
   7   2.0000      -9.013897      -245.2806
   8   2.0000      -7.617549      -207.2840
   9   2.0000      -6.695267      -182.1875
  10   2.0000      -6.693938      -182.1513
  11   2.0000      -6.693032      -182.1267
  12   2.0000      -5.515784      -150.0921
  13   2.0000      -5.515317      -150.0794
  14   2.0000      -5.514501      -150.0572
  15   2.0000      -1.454631       -39.5825
  16   2.0000      -1.402609       -38.1669
  17   2.0000      -1.400906       -38.1206
  18   2.0000      -1.316140       -35.8140
  19   2.0000      -1.009528       -27.4707
  20   2.0000      -0.916207       -24.9313
  21   2.0000      -0.845438       -23.0055
  22   2.0000      -0.748609       -20.3707
  23   2.0000      -0.705429       -19.1957
  24   2.0000      -0.681767       -18.5518
  25   2.0000      -0.659779       -17.9535
  26   2.0000      -0.647529       -17.6202
  27   2.0000      -0.640083       -17.4175
  28   2.0000      -0.607298       -16.5254
  29   2.0000      -0.583594       -15.8804
  30   2.0000      -0.563383       -15.3304
  31   2.0000      -0.530987       -14.4489
  32   2.0000      -0.512050       -13.9336
  33   2.0000      -0.503515       -13.7013
  34   2.0000      -0.484576       -13.1860
  35   2.0000      -0.427561       -11.6345
  36   2.0000      -0.387928       -10.5561
  37   0.0000       0.023603         0.6423
  38   0.0000       0.032250         0.8776
  39   0.0000       0.034065         0.9269
  40   0.0000       0.045612         1.2412
  41   0.0000       0.049466         1.3460

MULLIKEN ATOMIC CHARGES
-----------------------
   0 S :    0.201179
   1 P :    2.314249
   2 O :   -1.132951
   3 O :   -0.905760
   4 O :   -0.762465
   5 C :   -0.603513
   6 H :    0.368401
   7 H :    0.349181
   8 H :    0.288321
   9 H :    0.393353
  10 O :   -0.906978
  11 H :    0.396982
Sum of atomic charges:   -0.0000000

LOEWDIN ATOMIC CHARGES
----------------------
   0 S :    0.822468
   1 P :   -1.076633
   2 O :    0.279368
   3 O :    1.046993
   4 O :    0.274581
   5 C :    0.421905
   6 H :   -0.337001
   7 H :   -0.387819
   8 H :   -0.341821
   9 H :   -0.871043
  10 O :    1.039136
  11 H :   -0.870135

  Mayer bond orders larger than 0.100000
B(  0-S ,  1-P ) :   0.9585 B(  0-S ,  4-O ) :   0.7815 B(  1-P ,  2-O ) :   1.4152
B(  1-P ,  3-O ) :   0.6339 B(  1-P , 10-O ) :   0.6008 B(  3-O ,  9-H ) :   0.8973
B(  4-O ,  5-C ) :   0.8477 B(  5-C ,  6-H ) :   0.8497 B(  5-C ,  7-H ) :   0.8692
B(  5-C ,  8-H ) :   0.9115 B( 10-O , 11-H ) :   0.8838

MP2 TOTAL ENERGY:    -1080.367646705 Eh
FINAL SINGLE POINT ENERGY     -1080.367646705334

DIPOLE MOMENT
-------------
                                X             Y             Z
Electronic contribution:     -5.17052      -3.03060       1.13253
Nuclear contribution   :      5.15290       3.02538      -1.53573
                        -----------------------------------------
Total Dipole Moment    :     -0.01762      -0.00522      -0.40321
                        -----------------------------------------
Magnitude (a.u.)       :      0.40362
Magnitude (Debye)      :      1.02593

Rotational constants in cm-1:     0.104319     0.045032     0.041338
Rotational constants in MHz :  3127.415373  1350.020380  1239.279965

                             ****ORCA TERMINATED NORMALLY****
TOTAL RUN TIME: 0 days 0 hours 50 minutes 20 seconds 268 msec
