                         Program Version 5.0.4 -  RELEASE  -
|  1> ! ri-mp2 aug-cc-pvdz aug-cc-pvdz/c tightscf
|  2> %pal nprocs 16 end
|  3> %maxcore 3800
|  4> %base "DZ_Si-Si_67_AB"
|  5>
|  6> *xyz 0 1
|  7> Si        -1.955794   -0.819926   -0.546453
|  8> Si        -2.634005    1.068764    0.663826
|  9> O        -0.432152   -1.311999   -0.124960
| 10> H        -2.033937   -0.540647   -2.001103
| 11> H        -2.814782   -1.980584   -0.243257
| 12> H        -4.089735    1.254342    0.458377
| 13> H        -1.937450    2.291593    0.208801
| 14> C         0.723131   -0.595119   -0.094076
| 15> H        -2.376127    0.876931    2.108044
| 16> C         1.754930   -1.069748    0.702799
| 17> C         0.893615    0.567118   -0.831907
| 18> C         2.948861   -0.377219    0.763415
| 19> C         3.125076    0.789789    0.035287
| 20> C         2.094068    1.255281   -0.760192
| 21> H         1.600063   -1.979569    1.265960
| 22> H         3.749466   -0.751808    1.387486
| 23> H         4.060427    1.329590    0.087192
| 24> H         2.219995    2.161858   -1.337097
| 25> H         0.098395    0.929932   -1.469899
| 26> *
| 27>
| 28> $new_job
| 29> ! ri-mp2 aug-cc-pvtz aug-cc-pvtz/c tightscf
| 30> %pal nprocs 16 end
| 31> %maxcore 3800
| 32> %base "TZ_Si-Si_67_AB"
| 33>
| 34> *xyz 0 1
| 35> Si        -1.955794   -0.819926   -0.546453
| 36> Si        -2.634005    1.068764    0.663826
| 37> O        -0.432152   -1.311999   -0.124960
| 38> H        -2.033937   -0.540647   -2.001103
| 39> H        -2.814782   -1.980584   -0.243257
| 40> H        -4.089735    1.254342    0.458377
| 41> H        -1.937450    2.291593    0.208801
| 42> C         0.723131   -0.595119   -0.094076
| 43> H        -2.376127    0.876931    2.108044
| 44> C         1.754930   -1.069748    0.702799
| 45> C         0.893615    0.567118   -0.831907
| 46> C         2.948861   -0.377219    0.763415
| 47> C         3.125076    0.789789    0.035287
| 48> C         2.094068    1.255281   -0.760192
| 49> H         1.600063   -1.979569    1.265960
| 50> H         3.749466   -0.751808    1.387486
| 51> H         4.060427    1.329590    0.087192
| 52> H         2.219995    2.161858   -1.337097
| 53> H         0.098395    0.929932   -1.469899
| 54> *
| 55>
| 56> $new_job
| 57> ! ri-mp2 aug-cc-pvqz aug-cc-pvqz/c tightscf
| 58> %pal nprocs 16 end
| 59> %maxcore 3800
| 60> %base "QZ_Si-Si_67_AB"
| 61>
| 62> *xyz 0 1
| 63> Si        -1.955794   -0.819926   -0.546453
| 64> Si        -2.634005    1.068764    0.663826
| 65> O        -0.432152   -1.311999   -0.124960
| 66> H        -2.033937   -0.540647   -2.001103
| 67> H        -2.814782   -1.980584   -0.243257
| 68> H        -4.089735    1.254342    0.458377
| 69> H        -1.937450    2.291593    0.208801
| 70> C         0.723131   -0.595119   -0.094076
| 71> H        -2.376127    0.876931    2.108044
| 72> C         1.754930   -1.069748    0.702799
| 73> C         0.893615    0.567118   -0.831907
| 74> C         2.948861   -0.377219    0.763415
| 75> C         3.125076    0.789789    0.035287
| 76> C         2.094068    1.255281   -0.760192
| 77> H         1.600063   -1.979569    1.265960
| 78> H         3.749466   -0.751808    1.387486
| 79> H         4.060427    1.329590    0.087192
| 80> H         2.219995    2.161858   -1.337097
| 81> H         0.098395    0.929932   -1.469899
| 82> *
| 83>
| 84>
| 85>
| 86>
| 87>                          ****END OF INPUT****
 Total Charge           Charge          ....    0
 Multiplicity           Mult            ....    1
 Number of Electrons    NEL             ....   82
MP2 TOTAL ENERGY:     -887.029727920 Eh
FINAL SINGLE POINT ENERGY      -887.029727920084
MP2 TOTAL ENERGY:     -887.376219720 Eh
FINAL SINGLE POINT ENERGY      -887.376219719631

CARTESIAN COORDINATES (ANGSTROEM)
---------------------------------
  Si    -1.955794   -0.819926   -0.546453
  Si    -2.634005    1.068764    0.663826
  O     -0.432152   -1.311999   -0.124960
  H     -2.033937   -0.540647   -2.001103
  H     -2.814782   -1.980584   -0.243257
  H     -4.089735    1.254342    0.458377
  H     -1.937450    2.291593    0.208801
  C      0.723131   -0.595119   -0.094076
  H     -2.376127    0.876931    2.108044
  C      1.754930   -1.069748    0.702799
  C      0.893615    0.567118   -0.831907
  C      2.948861   -0.377219    0.763415
  C      3.125076    0.789789    0.035287
  C      2.094068    1.255281   -0.760192
  H      1.600063   -1.979569    1.265960
  H      3.749466   -0.751808    1.387486
  H      4.060427    1.329590    0.087192
  H      2.219995    2.161858   -1.337097
  H      0.098395    0.929932   -1.469899

 Multiplicity           Mult            ....    1
 Number of Electrons    NEL             ....   82
 Basis Dimension        Dim             .... 1188

ORBITAL ENERGIES
----------------

  NO   OCC          E(Eh)            E(eV)
   0   2.0000     -68.797822     -1872.0839
   1   2.0000     -68.767956     -1871.2712
   2   2.0000     -20.571756      -559.7859
   3   2.0000     -11.305171      -307.6293
   4   2.0000     -11.240513      -305.8699
   5   2.0000     -11.239078      -305.8309
   6   2.0000     -11.233022      -305.6661
   7   2.0000     -11.228231      -305.5357
   8   2.0000     -11.227728      -305.5220
   9   2.0000      -6.143464      -167.1722
  10   2.0000      -6.119145      -166.5104
  11   2.0000      -4.250251      -115.6552
  12   2.0000      -4.249888      -115.6453
  13   2.0000      -4.249712      -115.6405
  14   2.0000      -4.225262      -114.9752
  15   2.0000      -4.225187      -114.9732
  16   2.0000      -4.225153      -114.9723
  17   2.0000      -1.391692       -37.8699
  18   2.0000      -1.155269       -31.4365
  19   2.0000      -1.025996       -27.9188
  20   2.0000      -1.011257       -27.5177
  21   2.0000      -0.851781       -23.1782
  22   2.0000      -0.834393       -22.7050
  23   2.0000      -0.762416       -20.7464
  24   2.0000      -0.727339       -19.7919
  25   2.0000      -0.688251       -18.7283
  26   2.0000      -0.660513       -17.9735
  27   2.0000      -0.629275       -17.1234
  28   2.0000      -0.613690       -16.6993
  29   2.0000      -0.606563       -16.5054
  30   2.0000      -0.594185       -16.1686
  31   2.0000      -0.549681       -14.9576
  32   2.0000      -0.521114       -14.1802
  33   2.0000      -0.507609       -13.8127
  34   2.0000      -0.496528       -13.5112
  35   2.0000      -0.487124       -13.2553
  36   2.0000      -0.483731       -13.1630
  37   2.0000      -0.462996       -12.5988
  38   2.0000      -0.403206       -10.9718
  39   2.0000      -0.346898        -9.4396
  40   2.0000      -0.321889        -8.7591
  41   0.0000       0.022957         0.6247
  42   0.0000       0.028524         0.7762
  43   0.0000       0.029233         0.7955
  44   0.0000       0.032110         0.8737
  45   0.0000       0.039874         1.0850

MULLIKEN ATOMIC CHARGES
-----------------------
   0 Si:    1.150519
   1 Si:    0.340349
   2 O :   -0.921107
   3 H :   -0.233354
   4 H :   -0.403848
   5 H :   -0.193433
   6 H :   -0.147280
   7 C :    1.062689
   8 H :   -0.132469
   9 C :   -0.526425
  10 C :   -0.363264
  11 C :   -0.317168
  12 C :   -0.390808
  13 C :   -0.361171
  14 H :    0.328439
  15 H :    0.261347
  16 H :    0.301501
  17 H :    0.255059
  18 H :    0.290424
Sum of atomic charges:   -0.0000000

LOEWDIN ATOMIC CHARGES
----------------------
   0 Si:    0.395561
   1 Si:    1.069066
   2 O :    0.651431
   3 H :   -0.252979
   4 H :   -0.274537
   5 H :   -0.319810
   6 H :   -0.306822
   7 C :   -0.588258
   8 H :   -0.307896
   9 C :    0.312595
  10 C :    0.275531
  11 C :    0.328644
  12 C :    0.332883
  13 C :    0.335066
  14 H :   -0.324759
  15 H :   -0.319077
  16 H :   -0.326790
  17 H :   -0.315742
  18 H :   -0.364108

  Mayer bond orders larger than 0.100000
B(  0-Si,  1-Si) :   0.8435 B(  0-Si,  2-O ) :   0.4652 B(  0-Si,  3-H ) :   0.8725
B(  0-Si,  4-H ) :   0.7398 B(  1-Si,  2-O ) :  -0.1059 B(  1-Si,  5-H ) :   0.7362
B(  1-Si,  6-H ) :   0.7499 B(  1-Si,  8-H ) :   0.7566 B(  2-O ,  7-C ) :   0.1634
B(  2-O ,  9-C ) :   0.1623 B(  2-O , 10-C ) :   0.1537 B(  7-C ,  9-C ) :   1.0925
B(  7-C , 10-C ) :   1.2559 B(  7-C , 11-C ) :  -0.3322 B(  7-C , 13-C ) :  -0.2539
B(  9-C , 11-C ) :   1.3874 B(  9-C , 13-C ) :   0.1400 B(  9-C , 14-H ) :   0.8888
B(  9-C , 15-H ) :  -0.1468 B( 10-C , 13-C ) :   1.1540 B( 10-C , 17-H ) :  -0.1325
B( 10-C , 18-H ) :   0.9472 B( 11-C , 12-C ) :   1.1372 B( 11-C , 15-H ) :   1.1243
B( 12-C , 13-C ) :   1.2248 B( 12-C , 15-H ) :  -0.1067 B( 12-C , 16-H ) :   1.0311
B( 13-C , 17-H ) :   1.1043

MP2 TOTAL ENERGY:     -887.486938074 Eh
FINAL SINGLE POINT ENERGY      -887.486938073756

DIPOLE MOMENT
-------------
                                X             Y             Z
Electronic contribution:      1.29515      -3.27860      -0.49513
Nuclear contribution   :     -1.24931       3.54859       0.45448
                        -----------------------------------------
Total Dipole Moment    :      0.04585       0.26999      -0.04065
                        -----------------------------------------
Magnitude (a.u.)       :      0.27686
Magnitude (Debye)      :      0.70372

Rotational constants in cm-1:     0.077369     0.021753     0.019563
Rotational constants in MHz :  2319.466955   652.135977   586.480252

                             ****ORCA TERMINATED NORMALLY****
TOTAL RUN TIME: 0 days 0 hours 41 minutes 35 seconds 735 msec
