                         Program Version 5.0.4 -  RELEASE  -
|  1> ! ri-mp2 aug-cc-pvdz aug-cc-pvdz/c tightscf
|  2> %pal nprocs 16 end
|  3> %maxcore 3800
|  4> %base "DZ_B-Si_15_AB"
|  5> %scf
|  6> STABPerform true
|  7> STABRestartUHFifUnstable true
|  8> end
|  9>
| 10> *xyz 0 1
| 11> Si         0.501049   -0.022830    0.423819
| 12> B        -1.360875   -0.771694    0.166566
| 13> O        -2.341747    0.046966   -0.281216
| 14> C         0.640897    1.746455   -0.177831
| 15> H        -0.082140    2.388381    0.326463
| 16> H         0.442792    1.807935   -1.249143
| 17> C         1.770539   -1.110763   -0.433797
| 18> H         1.614979   -1.119312   -1.514008
| 19> H         1.711098   -2.141057   -0.080665
| 20> H         2.783473   -0.751661   -0.246791
| 21> H         1.637282    2.151574    0.004203
| 22> H        -3.202161   -0.375024   -0.370822
| 23> H        -1.642681   -1.918539    0.398289
| 24> H         0.792408   -0.054093    1.885671
| 25> *
| 26>
| 27> $new_job
| 28> ! ri-mp2 aug-cc-pvtz aug-cc-pvtz/c tightscf
| 29> %pal nprocs 16 end
| 30> %maxcore 3800
| 31> %base "TZ_B-Si_15_AB"
| 32>
| 33> *xyz 0 1
| 34> Si         0.501049   -0.022830    0.423819
| 35> B        -1.360875   -0.771694    0.166566
| 36> O        -2.341747    0.046966   -0.281216
| 37> C         0.640897    1.746455   -0.177831
| 38> H        -0.082140    2.388381    0.326463
| 39> H         0.442792    1.807935   -1.249143
| 40> C         1.770539   -1.110763   -0.433797
| 41> H         1.614979   -1.119312   -1.514008
| 42> H         1.711098   -2.141057   -0.080665
| 43> H         2.783473   -0.751661   -0.246791
| 44> H         1.637282    2.151574    0.004203
| 45> H        -3.202161   -0.375024   -0.370822
| 46> H        -1.642681   -1.918539    0.398289
| 47> H         0.792408   -0.054093    1.885671
| 48> *
| 49>
| 50> $new_job
| 51> ! ri-mp2 aug-cc-pvqz aug-cc-pvqz/c tightscf
| 52> %pal nprocs 16 end
| 53> %maxcore 3800
| 54> %base "QZ_B-Si_15_AB"
| 55>
| 56> *xyz 0 1
| 57> Si         0.501049   -0.022830    0.423819
| 58> B        -1.360875   -0.771694    0.166566
| 59> O        -2.341747    0.046966   -0.281216
| 60> C         0.640897    1.746455   -0.177831
| 61> H        -0.082140    2.388381    0.326463
| 62> H         0.442792    1.807935   -1.249143
| 63> C         1.770539   -1.110763   -0.433797
| 64> H         1.614979   -1.119312   -1.514008
| 65> H         1.711098   -2.141057   -0.080665
| 66> H         2.783473   -0.751661   -0.246791
| 67> H         1.637282    2.151574    0.004203
| 68> H        -3.202161   -0.375024   -0.370822
| 69> H        -1.642681   -1.918539    0.398289
| 70> H         0.792408   -0.054093    1.885671
| 71> *
| 72>
| 73>
| 74>
| 75>
| 76>                          ****END OF INPUT****
 Total Charge           Charge          ....    0
 Multiplicity           Mult            ....    1
 Number of Electrons    NEL             ....   48
MP2 TOTAL ENERGY:     -470.222018079 Eh
FINAL SINGLE POINT ENERGY      -470.222018078511
MP2 TOTAL ENERGY:     -470.431469684 Eh
FINAL SINGLE POINT ENERGY      -470.431469684224

CARTESIAN COORDINATES (ANGSTROEM)
---------------------------------
  Si     0.501049   -0.022830    0.423819
  B     -1.360875   -0.771694    0.166566
  O     -2.341747    0.046966   -0.281216
  C      0.640897    1.746455   -0.177831
  H     -0.082140    2.388381    0.326463
  H      0.442792    1.807935   -1.249143
  C      1.770539   -1.110763   -0.433797
  H      1.614979   -1.119312   -1.514008
  H      1.711098   -2.141057   -0.080665
  H      2.783473   -0.751661   -0.246791
  H      1.637282    2.151574    0.004203
  H     -3.202161   -0.375024   -0.370822
  H     -1.642681   -1.918539    0.398289
  H      0.792408   -0.054093    1.885671

 Multiplicity           Mult            ....    1
 Number of Electrons    NEL             ....   48
 Basis Dimension        Dim             ....  818

ORBITAL ENERGIES
----------------

  NO   OCC          E(Eh)            E(eV)
   0   2.0000     -68.733842     -1870.3429
   1   2.0000     -20.580568      -560.0257
   2   2.0000     -11.194575      -304.6199
   3   2.0000     -11.190644      -304.5129
   4   2.0000      -7.612764      -207.1538
   5   2.0000      -6.085143      -165.5852
   6   2.0000      -4.191649      -114.0606
   7   2.0000      -4.191229      -114.0491
   8   2.0000      -4.191129      -114.0464
   9   2.0000      -1.373856       -37.3845
  10   2.0000      -0.949690       -25.8424
  11   2.0000      -0.919197       -25.0126
  12   2.0000      -0.769842       -20.9485
  13   2.0000      -0.661091       -17.9892
  14   2.0000      -0.639614       -17.4048
  15   2.0000      -0.564871       -15.3709
  16   2.0000      -0.559471       -15.2240
  17   2.0000      -0.543950       -14.8016
  18   2.0000      -0.537271       -14.6199
  19   2.0000      -0.536683       -14.6039
  20   2.0000      -0.522178       -14.2092
  21   2.0000      -0.439503       -11.9595
  22   2.0000      -0.429721       -11.6933
  23   2.0000      -0.381792       -10.3891
  24   0.0000       0.019841         0.5399
  25   0.0000       0.029289         0.7970
  26   0.0000       0.034541         0.9399
  27   0.0000       0.035988         0.9793
  28   0.0000       0.047727         1.2987

MULLIKEN ATOMIC CHARGES
-----------------------
   0 Si:    1.003554
   1 B :    0.753860
   2 O :   -0.990349
   3 C :   -1.066656
   4 H :    0.285765
   5 H :    0.228581
   6 C :   -1.080217
   7 H :    0.234003
   8 H :    0.298212
   9 H :    0.285511
  10 H :    0.313092
  11 H :    0.349861
  12 H :   -0.308577
  13 H :   -0.306639
Sum of atomic charges:   -0.0000000

LOEWDIN ATOMIC CHARGES
----------------------
   0 Si:    0.590098
   1 B :   -0.380389
   2 O :    1.272632
   3 C :    0.922538
   4 H :   -0.352093
   5 H :   -0.347888
   6 C :    0.917752
   7 H :   -0.349081
   8 H :   -0.354192
   9 H :   -0.350971
  10 H :   -0.350081
  11 H :   -0.798270
  12 H :   -0.218573
  13 H :   -0.201481

  Mayer bond orders larger than 0.100000
B(  0-Si,  1-B ) :   0.8571 B(  0-Si,  2-O ) :  -0.1103 B(  0-Si,  3-C ) :   0.8290
B(  0-Si,  6-C ) :   0.8059 B(  0-Si, 13-H ) :   0.7826 B(  1-B ,  2-O ) :   0.5475
B(  1-B , 12-H ) :   0.8565 B(  2-O , 11-H ) :   0.9183 B(  3-C ,  4-H ) :   0.9497
B(  3-C ,  5-H ) :   0.9678 B(  3-C , 10-H ) :   0.9174 B(  6-C ,  7-H ) :   0.9615
B(  6-C ,  8-H ) :   0.9387 B(  6-C ,  9-H ) :   0.9297

MP2 TOTAL ENERGY:     -470.496511069 Eh
FINAL SINGLE POINT ENERGY      -470.496511069344

DIPOLE MOMENT
-------------
                                X             Y             Z
Electronic contribution:     -5.64792      -0.93080       0.81338
Nuclear contribution   :      5.20904       0.62718      -1.03599
                        -----------------------------------------
Total Dipole Moment    :     -0.43888      -0.30362      -0.22261
                        -----------------------------------------
Magnitude (a.u.)       :      0.57823
Magnitude (Debye)      :      1.46975

Rotational constants in cm-1:     0.170073     0.082528     0.062654
Rotational constants in MHz :  5098.674571  2474.113497  1878.316410

                             ****ORCA TERMINATED NORMALLY****
TOTAL RUN TIME: 0 days 1 hours 7 minutes 19 seconds 139 msec
