                         Program Version 5.0.4 -  RELEASE  -
|  1> ! ri-mp2 aug-cc-pvdz aug-cc-pvdz/c tightscf
|  2> %pal nprocs 16 end
|  3> %maxcore 3800
|  4> %base "DZ_B-Cl_7_A"
|  5> %scf
|  6> STABPerform true
|  7> STABRestartUHFifUnstable true
|  8> end
|  9>
| 10> *xyz 0 2
| 11> Cl         1.820953   -0.324845   -0.000001
| 12> B         0.758549    1.006946    0.000001
| 13> C        -0.782502    1.056630    0.000002
| 14> Cl        -1.635070   -0.533555   -0.000000
| 15> H        -1.128873    1.609148   -0.873765
| 16> H        -1.128872    1.609146    0.873770
| 17> *
| 18>
| 19> $new_job
| 20> ! ri-mp2 aug-cc-pvtz aug-cc-pvtz/c tightscf
| 21> %pal nprocs 16 end
| 22> %maxcore 3800
| 23> %base "TZ_B-Cl_7_A"
| 24>
| 25> *xyz 0 2
| 26> Cl         1.820953   -0.324845   -0.000001
| 27> B         0.758549    1.006946    0.000001
| 28> C        -0.782502    1.056630    0.000002
| 29> Cl        -1.635070   -0.533555   -0.000000
| 30> H        -1.128873    1.609148   -0.873765
| 31> H        -1.128872    1.609146    0.873770
| 32> *
| 33>
| 34> $new_job
| 35> ! ri-mp2 aug-cc-pvqz aug-cc-pvqz/c tightscf
| 36> %pal nprocs 16 end
| 37> %maxcore 3800
| 38> %base "QZ_B-Cl_7_A"
| 39>
| 40> *xyz 0 2
| 41> Cl         1.820953   -0.324845   -0.000001
| 42> B         0.758549    1.006946    0.000001
| 43> C        -0.782502    1.056630    0.000002
| 44> Cl        -1.635070   -0.533555   -0.000000
| 45> H        -1.128873    1.609148   -0.873765
| 46> H        -1.128872    1.609146    0.873770
| 47> *
| 48>
| 49>
| 50>
| 51>
| 52>                          ****END OF INPUT****
 Total Charge           Charge          ....    0
 Multiplicity           Mult            ....    2
 Number of Electrons    NEL             ....   47
MP2 TOTAL ENERGY:     -983.212452201 Eh
FINAL SINGLE POINT ENERGY      -983.212452200983
MP2 TOTAL ENERGY:     -983.388304251 Eh
FINAL SINGLE POINT ENERGY      -983.388304250705

CARTESIAN COORDINATES (ANGSTROEM)
---------------------------------
  Cl     1.820953   -0.324845   -0.000001
  B      0.758549    1.006946    0.000001
  C     -0.782502    1.056630    0.000002
  Cl    -1.635070   -0.533555   -0.000000
  H     -1.128873    1.609148   -0.873765
  H     -1.128872    1.609146    0.873770

 Multiplicity           Mult            ....    2
 Number of Electrons    NEL             ....   47
 Basis Dimension        Dim             ....  420

ORBITAL ENERGIES
----------------
                 SPIN UP ORBITALS
  NO   OCC          E(Eh)            E(eV)
   0   1.0000    -104.856063     -2853.2785
   1   1.0000    -104.830497     -2852.5828
   2   1.0000     -11.293808      -307.3201
   3   1.0000     -10.583748      -287.9984
   4   1.0000     -10.555815      -287.2383
   5   1.0000      -8.051387      -219.0894
   6   1.0000      -8.049323      -219.0332
   7   1.0000      -8.048963      -219.0234
   8   1.0000      -8.024304      -218.3524
   9   1.0000      -8.020912      -218.2601
  10   1.0000      -8.020907      -218.2600
  11   1.0000      -7.692283      -209.3177
  12   1.0000      -1.149827       -31.2884
  13   1.0000      -1.125824       -30.6352
  14   1.0000      -0.939823       -25.5739
  15   1.0000      -0.688007       -18.7216
  16   1.0000      -0.631681       -17.1889
  17   1.0000      -0.594686       -16.1822
  18   1.0000      -0.570157       -15.5148
  19   1.0000      -0.508785       -13.8447
  20   1.0000      -0.501482       -13.6460
  21   1.0000      -0.443957       -12.0807
  22   1.0000      -0.443666       -12.0728
  23   1.0000      -0.347777        -9.4635
  24   0.0000       0.023214         0.6317
  25   0.0000       0.031803         0.8654
  26   0.0000       0.036832         1.0023
  27   0.0000       0.040213         1.0942
  28   0.0000       0.056385         1.5343

                 SPIN DOWN ORBITALS
  NO   OCC          E(Eh)            E(eV)
   0   1.0000    -104.855354     -2853.2592
   1   1.0000    -104.829559     -2852.5573
   2   1.0000     -11.292801      -307.2927
   3   1.0000     -10.582908      -287.9756
   4   1.0000     -10.554827      -287.2114
   5   1.0000      -8.049952      -219.0503
   6   1.0000      -8.049265      -219.0316
   7   1.0000      -8.047015      -218.9704
   8   1.0000      -8.020845      -218.2583
   9   1.0000      -8.020385      -218.2458
  10   1.0000      -8.019994      -218.2351
  11   1.0000      -7.672655      -208.7835
  12   1.0000      -1.141045       -31.0494
  13   1.0000      -1.119751       -30.4700
  14   1.0000      -0.930728       -25.3264
  15   1.0000      -0.662596       -18.0302
  16   1.0000      -0.630199       -17.1486
  17   1.0000      -0.573408       -15.6032
  18   1.0000      -0.553600       -15.0642
  19   1.0000      -0.502370       -13.6702
  20   1.0000      -0.484878       -13.1942
  21   1.0000      -0.442517       -12.0415
  22   1.0000      -0.438275       -11.9261
  23   0.0000       0.019003         0.5171
  24   0.0000       0.032630         0.8879
  25   0.0000       0.037020         1.0074
  26   0.0000       0.039256         1.0682
  27   0.0000       0.057252         1.5579

MULLIKEN ATOMIC CHARGES AND SPIN POPULATIONS
--------------------------------------------
   0 Cl:   -0.207016    0.023608
   1 B :    0.357370    0.975252
   2 C :   -0.534771   -0.047119
   3 Cl:   -0.269568    0.072324
   4 H :    0.326993   -0.012033
   5 H :    0.326993   -0.012033
Sum of atomic charges         :    0.0000000

LOEWDIN ATOMIC CHARGES AND SPIN POPULATIONS
-------------------------------------------
   0 Cl:    1.218401    0.168140
   1 B :   -1.161536    0.559568
   2 C :   -0.190011    0.159819
   3 Cl:    1.062541    0.059219
   4 H :   -0.464697    0.026627
   5 H :   -0.464698    0.026627

  Mayer bond orders larger than 0.100000
B(  0-Cl,  1-B ) :   1.1867 B(  1-B ,  2-C ) :   1.0001 B(  2-C ,  3-Cl) :   0.9217
B(  2-C ,  4-H ) :   0.8469 B(  2-C ,  5-H ) :   0.8469

MP2 TOTAL ENERGY:     -983.446561743 Eh
FINAL SINGLE POINT ENERGY      -983.446561742556

DIPOLE MOMENT
-------------
                                X             Y             Z
Electronic contribution:      2.91682      -2.63742      -0.00000
Nuclear contribution   :     -2.89021       3.35123       0.00001
                        -----------------------------------------
Total Dipole Moment    :      0.02661       0.71381       0.00000
                        -----------------------------------------
Magnitude (a.u.)       :      0.71430
Magnitude (Debye)      :      1.81562

Rotational constants in cm-1:     0.377076     0.073281     0.062052
Rotational constants in MHz : 11304.449570  2196.899856  1860.269430

                             ****ORCA TERMINATED NORMALLY****
TOTAL RUN TIME: 0 days 0 hours 17 minutes 57 seconds 236 msec
