                         Program Version 5.0.4 -  RELEASE  -
|  1> ! ri-mp2 aug-cc-pvdz aug-cc-pvdz/c tightscf
|  2> %pal nprocs 16 end
|  3> %maxcore 3800
|  4> %base "DZ_S-Cl_54_AB"
|  5> %scf
|  6> STABPerform true
|  7> STABRestartUHFifUnstable true
|  8> end
|  9>
| 10> *xyz 0 1
| 11> Cl        -2.361437    0.429470   -0.000008
| 12> S        -0.913901   -1.002573    0.000004
| 13> C         0.593153   -0.143591    0.000002
| 14> S         1.916857   -1.094034    0.000007
| 15> O         0.513879    1.160854   -0.000002
| 16> C         1.730571    1.916499   -0.000003
| 17> H         1.417570    2.955129   -0.000005
| 18> H         2.313089    1.682660   -0.888616
| 19> H         2.313088    1.682664    0.888611
| 20> *
| 21>
| 22> $new_job
| 23> ! ri-mp2 aug-cc-pvtz aug-cc-pvtz/c tightscf
| 24> %pal nprocs 16 end
| 25> %maxcore 3800
| 26> %base "TZ_S-Cl_54_AB"
| 27>
| 28> *xyz 0 1
| 29> Cl        -2.361437    0.429470   -0.000008
| 30> S        -0.913901   -1.002573    0.000004
| 31> C         0.593153   -0.143591    0.000002
| 32> S         1.916857   -1.094034    0.000007
| 33> O         0.513879    1.160854   -0.000002
| 34> C         1.730571    1.916499   -0.000003
| 35> H         1.417570    2.955129   -0.000005
| 36> H         2.313089    1.682660   -0.888616
| 37> H         2.313088    1.682664    0.888611
| 38> *
| 39>
| 40> $new_job
| 41> ! ri-mp2 aug-cc-pvqz aug-cc-pvqz/c tightscf
| 42> %pal nprocs 16 end
| 43> %maxcore 3800
| 44> %base "QZ_S-Cl_54_AB"
| 45>
| 46> *xyz 0 1
| 47> Cl        -2.361437    0.429470   -0.000008
| 48> S        -0.913901   -1.002573    0.000004
| 49> C         0.593153   -0.143591    0.000002
| 50> S         1.916857   -1.094034    0.000007
| 51> O         0.513879    1.160854   -0.000002
| 52> C         1.730571    1.916499   -0.000003
| 53> H         1.417570    2.955129   -0.000005
| 54> H         2.313089    1.682660   -0.888616
| 55> H         2.313088    1.682664    0.888611
| 56> *
| 57>
| 58>
| 59>
| 60>
| 61>                          ****END OF INPUT****
 Total Charge           Charge          ....    0
 Multiplicity           Mult            ....    1
 Number of Electrons    NEL             ....   72
MP2 TOTAL ENERGY:    -1407.809211000 Eh
FINAL SINGLE POINT ENERGY     -1407.809211000420
MP2 TOTAL ENERGY:    -1408.108020101 Eh
FINAL SINGLE POINT ENERGY     -1408.108020100625

CARTESIAN COORDINATES (ANGSTROEM)
---------------------------------
  Cl    -2.361437    0.429470   -0.000008
  S     -0.913901   -1.002573    0.000004
  C      0.593153   -0.143591    0.000002
  S      1.916857   -1.094034    0.000007
  O      0.513879    1.160854   -0.000002
  C      1.730571    1.916499   -0.000003
  H      1.417570    2.955129   -0.000005
  H      2.313089    1.682660   -0.888616
  H      2.313088    1.682664    0.888611

 Multiplicity           Mult            ....    1
 Number of Electrons    NEL             ....   72
 Basis Dimension        Dim             ....  630

ORBITAL ENERGIES
----------------

  NO   OCC          E(Eh)            E(eV)
   0   2.0000    -104.865672     -2853.5400
   1   2.0000     -92.042903     -2504.6147
   2   2.0000     -91.936243     -2501.7124
   3   2.0000     -20.647849      -561.8565
   4   2.0000     -11.418666      -310.7177
   5   2.0000     -11.309465      -307.7462
   6   2.0000     -10.589947      -288.1671
   7   2.0000      -9.040877      -246.0148
   8   2.0000      -8.941270      -243.3043
   9   2.0000      -8.056932      -219.2403
  10   2.0000      -8.054953      -219.1864
  11   2.0000      -8.054770      -219.1814
  12   2.0000      -6.721879      -182.9116
  13   2.0000      -6.720135      -182.8642
  14   2.0000      -6.719060      -182.8349
  15   2.0000      -6.622788      -180.2152
  16   2.0000      -6.621199      -180.1720
  17   2.0000      -6.620505      -180.1531
  18   2.0000      -1.486933       -40.4615
  19   2.0000      -1.169920       -31.8351
  20   2.0000      -1.087757       -29.5994
  21   2.0000      -0.996625       -27.1195
  22   2.0000      -0.939245       -25.5582
  23   2.0000      -0.790976       -21.5235
  24   2.0000      -0.705555       -19.1991
  25   2.0000      -0.700508       -19.0618
  26   2.0000      -0.654475       -17.8092
  27   2.0000      -0.585636       -15.9360
  28   2.0000      -0.566702       -15.4208
  29   2.0000      -0.536249       -14.5921
  30   2.0000      -0.519207       -14.1283
  31   2.0000      -0.514825       -14.0091
  32   2.0000      -0.467257       -12.7147
  33   2.0000      -0.431000       -11.7281
  34   2.0000      -0.363616        -9.8945
  35   2.0000      -0.354476        -9.6458
  36   0.0000       0.023579         0.6416
  37   0.0000       0.037878         1.0307
  38   0.0000       0.041277         1.1232
  39   0.0000       0.045218         1.2304
  40   0.0000       0.055704         1.5158

MULLIKEN ATOMIC CHARGES
-----------------------
   0 Cl:   -0.282766
   1 S :    0.484956
   2 C :   -0.096537
   3 S :    0.019935
   4 O :   -0.570186
   5 C :   -0.610497
   6 H :    0.451483
   7 H :    0.301805
   8 H :    0.301805
Sum of atomic charges:   -0.0000000

LOEWDIN ATOMIC CHARGES
----------------------
   0 Cl:    0.478595
   1 S :    0.287902
   2 C :   -1.908201
   3 S :    0.955368
   4 O :    0.653511
   5 C :    0.526891
   6 H :   -0.317871
   7 H :   -0.338097
   8 H :   -0.338098

  Mayer bond orders larger than 0.100000
B(  0-Cl,  1-S ) :   0.9870 B(  1-S ,  2-C ) :   0.9567 B(  2-C ,  3-S ) :   1.6400
B(  2-C ,  4-O ) :   0.9921 B(  4-O ,  5-C ) :   0.8039 B(  5-C ,  6-H ) :   0.7702
B(  5-C ,  7-H ) :   0.9129 B(  5-C ,  8-H ) :   0.9129

MP2 TOTAL ENERGY:    -1408.206348879 Eh
FINAL SINGLE POINT ENERGY     -1408.206348878860

DIPOLE MOMENT
-------------
                                X             Y             Z
Electronic contribution:     -8.67199      -4.51665      -0.00000
Nuclear contribution   :      8.91182       5.48878       0.00000
                        -----------------------------------------
Total Dipole Moment    :      0.23983       0.97213      -0.00000
                        -----------------------------------------
Magnitude (a.u.)       :      1.00128
Magnitude (Debye)      :      2.54505

Rotational constants in cm-1:     0.106593     0.042011     0.030307
Rotational constants in MHz :  3195.578270  1259.444213   908.567569

                             ****ORCA TERMINATED NORMALLY****
TOTAL RUN TIME: 0 days 0 hours 24 minutes 2 seconds 473 msec
