                         Program Version 5.0.4 -  RELEASE  -
|  1> ! ri-mp2 aug-cc-pvdz aug-cc-pvdz/c tightscf
|  2> %pal nprocs 16 end
|  3> %maxcore 3800
|  4> %base "DZ_Si-Cl_50_AB"
|  5>
|  6> *xyz 0 1
|  7> C         0.499426   -1.501490   -0.378081
|  8> C        -0.835990   -1.746739   -0.136315
|  9> C        -1.723216   -0.691841    0.008927
| 10> C        -1.262019    0.614296   -0.090429
| 11> C         0.080920    0.850400   -0.332542
| 12> C         0.980794   -0.197509   -0.478261
| 13> H         1.172175   -2.342487   -0.489401
| 14> H        -1.209739   -2.757593   -0.058728
| 15> Si         2.779158    0.141735   -0.781566
| 16> H         0.410465    1.878386   -0.405933
| 17> Cl         3.831595    0.056821    0.986721
| 18> Cl        -2.330340    1.957115    0.079326
| 19> Cl        -3.384581   -1.033904    0.307219
| 20> H         2.945875    1.496546   -1.335632
| 21> H         3.350066   -0.882390   -1.673708
| 22> *
| 23>
| 24> $new_job
| 25> ! ri-mp2 aug-cc-pvtz aug-cc-pvtz/c tightscf
| 26> %pal nprocs 16 end
| 27> %maxcore 3800
| 28> %base "TZ_Si-Cl_50_AB"
| 29>
| 30> *xyz 0 1
| 31> C         0.499426   -1.501490   -0.378081
| 32> C        -0.835990   -1.746739   -0.136315
| 33> C        -1.723216   -0.691841    0.008927
| 34> C        -1.262019    0.614296   -0.090429
| 35> C         0.080920    0.850400   -0.332542
| 36> C         0.980794   -0.197509   -0.478261
| 37> H         1.172175   -2.342487   -0.489401
| 38> H        -1.209739   -2.757593   -0.058728
| 39> Si         2.779158    0.141735   -0.781566
| 40> H         0.410465    1.878386   -0.405933
| 41> Cl         3.831595    0.056821    0.986721
| 42> Cl        -2.330340    1.957115    0.079326
| 43> Cl        -3.384581   -1.033904    0.307219
| 44> H         2.945875    1.496546   -1.335632
| 45> H         3.350066   -0.882390   -1.673708
| 46> *
| 47>
| 48> $new_job
| 49> ! ri-mp2 aug-cc-pvqz aug-cc-pvqz/c tightscf
| 50> %pal nprocs 16 end
| 51> %maxcore 3800
| 52> %base "QZ_Si-Cl_50_AB"
| 53>
| 54> *xyz 0 1
| 55> C         0.499426   -1.501490   -0.378081
| 56> C        -0.835990   -1.746739   -0.136315
| 57> C        -1.723216   -0.691841    0.008927
| 58> C        -1.262019    0.614296   -0.090429
| 59> C         0.080920    0.850400   -0.332542
| 60> C         0.980794   -0.197509   -0.478261
| 61> H         1.172175   -2.342487   -0.489401
| 62> H        -1.209739   -2.757593   -0.058728
| 63> Si         2.779158    0.141735   -0.781566
| 64> H         0.410465    1.878386   -0.405933
| 65> Cl         3.831595    0.056821    0.986721
| 66> Cl        -2.330340    1.957115    0.079326
| 67> Cl        -3.384581   -1.033904    0.307219
| 68> H         2.945875    1.496546   -1.335632
| 69> H         3.350066   -0.882390   -1.673708
| 70> *
| 71>
| 72>
| 73>
| 74>
| 75>                          ****END OF INPUT****
 Total Charge           Charge          ....    0
 Multiplicity           Mult            ....    1
 Number of Electrons    NEL             ....  106
MP2 TOTAL ENERGY:    -1898.989891606 Eh
FINAL SINGLE POINT ENERGY     -1898.989891605748
MP2 TOTAL ENERGY:    -1899.407844632 Eh
FINAL SINGLE POINT ENERGY     -1899.407844632494

CARTESIAN COORDINATES (ANGSTROEM)
---------------------------------
  C      0.499426   -1.501490   -0.378081
  C     -0.835990   -1.746739   -0.136315
  C     -1.723216   -0.691841    0.008927
  C     -1.262019    0.614296   -0.090429
  C      0.080920    0.850400   -0.332542
  C      0.980794   -0.197509   -0.478261
  H      1.172175   -2.342487   -0.489401
  H     -1.209739   -2.757593   -0.058728
  Si     2.779158    0.141735   -0.781566
  H      0.410465    1.878386   -0.405933
  Cl     3.831595    0.056821    0.986721
  Cl    -2.330340    1.957115    0.079326
  Cl    -3.384581   -1.033904    0.307219
  H      2.945875    1.496546   -1.335632
  H      3.350066   -0.882390   -1.673708

 Multiplicity           Mult            ....    1
 Number of Electrons    NEL             ....  106
 Basis Dimension        Dim             .... 1046

ORBITAL ENERGIES
----------------

  NO   OCC          E(Eh)            E(eV)
   0   2.0000    -104.855126     -2853.2530
   1   2.0000    -104.852784     -2853.1893
   2   2.0000    -104.829554     -2852.5572
   3   2.0000     -68.822999     -1872.7690
   4   2.0000     -11.327082      -308.2256
   5   2.0000     -11.321641      -308.0775
   6   2.0000     -11.271883      -306.7235
   7   2.0000     -11.267774      -306.6117
   8   2.0000     -11.265158      -306.5405
   9   2.0000     -11.250564      -306.1434
  10   2.0000     -10.580763      -287.9172
  11   2.0000     -10.578403      -287.8530
  12   2.0000     -10.557055      -287.2721
  13   2.0000      -8.047922      -218.9951
  14   2.0000      -8.046058      -218.9444
  15   2.0000      -8.046038      -218.9438
  16   2.0000      -8.045569      -218.9311
  17   2.0000      -8.043721      -218.8808
  18   2.0000      -8.043677      -218.8796
  19   2.0000      -8.023842      -218.3398
  20   2.0000      -8.022736      -218.3097
  21   2.0000      -8.022725      -218.3095
  22   2.0000      -6.168638      -167.8572
  23   2.0000      -4.275586      -116.3446
  24   2.0000      -4.274765      -116.3223
  25   2.0000      -4.274541      -116.3162
  26   2.0000      -1.233135       -33.5553
  27   2.0000      -1.150745       -31.3134
  28   2.0000      -1.138864       -30.9901
  29   2.0000      -1.099710       -29.9246
  30   2.0000      -1.034935       -28.1620
  31   2.0000      -1.005392       -27.3581
  32   2.0000      -0.865136       -23.5416
  33   2.0000      -0.837187       -22.7810
  34   2.0000      -0.743517       -20.2321
  35   2.0000      -0.689560       -18.7639
  36   2.0000      -0.685083       -18.6421
  37   2.0000      -0.648736       -17.6530
  38   2.0000      -0.611824       -16.6486
  39   2.0000      -0.588050       -16.0016
  40   2.0000      -0.582282       -15.8447
  41   2.0000      -0.541977       -14.7479
  42   2.0000      -0.536592       -14.6014
  43   2.0000      -0.530755       -14.4426
  44   2.0000      -0.511244       -13.9117
  45   2.0000      -0.500367       -13.6157
  46   2.0000      -0.482990       -13.1428
  47   2.0000      -0.479912       -13.0591
  48   2.0000      -0.461368       -12.5545
  49   2.0000      -0.454999       -12.3812
  50   2.0000      -0.447734       -12.1835
  51   2.0000      -0.365169        -9.9367
  52   2.0000      -0.352028        -9.5792
  53   0.0000       0.020827         0.5667
  54   0.0000       0.028069         0.7638
  55   0.0000       0.034740         0.9453
  56   0.0000       0.036091         0.9821
  57   0.0000       0.043608         1.1866

MULLIKEN ATOMIC CHARGES
-----------------------
   0 C :   -0.371063
   1 C :   -0.187541
   2 C :   -0.130841
   3 C :   -0.164868
   4 C :   -0.044772
   5 C :    0.012980
   6 H :    0.285663
   7 H :    0.401655
   8 Si:    1.456743
   9 H :    0.455908
  10 Cl:   -0.614422
  11 Cl:   -0.294318
  12 Cl:   -0.298072
  13 H :   -0.271691
  14 H :   -0.235361
Sum of atomic charges:    0.0000000

LOEWDIN ATOMIC CHARGES
----------------------
   0 C :    0.238379
   1 C :    0.190075
   2 C :   -1.004844
   3 C :   -1.000586
   4 C :    0.086502
   5 C :   -0.174537
   6 H :   -0.332590
   7 H :   -0.355838
   8 Si:   -0.027723
   9 H :   -0.381574
  10 Cl:    0.900394
  11 Cl:    1.200840
  12 Cl:    1.205699
  13 H :   -0.270721
  14 H :   -0.273477

  Mayer bond orders larger than 0.100000
B(  0-C ,  1-C ) :   1.1710 B(  0-C ,  3-C ) :   0.1112 B(  0-C ,  5-C ) :   1.0134
B(  0-C ,  6-H ) :   0.9497 B(  0-C ,  7-H ) :  -0.1298 B(  1-C ,  2-C ) :   1.2068
B(  1-C ,  5-C ) :  -0.2543 B(  1-C ,  6-H ) :  -0.1266 B(  1-C ,  7-H ) :   0.8787
B(  1-C , 12-Cl) :  -0.1008 B(  2-C ,  3-C ) :   0.9288 B(  2-C ,  4-C ) :   0.1183
B(  2-C , 11-Cl) :  -0.1884 B(  2-C , 12-Cl) :   0.9600 B(  3-C ,  4-C ) :   1.2099
B(  3-C ,  5-C ) :  -0.2842 B(  3-C , 11-Cl) :   1.1375 B(  3-C , 12-Cl) :  -0.2329
B(  4-C ,  5-C ) :   0.9731 B(  4-C ,  8-Si) :  -0.2123 B(  4-C ,  9-H ) :   0.7613
B(  4-C , 11-Cl) :  -0.2527 B(  5-C ,  6-H ) :  -0.1227 B(  5-C ,  8-Si) :   1.0526
B(  5-C ,  9-H ) :  -0.1535 B(  5-C , 10-Cl) :  -0.1192 B(  5-C , 14-H ) :  -0.1389
B(  8-Si, 10-Cl) :   0.3485 B(  8-Si, 13-H ) :   0.7485 B(  8-Si, 14-H ) :   0.7618

MP2 TOTAL ENERGY:    -1899.545874972 Eh
FINAL SINGLE POINT ENERGY     -1899.545874972205

DIPOLE MOMENT
-------------
                                X             Y             Z
Electronic contribution:     -8.36997       3.36510       4.96334
Nuclear contribution   :      8.65231      -3.78127      -5.53384
                        -----------------------------------------
Total Dipole Moment    :      0.28234      -0.41617      -0.57050
                        -----------------------------------------
Magnitude (a.u.)       :      0.76052
Magnitude (Debye)      :      1.93309

Rotational constants in cm-1:     0.049101     0.011217     0.009835
Rotational constants in MHz :  1471.997084   336.285377   294.856907

                             ****ORCA TERMINATED NORMALLY****
TOTAL RUN TIME: 0 days 0 hours 35 minutes 0 seconds 995 msec
