                         Program Version 5.0.4 -  RELEASE  -
|  1> ! ri-mp2 aug-cc-pvdz aug-cc-pvdz/c tightscf
|  2> %pal nprocs 16 end
|  3> %maxcore 3800
|  4> %base "DZ_B-S_50_A"
|  5> %scf
|  6> STABPerform true
|  7> STABRestartUHFifUnstable true
|  8> end
|  9>
| 10> *xyz 0 2
| 11> S        -1.805395    0.054584   -0.280244
| 12> C        -0.385147   -0.453338    0.699551
| 13> C         0.945044   -0.107225    0.098125
| 14> C         1.757835   -1.062649   -0.326769
| 15> C         1.280455    1.347897    0.017414
| 16> H         2.720967   -0.832068   -0.762809
| 17> H         1.488674   -2.108714   -0.254413
| 18> H         2.244500    1.508212   -0.460957
| 19> H         0.516902    1.885856   -0.546734
| 20> H         1.313161    1.791131    1.016245
| 21> H        -0.466310   -1.521392    0.901143
| 22> H        -0.520694    0.055526    1.661510
| 23> *
| 24>
| 25> $new_job
| 26> ! ri-mp2 aug-cc-pvtz aug-cc-pvtz/c tightscf
| 27> %pal nprocs 16 end
| 28> %maxcore 3800
| 29> %base "TZ_B-S_50_A"
| 30>
| 31> *xyz 0 2
| 32> S        -1.805395    0.054584   -0.280244
| 33> C        -0.385147   -0.453338    0.699551
| 34> C         0.945044   -0.107225    0.098125
| 35> C         1.757835   -1.062649   -0.326769
| 36> C         1.280455    1.347897    0.017414
| 37> H         2.720967   -0.832068   -0.762809
| 38> H         1.488674   -2.108714   -0.254413
| 39> H         2.244500    1.508212   -0.460957
| 40> H         0.516902    1.885856   -0.546734
| 41> H         1.313161    1.791131    1.016245
| 42> H        -0.466310   -1.521392    0.901143
| 43> H        -0.520694    0.055526    1.661510
| 44> *
| 45>
| 46> $new_job
| 47> ! ri-mp2 aug-cc-pvqz aug-cc-pvqz/c tightscf
| 48> %pal nprocs 16 end
| 49> %maxcore 3800
| 50> %base "QZ_B-S_50_A"
| 51>
| 52> *xyz 0 2
| 53> S        -1.805395    0.054584   -0.280244
| 54> C        -0.385147   -0.453338    0.699551
| 55> C         0.945044   -0.107225    0.098125
| 56> C         1.757835   -1.062649   -0.326769
| 57> C         1.280455    1.347897    0.017414
| 58> H         2.720967   -0.832068   -0.762809
| 59> H         1.488674   -2.108714   -0.254413
| 60> H         2.244500    1.508212   -0.460957
| 61> H         0.516902    1.885856   -0.546734
| 62> H         1.313161    1.791131    1.016245
| 63> H        -0.466310   -1.521392    0.901143
| 64> H        -0.520694    0.055526    1.661510
| 65> *
| 66>
| 67>
| 68>
| 69>
| 70>                          ****END OF INPUT****
 Total Charge           Charge          ....    0
 Multiplicity           Mult            ....    2
 Number of Electrons    NEL             ....   47
MP2 TOTAL ENERGY:     -553.747416565 Eh
FINAL SINGLE POINT ENERGY      -553.747416565227
MP2 TOTAL ENERGY:     -553.941142883 Eh
FINAL SINGLE POINT ENERGY      -553.941142882521

CARTESIAN COORDINATES (ANGSTROEM)
---------------------------------
  S     -1.805395    0.054584   -0.280244
  C     -0.385147   -0.453338    0.699551
  C      0.945044   -0.107225    0.098125
  C      1.757835   -1.062649   -0.326769
  C      1.280455    1.347897    0.017414
  H      2.720967   -0.832068   -0.762809
  H      1.488674   -2.108714   -0.254413
  H      2.244500    1.508212   -0.460957
  H      0.516902    1.885856   -0.546734
  H      1.313161    1.791131    1.016245
  H     -0.466310   -1.521392    0.901143
  H     -0.520694    0.055526    1.661510

 Multiplicity           Mult            ....    2
 Number of Electrons    NEL             ....   47
 Basis Dimension        Dim             ....  726

ORBITAL ENERGIES
----------------
                 SPIN UP ORBITALS
  NO   OCC          E(Eh)            E(eV)
   0   1.0000     -91.969161     -2502.6081
   1   1.0000     -11.267644      -306.6082
   2   1.0000     -11.247462      -306.0590
   3   1.0000     -11.222106      -305.3690
   4   1.0000     -11.219166      -305.2890
   5   1.0000      -8.971274      -244.1208
   6   1.0000      -6.667132      -181.4219
   7   1.0000      -6.648765      -180.9221
   8   1.0000      -6.647217      -180.8800
   9   1.0000      -1.121042       -30.5051
  10   1.0000      -1.021770       -27.8038
  11   1.0000      -0.943330       -25.6693
  12   1.0000      -0.867340       -23.6015
  13   1.0000      -0.731072       -19.8935
  14   1.0000      -0.644409       -17.5353
  15   1.0000      -0.635107       -17.2821
  16   1.0000      -0.586088       -15.9483
  17   1.0000      -0.560418       -15.2498
  18   1.0000      -0.531192       -14.4545
  19   1.0000      -0.511390       -13.9156
  20   1.0000      -0.495339       -13.4789
  21   1.0000      -0.429294       -11.6817
  22   1.0000      -0.373070       -10.1517
  23   1.0000      -0.357990        -9.7414
  24   0.0000       0.026285         0.7152
  25   0.0000       0.032099         0.8735
  26   0.0000       0.033224         0.9041
  27   0.0000       0.042762         1.1636
  28   0.0000       0.048824         1.3286

                 SPIN DOWN ORBITALS
  NO   OCC          E(Eh)            E(eV)
   0   1.0000     -91.960014     -2502.3592
   1   1.0000     -11.268760      -306.6386
   2   1.0000     -11.246161      -306.0236
   3   1.0000     -11.222263      -305.3733
   4   1.0000     -11.220292      -305.3197
   5   1.0000      -8.961201      -243.8467
   6   1.0000      -6.643557      -180.7804
   7   1.0000      -6.641940      -180.7364
   8   1.0000      -6.625980      -180.3021
   9   1.0000      -1.114170       -30.3181
  10   1.0000      -0.993118       -27.0241
  11   1.0000      -0.943799       -25.6821
  12   1.0000      -0.810165       -22.0457
  13   1.0000      -0.724516       -19.7151
  14   1.0000      -0.635791       -17.3008
  15   1.0000      -0.632967       -17.2239
  16   1.0000      -0.580031       -15.7835
  17   1.0000      -0.545845       -14.8532
  18   1.0000      -0.530379       -14.4324
  19   1.0000      -0.507295       -13.8042
  20   1.0000      -0.486400       -13.2356
  21   1.0000      -0.362280        -9.8581
  22   1.0000      -0.350092        -9.5265
  23   0.0000       0.019234         0.5234
  24   0.0000       0.026420         0.7189
  25   0.0000       0.033263         0.9051
  26   0.0000       0.033612         0.9146
  27   0.0000       0.043178         1.1749

MULLIKEN ATOMIC CHARGES AND SPIN POPULATIONS
--------------------------------------------
   0 S :   -0.144177    1.114052
   1 C :   -0.299731   -0.188512
   2 C :    0.283051    0.065806
   3 C :   -0.906491   -0.057154
   4 C :   -0.704678   -0.006181
   5 H :    0.272678    0.004945
   6 H :    0.266246    0.003040
   7 H :    0.244415    0.000048
   8 H :    0.295438    0.000550
   9 H :    0.250292    0.000680
  10 H :    0.196595    0.011228
  11 H :    0.246362    0.051498
Sum of atomic charges         :    0.0000000

LOEWDIN ATOMIC CHARGES AND SPIN POPULATIONS
-------------------------------------------
   0 S :    1.092990    0.750905
   1 C :   -0.096465    0.193009
   2 C :   -0.192231    0.025423
   3 C :    0.785592   -0.010976
   4 C :    0.848436    0.006055
   5 H :   -0.347470   -0.006230
   6 H :   -0.351260   -0.005923
   7 H :   -0.307992    0.000205
   8 H :   -0.322654    0.001016
   9 H :   -0.284860    0.000952
  10 H :   -0.423278    0.014082
  11 H :   -0.400807    0.031482

  Mayer bond orders larger than 0.100000
B(  0-S ,  1-C ) :   0.9092 B(  1-C ,  2-C ) :   0.8055 B(  1-C , 10-H ) :   0.9934
B(  1-C , 11-H ) :   0.8988 B(  2-C ,  3-C ) :   1.5566 B(  2-C ,  4-C ) :   0.6866
B(  3-C ,  5-H ) :   1.0313 B(  3-C ,  6-H ) :   1.0344 B(  4-C ,  7-H ) :   1.0192
B(  4-C ,  8-H ) :   0.9504 B(  4-C ,  9-H ) :   0.9607

MP2 TOTAL ENERGY:     -554.001118013 Eh
FINAL SINGLE POINT ENERGY      -554.001118013066

DIPOLE MOMENT
-------------
                                X             Y             Z
Electronic contribution:     -6.97906      -0.80123      -1.21960
Nuclear contribution   :      7.44650       0.78675       1.58252
                        -----------------------------------------
Total Dipole Moment    :      0.46744      -0.01448       0.36292
                        -----------------------------------------
Magnitude (a.u.)       :      0.59196
Magnitude (Debye)      :      1.50464

Rotational constants in cm-1:     0.240194     0.081799     0.068735
Rotational constants in MHz :  7200.839448  2452.278102  2060.609318

                             ****ORCA TERMINATED NORMALLY****
TOTAL RUN TIME: 0 days 1 hours 16 minutes 8 seconds 633 msec
