                         Program Version 5.0.4 -  RELEASE  -
|  1> ! ri-mp2 aug-cc-pvdz aug-cc-pvdz/c tightscf
|  2> %pal nprocs 16 end
|  3> %maxcore 3800
|  4> %base "DZ_Si-Si_91_AB"
|  5>
|  6> *xyz 0 1
|  7> Si        -1.880044   -0.872035    0.000000
|  8> Si        -0.661782    1.123844    0.000001
|  9> H        -1.580465   -1.668744   -1.208429
| 10> H        -3.326809   -0.548184   -0.000006
| 11> H        -1.580474   -1.668745    1.208430
| 12> N         1.102709    0.797630   -0.000007
| 13> H        -0.918755    1.953569    1.198052
| 14> H        -0.918764    1.953576   -1.198042
| 15> N         1.393015   -0.399232    0.000004
| 16> C         2.823435   -0.671586    0.000000
| 17> H         3.046690   -1.278124    0.878810
| 18> H         3.406782    0.250200   -0.000011
| 19> H         3.046683   -1.278140   -0.878801
| 20> *
| 21>
| 22> $new_job
| 23> ! ri-mp2 aug-cc-pvtz aug-cc-pvtz/c tightscf
| 24> %pal nprocs 16 end
| 25> %maxcore 3800
| 26> %base "TZ_Si-Si_91_AB"
| 27>
| 28> *xyz 0 1
| 29> Si        -1.880044   -0.872035    0.000000
| 30> Si        -0.661782    1.123844    0.000001
| 31> H        -1.580465   -1.668744   -1.208429
| 32> H        -3.326809   -0.548184   -0.000006
| 33> H        -1.580474   -1.668745    1.208430
| 34> N         1.102709    0.797630   -0.000007
| 35> H        -0.918755    1.953569    1.198052
| 36> H        -0.918764    1.953576   -1.198042
| 37> N         1.393015   -0.399232    0.000004
| 38> C         2.823435   -0.671586    0.000000
| 39> H         3.046690   -1.278124    0.878810
| 40> H         3.406782    0.250200   -0.000011
| 41> H         3.046683   -1.278140   -0.878801
| 42> *
| 43>
| 44> $new_job
| 45> ! ri-mp2 aug-cc-pvqz aug-cc-pvqz/c tightscf
| 46> %pal nprocs 16 end
| 47> %maxcore 3800
| 48> %base "QZ_Si-Si_91_AB"
| 49>
| 50> *xyz 0 1
| 51> Si        -1.880044   -0.872035    0.000000
| 52> Si        -0.661782    1.123844    0.000001
| 53> H        -1.580465   -1.668744   -1.208429
| 54> H        -3.326809   -0.548184   -0.000006
| 55> H        -1.580474   -1.668745    1.208430
| 56> N         1.102709    0.797630   -0.000007
| 57> H        -0.918755    1.953569    1.198052
| 58> H        -0.918764    1.953576   -1.198042
| 59> N         1.393015   -0.399232    0.000004
| 60> C         2.823435   -0.671586    0.000000
| 61> H         3.046690   -1.278124    0.878810
| 62> H         3.406782    0.250200   -0.000011
| 63> H         3.046683   -1.278140   -0.878801
| 64> *
| 65>
| 66>
| 67>
| 68>
| 69>                          ****END OF INPUT****
 Total Charge           Charge          ....    0
 Multiplicity           Mult            ....    1
 Number of Electrons    NEL             ....   56
MP2 TOTAL ENERGY:     -729.952322902 Eh
FINAL SINGLE POINT ENERGY      -729.952322902274
MP2 TOTAL ENERGY:     -730.157478899 Eh
FINAL SINGLE POINT ENERGY      -730.157478899487

CARTESIAN COORDINATES (ANGSTROEM)
---------------------------------
  Si    -1.880044   -0.872035    0.000000
  Si    -0.661782    1.123844    0.000001
  H     -1.580465   -1.668744   -1.208429
  H     -3.326809   -0.548184   -0.000006
  H     -1.580474   -1.668745    1.208430
  N      1.102709    0.797630   -0.000007
  H     -0.918755    1.953569    1.198052
  H     -0.918764    1.953576   -1.198042
  N      1.393015   -0.399232    0.000004
  C      2.823435   -0.671586    0.000000
  H      3.046690   -1.278124    0.878810
  H      3.406782    0.250200   -0.000011
  H      3.046683   -1.278140   -0.878801

 Multiplicity           Mult            ....    1
 Number of Electrons    NEL             ....   56
 Basis Dimension        Dim             ....  776

ORBITAL ENERGIES
----------------

  NO   OCC          E(Eh)            E(eV)
   0   2.0000     -68.782136     -1871.6571
   1   2.0000     -68.765677     -1871.2092
   2   2.0000     -15.635459      -425.4625
   3   2.0000     -15.595919      -424.3865
   4   2.0000     -11.251635      -306.1725
   5   2.0000      -6.131213      -166.8388
   6   2.0000      -6.116461      -166.4374
   7   2.0000      -4.237292      -115.3026
   8   2.0000      -4.237220      -115.3006
   9   2.0000      -4.237114      -115.2977
  10   2.0000      -4.222622      -114.9034
  11   2.0000      -4.222516      -114.9005
  12   2.0000      -4.222483      -114.8996
  13   2.0000      -1.357749       -36.9462
  14   2.0000      -1.027079       -27.9482
  15   2.0000      -0.828660       -22.5490
  16   2.0000      -0.745878       -20.2964
  17   2.0000      -0.687330       -18.7032
  18   2.0000      -0.638574       -17.3765
  19   2.0000      -0.614856       -16.7311
  20   2.0000      -0.601333       -16.3631
  21   2.0000      -0.530466       -14.4347
  22   2.0000      -0.518670       -14.1137
  23   2.0000      -0.481736       -13.1087
  24   2.0000      -0.480263       -13.0686
  25   2.0000      -0.458414       -12.4741
  26   2.0000      -0.411195       -11.1892
  27   2.0000      -0.358581        -9.7575
  28   0.0000       0.025569         0.6958
  29   0.0000       0.031920         0.8686
  30   0.0000       0.032393         0.8815
  31   0.0000       0.038709         1.0533
  32   0.0000       0.046528         1.2661

MULLIKEN ATOMIC CHARGES
-----------------------
   0 Si:    0.462705
   1 Si:    0.992532
   2 H :   -0.147119
   3 H :   -0.251606
   4 H :   -0.147119
   5 N :   -0.541461
   6 H :   -0.227782
   7 H :   -0.227783
   8 N :   -0.171527
   9 C :   -0.669326
  10 H :    0.296835
  11 H :    0.334818
  12 H :    0.296835
Sum of atomic charges:    0.0000000

LOEWDIN ATOMIC CHARGES
----------------------
   0 Si:    1.013966
   1 Si:    0.486684
   2 H :   -0.310816
   3 H :   -0.325855
   4 H :   -0.310817
   5 N :    0.172728
   6 H :   -0.287117
   7 H :   -0.287118
   8 N :    0.194832
   9 C :    0.661171
  10 H :   -0.327833
  11 H :   -0.351994
  12 H :   -0.327832

  Mayer bond orders larger than 0.100000
B(  0-Si,  1-Si) :   0.8266 B(  0-Si,  2-H ) :   0.7958 B(  0-Si,  3-H ) :   0.7728
B(  0-Si,  4-H ) :   0.7958 B(  1-Si,  5-N ) :   0.6041 B(  1-Si,  6-H ) :   0.8617
B(  1-Si,  7-H ) :   0.8617 B(  5-N ,  8-N ) :   1.7914 B(  5-N ,  9-C ) :  -0.1065
B(  8-N ,  9-C ) :   0.8343 B(  9-C , 10-H ) :   0.9140 B(  9-C , 11-H ) :   0.8926
B(  9-C , 12-H ) :   0.9140

MP2 TOTAL ENERGY:     -730.223645981 Eh
FINAL SINGLE POINT ENERGY      -730.223645980957

DIPOLE MOMENT
-------------
                                X             Y             Z
Electronic contribution:     -1.12301       2.12629      -0.00000
Nuclear contribution   :      1.35559      -2.31762       0.00000
                        -----------------------------------------
Total Dipole Moment    :      0.23258      -0.19132       0.00000
                        -----------------------------------------
Magnitude (a.u.)       :      0.30116
Magnitude (Debye)      :      0.76549

Rotational constants in cm-1:     0.172640     0.054862     0.043210
Rotational constants in MHz :  5175.615684  1644.713496  1295.405396

                             ****ORCA TERMINATED NORMALLY****
TOTAL RUN TIME: 0 days 0 hours 8 minutes 50 seconds 725 msec
