                         Program Version 5.0.4 -  RELEASE  -
|  1> ! ri-mp2 aug-cc-pvdz aug-cc-pvdz/c tightscf
|  2> %pal nprocs 16 end
|  3> %maxcore 3800
|  4> %base "DZ_P-C_40_AB"
|  5>
|  6> *xyz 0 1
|  7> C        -0.493472   -0.608071   -0.809395
|  8> N        -1.702524   -0.057506   -0.131294
|  9> P         1.072146   -0.057715   -0.050932
| 10> H        -0.522618   -0.250686   -1.837646
| 11> H        -0.569763   -1.689798   -0.785712
| 12> O        -2.587615   -0.818684    0.151339
| 13> O        -1.718815    1.144256    0.084083
| 14> O         2.229999   -0.694454   -0.656244
| 15> O         1.024164    1.507434   -0.152877
| 16> H         0.135371    1.864010    0.024416
| 17> O         0.831326   -0.395158    1.483385
| 18> H         1.520860   -0.953975    1.860858
| 19> *
| 20>
| 21> $new_job
| 22> ! ri-mp2 aug-cc-pvtz aug-cc-pvtz/c tightscf
| 23> %pal nprocs 16 end
| 24> %maxcore 3800
| 25> %base "TZ_P-C_40_AB"
| 26>
| 27> *xyz 0 1
| 28> C        -0.493472   -0.608071   -0.809395
| 29> N        -1.702524   -0.057506   -0.131294
| 30> P         1.072146   -0.057715   -0.050932
| 31> H        -0.522618   -0.250686   -1.837646
| 32> H        -0.569763   -1.689798   -0.785712
| 33> O        -2.587615   -0.818684    0.151339
| 34> O        -1.718815    1.144256    0.084083
| 35> O         2.229999   -0.694454   -0.656244
| 36> O         1.024164    1.507434   -0.152877
| 37> H         0.135371    1.864010    0.024416
| 38> O         0.831326   -0.395158    1.483385
| 39> H         1.520860   -0.953975    1.860858
| 40> *
| 41>
| 42> $new_job
| 43> ! ri-mp2 aug-cc-pvqz aug-cc-pvqz/c tightscf
| 44> %pal nprocs 16 end
| 45> %maxcore 3800
| 46> %base "QZ_P-C_40_AB"
| 47>
| 48> *xyz 0 1
| 49> C        -0.493472   -0.608071   -0.809395
| 50> N        -1.702524   -0.057506   -0.131294
| 51> P         1.072146   -0.057715   -0.050932
| 52> H        -0.522618   -0.250686   -1.837646
| 53> H        -0.569763   -1.689798   -0.785712
| 54> O        -2.587615   -0.818684    0.151339
| 55> O        -1.718815    1.144256    0.084083
| 56> O         2.229999   -0.694454   -0.656244
| 57> O         1.024164    1.507434   -0.152877
| 58> H         0.135371    1.864010    0.024416
| 59> O         0.831326   -0.395158    1.483385
| 60> H         1.520860   -0.953975    1.860858
| 61> *
| 62>
| 63>
| 64>
| 65>
| 66>                          ****END OF INPUT****
 Total Charge           Charge          ....    0
 Multiplicity           Mult            ....    1
 Number of Electrons    NEL             ....   72
MP2 TOTAL ENERGY:     -811.169619499 Eh
FINAL SINGLE POINT ENERGY      -811.169619498565
MP2 TOTAL ENERGY:     -811.641360162 Eh
FINAL SINGLE POINT ENERGY      -811.641360162025

CARTESIAN COORDINATES (ANGSTROEM)
---------------------------------
  C     -0.493472   -0.608071   -0.809395
  N     -1.702524   -0.057506   -0.131294
  P      1.072146   -0.057715   -0.050932
  H     -0.522618   -0.250686   -1.837646
  H     -0.569763   -1.689798   -0.785712
  O     -2.587615   -0.818684    0.151339
  O     -1.718815    1.144256    0.084083
  O      2.229999   -0.694454   -0.656244
  O      1.024164    1.507434   -0.152877
  H      0.135371    1.864010    0.024416
  O      0.831326   -0.395158    1.483385
  H      1.520860   -0.953975    1.860858

 Multiplicity           Mult            ....    1
 Number of Electrons    NEL             ....   72
 Basis Dimension        Dim             ....  828

ORBITAL ENERGIES
----------------

  NO   OCC          E(Eh)            E(eV)
   0   2.0000     -80.100354     -2179.6414
   1   2.0000     -20.642618      -561.7142
   2   2.0000     -20.630235      -561.3772
   3   2.0000     -20.624468      -561.2203
   4   2.0000     -20.614485      -560.9487
   5   2.0000     -20.531331      -558.6859
   6   2.0000     -15.884456      -432.2380
   7   2.0000     -11.333119      -308.3898
   8   2.0000      -7.622650      -207.4229
   9   2.0000      -5.520889      -150.2310
  10   2.0000      -5.520704      -150.2260
  11   2.0000      -5.519724      -150.1993
  12   2.0000      -1.652957       -44.9792
  13   2.0000      -1.464348       -39.8469
  14   2.0000      -1.443496       -39.2795
  15   2.0000      -1.409283       -38.3485
  16   2.0000      -1.327341       -36.1188
  17   2.0000      -1.135670       -30.9032
  18   2.0000      -0.915274       -24.9059
  19   2.0000      -0.866030       -23.5659
  20   2.0000      -0.804376       -21.8882
  21   2.0000      -0.784550       -21.3487
  22   2.0000      -0.770459       -20.9653
  23   2.0000      -0.761326       -20.7167
  24   2.0000      -0.696358       -18.9489
  25   2.0000      -0.682350       -18.5677
  26   2.0000      -0.652911       -17.7666
  27   2.0000      -0.625663       -17.0251
  28   2.0000      -0.593032       -16.1372
  29   2.0000      -0.566554       -15.4167
  30   2.0000      -0.551487       -15.0067
  31   2.0000      -0.535070       -14.5600
  32   2.0000      -0.529303       -14.4031
  33   2.0000      -0.496434       -13.5086
  34   2.0000      -0.492327       -13.3969
  35   2.0000      -0.482882       -13.1399
  36   0.0000       0.020887         0.5684
  37   0.0000       0.027410         0.7459
  38   0.0000       0.035992         0.9794
  39   0.0000       0.047056         1.2805
  40   0.0000       0.057590         1.5671

MULLIKEN ATOMIC CHARGES
-----------------------
   0 C :   -0.661550
   1 N :    0.856493
   2 P :    2.383013
   3 H :    0.371701
   4 H :    0.420678
   5 O :   -0.555688
   6 O :   -0.598660
   7 O :   -1.173574
   8 O :   -0.915254
   9 H :    0.394740
  10 O :   -0.893058
  11 H :    0.371159
Sum of atomic charges:   -0.0000000

LOEWDIN ATOMIC CHARGES
----------------------
   0 C :    0.306726
   1 N :   -0.834022
   2 P :   -0.633272
   3 H :   -0.329977
   4 H :   -0.363806
   5 O :    0.584457
   6 O :    0.607865
   7 O :    0.312795
   8 O :    1.110274
   9 H :   -1.026221
  10 O :    1.113831
  11 H :   -0.848649

  Mayer bond orders larger than 0.100000
B(  0-C ,  1-N ) :   0.8928 B(  0-C ,  2-P ) :   0.7979 B(  0-C ,  3-H ) :   0.8255
B(  0-C ,  4-H ) :   0.8311 B(  1-N ,  5-O ) :   1.2968 B(  1-N ,  6-O ) :   1.2007
B(  2-P ,  7-O ) :   1.3749 B(  2-P ,  8-O ) :   0.6382 B(  2-P , 10-O ) :   0.6880
B(  5-O ,  6-O ) :   0.1228 B(  8-O ,  9-H ) :   0.8136 B( 10-O , 11-H ) :   0.9247

MP2 TOTAL ENERGY:     -811.797521773 Eh
FINAL SINGLE POINT ENERGY      -811.797521772701

DIPOLE MOMENT
-------------
                                X             Y             Z
Electronic contribution:      0.18567       0.55082       0.71026
Nuclear contribution   :     -0.45136      -0.92446      -0.64822
                        -----------------------------------------
Total Dipole Moment    :     -0.26568      -0.37364       0.06204
                        -----------------------------------------
Magnitude (a.u.)       :      0.46265
Magnitude (Debye)      :      1.17596

Rotational constants in cm-1:     0.113310     0.041880     0.038832
Rotational constants in MHz :  3396.934006  1255.523092  1164.142242

                             ****ORCA TERMINATED NORMALLY****
TOTAL RUN TIME: 0 days 0 hours 12 minutes 53 seconds 433 msec
