                         Program Version 5.0.4 -  RELEASE  -
|  1> ! ri-mp2 aug-cc-pvdz aug-cc-pvdz/c tightscf
|  2> %pal nprocs 16 end
|  3> %maxcore 3800
|  4> %base "DZ_P-P_1_AB"
|  5> %scf
|  6> STABPerform true
|  7> STABRestartUHFifUnstable true
|  8> end
|  9>
| 10> *xyz 0 1
| 11> P        -1.586626    0.000000    0.251054
| 12> P         0.445044    0.000000   -0.644171
| 13> C         1.132543   -1.405831    0.331097
| 14> C         1.132542    1.405832    0.331097
| 15> H         0.702290    2.343123   -0.021029
| 16> H         2.209048    1.453397    0.162917
| 17> H         0.946385    1.310315    1.401514
| 18> H         0.702291   -2.343122   -0.021029
| 19> H         0.946387   -1.310314    1.401515
| 20> H         2.209049   -1.453395    0.162916
| 21> H        -2.091120   -1.027430   -0.581610
| 22> H        -2.091119    1.027431   -0.581608
| 23> *
| 24>
| 25> $new_job
| 26> ! ri-mp2 aug-cc-pvtz aug-cc-pvtz/c tightscf
| 27> %pal nprocs 16 end
| 28> %maxcore 3800
| 29> %base "TZ_P-P_1_AB"
| 30>
| 31> *xyz 0 1
| 32> P        -1.586626    0.000000    0.251054
| 33> P         0.445044    0.000000   -0.644171
| 34> C         1.132543   -1.405831    0.331097
| 35> C         1.132542    1.405832    0.331097
| 36> H         0.702290    2.343123   -0.021029
| 37> H         2.209048    1.453397    0.162917
| 38> H         0.946385    1.310315    1.401514
| 39> H         0.702291   -2.343122   -0.021029
| 40> H         0.946387   -1.310314    1.401515
| 41> H         2.209049   -1.453395    0.162916
| 42> H        -2.091120   -1.027430   -0.581610
| 43> H        -2.091119    1.027431   -0.581608
| 44> *
| 45>
| 46> $new_job
| 47> ! ri-mp2 aug-cc-pvqz aug-cc-pvqz/c tightscf
| 48> %pal nprocs 16 end
| 49> %maxcore 3800
| 50> %base "QZ_P-P_1_AB"
| 51>
| 52> *xyz 0 1
| 53> P        -1.586626    0.000000    0.251054
| 54> P         0.445044    0.000000   -0.644171
| 55> C         1.132543   -1.405831    0.331097
| 56> C         1.132542    1.405832    0.331097
| 57> H         0.702290    2.343123   -0.021029
| 58> H         2.209048    1.453397    0.162917
| 59> H         0.946385    1.310315    1.401514
| 60> H         0.702291   -2.343122   -0.021029
| 61> H         0.946387   -1.310314    1.401515
| 62> H         2.209049   -1.453395    0.162916
| 63> H        -2.091120   -1.027430   -0.581610
| 64> H        -2.091119    1.027431   -0.581608
| 65> *
| 66>
| 67>
| 68>
| 69>
| 70>                          ****END OF INPUT****
 Total Charge           Charge          ....    0
 Multiplicity           Mult            ....    1
 Number of Electrons    NEL             ....   50
MP2 TOTAL ENERGY:     -762.447949430 Eh
FINAL SINGLE POINT ENERGY      -762.447949430395
MP2 TOTAL ENERGY:     -762.618669643 Eh
FINAL SINGLE POINT ENERGY      -762.618669642955

CARTESIAN COORDINATES (ANGSTROEM)
---------------------------------
  P     -1.586626    0.000000    0.251054
  P      0.445044    0.000000   -0.644171
  C      1.132543   -1.405831    0.331097
  C      1.132542    1.405832    0.331097
  H      0.702290    2.343123   -0.021029
  H      2.209048    1.453397    0.162917
  H      0.946385    1.310315    1.401514
  H      0.702291   -2.343122   -0.021029
  H      0.946387   -1.310314    1.401515
  H      2.209049   -1.453395    0.162916
  H     -2.091120   -1.027430   -0.581610
  H     -2.091119    1.027431   -0.581608

 Multiplicity           Mult            ....    1
 Number of Electrons    NEL             ....   50
 Basis Dimension        Dim             ....  696

ORBITAL ENERGIES
----------------

  NO   OCC          E(Eh)            E(eV)
   0   2.0000     -79.939906     -2175.2754
   1   2.0000     -79.937404     -2175.2073
   2   2.0000     -11.226006      -305.4752
   3   2.0000     -11.225998      -305.4749
   4   2.0000      -7.481125      -203.5718
   5   2.0000      -7.480968      -203.5675
   6   2.0000      -5.374983      -146.2607
   7   2.0000      -5.374749      -146.2544
   8   2.0000      -5.374689      -146.2527
   9   2.0000      -5.374418      -146.2454
  10   2.0000      -5.373654      -146.2245
  11   2.0000      -5.373568      -146.2222
  12   2.0000      -1.013534       -27.5797
  13   2.0000      -0.942663       -25.6512
  14   2.0000      -0.854052       -23.2399
  15   2.0000      -0.708623       -19.2826
  16   2.0000      -0.596102       -16.2208
  17   2.0000      -0.588214       -16.0061
  18   2.0000      -0.567810       -15.4509
  19   2.0000      -0.559136       -15.2149
  20   2.0000      -0.519567       -14.1381
  21   2.0000      -0.464525       -12.6404
  22   2.0000      -0.433773       -11.8036
  23   2.0000      -0.411951       -11.2098
  24   2.0000      -0.316699        -8.6178
  25   0.0000       0.026704         0.7267
  26   0.0000       0.032352         0.8803
  27   0.0000       0.034607         0.9417
  28   0.0000       0.041067         1.1175
  29   0.0000       0.050636         1.3779

MULLIKEN ATOMIC CHARGES
-----------------------
   0 P :    0.048123
   1 P :    0.491056
   2 C :   -1.140189
   3 C :   -1.140190
   4 H :    0.339736
   5 H :    0.319846
   6 H :    0.288213
   7 H :    0.339737
   8 H :    0.288213
   9 H :    0.319846
  10 H :   -0.077196
  11 H :   -0.077195
Sum of atomic charges:    0.0000000

LOEWDIN ATOMIC CHARGES
----------------------
   0 P :    1.289719
   1 P :    0.652030
   2 C :    0.684260
   3 C :    0.684261
   4 H :   -0.372545
   5 H :   -0.365172
   6 H :   -0.368320
   7 H :   -0.372545
   8 H :   -0.368319
   9 H :   -0.365173
  10 H :   -0.549098
  11 H :   -0.549099

  Mayer bond orders larger than 0.100000
B(  0-P ,  1-P ) :   0.9898 B(  0-P , 10-H ) :   0.9239 B(  0-P , 11-H ) :   0.9239
B(  1-P ,  2-C ) :   0.8879 B(  1-P ,  3-C ) :   0.8879 B(  2-C ,  7-H ) :   0.8914
B(  2-C ,  8-H ) :   0.8981 B(  2-C ,  9-H ) :   0.8918 B(  3-C ,  4-H ) :   0.8914
B(  3-C ,  5-H ) :   0.8918 B(  3-C ,  6-H ) :   0.8981

MP2 TOTAL ENERGY:     -762.670499729 Eh
FINAL SINGLE POINT ENERGY      -762.670499728636

DIPOLE MOMENT
-------------
                                X             Y             Z
Electronic contribution:     -4.29782      -0.00000      -2.11238
Nuclear contribution   :      4.61402       0.00000       2.29479
                        -----------------------------------------
Total Dipole Moment    :      0.31620       0.00000       0.18242
                        -----------------------------------------
Magnitude (a.u.)       :      0.36505
Magnitude (Debye)      :      0.92788

Rotational constants in cm-1:     0.187094     0.106540     0.082268
Rotational constants in MHz :  5608.935873  3193.985002  2466.339160

                             ****ORCA TERMINATED NORMALLY****
TOTAL RUN TIME: 0 days 0 hours 28 minutes 54 seconds 307 msec
