                         Program Version 5.0.4 -  RELEASE  -
|  1> ! ri-mp2 aug-cc-pvdz aug-cc-pvdz/c tightscf
|  2> %pal nprocs 16 end
|  3> %maxcore 3800
|  4> %base "DZ_B-P_27_AB"
|  5>
|  6> *xyz 0 1
|  7> P         0.114630   -0.680741    0.744887
|  8> B        -1.389301    0.342077   -0.031891
|  9> N         1.391972    0.347090   -0.068150
| 10> F         0.153920   -1.938025   -0.216516
| 11> O         1.365600    1.511740    0.322958
| 12> O         2.191221   -0.112508   -0.833598
| 13> O        -2.459520   -0.410137   -0.348857
| 14> O        -1.369826    1.678802   -0.138488
| 15> H        -0.512939    2.076239    0.083569
| 16> H        -3.208888    0.093906   -0.687850
| 17> *
| 18>
| 19> $new_job
| 20> ! ri-mp2 aug-cc-pvtz aug-cc-pvtz/c tightscf
| 21> %pal nprocs 16 end
| 22> %maxcore 3800
| 23> %base "TZ_B-P_27_AB"
| 24>
| 25> *xyz 0 1
| 26> P         0.114630   -0.680741    0.744887
| 27> B        -1.389301    0.342077   -0.031891
| 28> N         1.391972    0.347090   -0.068150
| 29> F         0.153920   -1.938025   -0.216516
| 30> O         1.365600    1.511740    0.322958
| 31> O         2.191221   -0.112508   -0.833598
| 32> O        -2.459520   -0.410137   -0.348857
| 33> O        -1.369826    1.678802   -0.138488
| 34> H        -0.512939    2.076239    0.083569
| 35> H        -3.208888    0.093906   -0.687850
| 36> *
| 37>
| 38> $new_job
| 39> ! ri-mp2 aug-cc-pvqz aug-cc-pvqz/c tightscf
| 40> %pal nprocs 16 end
| 41> %maxcore 3800
| 42> %base "QZ_B-P_27_AB"
| 43>
| 44> *xyz 0 1
| 45> P         0.114630   -0.680741    0.744887
| 46> B        -1.389301    0.342077   -0.031891
| 47> N         1.391972    0.347090   -0.068150
| 48> F         0.153920   -1.938025   -0.216516
| 49> O         1.365600    1.511740    0.322958
| 50> O         2.191221   -0.112508   -0.833598
| 51> O        -2.459520   -0.410137   -0.348857
| 52> O        -1.369826    1.678802   -0.138488
| 53> H        -0.512939    2.076239    0.083569
| 54> H        -3.208888    0.093906   -0.687850
| 55> *
| 56>
| 57>
| 58>
| 59>
| 60>                          ****END OF INPUT****
 Total Charge           Charge          ....    0
 Multiplicity           Mult            ....    1
 Number of Electrons    NEL             ....   70
MP2 TOTAL ENERGY:     -821.394212930 Eh
FINAL SINGLE POINT ENERGY      -821.394212930434
MP2 TOTAL ENERGY:     -821.840819123 Eh
FINAL SINGLE POINT ENERGY      -821.840819123059

CARTESIAN COORDINATES (ANGSTROEM)
---------------------------------
  P      0.114630   -0.680741    0.744887
  B     -1.389301    0.342077   -0.031891
  N      1.391972    0.347090   -0.068150
  F      0.153920   -1.938025   -0.216516
  O      1.365600    1.511740    0.322958
  O      2.191221   -0.112508   -0.833598
  O     -2.459520   -0.410137   -0.348857
  O     -1.369826    1.678802   -0.138488
  H     -0.512939    2.076239    0.083569
  H     -3.208888    0.093906   -0.687850

 Multiplicity           Mult            ....    1
 Number of Electrons    NEL             ....   70
 Basis Dimension        Dim             ....  736

ORBITAL ENERGIES
----------------

  NO   OCC          E(Eh)            E(eV)
   0   2.0000     -80.065174     -2178.6841
   1   2.0000     -26.339742      -716.7408
   2   2.0000     -20.634844      -561.5027
   3   2.0000     -20.617381      -561.0275
   4   2.0000     -20.606738      -560.7378
   5   2.0000     -20.600695      -560.5734
   6   2.0000     -15.855194      -431.4418
   7   2.0000      -7.693032      -209.3380
   8   2.0000      -7.599065      -206.7811
   9   2.0000      -5.492882      -149.4689
  10   2.0000      -5.491766      -149.4385
  11   2.0000      -5.490246      -149.3972
  12   2.0000      -1.651898       -44.9504
  13   2.0000      -1.629359       -44.3371
  14   2.0000      -1.431401       -38.9504
  15   2.0000      -1.422270       -38.7019
  16   2.0000      -1.387544       -37.7570
  17   2.0000      -1.022991       -27.8370
  18   2.0000      -0.869000       -23.6467
  19   2.0000      -0.817785       -22.2531
  20   2.0000      -0.788716       -21.4621
  21   2.0000      -0.779488       -21.2110
  22   2.0000      -0.752344       -20.4723
  23   2.0000      -0.745609       -20.2890
  24   2.0000      -0.718553       -19.5528
  25   2.0000      -0.710871       -19.3438
  26   2.0000      -0.666607       -18.1393
  27   2.0000      -0.615993       -16.7620
  28   2.0000      -0.606789       -16.5116
  29   2.0000      -0.591768       -16.1028
  30   2.0000      -0.539553       -14.6820
  31   2.0000      -0.524653       -14.2765
  32   2.0000      -0.483282       -13.1508
  33   2.0000      -0.481756       -13.1092
  34   2.0000      -0.418377       -11.3846
  35   0.0000       0.020577         0.5599
  36   0.0000       0.031205         0.8491
  37   0.0000       0.034768         0.9461
  38   0.0000       0.039408         1.0724
  39   0.0000       0.054167         1.4740

MULLIKEN ATOMIC CHARGES
-----------------------
   0 P :    1.195427
   1 B :    1.260855
   2 N :    0.615055
   3 F :   -0.655576
   4 O :   -0.609196
   5 O :   -0.535891
   6 O :   -0.951788
   7 O :   -1.050350
   8 H :    0.390082
   9 H :    0.341381
Sum of atomic charges:   -0.0000000

LOEWDIN ATOMIC CHARGES
----------------------
   0 P :    0.381506
   1 B :   -1.408524
   2 N :   -1.057118
   3 F :    0.308599
   4 O :    0.486564
   5 O :    0.462773
   6 O :    1.285119
   7 O :    1.320982
   8 H :   -0.997969
   9 H :   -0.781933

  Mayer bond orders larger than 0.100000
B(  0-P ,  1-B ) :   1.0219 B(  0-P ,  2-N ) :   0.6298 B(  0-P ,  3-F ) :   0.5663
B(  0-P ,  6-O ) :  -0.1004 B(  1-B ,  6-O ) :   0.4634 B(  1-B ,  7-O ) :   0.6007
B(  2-N ,  4-O ) :   1.2470 B(  2-N ,  5-O ) :   1.3988 B(  4-O ,  5-O ) :   0.1430
B(  6-O ,  7-O ) :  -0.1137 B(  6-O ,  9-H ) :   0.9285 B(  7-O ,  8-H ) :   0.8624

MP2 TOTAL ENERGY:     -821.990859161 Eh
FINAL SINGLE POINT ENERGY      -821.990859161418

DIPOLE MOMENT
-------------
                                X             Y             Z
Electronic contribution:      1.46022      -4.13788       1.40172
Nuclear contribution   :     -2.67002       4.20245      -1.01800
                        -----------------------------------------
Total Dipole Moment    :     -1.20981       0.06458       0.38372
                        -----------------------------------------
Magnitude (a.u.)       :      1.27084
Magnitude (Debye)      :      3.23022

Rotational constants in cm-1:     0.079868     0.051619     0.035841
Rotational constants in MHz :  2394.375147  1547.497363  1074.487365

                             ****ORCA TERMINATED NORMALLY****
TOTAL RUN TIME: 0 days 0 hours 10 minutes 31 seconds 627 msec
