                         Program Version 5.0.4 -  RELEASE  -
|  1> ! ri-mp2 aug-cc-pvdz aug-cc-pvdz/c tightscf
|  2> %pal nprocs 16 end
|  3> %maxcore 3800
|  4> %base "DZ_S-Cl_8_AB"
|  5> %scf
|  6> STABPerform true
|  7> STABRestartUHFifUnstable true
|  8> end
|  9>
| 10> *xyz 0 1
| 11> Cl        -2.347917    0.010476    0.208373
| 12> S        -0.675344   -0.955773   -0.404615
| 13> C         0.575961    0.043471    0.408755
| 14> Cl         2.079496   -0.842435    0.109241
| 15> Cl         0.676736    1.711329   -0.168028
| 16> H         0.408377    0.082251    1.478362
| 17> *
| 18>
| 19> $new_job
| 20> ! ri-mp2 aug-cc-pvtz aug-cc-pvtz/c tightscf
| 21> %pal nprocs 16 end
| 22> %maxcore 3800
| 23> %base "TZ_S-Cl_8_AB"
| 24>
| 25> *xyz 0 1
| 26> Cl        -2.347917    0.010476    0.208373
| 27> S        -0.675344   -0.955773   -0.404615
| 28> C         0.575961    0.043471    0.408755
| 29> Cl         2.079496   -0.842435    0.109241
| 30> Cl         0.676736    1.711329   -0.168028
| 31> H         0.408377    0.082251    1.478362
| 32> *
| 33>
| 34> $new_job
| 35> ! ri-mp2 aug-cc-pvqz aug-cc-pvqz/c tightscf
| 36> %pal nprocs 16 end
| 37> %maxcore 3800
| 38> %base "QZ_S-Cl_8_AB"
| 39>
| 40> *xyz 0 1
| 41> Cl        -2.347917    0.010476    0.208373
| 42> S        -0.675344   -0.955773   -0.404615
| 43> C         0.575961    0.043471    0.408755
| 44> Cl         2.079496   -0.842435    0.109241
| 45> Cl         0.676736    1.711329   -0.168028
| 46> H         0.408377    0.082251    1.478362
| 47> *
| 48>
| 49>
| 50>
| 51>
| 52>                          ****END OF INPUT****
 Total Charge           Charge          ....    0
 Multiplicity           Mult            ....    1
 Number of Electrons    NEL             ....   74
MP2 TOTAL ENERGY:    -1815.201230933 Eh
FINAL SINGLE POINT ENERGY     -1815.201230932842
MP2 TOTAL ENERGY:    -1815.474191186 Eh
FINAL SINGLE POINT ENERGY     -1815.474191185974

CARTESIAN COORDINATES (ANGSTROEM)
---------------------------------
  Cl    -2.347917    0.010476    0.208373
  S     -0.675344   -0.955773   -0.404615
  C      0.575961    0.043471    0.408755
  Cl     2.079496   -0.842435    0.109241
  Cl     0.676736    1.711329   -0.168028
  H      0.408377    0.082251    1.478362

 Multiplicity           Mult            ....    1
 Number of Electrons    NEL             ....   74
 Basis Dimension        Dim             ....  462

ORBITAL ENERGIES
----------------

  NO   OCC          E(Eh)            E(eV)
   0   2.0000    -104.871264     -2853.6922
   1   2.0000    -104.870757     -2853.6784
   2   2.0000    -104.860836     -2853.4084
   3   2.0000     -92.038659     -2504.4992
   4   2.0000     -11.409577      -310.4704
   5   2.0000     -10.596809      -288.3538
   6   2.0000     -10.595100      -288.3073
   7   2.0000     -10.586527      -288.0740
   8   2.0000      -9.036679      -245.9005
   9   2.0000      -8.063836      -219.4281
  10   2.0000      -8.062110      -219.3812
  11   2.0000      -8.061913      -219.3758
  12   2.0000      -8.061836      -219.3737
  13   2.0000      -8.060151      -219.3278
  14   2.0000      -8.059931      -219.3219
  15   2.0000      -8.053544      -219.1481
  16   2.0000      -8.051628      -219.0959
  17   2.0000      -8.051571      -219.0944
  18   2.0000      -6.717641      -182.7963
  19   2.0000      -6.716150      -182.7557
  20   2.0000      -6.714767      -182.7181
  21   2.0000      -1.231538       -33.5119
  22   2.0000      -1.155079       -31.4313
  23   2.0000      -1.115961       -30.3668
  24   2.0000      -0.982699       -26.7406
  25   2.0000      -0.845065       -22.9954
  26   2.0000      -0.677222       -18.4282
  27   2.0000      -0.629079       -17.1181
  28   2.0000      -0.618680       -16.8351
  29   2.0000      -0.539508       -14.6808
  30   2.0000      -0.531960       -14.4754
  31   2.0000      -0.495197       -13.4750
  32   2.0000      -0.487535       -13.2665
  33   2.0000      -0.481436       -13.1005
  34   2.0000      -0.461001       -12.5445
  35   2.0000      -0.448761       -12.2114
  36   2.0000      -0.384661       -10.4671
  37   0.0000       0.031791         0.8651
  38   0.0000       0.042569         1.1584
  39   0.0000       0.049535         1.3479
  40   0.0000       0.055730         1.5165
  41   0.0000       0.066536         1.8105

MULLIKEN ATOMIC CHARGES
-----------------------
   0 Cl:   -0.261330
   1 S :    0.310327
   2 C :   -0.129938
   3 Cl:   -0.161223
   4 Cl:   -0.168996
   5 H :    0.411160
Sum of atomic charges:    0.0000000

LOEWDIN ATOMIC CHARGES
----------------------
   0 Cl:    0.470593
   1 S :    0.160795
   2 C :   -1.953784
   3 Cl:    1.001377
   4 Cl:    0.995709
   5 H :   -0.674690

  Mayer bond orders larger than 0.100000
B(  0-Cl,  1-S ) :   0.9659 B(  1-S ,  2-C ) :   0.9403 B(  2-C ,  3-Cl) :   0.8706
B(  2-C ,  4-Cl) :   0.8584 B(  2-C ,  5-H ) :   0.7618

MP2 TOTAL ENERGY:    -1815.564542250 Eh
FINAL SINGLE POINT ENERGY     -1815.564542250162

DIPOLE MOMENT
-------------
                                X             Y             Z
Electronic contribution:      0.19907       0.91826      -0.80327
Nuclear contribution   :     -0.14219      -1.05201       1.17178
                        -----------------------------------------
Total Dipole Moment    :      0.05688      -0.13375       0.36851
                        -----------------------------------------
Magnitude (a.u.)       :      0.39614
Magnitude (Debye)      :      1.00690

Rotational constants in cm-1:     0.098752     0.042551     0.031099
Rotational constants in MHz :  2960.521747  1275.647589   932.312376

                             ****ORCA TERMINATED NORMALLY****
TOTAL RUN TIME: 0 days 0 hours 10 minutes 25 seconds 74 msec
