                         Program Version 5.0.4 -  RELEASE  -
|  1> ! ri-mp2 aug-cc-pvdz aug-cc-pvdz/c tightscf
|  2> %pal nprocs 16 end
|  3> %maxcore 3800
|  4> %base "DZ_Si-Cl_47_AB"
|  5>
|  6> *xyz 0 1
|  7> C         0.917906    1.818561    0.138353
|  8> C        -0.289599    2.397942   -0.207129
|  9> C        -1.430949    1.621024   -0.288222
| 10> C        -1.355692    0.263872   -0.023018
| 11> C        -0.147037   -0.316145    0.321687
| 12> C         1.008742    0.453926    0.405163
| 13> H         1.802783    2.440678    0.198121
| 14> H        -0.343820    3.457806   -0.414788
| 15> Si         2.633934   -0.327471    0.844126
| 16> H        -0.110920   -1.379291    0.520488
| 17> Cl         3.721937   -0.718113   -0.860476
| 18> H        -2.377764    2.065393   -0.561590
| 19> C        -2.602484   -0.569221   -0.062272
| 20> F        -3.472394   -0.128307   -0.982187
| 21> F        -3.246737   -0.550398    1.118498
| 22> F        -2.343695   -1.853832   -0.340679
| 23> H         2.402779   -1.609812    1.531458
| 24> H         3.439045    0.590816    1.668568
| 25> *
| 26>
| 27> $new_job
| 28> ! ri-mp2 aug-cc-pvtz aug-cc-pvtz/c tightscf
| 29> %pal nprocs 16 end
| 30> %maxcore 3800
| 31> %base "TZ_Si-Cl_47_AB"
| 32>
| 33> *xyz 0 1
| 34> C         0.917906    1.818561    0.138353
| 35> C        -0.289599    2.397942   -0.207129
| 36> C        -1.430949    1.621024   -0.288222
| 37> C        -1.355692    0.263872   -0.023018
| 38> C        -0.147037   -0.316145    0.321687
| 39> C         1.008742    0.453926    0.405163
| 40> H         1.802783    2.440678    0.198121
| 41> H        -0.343820    3.457806   -0.414788
| 42> Si         2.633934   -0.327471    0.844126
| 43> H        -0.110920   -1.379291    0.520488
| 44> Cl         3.721937   -0.718113   -0.860476
| 45> H        -2.377764    2.065393   -0.561590
| 46> C        -2.602484   -0.569221   -0.062272
| 47> F        -3.472394   -0.128307   -0.982187
| 48> F        -3.246737   -0.550398    1.118498
| 49> F        -2.343695   -1.853832   -0.340679
| 50> H         2.402779   -1.609812    1.531458
| 51> H         3.439045    0.590816    1.668568
| 52> *
| 53>
| 54> $new_job
| 55> ! ri-mp2 aug-cc-pvqz aug-cc-pvqz/c tightscf
| 56> %pal nprocs 16 end
| 57> %maxcore 3800
| 58> %base "QZ_Si-Cl_47_AB"
| 59>
| 60> *xyz 0 1
| 61> C         0.917906    1.818561    0.138353
| 62> C        -0.289599    2.397942   -0.207129
| 63> C        -1.430949    1.621024   -0.288222
| 64> C        -1.355692    0.263872   -0.023018
| 65> C        -0.147037   -0.316145    0.321687
| 66> C         1.008742    0.453926    0.405163
| 67> H         1.802783    2.440678    0.198121
| 68> H        -0.343820    3.457806   -0.414788
| 69> Si         2.633934   -0.327471    0.844126
| 70> H        -0.110920   -1.379291    0.520488
| 71> Cl         3.721937   -0.718113   -0.860476
| 72> H        -2.377764    2.065393   -0.561590
| 73> C        -2.602484   -0.569221   -0.062272
| 74> F        -3.472394   -0.128307   -0.982187
| 75> F        -3.246737   -0.550398    1.118498
| 76> F        -2.343695   -1.853832   -0.340679
| 77> H         2.402779   -1.609812    1.531458
| 78> H         3.439045    0.590816    1.668568
| 79> *
| 80>
| 81>
| 82>
| 83>
| 84>                          ****END OF INPUT****
 Total Charge           Charge          ....    0
 Multiplicity           Mult            ....    1
 Number of Electrons    NEL             ....  106
MP2 TOTAL ENERGY:    -1317.251865049 Eh
FINAL SINGLE POINT ENERGY     -1317.251865048975
MP2 TOTAL ENERGY:    -1317.830230221 Eh
FINAL SINGLE POINT ENERGY     -1317.830230221225

CARTESIAN COORDINATES (ANGSTROEM)
---------------------------------
  C      0.917906    1.818561    0.138353
  C     -0.289599    2.397942   -0.207129
  C     -1.430949    1.621024   -0.288222
  C     -1.355692    0.263872   -0.023018
  C     -0.147037   -0.316145    0.321687
  C      1.008742    0.453926    0.405163
  H      1.802783    2.440678    0.198121
  H     -0.343820    3.457806   -0.414788
  Si     2.633934   -0.327471    0.844126
  H     -0.110920   -1.379291    0.520488
  Cl     3.721937   -0.718113   -0.860476
  H     -2.377764    2.065393   -0.561590
  C     -2.602484   -0.569221   -0.062272
  F     -3.472394   -0.128307   -0.982187
  F     -3.246737   -0.550398    1.118498
  F     -2.343695   -1.853832   -0.340679
  H      2.402779   -1.609812    1.531458
  H      3.439045    0.590816    1.668568

 Multiplicity           Mult            ....    1
 Number of Electrons    NEL             ....  106
 Basis Dimension        Dim             .... 1244

ORBITAL ENERGIES
----------------

  NO   OCC          E(Eh)            E(eV)
   0   2.0000    -104.828395     -2852.5256
   1   2.0000     -68.821354     -1872.7243
   2   2.0000     -26.338055      -716.6949
   3   2.0000     -26.337535      -716.6808
   4   2.0000     -26.332955      -716.5561
   5   2.0000     -11.511149      -313.2343
   6   2.0000     -11.272877      -306.7506
   7   2.0000     -11.271064      -306.7013
   8   2.0000     -11.269784      -306.6664
   9   2.0000     -11.267848      -306.6137
  10   2.0000     -11.258485      -306.3590
  11   2.0000     -11.247835      -306.0692
  12   2.0000     -10.555908      -287.2408
  13   2.0000      -8.022695      -218.3086
  14   2.0000      -8.021591      -218.2786
  15   2.0000      -8.021581      -218.2783
  16   2.0000      -6.167017      -167.8131
  17   2.0000      -4.273967      -116.3006
  18   2.0000      -4.273148      -116.2783
  19   2.0000      -4.272895      -116.2714
  20   2.0000      -1.731600       -47.1192
  21   2.0000      -1.637241       -44.5516
  22   2.0000      -1.632096       -44.4116
  23   2.0000      -1.195310       -32.5260
  24   2.0000      -1.100229       -29.9387
  25   2.0000      -1.080934       -29.4137
  26   2.0000      -1.049408       -28.5558
  27   2.0000      -0.971551       -26.4372
  28   2.0000      -0.875510       -23.8238
  29   2.0000      -0.868762       -23.6402
  30   2.0000      -0.823634       -22.4122
  31   2.0000      -0.817811       -22.2538
  32   2.0000      -0.801514       -21.8103
  33   2.0000      -0.729654       -19.8549
  34   2.0000      -0.715904       -19.4807
  35   2.0000      -0.713545       -19.4165
  36   2.0000      -0.700584       -19.0639
  37   2.0000      -0.671537       -18.2734
  38   2.0000      -0.663711       -18.0605
  39   2.0000      -0.653965       -17.7953
  40   2.0000      -0.649567       -17.6756
  41   2.0000      -0.639662       -17.4061
  42   2.0000      -0.599606       -16.3161
  43   2.0000      -0.584694       -15.9103
  44   2.0000      -0.549955       -14.9650
  45   2.0000      -0.533984       -14.5305
  46   2.0000      -0.525841       -14.3089
  47   2.0000      -0.522598       -14.2206
  48   2.0000      -0.502331       -13.6691
  49   2.0000      -0.454104       -12.3568
  50   2.0000      -0.451148       -12.2764
  51   2.0000      -0.374640       -10.1945
  52   2.0000      -0.369940       -10.0666
  53   0.0000       0.019274         0.5245
  54   0.0000       0.027331         0.7437
  55   0.0000       0.032096         0.8734
  56   0.0000       0.036406         0.9907
  57   0.0000       0.041098         1.1183

MULLIKEN ATOMIC CHARGES
-----------------------
   0 C :   -0.431708
   1 C :   -0.378141
   2 C :   -0.237967
   3 C :   -0.600517
   4 C :   -0.134612
   5 C :   -0.057411
   6 H :    0.303260
   7 H :    0.245505
   8 Si:    1.423714
   9 H :    0.380789
  10 Cl:   -0.627055
  11 H :    0.394763
  12 C :    2.251776
  13 F :   -0.697128
  14 F :   -0.635702
  15 F :   -0.683071
  16 H :   -0.276813
  17 H :   -0.239681
Sum of atomic charges:    0.0000000

LOEWDIN ATOMIC CHARGES
----------------------
   0 C :    0.257418
   1 C :    0.367316
   2 C :    0.327419
   3 C :   -0.210822
   4 C :    0.226541
   5 C :   -0.148532
   6 H :   -0.330357
   7 H :   -0.313119
   8 Si:   -0.022960
   9 H :   -0.354277
  10 Cl:    0.900216
  11 H :   -0.321606
  12 C :   -2.152331
  13 F :    0.776760
  14 F :    0.760177
  15 F :    0.781360
  16 H :   -0.269801
  17 H :   -0.273402

  Mayer bond orders larger than 0.100000
B(  0-C ,  1-C ) :   1.2069 B(  0-C ,  2-C ) :   0.1567 B(  0-C ,  5-C ) :   0.9850
B(  0-C ,  6-H ) :   0.9518 B(  0-C ,  7-H ) :  -0.1457 B(  1-C ,  2-C ) :   1.2911
B(  1-C ,  3-C ) :  -0.1930 B(  1-C ,  4-C ) :   0.1261 B(  1-C ,  5-C ) :  -0.3003
B(  1-C ,  7-H ) :   1.1316 B(  2-C ,  3-C ) :   1.0437 B(  2-C ,  7-H ) :  -0.1191
B(  2-C , 11-H ) :   0.8352 B(  2-C , 12-C ) :  -0.2086 B(  3-C ,  4-C ) :   0.9727
B(  3-C ,  5-C ) :  -0.4120 B(  3-C , 11-H ) :  -0.1165 B(  3-C , 12-C ) :   1.2535
B(  3-C , 15-F ) :   0.1544 B(  4-C ,  5-C ) :   1.0154 B(  4-C ,  8-Si) :  -0.1926
B(  4-C ,  9-H ) :   0.7906 B(  4-C , 12-C ) :  -0.3066 B(  5-C ,  6-H ) :  -0.1389
B(  5-C ,  8-Si) :   1.1146 B(  5-C ,  9-H ) :  -0.1147 B(  5-C , 10-Cl) :  -0.1165
B(  5-C , 16-H ) :  -0.1153 B(  5-C , 17-H ) :  -0.1155 B(  8-Si, 10-Cl) :   0.3363
B(  8-Si, 16-H ) :   0.7513 B(  8-Si, 17-H ) :   0.7518 B( 12-C , 13-F ) :   0.2719
B( 12-C , 14-F ) :   0.3147 B( 12-C , 15-F ) :   0.2837

MP2 TOTAL ENERGY:    -1318.019668187 Eh
FINAL SINGLE POINT ENERGY     -1318.019668187156

DIPOLE MOMENT
-------------
                                X             Y             Z
Electronic contribution:     -7.50011      -7.67598      -3.70137
Nuclear contribution   :      7.82263       8.61285       4.08616
                        -----------------------------------------
Total Dipole Moment    :      0.32252       0.93687       0.38479
                        -----------------------------------------
Magnitude (a.u.)       :      1.06292
Magnitude (Debye)      :      2.70174

Rotational constants in cm-1:     0.045622     0.011245     0.010116
Rotational constants in MHz :  1367.705959   337.112666   303.275467

                             ****ORCA TERMINATED NORMALLY****
TOTAL RUN TIME: 0 days 0 hours 53 minutes 23 seconds 436 msec
