                         Program Version 5.0.4 -  RELEASE  -
|  1> ! ri-mp2 aug-cc-pvdz aug-cc-pvdz/c tightscf
|  2> %pal nprocs 16 end
|  3> %maxcore 3800
|  4> %base "DZ_S-S_44_AB"
|  5> %scf
|  6> STABPerform true
|  7> STABRestartUHFifUnstable true
|  8> end
|  9>
| 10> *xyz 0 1
| 11> S         1.041029   -0.459808    0.969806
| 12> S        -0.246860   -1.145578   -0.394624
| 13> O        -1.248084    0.156102   -0.738720
| 14> C         2.349188    0.267074   -0.084570
| 15> F         3.289725    0.732071    0.738107
| 16> F         1.900576    1.270914   -0.828465
| 17> F         2.903397   -0.625405   -0.897826
| 18> C        -2.392767    0.273567   -0.011552
| 19> F        -3.035678    1.337554   -0.457765
| 20> F        -2.149951    0.432034    1.289325
| 21> F        -3.181463   -0.792332   -0.145200
| 22> *
| 23>
| 24> $new_job
| 25> ! ri-mp2 aug-cc-pvtz aug-cc-pvtz/c tightscf
| 26> %pal nprocs 16 end
| 27> %maxcore 3800
| 28> %base "TZ_S-S_44_AB"
| 29>
| 30> *xyz 0 1
| 31> S         1.041029   -0.459808    0.969806
| 32> S        -0.246860   -1.145578   -0.394624
| 33> O        -1.248084    0.156102   -0.738720
| 34> C         2.349188    0.267074   -0.084570
| 35> F         3.289725    0.732071    0.738107
| 36> F         1.900576    1.270914   -0.828465
| 37> F         2.903397   -0.625405   -0.897826
| 38> C        -2.392767    0.273567   -0.011552
| 39> F        -3.035678    1.337554   -0.457765
| 40> F        -2.149951    0.432034    1.289325
| 41> F        -3.181463   -0.792332   -0.145200
| 42> *
| 43>
| 44> $new_job
| 45> ! ri-mp2 aug-cc-pvqz aug-cc-pvqz/c tightscf
| 46> %pal nprocs 16 end
| 47> %maxcore 3800
| 48> %base "QZ_S-S_44_AB"
| 49>
| 50> *xyz 0 1
| 51> S         1.041029   -0.459808    0.969806
| 52> S        -0.246860   -1.145578   -0.394624
| 53> O        -1.248084    0.156102   -0.738720
| 54> C         2.349188    0.267074   -0.084570
| 55> F         3.289725    0.732071    0.738107
| 56> F         1.900576    1.270914   -0.828465
| 57> F         2.903397   -0.625405   -0.897826
| 58> C        -2.392767    0.273567   -0.011552
| 59> F        -3.035678    1.337554   -0.457765
| 60> F        -2.149951    0.432034    1.289325
| 61> F        -3.181463   -0.792332   -0.145200
| 62> *
| 63>
| 64>
| 65>
| 66>
| 67>                          ****END OF INPUT****
 Total Charge           Charge          ....    0
 Multiplicity           Mult            ....    1
 Number of Electrons    NEL             ....  106
MP2 TOTAL ENERGY:    -1544.323890071 Eh
FINAL SINGLE POINT ENERGY     -1544.323890070939
MP2 TOTAL ENERGY:    -1545.056882085 Eh
FINAL SINGLE POINT ENERGY     -1545.056882085492

CARTESIAN COORDINATES (ANGSTROEM)
---------------------------------
  S      1.041029   -0.459808    0.969806
  S     -0.246860   -1.145578   -0.394624
  O     -1.248084    0.156102   -0.738720
  C      2.349188    0.267074   -0.084570
  F      3.289725    0.732071    0.738107
  F      1.900576    1.270914   -0.828465
  F      2.903397   -0.625405   -0.897826
  C     -2.392767    0.273567   -0.011552
  F     -3.035678    1.337554   -0.457765
  F     -2.149951    0.432034    1.289325
  F     -3.181463   -0.792332   -0.145200

 Multiplicity           Mult            ....    1
 Number of Electrons    NEL             ....  106
 Basis Dimension        Dim             ....  888

ORBITAL ENERGIES
----------------

  NO   OCC          E(Eh)            E(eV)
   0   2.0000     -92.078940     -2505.5953
   1   2.0000     -92.040136     -2504.5394
   2   2.0000     -26.366899      -717.4798
   3   2.0000     -26.363707      -717.3929
   4   2.0000     -26.363290      -717.3816
   5   2.0000     -26.360723      -717.3117
   6   2.0000     -26.360392      -717.3027
   7   2.0000     -26.359820      -717.2872
   8   2.0000     -20.659107      -562.1629
   9   2.0000     -11.579774      -315.1017
  10   2.0000     -11.553349      -314.3826
  11   2.0000      -9.073234      -246.8953
  12   2.0000      -9.041281      -246.0258
  13   2.0000      -6.754248      -183.7924
  14   2.0000      -6.752675      -183.7496
  15   2.0000      -6.751405      -183.7151
  16   2.0000      -6.722280      -182.9225
  17   2.0000      -6.721126      -182.8911
  18   2.0000      -6.720324      -182.8693
  19   2.0000      -1.768461       -48.1223
  20   2.0000      -1.762684       -47.9651
  21   2.0000      -1.666661       -45.3522
  22   2.0000      -1.665450       -45.3192
  23   2.0000      -1.663917       -45.2775
  24   2.0000      -1.662386       -45.2358
  25   2.0000      -1.472099       -40.0578
  26   2.0000      -1.134406       -30.8687
  27   2.0000      -1.025844       -27.9146
  28   2.0000      -0.974875       -26.5277
  29   2.0000      -0.924123       -25.1467
  30   2.0000      -0.864447       -23.5228
  31   2.0000      -0.862703       -23.4753
  32   2.0000      -0.855943       -23.2914
  33   2.0000      -0.853984       -23.2381
  34   2.0000      -0.844199       -22.9718
  35   2.0000      -0.781522       -21.2663
  36   2.0000      -0.742302       -20.1991
  37   2.0000      -0.741221       -20.1696
  38   2.0000      -0.737634       -20.0720
  39   2.0000      -0.736441       -20.0396
  40   2.0000      -0.696371       -18.9492
  41   2.0000      -0.693722       -18.8771
  42   2.0000      -0.691732       -18.8230
  43   2.0000      -0.690296       -18.7839
  44   2.0000      -0.676546       -18.4098
  45   2.0000      -0.674444       -18.3526
  46   2.0000      -0.673402       -18.3242
  47   2.0000      -0.633788       -17.2463
  48   2.0000      -0.625233       -17.0135
  49   2.0000      -0.566899       -15.4261
  50   2.0000      -0.503296       -13.6954
  51   2.0000      -0.445004       -12.1092
  52   2.0000      -0.422605       -11.4997
  53   0.0000       0.041615         1.1324
  54   0.0000       0.043070         1.1720
  55   0.0000       0.050917         1.3855
  56   0.0000       0.054002         1.4695
  57   0.0000       0.068315         1.8590

MULLIKEN ATOMIC CHARGES
-----------------------
   0 S :    0.090428
   1 S :    0.324486
   2 O :   -0.650895
   3 C :    1.609768
   4 F :   -0.569473
   5 F :   -0.551170
   6 F :   -0.542706
   7 C :    1.977601
   8 F :   -0.574884
   9 F :   -0.562707
  10 F :   -0.550447
Sum of atomic charges:    0.0000000

LOEWDIN ATOMIC CHARGES
----------------------
   0 S :    0.654947
   1 S :    0.409662
   2 O :    0.193929
   3 C :   -2.692588
   4 F :    0.672955
   5 F :    0.690199
   6 F :    0.680343
   7 C :   -2.803275
   8 F :    0.742616
   9 F :    0.724907
  10 F :    0.726306

  Mayer bond orders larger than 0.100000
B(  0-S ,  1-S ) :   1.2452 B(  0-S ,  3-C ) :   0.9444 B(  1-S ,  2-O ) :   0.7285
B(  2-O ,  7-C ) :   0.9494 B(  3-C ,  4-F ) :   0.5569 B(  3-C ,  5-F ) :   0.5869
B(  3-C ,  6-F ) :   0.5749 B(  7-C ,  8-F ) :   0.5739 B(  7-C ,  9-F ) :   0.5622
B(  7-C , 10-F ) :   0.5749

MP2 TOTAL ENERGY:    -1545.298773062 Eh
FINAL SINGLE POINT ENERGY     -1545.298773061902

DIPOLE MOMENT
-------------
                                X             Y             Z
Electronic contribution:     -0.04056       1.63260      -0.04774
Nuclear contribution   :      0.20610      -2.07502       0.24522
                        -----------------------------------------
Total Dipole Moment    :      0.16554      -0.44242       0.19748
                        -----------------------------------------
Magnitude (a.u.)       :      0.51199
Magnitude (Debye)      :      1.30138

Rotational constants in cm-1:     0.063053     0.013991     0.013650
Rotational constants in MHz :  1890.280975   419.452260   409.225237

                             ****ORCA TERMINATED NORMALLY****
TOTAL RUN TIME: 0 days 0 hours 50 minutes 27 seconds 689 msec
