                         Program Version 5.0.4 -  RELEASE  -
|  1> ! ri-mp2 aug-cc-pvdz aug-cc-pvdz/c tightscf
|  2> %pal nprocs 16 end
|  3> %maxcore 3800
|  4> %base "DZ_B-F_20_A"
|  5> %scf
|  6> STABPerform true
|  7> STABRestartUHFifUnstable true
|  8> end
|  9>
| 10> *xyz 0 2
| 11> F         1.927719   -1.200195   -0.181003
| 12> B         2.033783   -0.008890    0.358635
| 13> C         1.014064    1.141645    0.099056
| 14> C        -0.335244    0.715942   -0.486130
| 15> H         0.881361    1.726927    1.012597
| 16> C        -1.188646   -0.075466    0.495024
| 17> H        -0.172872    0.117068   -1.386061
| 18> H        -0.888337    1.603976   -0.804352
| 19> C        -2.531614   -0.484070   -0.088223
| 20> H        -1.345979    0.524122    1.396481
| 21> H        -0.643519   -0.968674    0.812822
| 22> H        -3.111410    0.390666   -0.388979
| 23> H        -3.126366   -1.045047    0.632979
| 24> H        -2.399982   -1.112341   -0.971005
| 25> H         1.537361    1.821194   -0.586999
| 26> *
| 27>
| 28> $new_job
| 29> ! ri-mp2 aug-cc-pvtz aug-cc-pvtz/c tightscf
| 30> %pal nprocs 16 end
| 31> %maxcore 3800
| 32> %base "TZ_B-F_20_A"
| 33>
| 34> *xyz 0 2
| 35> F         1.927719   -1.200195   -0.181003
| 36> B         2.033783   -0.008890    0.358635
| 37> C         1.014064    1.141645    0.099056
| 38> C        -0.335244    0.715942   -0.486130
| 39> H         0.881361    1.726927    1.012597
| 40> C        -1.188646   -0.075466    0.495024
| 41> H        -0.172872    0.117068   -1.386061
| 42> H        -0.888337    1.603976   -0.804352
| 43> C        -2.531614   -0.484070   -0.088223
| 44> H        -1.345979    0.524122    1.396481
| 45> H        -0.643519   -0.968674    0.812822
| 46> H        -3.111410    0.390666   -0.388979
| 47> H        -3.126366   -1.045047    0.632979
| 48> H        -2.399982   -1.112341   -0.971005
| 49> H         1.537361    1.821194   -0.586999
| 50> *
| 51>
| 52> $new_job
| 53> ! ri-mp2 aug-cc-pvqz aug-cc-pvqz/c tightscf
| 54> %pal nprocs 16 end
| 55> %maxcore 3800
| 56> %base "QZ_B-F_20_A"
| 57>
| 58> *xyz 0 2
| 59> F         1.927719   -1.200195   -0.181003
| 60> B         2.033783   -0.008890    0.358635
| 61> C         1.014064    1.141645    0.099056
| 62> C        -0.335244    0.715942   -0.486130
| 63> H         0.881361    1.726927    1.012597
| 64> C        -1.188646   -0.075466    0.495024
| 65> H        -0.172872    0.117068   -1.386061
| 66> H        -0.888337    1.603976   -0.804352
| 67> C        -2.531614   -0.484070   -0.088223
| 68> H        -1.345979    0.524122    1.396481
| 69> H        -0.643519   -0.968674    0.812822
| 70> H        -3.111410    0.390666   -0.388979
| 71> H        -3.126366   -1.045047    0.632979
| 72> H        -2.399982   -1.112341   -0.971005
| 73> H         1.537361    1.821194   -0.586999
| 74> *
| 75>
| 76>
| 77>
| 78>
| 79>                          ****END OF INPUT****
 Total Charge           Charge          ....    0
 Multiplicity           Mult            ....    2
 Number of Electrons    NEL             ....   47
MP2 TOTAL ENERGY:     -281.726065766 Eh
FINAL SINGLE POINT ENERGY      -281.726065766307
MP2 TOTAL ENERGY:     -281.986176778 Eh
FINAL SINGLE POINT ENERGY      -281.986176777826

CARTESIAN COORDINATES (ANGSTROEM)
---------------------------------
  F      1.927719   -1.200195   -0.181003
  B      2.033783   -0.008890    0.358635
  C      1.014064    1.141645    0.099056
  C     -0.335244    0.715942   -0.486130
  H      0.881361    1.726927    1.012597
  C     -1.188646   -0.075466    0.495024
  H     -0.172872    0.117068   -1.386061
  H     -0.888337    1.603976   -0.804352
  C     -2.531614   -0.484070   -0.088223
  H     -1.345979    0.524122    1.396481
  H     -0.643519   -0.968674    0.812822
  H     -3.111410    0.390666   -0.388979
  H     -3.126366   -1.045047    0.632979
  H     -2.399982   -1.112341   -0.971005
  H      1.537361    1.821194   -0.586999

 Multiplicity           Mult            ....    2
 Number of Electrons    NEL             ....   47
 Basis Dimension        Dim             ....  894

ORBITAL ENERGIES
----------------
                 SPIN UP ORBITALS
  NO   OCC          E(Eh)            E(eV)
   0   1.0000     -26.309351      -715.9138
   1   1.0000     -11.224252      -305.4274
   2   1.0000     -11.219436      -305.2964
   3   1.0000     -11.214487      -305.1617
   4   1.0000     -11.211562      -305.0821
   5   1.0000      -7.669758      -208.7047
   6   1.0000      -1.627435       -44.2848
   7   1.0000      -1.082818       -29.4650
   8   1.0000      -0.995865       -27.0989
   9   1.0000      -0.879397       -23.9296
  10   1.0000      -0.803357       -21.8605
  11   1.0000      -0.782865       -21.3028
  12   1.0000      -0.714347       -19.4384
  13   1.0000      -0.681948       -18.5567
  14   1.0000      -0.640008       -17.4155
  15   1.0000      -0.595107       -16.1937
  16   1.0000      -0.590539       -16.0694
  17   1.0000      -0.571094       -15.5403
  18   1.0000      -0.532555       -14.4916
  19   1.0000      -0.506228       -13.7752
  20   1.0000      -0.486610       -13.2413
  21   1.0000      -0.470498       -12.8029
  22   1.0000      -0.465378       -12.6636
  23   1.0000      -0.337290        -9.1781
  24   0.0000       0.024635         0.6704
  25   0.0000       0.029705         0.8083
  26   0.0000       0.032288         0.8786
  27   0.0000       0.033952         0.9239
  28   0.0000       0.045649         1.2422

                 SPIN DOWN ORBITALS
  NO   OCC          E(Eh)            E(eV)
   0   1.0000     -26.306010      -715.8229
   1   1.0000     -11.223380      -305.4037
   2   1.0000     -11.219498      -305.2981
   3   1.0000     -11.211535      -305.0814
   4   1.0000     -11.211496      -305.0803
   5   1.0000      -7.651029      -208.1951
   6   1.0000      -1.618120       -44.0313
   7   1.0000      -1.080010       -29.3886
   8   1.0000      -0.990694       -26.9582
   9   1.0000      -0.873409       -23.7667
  10   1.0000      -0.798371       -21.7248
  11   1.0000      -0.773442       -21.0464
  12   1.0000      -0.686691       -18.6858
  13   1.0000      -0.681617       -18.5478
  14   1.0000      -0.635505       -17.2930
  15   1.0000      -0.591950       -16.1078
  16   1.0000      -0.586273       -15.9533
  17   1.0000      -0.563298       -15.3281
  18   1.0000      -0.522455       -14.2167
  19   1.0000      -0.495127       -13.4731
  20   1.0000      -0.479877       -13.0581
  21   1.0000      -0.468930       -12.7602
  22   1.0000      -0.461830       -12.5670
  23   0.0000       0.022836         0.6214
  24   0.0000       0.029264         0.7963
  25   0.0000       0.031696         0.8625
  26   0.0000       0.033531         0.9124
  27   0.0000       0.046124         1.2551

MULLIKEN ATOMIC CHARGES AND SPIN POPULATIONS
--------------------------------------------
   0 F :   -0.735592   -0.024555
   1 B :    0.754392    1.018384
   2 C :   -0.535485   -0.008771
   3 C :   -0.500089    0.027858
   4 H :    0.258588   -0.002408
   5 C :   -0.357286   -0.004446
   6 H :    0.251489   -0.002400
   7 H :    0.281002    0.008734
   8 C :   -0.832763    0.001705
   9 H :    0.228623   -0.001002
  10 H :    0.249013    0.000582
  11 H :    0.225324    0.000072
  12 H :    0.256428   -0.000055
  13 H :    0.222994   -0.000202
  14 H :    0.233361   -0.013497
Sum of atomic charges         :    0.0000000

LOEWDIN ATOMIC CHARGES AND SPIN POPULATIONS
-------------------------------------------
   0 F :    0.761785    0.151483
   1 B :   -0.619249    0.577474
   2 C :    0.570328    0.170370
   3 C :    0.463134    0.027421
   4 H :   -0.330756    0.029002
   5 C :    0.489393    0.005865
   6 H :   -0.278157    0.003656
   7 H :   -0.267366    0.005211
   8 C :    0.930341    0.000636
   9 H :   -0.268871    0.000338
  10 H :   -0.282884    0.001773
  11 H :   -0.283088    0.000403
  12 H :   -0.281070    0.000052
  13 H :   -0.281180    0.000079
  14 H :   -0.322359    0.026236

  Mayer bond orders larger than 0.100000
B(  0-F ,  1-B ) :   0.3674 B(  1-B ,  2-C ) :   0.9418 B(  2-C ,  3-C ) :   1.0139
B(  2-C ,  4-H ) :   0.9231 B(  2-C , 14-H ) :   0.9443 B(  3-C ,  5-C ) :   0.8589
B(  3-C ,  6-H ) :   0.8888 B(  3-C ,  7-H ) :   0.8623 B(  5-C ,  8-C ) :   0.9448
B(  5-C ,  9-H ) :   0.8852 B(  5-C , 10-H ) :   0.8831 B(  8-C , 11-H ) :   0.9623
B(  8-C , 12-H ) :   1.0134 B(  8-C , 13-H ) :   0.9542

MP2 TOTAL ENERGY:     -282.065781557 Eh
FINAL SINGLE POINT ENERGY      -282.065781557300

DIPOLE MOMENT
-------------
                                X             Y             Z
Electronic contribution:     12.64732      -3.84787       0.36822
Nuclear contribution   :    -13.01068       4.31614      -0.39883
                        -----------------------------------------
Total Dipole Moment    :     -0.36336       0.46828      -0.03061
                        -----------------------------------------
Magnitude (a.u.)       :      0.59351
Magnitude (Debye)      :      1.50858

Rotational constants in cm-1:     0.210178     0.062600     0.053129
Rotational constants in MHz :  6300.980724  1876.713078  1592.760479

                             ****ORCA TERMINATED NORMALLY****
TOTAL RUN TIME: 0 days 2 hours 16 minutes 51 seconds 86 msec
