                         Program Version 5.0.4 -  RELEASE  -
|  1> ! ri-mp2 aug-cc-pvdz aug-cc-pvdz/c tightscf
|  2> %pal nprocs 16 end
|  3> %maxcore 3800
|  4> %base "DZ_S-Cl_42_A"
|  5> %scf
|  6> STABPerform true
|  7> STABRestartUHFifUnstable true
|  8> end
|  9>
| 10> *xyz 0 2
| 11> S        -1.303056   -0.146495   -0.000001
| 12> C         0.431635    0.142156    0.000001
| 13> O         0.770665    1.303767   -0.000001
| 14> N         1.271259   -0.908052    0.000000
| 15> H         0.933275   -1.852961    0.000017
| 16> H         2.261664   -0.729836    0.000011
| 17> *
| 18>
| 19> $new_job
| 20> ! ri-mp2 aug-cc-pvtz aug-cc-pvtz/c tightscf
| 21> %pal nprocs 16 end
| 22> %maxcore 3800
| 23> %base "TZ_S-Cl_42_A"
| 24>
| 25> *xyz 0 2
| 26> S        -1.303056   -0.146495   -0.000001
| 27> C         0.431635    0.142156    0.000001
| 28> O         0.770665    1.303767   -0.000001
| 29> N         1.271259   -0.908052    0.000000
| 30> H         0.933275   -1.852961    0.000017
| 31> H         2.261664   -0.729836    0.000011
| 32> *
| 33>
| 34> $new_job
| 35> ! ri-mp2 aug-cc-pvqz aug-cc-pvqz/c tightscf
| 36> %pal nprocs 16 end
| 37> %maxcore 3800
| 38> %base "QZ_S-Cl_42_A"
| 39>
| 40> *xyz 0 2
| 41> S        -1.303056   -0.146495   -0.000001
| 42> C         0.431635    0.142156    0.000001
| 43> O         0.770665    1.303767   -0.000001
| 44> N         1.271259   -0.908052    0.000000
| 45> H         0.933275   -1.852961    0.000017
| 46> H         2.261664   -0.729836    0.000011
| 47> *
| 48>
| 49>
| 50>
| 51>
| 52>                          ****END OF INPUT****
 Total Charge           Charge          ....    0
 Multiplicity           Mult            ....    2
 Number of Electrons    NEL             ....   39
MP2 TOTAL ENERGY:     -566.514925718 Eh
FINAL SINGLE POINT ENERGY      -566.514925718051
MP2 TOTAL ENERGY:     -566.703920761 Eh
FINAL SINGLE POINT ENERGY      -566.703920760983

CARTESIAN COORDINATES (ANGSTROEM)
---------------------------------
  S     -1.303056   -0.146495   -0.000001
  C      0.431635    0.142156    0.000001
  O      0.770665    1.303767   -0.000001
  N      1.271259   -0.908052    0.000000
  H      0.933275   -1.852961    0.000017
  H      2.261664   -0.729836    0.000011

 Multiplicity           Mult            ....    2
 Number of Electrons    NEL             ....   39
 Basis Dimension        Dim             ....  416

ORBITAL ENERGIES
----------------
                 SPIN UP ORBITALS
  NO   OCC          E(Eh)            E(eV)
   0   1.0000     -92.002173     -2503.5064
   1   1.0000     -20.541080      -558.9512
   2   1.0000     -15.609347      -424.7519
   3   1.0000     -11.394001      -310.0465
   4   1.0000      -9.004987      -245.0382
   5   1.0000      -6.700984      -182.3430
   6   1.0000      -6.682046      -181.8277
   7   1.0000      -6.680743      -181.7923
   8   1.0000      -1.414680       -38.4954
   9   1.0000      -1.244390       -33.8616
  10   1.0000      -1.034360       -28.1464
  11   1.0000      -0.821735       -22.3606
  12   1.0000      -0.748779       -20.3753
  13   1.0000      -0.679914       -18.5014
  14   1.0000      -0.610559       -16.6142
  15   1.0000      -0.595160       -16.1951
  16   1.0000      -0.487002       -13.2520
  17   1.0000      -0.443811       -12.0767
  18   1.0000      -0.435712       -11.8563
  19   1.0000      -0.408338       -11.1114
  20   0.0000       0.017778         0.4838
  21   0.0000       0.038546         1.0489
  22   0.0000       0.051581         1.4036
  23   0.0000       0.075514         2.0548
  24   0.0000       0.079629         2.1668

                 SPIN DOWN ORBITALS
  NO   OCC          E(Eh)            E(eV)
   0   1.0000     -91.992908     -2503.2543
   1   1.0000     -20.538319      -558.8761
   2   1.0000     -15.609408      -424.7536
   3   1.0000     -11.394954      -310.0724
   4   1.0000      -8.994751      -244.7596
   5   1.0000      -6.677360      -181.7002
   6   1.0000      -6.675281      -181.6436
   7   1.0000      -6.658964      -181.1996
   8   1.0000      -1.408377       -38.3239
   9   1.0000      -1.242382       -33.8069
  10   1.0000      -0.966538       -26.3008
  11   1.0000      -0.808977       -22.0134
  12   1.0000      -0.739715       -20.1287
  13   1.0000      -0.662103       -18.0167
  14   1.0000      -0.609180       -16.5766
  15   1.0000      -0.580261       -15.7897
  16   1.0000      -0.442360       -12.0372
  17   1.0000      -0.430959       -11.7270
  18   1.0000      -0.388642       -10.5755
  19   0.0000      -0.005449        -0.1483
  20   0.0000       0.020171         0.5489
  21   0.0000       0.040214         1.0943
  22   0.0000       0.052723         1.4347
  23   0.0000       0.075626         2.0579

MULLIKEN ATOMIC CHARGES AND SPIN POPULATIONS
--------------------------------------------
   0 S :    0.128599    1.078721
   1 C :    0.512550   -0.114320
   2 O :   -0.657846    0.032452
   3 N :   -0.601361    0.003860
   4 H :    0.313504    0.002683
   5 H :    0.304554   -0.003395
Sum of atomic charges         :    0.0000000

LOEWDIN ATOMIC CHARGES AND SPIN POPULATIONS
-------------------------------------------
   0 S :    0.988869    0.729073
   1 C :   -1.565045    0.191999
   2 O :    0.521879    0.048294
   3 N :    1.097884    0.014883
   4 H :   -0.535660    0.015682
   5 H :   -0.507927    0.000069

  Mayer bond orders larger than 0.100000
B(  0-S ,  1-C ) :   0.9737 B(  1-C ,  2-O ) :   1.6161 B(  1-C ,  3-N ) :   1.1589
B(  2-O ,  3-N ) :   0.1294 B(  3-N ,  4-H ) :   0.9212 B(  3-N ,  5-H ) :   0.9115

MP2 TOTAL ENERGY:     -566.767220978 Eh
FINAL SINGLE POINT ENERGY      -566.767220977649

DIPOLE MOMENT
-------------
                                X             Y             Z
Electronic contribution:     -2.82846       0.89918      -0.00001
Nuclear contribution   :      3.13293      -2.46712       0.00003
                        -----------------------------------------
Total Dipole Moment    :      0.30447      -1.56794       0.00002
                        -----------------------------------------
Magnitude (a.u.)       :      1.59723
Magnitude (Debye)      :      4.05984

Rotational constants in cm-1:     0.388833     0.177555     0.121894
Rotational constants in MHz : 11656.916031  5322.961517  3654.285213

                             ****ORCA TERMINATED NORMALLY****
TOTAL RUN TIME: 0 days 0 hours 14 minutes 56 seconds 361 msec
