                         Program Version 5.0.4 -  RELEASE  -
|  1> ! ri-mp2 aug-cc-pvdz aug-cc-pvdz/c tightscf
|  2> %pal nprocs 16 end
|  3> %maxcore 3800
|  4> %base "DZ_B-S_2_AB"
|  5>
|  6> *xyz 0 1
|  7> H         4.222776   -0.149723   -0.051415
|  8> S        -2.140352   -1.470927    0.297070
|  9> S        -1.981765    1.557145   -0.327562
| 10> B        -1.146173   -0.002804    0.005150
| 11> N         2.475166   -1.146593   -0.456103
| 12> C         3.140805   -0.080789   -0.029281
| 13> C         2.518706    1.069730    0.423805
| 14> H         3.107294    1.912479    0.758897
| 15> C         1.139244    1.110480    0.435557
| 16> H         0.626351    1.997097    0.786453
| 17> C         0.408190    0.001861    0.009859
| 18> C         1.151694   -1.095393   -0.428167
| 19> H         0.644446   -1.980151   -0.798146
| 20> H        -3.245357    1.158644   -0.126516
| 21> H        -1.148773   -2.312988    0.614931
| 22> *
| 23>
| 24> $new_job
| 25> ! ri-mp2 aug-cc-pvtz aug-cc-pvtz/c tightscf
| 26> %pal nprocs 16 end
| 27> %maxcore 3800
| 28> %base "TZ_B-S_2_AB"
| 29>
| 30> *xyz 0 1
| 31> H         4.222776   -0.149723   -0.051415
| 32> S        -2.140352   -1.470927    0.297070
| 33> S        -1.981765    1.557145   -0.327562
| 34> B        -1.146173   -0.002804    0.005150
| 35> N         2.475166   -1.146593   -0.456103
| 36> C         3.140805   -0.080789   -0.029281
| 37> C         2.518706    1.069730    0.423805
| 38> H         3.107294    1.912479    0.758897
| 39> C         1.139244    1.110480    0.435557
| 40> H         0.626351    1.997097    0.786453
| 41> C         0.408190    0.001861    0.009859
| 42> C         1.151694   -1.095393   -0.428167
| 43> H         0.644446   -1.980151   -0.798146
| 44> H        -3.245357    1.158644   -0.126516
| 45> H        -1.148773   -2.312988    0.614931
| 46> *
| 47>
| 48> $new_job
| 49> ! ri-mp2 aug-cc-pvqz aug-cc-pvqz/c tightscf
| 50> %pal nprocs 16 end
| 51> %maxcore 3800
| 52> %base "QZ_B-S_2_AB"
| 53>
| 54> *xyz 0 1
| 55> H         4.222776   -0.149723   -0.051415
| 56> S        -2.140352   -1.470927    0.297070
| 57> S        -1.981765    1.557145   -0.327562
| 58> B        -1.146173   -0.002804    0.005150
| 59> N         2.475166   -1.146593   -0.456103
| 60> C         3.140805   -0.080789   -0.029281
| 61> C         2.518706    1.069730    0.423805
| 62> H         3.107294    1.912479    0.758897
| 63> C         1.139244    1.110480    0.435557
| 64> H         0.626351    1.997097    0.786453
| 65> C         0.408190    0.001861    0.009859
| 66> C         1.151694   -1.095393   -0.428167
| 67> H         0.644446   -1.980151   -0.798146
| 68> H        -3.245357    1.158644   -0.126516
| 69> H        -1.148773   -2.312988    0.614931
| 70> *
| 71>
| 72>
| 73>
| 74>
| 75>                          ****END OF INPUT****
 Total Charge           Charge          ....    0
 Multiplicity           Mult            ....    1
 Number of Electrons    NEL             ....   80
MP2 TOTAL ENERGY:    -1068.341565278 Eh
FINAL SINGLE POINT ENERGY     -1068.341565278125
MP2 TOTAL ENERGY:    -1068.674828566 Eh
FINAL SINGLE POINT ENERGY     -1068.674828565504

CARTESIAN COORDINATES (ANGSTROEM)
---------------------------------
  H      4.222776   -0.149723   -0.051415
  S     -2.140352   -1.470927    0.297070
  S     -1.981765    1.557145   -0.327562
  B     -1.146173   -0.002804    0.005150
  N      2.475166   -1.146593   -0.456103
  C      3.140805   -0.080789   -0.029281
  C      2.518706    1.069730    0.423805
  H      3.107294    1.912479    0.758897
  C      1.139244    1.110480    0.435557
  H      0.626351    1.997097    0.786453
  C      0.408190    0.001861    0.009859
  C      1.151694   -1.095393   -0.428167
  H      0.644446   -1.980151   -0.798146
  H     -3.245357    1.158644   -0.126516
  H     -1.148773   -2.312988    0.614931

 Multiplicity           Mult            ....    1
 Number of Electrons    NEL             ....   80
 Basis Dimension        Dim             .... 1004

ORBITAL ENERGIES
----------------

  NO   OCC          E(Eh)            E(eV)
   0   2.0000     -91.962249     -2502.4200
   1   2.0000     -91.960984     -2502.3856
   2   2.0000     -15.568833      -423.6495
   3   2.0000     -11.284322      -307.0620
   4   2.0000     -11.283906      -307.0507
   5   2.0000     -11.266697      -306.5824
   6   2.0000     -11.244796      -305.9865
   7   2.0000     -11.234374      -305.7028
   8   2.0000      -8.967466      -244.0171
   9   2.0000      -8.966233      -243.9836
  10   2.0000      -7.658076      -208.3868
  11   2.0000      -6.649041      -180.9296
  12   2.0000      -6.648054      -180.9028
  13   2.0000      -6.647808      -180.8961
  14   2.0000      -6.647616      -180.8908
  15   2.0000      -6.646818      -180.8691
  16   2.0000      -6.646374      -180.8570
  17   2.0000      -1.273770       -34.6611
  18   2.0000      -1.102505       -30.0007
  19   2.0000      -1.052924       -28.6515
  20   2.0000      -1.011042       -27.5119
  21   2.0000      -0.969457       -26.3803
  22   2.0000      -0.868568       -23.6349
  23   2.0000      -0.867244       -23.5989
  24   2.0000      -0.735760       -20.0210
  25   2.0000      -0.685138       -18.6435
  26   2.0000      -0.673845       -18.3363
  27   2.0000      -0.625374       -17.0173
  28   2.0000      -0.605024       -16.4635
  29   2.0000      -0.582263       -15.8442
  30   2.0000      -0.566396       -15.4124
  31   2.0000      -0.553348       -15.0574
  32   2.0000      -0.525993       -14.3130
  33   2.0000      -0.475113       -12.9285
  34   2.0000      -0.458210       -12.4685
  35   2.0000      -0.442103       -12.0302
  36   2.0000      -0.421124       -11.4594
  37   2.0000      -0.391561       -10.6549
  38   2.0000      -0.375983       -10.2310
  39   2.0000      -0.354616        -9.6496
  40   0.0000       0.020658         0.5621
  41   0.0000       0.028416         0.7732
  42   0.0000       0.031623         0.8605
  43   0.0000       0.036862         1.0031
  44   0.0000       0.039896         1.0856

MULLIKEN ATOMIC CHARGES
-----------------------
   0 H :    0.507014
   1 S :   -0.140162
   2 S :   -0.094492
   3 B :    0.527031
   4 N :   -0.655964
   5 C :   -0.417410
   6 C :   -0.270389
   7 H :    0.305611
   8 C :   -0.407166
   9 H :    0.253630
  10 C :    0.191365
  11 C :   -0.188995
  12 H :    0.390259
  13 H :    0.004448
  14 H :   -0.004780
Sum of atomic charges:    0.0000000

LOEWDIN ATOMIC CHARGES
----------------------
   0 H :   -0.344249
   1 S :    1.711573
   2 S :    1.696228
   3 B :   -1.668006
   4 N :    0.614848
   5 C :    0.081928
   6 C :    0.351364
   7 H :   -0.321886
   8 C :    0.272670
   9 H :   -0.340236
  10 C :   -0.125549
  11 C :    0.024345
  12 H :   -0.376246
  13 H :   -0.795577
  14 H :   -0.781208

  Mayer bond orders larger than 0.100000
B(  0-H ,  5-C ) :   0.8052 B(  1-S ,  3-B ) :   1.0386 B(  1-S , 14-H ) :   1.0796
B(  2-S ,  3-B ) :   1.0457 B(  2-S , 13-H ) :   1.0887 B(  3-B , 10-C ) :   1.0087
B(  4-N ,  5-C ) :   1.3471 B(  4-N , 11-C ) :   1.1002 B(  5-C ,  6-C ) :   1.2449
B(  6-C ,  7-H ) :   1.0306 B(  6-C ,  8-C ) :   1.2367 B(  6-C , 10-C ) :  -0.3270
B(  6-C , 11-C ) :   0.1086 B(  7-H ,  8-C ) :  -0.1344 B(  8-C ,  9-H ) :   1.0003
B(  8-C , 10-C ) :   0.8745 B( 10-C , 11-C ) :   1.1404 B( 11-C , 12-H ) :   0.9042

MP2 TOTAL ENERGY:    -1068.782992529 Eh
FINAL SINGLE POINT ENERGY     -1068.782992528827

DIPOLE MOMENT
-------------
                                X             Y             Z
Electronic contribution:     -5.03320      -0.17447      -0.72340
Nuclear contribution   :      5.10903       0.59911       1.14188
                        -----------------------------------------
Total Dipole Moment    :      0.07583       0.42463       0.41848
                        -----------------------------------------
Magnitude (a.u.)       :      0.60099
Magnitude (Debye)      :      1.52760

Rotational constants in cm-1:     0.068804     0.025567     0.019414
Rotational constants in MHz :  2062.678023   766.474134   582.013902

                             ****ORCA TERMINATED NORMALLY****
TOTAL RUN TIME: 0 days 0 hours 24 minutes 31 seconds 955 msec
