                         Program Version 5.0.4 -  RELEASE  -
|  1> ! ri-mp2 aug-cc-pvdz aug-cc-pvdz/c tightscf
|  2> %pal nprocs 16 end
|  3> %maxcore 3800
|  4> %base "DZ_P-N_47_AB"
|  5> %scf
|  6> STABPerform true
|  7> STABRestartUHFifUnstable true
|  8> end
|  9>
| 10> *xyz 0 1
| 11> C        -0.982054    0.515047   -0.083563
| 12> N         0.081504   -0.468118    0.008490
| 13> P         1.723080   -0.063982    0.016532
| 14> C        -2.344570   -0.129805    0.070998
| 15> H        -0.935002    1.067571   -1.031895
| 16> H        -0.825481    1.248566    0.710836
| 17> H        -2.522376   -0.861047   -0.720552
| 18> H        -3.134978    0.618507    0.012565
| 19> H        -2.421972   -0.642018    1.030053
| 20> H         1.729220    0.804495    1.136048
| 21> H         1.774635    1.024338   -0.905927
| 22> H        -0.121028   -1.335310   -0.463152
| 23> *
| 24>
| 25> $new_job
| 26> ! ri-mp2 aug-cc-pvtz aug-cc-pvtz/c tightscf
| 27> %pal nprocs 16 end
| 28> %maxcore 3800
| 29> %base "TZ_P-N_47_AB"
| 30>
| 31> *xyz 0 1
| 32> C        -0.982054    0.515047   -0.083563
| 33> N         0.081504   -0.468118    0.008490
| 34> P         1.723080   -0.063982    0.016532
| 35> C        -2.344570   -0.129805    0.070998
| 36> H        -0.935002    1.067571   -1.031895
| 37> H        -0.825481    1.248566    0.710836
| 38> H        -2.522376   -0.861047   -0.720552
| 39> H        -3.134978    0.618507    0.012565
| 40> H        -2.421972   -0.642018    1.030053
| 41> H         1.729220    0.804495    1.136048
| 42> H         1.774635    1.024338   -0.905927
| 43> H        -0.121028   -1.335310   -0.463152
| 44> *
| 45>
| 46> $new_job
| 47> ! ri-mp2 aug-cc-pvqz aug-cc-pvqz/c tightscf
| 48> %pal nprocs 16 end
| 49> %maxcore 3800
| 50> %base "QZ_P-N_47_AB"
| 51>
| 52> *xyz 0 1
| 53> C        -0.982054    0.515047   -0.083563
| 54> N         0.081504   -0.468118    0.008490
| 55> P         1.723080   -0.063982    0.016532
| 56> C        -2.344570   -0.129805    0.070998
| 57> H        -0.935002    1.067571   -1.031895
| 58> H        -0.825481    1.248566    0.710836
| 59> H        -2.522376   -0.861047   -0.720552
| 60> H        -3.134978    0.618507    0.012565
| 61> H        -2.421972   -0.642018    1.030053
| 62> H         1.729220    0.804495    1.136048
| 63> H         1.774635    1.024338   -0.905927
| 64> H        -0.121028   -1.335310   -0.463152
| 65> *
| 66>
| 67>
| 68>
| 69>
| 70>                          ****END OF INPUT****
 Total Charge           Charge          ....    0
 Multiplicity           Mult            ....    1
 Number of Electrons    NEL             ....   42
MP2 TOTAL ENERGY:     -476.201009405 Eh
FINAL SINGLE POINT ENERGY      -476.201009405245
MP2 TOTAL ENERGY:     -476.379076185 Eh
FINAL SINGLE POINT ENERGY      -476.379076184770

CARTESIAN COORDINATES (ANGSTROEM)
---------------------------------
  C     -0.982054    0.515047   -0.083563
  N      0.081504   -0.468118    0.008490
  P      1.723080   -0.063982    0.016532
  C     -2.344570   -0.129805    0.070998
  H     -0.935002    1.067571   -1.031895
  H     -0.825481    1.248566    0.710836
  H     -2.522376   -0.861047   -0.720552
  H     -3.134978    0.618507    0.012565
  H     -2.421972   -0.642018    1.030053
  H      1.729220    0.804495    1.136048
  H      1.774635    1.024338   -0.905927
  H     -0.121028   -1.335310   -0.463152

 Multiplicity           Mult            ....    1
 Number of Electrons    NEL             ....   42
 Basis Dimension        Dim             ....  692

ORBITAL ENERGIES
----------------

  NO   OCC          E(Eh)            E(eV)
   0   2.0000     -79.949762     -2175.5436
   1   2.0000     -15.548443      -423.0946
   2   2.0000     -11.257269      -306.3259
   3   2.0000     -11.219095      -305.2871
   4   2.0000      -7.488869      -203.7825
   5   2.0000      -5.383020      -146.4794
   6   2.0000      -5.382682      -146.4702
   7   2.0000      -5.382128      -146.4552
   8   2.0000      -1.198238       -32.6057
   9   2.0000      -1.006699       -27.3937
  10   2.0000      -0.849387       -23.1130
  11   2.0000      -0.813557       -22.1380
  12   2.0000      -0.651034       -17.7155
  13   2.0000      -0.619803       -16.8657
  14   2.0000      -0.601278       -16.3616
  15   2.0000      -0.545740       -14.8503
  16   2.0000      -0.527520       -14.3545
  17   2.0000      -0.503877       -13.7112
  18   2.0000      -0.495477       -13.4826
  19   2.0000      -0.380814       -10.3625
  20   2.0000      -0.363258        -9.8848
  21   0.0000       0.025478         0.6933
  22   0.0000       0.034039         0.9263
  23   0.0000       0.036055         0.9811
  24   0.0000       0.037552         1.0218
  25   0.0000       0.052198         1.4204

MULLIKEN ATOMIC CHARGES
-----------------------
   0 C :   -0.244737
   1 N :   -0.720649
   2 P :    0.461046
   3 C :   -0.854504
   4 H :    0.261732
   5 H :    0.279282
   6 H :    0.236633
   7 H :    0.279525
   8 H :    0.239707
   9 H :   -0.071526
  10 H :   -0.109530
  11 H :    0.243019
Sum of atomic charges:   -0.0000000

LOEWDIN ATOMIC CHARGES
----------------------
   0 C :    0.232740
   1 N :    0.547999
   2 P :    1.343757
   3 C :    0.909768
   4 H :   -0.291940
   5 H :   -0.317023
   6 H :   -0.288138
   7 H :   -0.285767
   8 H :   -0.286343
   9 H :   -0.472765
  10 H :   -0.462662
  11 H :   -0.629627

  Mayer bond orders larger than 0.100000
B(  0-C ,  1-N ) :   0.7759 B(  0-C ,  3-C ) :   0.9861 B(  0-C ,  4-H ) :   0.8883
B(  0-C ,  5-H ) :   0.8893 B(  1-N ,  2-P ) :   0.9815 B(  1-N , 11-H ) :   0.9561
B(  2-P ,  9-H ) :   0.9113 B(  2-P , 10-H ) :   0.8692 B(  3-C ,  6-H ) :   0.9284
B(  3-C ,  7-H ) :   0.9715 B(  3-C ,  8-H ) :   0.9422

MP2 TOTAL ENERGY:     -476.433738138 Eh
FINAL SINGLE POINT ENERGY      -476.433738138095

DIPOLE MOMENT
-------------
                                X             Y             Z
Electronic contribution:      7.67368      -1.85157       0.04180
Nuclear contribution   :     -8.28791       2.02992      -0.25354
                        -----------------------------------------
Total Dipole Moment    :     -0.61424       0.17835      -0.21174
                        -----------------------------------------
Magnitude (a.u.)       :      0.67374
Magnitude (Debye)      :      1.71252

Rotational constants in cm-1:     0.845651     0.082419     0.079087
Rotational constants in MHz : 25351.982365  2470.867063  2370.980795

                             ****ORCA TERMINATED NORMALLY****
TOTAL RUN TIME: 0 days 0 hours 33 minutes 28 seconds 563 msec
