                         Program Version 5.0.4 -  RELEASE  -
|  1> ! ri-mp2 aug-cc-pvdz aug-cc-pvdz/c tightscf
|  2> %pal nprocs 16 end
|  3> %maxcore 3800
|  4> %base "DZ_B-P_35_AB"
|  5> %scf
|  6> STABPerform true
|  7> STABRestartUHFifUnstable true
|  8> end
|  9>
| 10> *xyz 0 1
| 11> B        -2.958754    0.703825   -0.400635
| 12> C        -0.024048   -0.111241   -0.309452
| 13> C         1.004846   -1.200823   -0.004488
| 14> C         0.598518    1.129365    0.334427
| 15> C         2.108737    0.990036    0.077826
| 16> H         0.393423    1.114382    1.407135
| 17> H         0.177058    2.054030   -0.058188
| 18> C         2.350170   -0.506442   -0.235053
| 19> H         2.687078    1.323328    0.938650
| 20> H         2.415980    1.609863   -0.764196
| 21> H         2.652852   -0.627742   -1.275817
| 22> H         3.143038   -0.936302    0.375593
| 23> H         0.870577   -2.093672   -0.613928
| 24> H         0.909312   -1.504479    1.041819
| 25> P        -1.740798   -0.525447    0.189448
| 26> H        -0.074718    0.031478   -1.393673
| 27> H        -3.973862    0.854563    0.198806
| 28> H        -2.808579    1.207719   -1.468417
| 29> H        -1.715760   -0.475962    1.594121
| 30> *
| 31>
| 32> $new_job
| 33> ! ri-mp2 aug-cc-pvtz aug-cc-pvtz/c tightscf
| 34> %pal nprocs 16 end
| 35> %maxcore 3800
| 36> %base "TZ_B-P_35_AB"
| 37>
| 38> *xyz 0 1
| 39> B        -2.958754    0.703825   -0.400635
| 40> C        -0.024048   -0.111241   -0.309452
| 41> C         1.004846   -1.200823   -0.004488
| 42> C         0.598518    1.129365    0.334427
| 43> C         2.108737    0.990036    0.077826
| 44> H         0.393423    1.114382    1.407135
| 45> H         0.177058    2.054030   -0.058188
| 46> C         2.350170   -0.506442   -0.235053
| 47> H         2.687078    1.323328    0.938650
| 48> H         2.415980    1.609863   -0.764196
| 49> H         2.652852   -0.627742   -1.275817
| 50> H         3.143038   -0.936302    0.375593
| 51> H         0.870577   -2.093672   -0.613928
| 52> H         0.909312   -1.504479    1.041819
| 53> P        -1.740798   -0.525447    0.189448
| 54> H        -0.074718    0.031478   -1.393673
| 55> H        -3.973862    0.854563    0.198806
| 56> H        -2.808579    1.207719   -1.468417
| 57> H        -1.715760   -0.475962    1.594121
| 58> *
| 59>
| 60> $new_job
| 61> ! ri-mp2 aug-cc-pvqz aug-cc-pvqz/c tightscf
| 62> %pal nprocs 16 end
| 63> %maxcore 3800
| 64> %base "QZ_B-P_35_AB"
| 65>
| 66> *xyz 0 1
| 67> B        -2.958754    0.703825   -0.400635
| 68> C        -0.024048   -0.111241   -0.309452
| 69> C         1.004846   -1.200823   -0.004488
| 70> C         0.598518    1.129365    0.334427
| 71> C         2.108737    0.990036    0.077826
| 72> H         0.393423    1.114382    1.407135
| 73> H         0.177058    2.054030   -0.058188
| 74> C         2.350170   -0.506442   -0.235053
| 75> H         2.687078    1.323328    0.938650
| 76> H         2.415980    1.609863   -0.764196
| 77> H         2.652852   -0.627742   -1.275817
| 78> H         3.143038   -0.936302    0.375593
| 79> H         0.870577   -2.093672   -0.613928
| 80> H         0.909312   -1.504479    1.041819
| 81> P        -1.740798   -0.525447    0.189448
| 82> H        -0.074718    0.031478   -1.393673
| 83> H        -3.973862    0.854563    0.198806
| 84> H        -2.808579    1.207719   -1.468417
| 85> H        -1.715760   -0.475962    1.594121
| 86> *
| 87>
| 88>
| 89>
| 90>
| 91>                          ****END OF INPUT****
 Total Charge           Charge          ....    0
 Multiplicity           Mult            ....    1
 Number of Electrons    NEL             ....   62
MP2 TOTAL ENERGY:     -562.701328930 Eh
FINAL SINGLE POINT ENERGY      -562.701328929855
MP2 TOTAL ENERGY:     -562.952569590 Eh
FINAL SINGLE POINT ENERGY      -562.952569589678

CARTESIAN COORDINATES (ANGSTROEM)
---------------------------------
  B     -2.958754    0.703825   -0.400635
  C     -0.024048   -0.111241   -0.309452
  C      1.004846   -1.200823   -0.004488
  C      0.598518    1.129365    0.334427
  C      2.108737    0.990036    0.077826
  H      0.393423    1.114382    1.407135
  H      0.177058    2.054030   -0.058188
  C      2.350170   -0.506442   -0.235053
  H      2.687078    1.323328    0.938650
  H      2.415980    1.609863   -0.764196
  H      2.652852   -0.627742   -1.275817
  H      3.143038   -0.936302    0.375593
  H      0.870577   -2.093672   -0.613928
  H      0.909312   -1.504479    1.041819
  P     -1.740798   -0.525447    0.189448
  H     -0.074718    0.031478   -1.393673
  H     -3.973862    0.854563    0.198806
  H     -2.808579    1.207719   -1.468417
  H     -1.715760   -0.475962    1.594121

 Multiplicity           Mult            ....    1
 Number of Electrons    NEL             ....   62
 Basis Dimension        Dim             .... 1116

ORBITAL ENERGIES
----------------

  NO   OCC          E(Eh)            E(eV)
   0   2.0000     -79.917136     -2174.6558
   1   2.0000     -11.237238      -305.7808
   2   2.0000     -11.222640      -305.3836
   3   2.0000     -11.222466      -305.3788
   4   2.0000     -11.218944      -305.2830
   5   2.0000     -11.218321      -305.2660
   6   2.0000      -7.599810      -206.8013
   7   2.0000      -7.464218      -203.1117
   8   2.0000      -5.358878      -145.8225
   9   2.0000      -5.358776      -145.8197
  10   2.0000      -5.358198      -145.8040
  11   2.0000      -1.132046       -30.8045
  12   2.0000      -0.982397       -26.7324
  13   2.0000      -0.970694       -26.4139
  14   2.0000      -0.849038       -23.1035
  15   2.0000      -0.781129       -21.2556
  16   2.0000      -0.769226       -20.9317
  17   2.0000      -0.674226       -18.3466
  18   2.0000      -0.659032       -17.9332
  19   2.0000      -0.624391       -16.9905
  20   2.0000      -0.581708       -15.8291
  21   2.0000      -0.570019       -15.5110
  22   2.0000      -0.519494       -14.1362
  23   2.0000      -0.490207       -13.3392
  24   2.0000      -0.486336       -13.2339
  25   2.0000      -0.480645       -13.0790
  26   2.0000      -0.477970       -13.0062
  27   2.0000      -0.465315       -12.6619
  28   2.0000      -0.459316       -12.4986
  29   2.0000      -0.435052       -11.8384
  30   2.0000      -0.329076        -8.9546
  31   0.0000       0.023298         0.6340
  32   0.0000       0.028294         0.7699
  33   0.0000       0.030001         0.8164
  34   0.0000       0.033003         0.8981
  35   0.0000       0.041567         1.1311

MULLIKEN ATOMIC CHARGES
-----------------------
   0 B :    0.200196
   1 C :   -0.005760
   2 C :   -0.628667
   3 C :   -0.628613
   4 C :   -0.444311
   5 H :    0.194907
   6 H :    0.356489
   7 C :   -0.565790
   8 H :    0.265423
   9 H :    0.186750
  10 H :    0.173486
  11 H :    0.331173
  12 H :    0.367673
  13 H :    0.206767
  14 P :    0.262776
  15 H :    0.214260
  16 H :   -0.263455
  17 H :   -0.139413
  18 H :   -0.083891
Sum of atomic charges:   -0.0000000

LOEWDIN ATOMIC CHARGES
----------------------
   0 B :    0.114408
   1 C :   -0.086057
   2 C :    0.455818
   3 C :    0.471136
   4 C :    0.560763
   5 H :   -0.284333
   6 H :   -0.259916
   7 C :    0.550854
   8 H :   -0.263662
   9 H :   -0.266666
  10 H :   -0.267622
  11 H :   -0.260089
  12 H :   -0.259905
  13 H :   -0.276124
  14 P :    1.337919
  15 H :   -0.334991
  16 H :   -0.269857
  17 H :   -0.254676
  18 H :   -0.407001

  Mayer bond orders larger than 0.100000
B(  0-B ,  1-C ) :  -0.1070 B(  0-B , 14-P ) :   1.3900 B(  0-B , 16-H ) :   0.9413
B(  0-B , 17-H ) :   0.9220 B(  1-C ,  2-C ) :   0.7057 B(  1-C ,  3-C ) :   0.8377
B(  1-C ,  4-C ) :  -0.1075 B(  1-C ,  7-C ) :  -0.1665 B(  1-C , 14-P ) :   0.6488
B(  1-C , 15-H ) :   0.9796 B(  2-C ,  7-C ) :   1.0598 B(  2-C , 12-H ) :   0.8267
B(  2-C , 13-H ) :   0.9767 B(  3-C ,  4-C ) :   0.9889 B(  3-C ,  5-H ) :   0.9794
B(  3-C ,  6-H ) :   0.8554 B(  4-C ,  7-C ) :   0.9778 B(  4-C ,  8-H ) :   0.9208
B(  4-C ,  9-H ) :   0.9860 B(  7-C , 10-H ) :   1.0116 B(  7-C , 11-H ) :   0.8666
B( 14-P , 18-H ) :   0.9503

MP2 TOTAL ENERGY:     -563.029772315 Eh
FINAL SINGLE POINT ENERGY      -563.029772314608

DIPOLE MOMENT
-------------
                                X             Y             Z
Electronic contribution:     -8.23560      -2.30011      -0.02913
Nuclear contribution   :      8.91019       2.54525       0.12704
                        -----------------------------------------
Total Dipole Moment    :      0.67458       0.24515       0.09792
                        -----------------------------------------
Magnitude (a.u.)       :      0.72439
Magnitude (Debye)      :      1.84126

Rotational constants in cm-1:     0.166466     0.041885     0.036279
Rotational constants in MHz :  4990.535125  1255.688047  1087.626949

                             ****ORCA TERMINATED NORMALLY****
TOTAL RUN TIME: 0 days 2 hours 54 minutes 3 seconds 188 msec
