                         Program Version 5.0.4 -  RELEASE  -
|  1> ! ri-mp2 aug-cc-pvdz aug-cc-pvdz/c tightscf
|  2> %pal nprocs 16 end
|  3> %maxcore 3800
|  4> %base "DZ_B-Si_71_AB"
|  5> %scf
|  6> STABPerform true
|  7> STABRestartUHFifUnstable true
|  8> end
|  9>
| 10> *xyz 0 1
| 11> B         1.736760    0.132838    0.016580
| 12> O         2.922569   -0.464090   -0.309628
| 13> O         1.741771    1.482016    0.167811
| 14> C        -1.446613   -0.084368   -0.567376
| 15> C        -2.181269    1.052866    0.095257
| 16> C        -2.852008   -0.269227   -0.054052
| 17> H        -2.512883    1.868514   -0.531531
| 18> H        -1.864816    1.357612    1.083771
| 19> H        -2.997192   -0.871107    0.833132
| 20> H        -3.645020   -0.358857   -0.783329
| 21> H         2.613583    1.871308    0.025374
| 22> H         2.874044   -1.416216   -0.419731
| 23> Si        -0.005144   -0.873962    0.291337
| 24> H        -0.326949   -0.939134    1.740655
| 25> H         0.174684   -2.278237   -0.173279
| 26> H        -1.362609   -0.001645   -1.645109
| 27> *
| 28>
| 29> $new_job
| 30> ! ri-mp2 aug-cc-pvtz aug-cc-pvtz/c tightscf
| 31> %pal nprocs 16 end
| 32> %maxcore 3800
| 33> %base "TZ_B-Si_71_AB"
| 34>
| 35> *xyz 0 1
| 36> B         1.736760    0.132838    0.016580
| 37> O         2.922569   -0.464090   -0.309628
| 38> O         1.741771    1.482016    0.167811
| 39> C        -1.446613   -0.084368   -0.567376
| 40> C        -2.181269    1.052866    0.095257
| 41> C        -2.852008   -0.269227   -0.054052
| 42> H        -2.512883    1.868514   -0.531531
| 43> H        -1.864816    1.357612    1.083771
| 44> H        -2.997192   -0.871107    0.833132
| 45> H        -3.645020   -0.358857   -0.783329
| 46> H         2.613583    1.871308    0.025374
| 47> H         2.874044   -1.416216   -0.419731
| 48> Si        -0.005144   -0.873962    0.291337
| 49> H        -0.326949   -0.939134    1.740655
| 50> H         0.174684   -2.278237   -0.173279
| 51> H        -1.362609   -0.001645   -1.645109
| 52> *
| 53>
| 54> $new_job
| 55> ! ri-mp2 aug-cc-pvqz aug-cc-pvqz/c tightscf
| 56> %pal nprocs 16 end
| 57> %maxcore 3800
| 58> %base "QZ_B-Si_71_AB"
| 59>
| 60> *xyz 0 1
| 61> B         1.736760    0.132838    0.016580
| 62> O         2.922569   -0.464090   -0.309628
| 63> O         1.741771    1.482016    0.167811
| 64> C        -1.446613   -0.084368   -0.567376
| 65> C        -2.181269    1.052866    0.095257
| 66> C        -2.852008   -0.269227   -0.054052
| 67> H        -2.512883    1.868514   -0.531531
| 68> H        -1.864816    1.357612    1.083771
| 69> H        -2.997192   -0.871107    0.833132
| 70> H        -3.645020   -0.358857   -0.783329
| 71> H         2.613583    1.871308    0.025374
| 72> H         2.874044   -1.416216   -0.419731
| 73> Si        -0.005144   -0.873962    0.291337
| 74> H        -0.326949   -0.939134    1.740655
| 75> H         0.174684   -2.278237   -0.173279
| 76> H        -1.362609   -0.001645   -1.645109
| 77> *
| 78>
| 79>
| 80>
| 81>
| 82>                          ****END OF INPUT****
 Total Charge           Charge          ....    0
 Multiplicity           Mult            ....    1
 Number of Electrons    NEL             ....   62
MP2 TOTAL ENERGY:     -583.315336002 Eh
FINAL SINGLE POINT ENERGY      -583.315336001862
MP2 TOTAL ENERGY:     -583.617313130 Eh
FINAL SINGLE POINT ENERGY      -583.617313130177

CARTESIAN COORDINATES (ANGSTROEM)
---------------------------------
  B      1.736760    0.132838    0.016580
  O      2.922569   -0.464090   -0.309628
  O      1.741771    1.482016    0.167811
  C     -1.446613   -0.084368   -0.567376
  C     -2.181269    1.052866    0.095257
  C     -2.852008   -0.269227   -0.054052
  H     -2.512883    1.868514   -0.531531
  H     -1.864816    1.357612    1.083771
  H     -2.997192   -0.871107    0.833132
  H     -3.645020   -0.358857   -0.783329
  H      2.613583    1.871308    0.025374
  H      2.874044   -1.416216   -0.419731
  Si    -0.005144   -0.873962    0.291337
  H     -0.326949   -0.939134    1.740655
  H      0.174684   -2.278237   -0.173279
  H     -1.362609   -0.001645   -1.645109

 Multiplicity           Mult            ....    1
 Number of Electrons    NEL             ....   62
 Basis Dimension        Dim             ....  978

ORBITAL ENERGIES
----------------

  NO   OCC          E(Eh)            E(eV)
   0   2.0000     -68.746921     -1870.6988
   1   2.0000     -20.573559      -559.8350
   2   2.0000     -20.565296      -559.6101
   3   2.0000     -11.225441      -305.4598
   4   2.0000     -11.224452      -305.4329
   5   2.0000     -11.212707      -305.1133
   6   2.0000      -7.635542      -207.7737
   7   2.0000      -6.098486      -165.9482
   8   2.0000      -4.204932      -114.4220
   9   2.0000      -4.204623      -114.4136
  10   2.0000      -4.204209      -114.4023
  11   2.0000      -1.388288       -37.7772
  12   2.0000      -1.346481       -36.6396
  13   2.0000      -1.135206       -30.8905
  14   2.0000      -0.823365       -22.4049
  15   2.0000      -0.819830       -22.3087
  16   2.0000      -0.774029       -21.0624
  17   2.0000      -0.739841       -20.1321
  18   2.0000      -0.699732       -19.0407
  19   2.0000      -0.654783       -17.8175
  20   2.0000      -0.617568       -16.8049
  21   2.0000      -0.588568       -16.0157
  22   2.0000      -0.574747       -15.6397
  23   2.0000      -0.564427       -15.3588
  24   2.0000      -0.513774       -13.9805
  25   2.0000      -0.503723       -13.7070
  26   2.0000      -0.479206       -13.0398
  27   2.0000      -0.456052       -12.4098
  28   2.0000      -0.444772       -12.1029
  29   2.0000      -0.407529       -11.0894
  30   2.0000      -0.390238       -10.6189
  31   0.0000       0.021519         0.5855
  32   0.0000       0.030242         0.8229
  33   0.0000       0.032482         0.8839
  34   0.0000       0.033391         0.9086
  35   0.0000       0.043694         1.1890

MULLIKEN ATOMIC CHARGES
-----------------------
   0 B :    1.354246
   1 O :   -1.132782
   2 O :   -0.973737
   3 C :   -0.587598
   4 C :   -0.675677
   5 C :   -0.705895
   6 H :    0.357958
   7 H :    0.363358
   8 H :    0.316381
   9 H :    0.382348
  10 H :    0.324754
  11 H :    0.345713
  12 Si:    0.675389
  13 H :   -0.171389
  14 H :   -0.283603
  15 H :    0.410535
Sum of atomic charges:   -0.0000000

LOEWDIN ATOMIC CHARGES
----------------------
   0 B :   -1.175185
   1 O :    1.304520
   2 O :    1.282962
   3 C :    0.127282
   4 C :    0.522536
   5 C :    0.523855
   6 H :   -0.269004
   7 H :   -0.284630
   8 H :   -0.288399
   9 H :   -0.272745
  10 H :   -0.804787
  11 H :   -0.824091
  12 Si:    0.922040
  13 H :   -0.208725
  14 H :   -0.225562
  15 H :   -0.330066

  Mayer bond orders larger than 0.100000
B(  0-B ,  1-O ) :   0.4619 B(  0-B ,  2-O ) :   0.4277 B(  0-B , 12-Si) :   0.7544
B(  1-O ,  2-O ) :  -0.1025 B(  1-O , 11-H ) :   0.9234 B(  1-O , 12-Si) :  -0.1035
B(  2-O , 10-H ) :   0.9468 B(  3-C ,  4-C ) :   0.8926 B(  3-C ,  5-C ) :   0.9023
B(  3-C , 12-Si) :   0.7569 B(  3-C , 15-H ) :   0.7860 B(  4-C ,  5-C ) :   1.1010
B(  4-C ,  6-H ) :   0.8455 B(  4-C ,  7-H ) :   0.8504 B(  5-C ,  8-H ) :   0.8948
B(  5-C ,  9-H ) :   0.8446 B( 12-Si, 13-H ) :   0.7205 B( 12-Si, 14-H ) :   0.7040

MP2 TOTAL ENERGY:     -583.714005104 Eh
FINAL SINGLE POINT ENERGY      -583.714005104099

DIPOLE MOMENT
-------------
                                X             Y             Z
Electronic contribution:      8.57052       0.60724      -0.38842
Nuclear contribution   :     -8.40467      -0.80877       0.09704
                        -----------------------------------------
Total Dipole Moment    :      0.16584      -0.20152      -0.29139
                        -----------------------------------------
Magnitude (a.u.)       :      0.39118
Magnitude (Debye)      :      0.99430

Rotational constants in cm-1:     0.153843     0.036339     0.031266
Rotational constants in MHz :  4612.085743  1089.422815   937.340771

                             ****ORCA TERMINATED NORMALLY****
TOTAL RUN TIME: 0 days 2 hours 9 minutes 5 seconds 545 msec
