                         Program Version 5.0.4 -  RELEASE  -
|  1> ! ri-mp2 aug-cc-pvdz aug-cc-pvdz/c tightscf
|  2> %pal nprocs 16 end
|  3> %maxcore 3800
|  4> %base "DZ_Si-Si_36_AB"
|  5> %scf
|  6> STABPerform true
|  7> STABRestartUHFifUnstable true
|  8> end
|  9>
| 10> *xyz 0 1
| 11> Si        -0.428578    0.019957   -0.003882
| 12> Si         1.900423   -0.044137    0.048896
| 13> O        -1.047514   -1.047443   -1.090863
| 14> H        -0.800724   -0.973823   -2.014554
| 15> O        -0.813688    1.572001   -0.334831
| 16> H        -1.713497    1.870427   -0.179236
| 17> O        -1.122654   -0.406272    1.415013
| 18> H        -1.472559   -1.296592    1.490371
| 19> H         2.356187   -1.398153    0.440325
| 20> H         2.443291    0.937357    1.012604
| 21> H         2.452325    0.253009   -1.294255
| 22> *
| 23>
| 24> $new_job
| 25> ! ri-mp2 aug-cc-pvtz aug-cc-pvtz/c tightscf
| 26> %pal nprocs 16 end
| 27> %maxcore 3800
| 28> %base "TZ_Si-Si_36_AB"
| 29>
| 30> *xyz 0 1
| 31> Si        -0.428578    0.019957   -0.003882
| 32> Si         1.900423   -0.044137    0.048896
| 33> O        -1.047514   -1.047443   -1.090863
| 34> H        -0.800724   -0.973823   -2.014554
| 35> O        -0.813688    1.572001   -0.334831
| 36> H        -1.713497    1.870427   -0.179236
| 37> O        -1.122654   -0.406272    1.415013
| 38> H        -1.472559   -1.296592    1.490371
| 39> H         2.356187   -1.398153    0.440325
| 40> H         2.443291    0.937357    1.012604
| 41> H         2.452325    0.253009   -1.294255
| 42> *
| 43>
| 44> $new_job
| 45> ! ri-mp2 aug-cc-pvqz aug-cc-pvqz/c tightscf
| 46> %pal nprocs 16 end
| 47> %maxcore 3800
| 48> %base "QZ_Si-Si_36_AB"
| 49>
| 50> *xyz 0 1
| 51> Si        -0.428578    0.019957   -0.003882
| 52> Si         1.900423   -0.044137    0.048896
| 53> O        -1.047514   -1.047443   -1.090863
| 54> H        -0.800724   -0.973823   -2.014554
| 55> O        -0.813688    1.572001   -0.334831
| 56> H        -1.713497    1.870427   -0.179236
| 57> O        -1.122654   -0.406272    1.415013
| 58> H        -1.472559   -1.296592    1.490371
| 59> H         2.356187   -1.398153    0.440325
| 60> H         2.443291    0.937357    1.012604
| 61> H         2.452325    0.253009   -1.294255
| 62> *
| 63>
| 64>
| 65>
| 66>
| 67>                          ****END OF INPUT****
 Total Charge           Charge          ....    0
 Multiplicity           Mult            ....    1
 Number of Electrons    NEL             ....   58
MP2 TOTAL ENERGY:     -806.935750825 Eh
FINAL SINGLE POINT ENERGY      -806.935750824982
MP2 TOTAL ENERGY:     -807.223850143 Eh
FINAL SINGLE POINT ENERGY      -807.223850143268

CARTESIAN COORDINATES (ANGSTROEM)
---------------------------------
  Si    -0.428578    0.019957   -0.003882
  Si     1.900423   -0.044137    0.048896
  O     -1.047514   -1.047443   -1.090863
  H     -0.800724   -0.973823   -2.014554
  O     -0.813688    1.572001   -0.334831
  H     -1.713497    1.870427   -0.179236
  O     -1.122654   -0.406272    1.415013
  H     -1.472559   -1.296592    1.490371
  H      2.356187   -1.398153    0.440325
  H      2.443291    0.937357    1.012604
  H      2.452325    0.253009   -1.294255

 Multiplicity           Mult            ....    1
 Number of Electrons    NEL             ....   58
 Basis Dimension        Dim             ....  684

ORBITAL ENERGIES
----------------

  NO   OCC          E(Eh)            E(eV)
   0   2.0000     -68.817941     -1872.6314
   1   2.0000     -68.760190     -1871.0599
   2   2.0000     -20.562955      -559.5465
   3   2.0000     -20.559309      -559.4473
   4   2.0000     -20.557802      -559.4062
   5   2.0000      -6.156650      -167.5310
   6   2.0000      -6.111598      -166.3050
   7   2.0000      -4.264701      -116.0484
   8   2.0000      -4.264617      -116.0461
   9   2.0000      -4.263692      -116.0209
  10   2.0000      -4.217739      -114.7705
  11   2.0000      -4.217691      -114.7692
  12   2.0000      -4.217567      -114.7658
  13   2.0000      -1.371781       -37.3281
  14   2.0000      -1.338803       -36.4307
  15   2.0000      -1.334609       -36.3166
  16   2.0000      -0.787695       -21.4343
  17   2.0000      -0.725796       -19.7499
  18   2.0000      -0.711833       -19.3700
  19   2.0000      -0.704332       -19.1659
  20   2.0000      -0.591506       -16.0957
  21   2.0000      -0.581733       -15.8298
  22   2.0000      -0.560380       -15.2487
  23   2.0000      -0.543428       -14.7874
  24   2.0000      -0.524051       -14.2602
  25   2.0000      -0.508794       -13.8450
  26   2.0000      -0.480296       -13.0695
  27   2.0000      -0.479568       -13.0497
  28   2.0000      -0.405401       -11.0315
  29   0.0000       0.022112         0.6017
  30   0.0000       0.031725         0.8633
  31   0.0000       0.037757         1.0274
  32   0.0000       0.039120         1.0645
  33   0.0000       0.051538         1.4024

MULLIKEN ATOMIC CHARGES
-----------------------
   0 Si:    2.110202
   1 Si:    0.304087
   2 O :   -1.027850
   3 H :    0.370784
   4 O :   -0.951386
   5 H :    0.349913
   6 O :   -1.026699
   7 H :    0.355232
   8 H :   -0.160977
   9 H :   -0.157615
  10 H :   -0.165690
Sum of atomic charges:    0.0000000

LOEWDIN ATOMIC CHARGES
----------------------
   0 Si:   -0.786806
   1 Si:    1.117795
   2 O :    1.098263
   3 H :   -0.887685
   4 O :    1.084292
   5 H :   -0.875961
   6 O :    1.094088
   7 H :   -0.891189
   8 H :   -0.319458
   9 H :   -0.314969
  10 H :   -0.318370

  Mayer bond orders larger than 0.100000
B(  0-Si,  1-Si) :   0.8539 B(  0-Si,  2-O ) :   0.5054 B(  0-Si,  4-O ) :   0.5449
B(  0-Si,  6-O ) :   0.4634 B(  1-Si,  8-H ) :   0.7796 B(  1-Si,  9-H ) :   0.7736
B(  1-Si, 10-H ) :   0.7765 B(  2-O ,  3-H ) :   0.8906 B(  4-O ,  5-H ) :   0.9120
B(  6-O ,  7-H ) :   0.9007

MP2 TOTAL ENERGY:     -807.317804918 Eh
FINAL SINGLE POINT ENERGY      -807.317804918033

DIPOLE MOMENT
-------------
                                X             Y             Z
Electronic contribution:     -3.49387       0.30406       0.11670
Nuclear contribution   :      3.09205      -0.59737      -0.54124
                        -----------------------------------------
Total Dipole Moment    :     -0.40182      -0.29332      -0.42454
                        -----------------------------------------
Magnitude (a.u.)       :      0.65401
Magnitude (Debye)      :      1.66236

Rotational constants in cm-1:     0.128592     0.070097     0.068197
Rotational constants in MHz :  3855.085069  2101.441033  2044.497861

                             ****ORCA TERMINATED NORMALLY****
TOTAL RUN TIME: 0 days 0 hours 36 minutes 5 seconds 30 msec
