                         Program Version 5.0.4 -  RELEASE  -
|  1> ! ri-mp2 aug-cc-pvdz aug-cc-pvdz/c tightscf
|  2> %pal nprocs 16 end
|  3> %maxcore 3800
|  4> %base "DZ_B-F_36_A"
|  5> %scf
|  6> STABPerform true
|  7> STABRestartUHFifUnstable true
|  8> end
|  9>
| 10> *xyz 0 2
| 11> F        -2.915423   -0.226788   -0.000005
| 12> B        -1.837450    0.512571   -0.000005
| 13> N        -0.541483    0.002385    0.000006
| 14> C         0.652570    0.004773    0.000022
| 15> S         2.206314   -0.035443   -0.000007
| 16> *
| 17>
| 18> $new_job
| 19> ! ri-mp2 aug-cc-pvtz aug-cc-pvtz/c tightscf
| 20> %pal nprocs 16 end
| 21> %maxcore 3800
| 22> %base "TZ_B-F_36_A"
| 23>
| 24> *xyz 0 2
| 25> F        -2.915423   -0.226788   -0.000005
| 26> B        -1.837450    0.512571   -0.000005
| 27> N        -0.541483    0.002385    0.000006
| 28> C         0.652570    0.004773    0.000022
| 29> S         2.206314   -0.035443   -0.000007
| 30> *
| 31>
| 32> $new_job
| 33> ! ri-mp2 aug-cc-pvqz aug-cc-pvqz/c tightscf
| 34> %pal nprocs 16 end
| 35> %maxcore 3800
| 36> %base "QZ_B-F_36_A"
| 37>
| 38> *xyz 0 2
| 39> F        -2.915423   -0.226788   -0.000005
| 40> B        -1.837450    0.512571   -0.000005
| 41> N        -0.541483    0.002385    0.000006
| 42> C         0.652570    0.004773    0.000022
| 43> S         2.206314   -0.035443   -0.000007
| 44> *
| 45>
| 46>
| 47>
| 48>
| 49>                          ****END OF INPUT****
 Total Charge           Charge          ....    0
 Multiplicity           Mult            ....    2
 Number of Electrons    NEL             ....   43
MP2 TOTAL ENERGY:     -614.705448903 Eh
FINAL SINGLE POINT ENERGY      -614.705448903457
MP2 TOTAL ENERGY:     -614.936844621 Eh
FINAL SINGLE POINT ENERGY      -614.936844621192

CARTESIAN COORDINATES (ANGSTROEM)
---------------------------------
  F     -2.915423   -0.226788   -0.000005
  B     -1.837450    0.512571   -0.000005
  N     -0.541483    0.002385    0.000006
  C      0.652570    0.004773    0.000022
  S      2.206314   -0.035443   -0.000007

 Multiplicity           Mult            ....    2
 Number of Electrons    NEL             ....   43
 Basis Dimension        Dim             ....  404

ORBITAL ENERGIES
----------------
                 SPIN UP ORBITALS
  NO   OCC          E(Eh)            E(eV)
   0   1.0000     -91.978622     -2502.8656
   1   1.0000     -26.332045      -716.5314
   2   1.0000     -15.614282      -424.8862
   3   1.0000     -11.406341      -310.3823
   4   1.0000      -8.983351      -244.4494
   5   1.0000      -7.731932      -210.3966
   6   1.0000      -6.664834      -181.3594
   7   1.0000      -6.663820      -181.3317
   8   1.0000      -6.662446      -181.2944
   9   1.0000      -1.651511       -44.9399
  10   1.0000      -1.303395       -35.4672
  11   1.0000      -1.072841       -29.1935
  12   1.0000      -0.894514       -24.3410
  13   1.0000      -0.792891       -21.5756
  14   1.0000      -0.720223       -19.5983
  15   1.0000      -0.706522       -19.2255
  16   1.0000      -0.630111       -17.1462
  17   1.0000      -0.598729       -16.2922
  18   1.0000      -0.593431       -16.1481
  19   1.0000      -0.436404       -11.8752
  20   1.0000      -0.399029       -10.8581
  21   1.0000      -0.353184        -9.6106
  22   0.0000       0.028552         0.7769
  23   0.0000       0.033352         0.9076
  24   0.0000       0.038248         1.0408
  25   0.0000       0.039023         1.0619
  26   0.0000       0.052775         1.4361

                 SPIN DOWN ORBITALS
  NO   OCC          E(Eh)            E(eV)
   0   1.0000     -91.978078     -2502.8507
   1   1.0000     -26.328729      -716.4411
   2   1.0000     -15.615885      -424.9298
   3   1.0000     -11.403959      -310.3175
   4   1.0000      -8.982761      -244.4334
   5   1.0000      -7.709984      -209.7993
   6   1.0000      -6.664801      -181.3585
   7   1.0000      -6.662510      -181.2961
   8   1.0000      -6.660817      -181.2500
   9   1.0000      -1.641766       -44.6747
  10   1.0000      -1.302144       -35.4332
  11   1.0000      -1.071356       -29.1531
  12   1.0000      -0.878695       -23.9105
  13   1.0000      -0.778311       -21.1789
  14   1.0000      -0.705640       -19.2014
  15   1.0000      -0.692494       -18.8437
  16   1.0000      -0.623585       -16.9686
  17   1.0000      -0.595516       -16.2048
  18   1.0000      -0.593745       -16.1566
  19   1.0000      -0.400905       -10.9092
  20   1.0000      -0.399150       -10.8614
  21   0.0000       0.023341         0.6351
  22   0.0000       0.034414         0.9365
  23   0.0000       0.035722         0.9720
  24   0.0000       0.038829         1.0566
  25   0.0000       0.053323         1.4510

MULLIKEN ATOMIC CHARGES AND SPIN POPULATIONS
--------------------------------------------
   0 F :   -0.669391   -0.012888
   1 B :    0.943698    0.954540
   2 N :   -0.651892   -0.068612
   3 C :    0.218559    0.066668
   4 S :    0.159026    0.060291
Sum of atomic charges         :    0.0000000

LOEWDIN ATOMIC CHARGES AND SPIN POPULATIONS
-------------------------------------------
   0 F :    0.704032    0.148765
   1 B :   -0.967807    0.581880
   2 N :    0.338508    0.139044
   3 C :   -1.089393    0.070005
   4 S :    1.014661    0.060305

  Mayer bond orders larger than 0.100000
B(  0-F ,  1-B ) :   0.5398 B(  1-B ,  2-N ) :   1.0705 B(  2-N ,  3-C ) :   2.0336
B(  2-N ,  4-S ) :   0.1187 B(  3-C ,  4-S ) :   1.6451

MP2 TOTAL ENERGY:     -615.012299068 Eh
FINAL SINGLE POINT ENERGY      -615.012299068331

DIPOLE MOMENT
-------------
                                X             Y             Z
Electronic contribution:     -3.85308       0.30647      -0.00000
Nuclear contribution   :      3.94074      -0.17270       0.00001
                        -----------------------------------------
Total Dipole Moment    :      0.08765       0.13377       0.00001
                        -----------------------------------------
Magnitude (a.u.)       :      0.15993
Magnitude (Debye)      :      0.40650

Rotational constants in cm-1:     4.370182     0.046433     0.045945
Rotational constants in MHz : 131014.752165  1392.032301  1377.397447

                             ****ORCA TERMINATED NORMALLY****
TOTAL RUN TIME: 0 days 0 hours 13 minutes 13 seconds 469 msec
