                         Program Version 5.0.4 -  RELEASE  -
|  1> ! ri-mp2 aug-cc-pvdz aug-cc-pvdz/c tightscf
|  2> %pal nprocs 16 end
|  3> %maxcore 3800
|  4> %base "DZ_B-B_2_A"
|  5> %scf
|  6> STABPerform true
|  7> STABRestartUHFifUnstable true
|  8> end
|  9>
| 10> *xyz 0 2
| 11> B         1.513125   -0.248424   -0.094071
| 12> C         0.199038    0.537324    0.014367
| 13> C        -1.107920   -0.263371   -0.011252
| 14> H         0.320994    1.017079    1.002267
| 15> H         0.159276    1.378049   -0.682799
| 16> H        -1.097980   -1.057308    0.735537
| 17> H        -1.260354   -0.730534   -0.984484
| 18> H        -1.970538    0.374685    0.185651
| 19> H         1.736268   -1.383565    0.195488
| 20> *
| 21>
| 22> $new_job
| 23> ! ri-mp2 aug-cc-pvtz aug-cc-pvtz/c tightscf
| 24> %pal nprocs 16 end
| 25> %maxcore 3800
| 26> %base "TZ_B-B_2_A"
| 27>
| 28> *xyz 0 2
| 29> B         1.513125   -0.248424   -0.094071
| 30> C         0.199038    0.537324    0.014367
| 31> C        -1.107920   -0.263371   -0.011252
| 32> H         0.320994    1.017079    1.002267
| 33> H         0.159276    1.378049   -0.682799
| 34> H        -1.097980   -1.057308    0.735537
| 35> H        -1.260354   -0.730534   -0.984484
| 36> H        -1.970538    0.374685    0.185651
| 37> H         1.736268   -1.383565    0.195488
| 38> *
| 39>
| 40> $new_job
| 41> ! ri-mp2 aug-cc-pvqz aug-cc-pvqz/c tightscf
| 42> %pal nprocs 16 end
| 43> %maxcore 3800
| 44> %base "QZ_B-B_2_A"
| 45>
| 46> *xyz 0 2
| 47> B         1.513125   -0.248424   -0.094071
| 48> C         0.199038    0.537324    0.014367
| 49> C        -1.107920   -0.263371   -0.011252
| 50> H         0.320994    1.017079    1.002267
| 51> H         0.159276    1.378049   -0.682799
| 52> H        -1.097980   -1.057308    0.735537
| 53> H        -1.260354   -0.730534   -0.984484
| 54> H        -1.970538    0.374685    0.185651
| 55> H         1.736268   -1.383565    0.195488
| 56> *
| 57>
| 58>
| 59>
| 60>
| 61>                          ****END OF INPUT****
 Total Charge           Charge          ....    0
 Multiplicity           Mult            ....    2
 Number of Electrons    NEL             ....   23
MP2 TOTAL ENERGY:     -104.210360600 Eh
FINAL SINGLE POINT ENERGY      -104.210360599589
MP2 TOTAL ENERGY:     -104.309505633 Eh
FINAL SINGLE POINT ENERGY      -104.309505633278

CARTESIAN COORDINATES (ANGSTROEM)
---------------------------------
  B      1.513125   -0.248424   -0.094071
  C      0.199038    0.537324    0.014367
  C     -1.107920   -0.263371   -0.011252
  H      0.320994    1.017079    1.002267
  H      0.159276    1.378049   -0.682799
  H     -1.097980   -1.057308    0.735537
  H     -1.260354   -0.730534   -0.984484
  H     -1.970538    0.374685    0.185651
  H      1.736268   -1.383565    0.195488

 Multiplicity           Mult            ....    2
 Number of Electrons    NEL             ....   23
 Basis Dimension        Dim             ....  516

ORBITAL ENERGIES
----------------
                 SPIN UP ORBITALS
  NO   OCC          E(Eh)            E(eV)
   0   1.0000     -11.219125      -305.2879
   1   1.0000     -11.209357      -305.0221
   2   1.0000      -7.618157      -207.3006
   3   1.0000      -1.030975       -28.0543
   4   1.0000      -0.861745       -23.4493
   5   1.0000      -0.664314       -18.0769
   6   1.0000      -0.604735       -16.4557
   7   1.0000      -0.566307       -15.4100
   8   1.0000      -0.532308       -14.4848
   9   1.0000      -0.497625       -13.5411
  10   1.0000      -0.467755       -12.7283
  11   1.0000      -0.318769        -8.6741
  12   0.0000       0.024556         0.6682
  13   0.0000       0.031549         0.8585
  14   0.0000       0.033403         0.9089
  15   0.0000       0.036290         0.9875
  16   0.0000       0.051958         1.4138

                 SPIN DOWN ORBITALS
  NO   OCC          E(Eh)            E(eV)
   0   1.0000     -11.217688      -305.2488
   1   1.0000     -11.209515      -305.0264
   2   1.0000      -7.600501      -206.8201
   3   1.0000      -1.025599       -27.9080
   4   1.0000      -0.854786       -23.2599
   5   1.0000      -0.634481       -17.2651
   6   1.0000      -0.602016       -16.3817
   7   1.0000      -0.549174       -14.9438
   8   1.0000      -0.520413       -14.1611
   9   1.0000      -0.494873       -13.4662
  10   1.0000      -0.459427       -12.5016
  11   0.0000       0.024618         0.6699
  12   0.0000       0.032312         0.8793
  13   0.0000       0.033309         0.9064
  14   0.0000       0.034181         0.9301
  15   0.0000       0.052153         1.4192

MULLIKEN ATOMIC CHARGES AND SPIN POPULATIONS
--------------------------------------------
   0 B :    0.223643    1.002532
   1 C :   -0.499817   -0.030068
   2 C :   -0.854405    0.038357
   3 H :    0.248168   -0.003238
   4 H :    0.300968    0.005736
   5 H :    0.244984   -0.004528
   6 H :    0.254606   -0.006048
   7 H :    0.269403    0.007018
   8 H :   -0.187549   -0.009760
Sum of atomic charges         :    0.0000000

LOEWDIN ATOMIC CHARGES AND SPIN POPULATIONS
-------------------------------------------
   0 B :    0.393840    0.555196
   1 C :    0.527690    0.174917
   2 C :    0.872721    0.025060
   3 H :   -0.334558    0.023708
   4 H :   -0.335181    0.029503
   5 H :   -0.298695    0.007088
   6 H :   -0.290500    0.002938
   7 H :   -0.286394    0.005658
   8 H :   -0.248922    0.175931

  Mayer bond orders larger than 0.100000
B(  0-B ,  1-C ) :   1.0666 B(  0-B ,  8-H ) :   0.9241 B(  1-C ,  2-C ) :   0.9796
B(  1-C ,  3-H ) :   0.8643 B(  1-C ,  4-H ) :   0.8741 B(  2-C ,  5-H ) :   0.9358
B(  2-C ,  6-H ) :   0.9316 B(  2-C ,  7-H ) :   0.9416

MP2 TOTAL ENERGY:     -104.339172675 Eh
FINAL SINGLE POINT ENERGY      -104.339172675155

DIPOLE MOMENT
-------------
                                X             Y             Z
Electronic contribution:      3.13255       0.26208      -0.46666
Nuclear contribution   :     -3.52034      -0.21282       0.55734
                        -----------------------------------------
Total Dipole Moment    :     -0.38779       0.04926       0.09068
                        -----------------------------------------
Magnitude (a.u.)       :      0.40128
Magnitude (Debye)      :      1.01998

Rotational constants in cm-1:     1.137510     0.319475     0.275116
Rotational constants in MHz : 34101.687038  9577.612852  8247.779737

                             ****ORCA TERMINATED NORMALLY****
TOTAL RUN TIME: 0 days 0 hours 14 minutes 50 seconds 635 msec
