                         Program Version 5.0.4 -  RELEASE  -
|  1> ! ri-mp2 aug-cc-pvdz aug-cc-pvdz/c tightscf
|  2> %pal nprocs 16 end
|  3> %maxcore 3800
|  4> %base "DZ_B-P_86_A"
|  5> %scf
|  6> STABPerform true
|  7> STABRestartUHFifUnstable true
|  8> end
|  9>
| 10> *xyz 0 2
| 11> B         0.000000    0.525188   -0.000001
| 12> N        -1.252424   -0.092442    0.000008
| 13> N         1.252424   -0.092442   -0.000008
| 14> H         2.109987    0.427217   -0.000017
| 15> H         1.386868   -1.093096   -0.000010
| 16> H        -2.109987    0.427217    0.000015
| 17> H        -1.386868   -1.093096    0.000016
| 18> *
| 19>
| 20> $new_job
| 21> ! ri-mp2 aug-cc-pvtz aug-cc-pvtz/c tightscf
| 22> %pal nprocs 16 end
| 23> %maxcore 3800
| 24> %base "TZ_B-P_86_A"
| 25>
| 26> *xyz 0 2
| 27> B         0.000000    0.525188   -0.000001
| 28> N        -1.252424   -0.092442    0.000008
| 29> N         1.252424   -0.092442   -0.000008
| 30> H         2.109987    0.427217   -0.000017
| 31> H         1.386868   -1.093096   -0.000010
| 32> H        -2.109987    0.427217    0.000015
| 33> H        -1.386868   -1.093096    0.000016
| 34> *
| 35>
| 36> $new_job
| 37> ! ri-mp2 aug-cc-pvqz aug-cc-pvqz/c tightscf
| 38> %pal nprocs 16 end
| 39> %maxcore 3800
| 40> %base "QZ_B-P_86_A"
| 41>
| 42> *xyz 0 2
| 43> B         0.000000    0.525188   -0.000001
| 44> N        -1.252424   -0.092442    0.000008
| 45> N         1.252424   -0.092442   -0.000008
| 46> H         2.109987    0.427217   -0.000017
| 47> H         1.386868   -1.093096   -0.000010
| 48> H        -2.109987    0.427217    0.000015
| 49> H        -1.386868   -1.093096    0.000016
| 50> *
| 51>
| 52>
| 53>
| 54>
| 55>                          ****END OF INPUT****
 Total Charge           Charge          ....    0
 Multiplicity           Mult            ....    2
 Number of Electrons    NEL             ....   23
MP2 TOTAL ENERGY:     -136.385616836 Eh
FINAL SINGLE POINT ENERGY      -136.385616835917
MP2 TOTAL ENERGY:     -136.507947313 Eh
FINAL SINGLE POINT ENERGY      -136.507947313265

CARTESIAN COORDINATES (ANGSTROEM)
---------------------------------
  B      0.000000    0.525188   -0.000001
  N     -1.252424   -0.092442    0.000008
  N      1.252424   -0.092442   -0.000008
  H      2.109987    0.427217   -0.000017
  H      1.386868   -1.093096   -0.000010
  H     -2.109987    0.427217    0.000015
  H     -1.386868   -1.093096    0.000016

 Multiplicity           Mult            ....    2
 Number of Electrons    NEL             ....   23
 Basis Dimension        Dim             ....  424

ORBITAL ENERGIES
----------------
                 SPIN UP ORBITALS
  NO   OCC          E(Eh)            E(eV)
   0   1.0000     -15.536972      -422.7825
   1   1.0000     -15.536956      -422.7821
   2   1.0000      -7.604192      -206.9206
   3   1.0000      -1.167326       -31.7646
   4   1.0000      -1.129985       -30.7484
   5   1.0000      -0.718308       -19.5461
   6   1.0000      -0.684188       -18.6177
   7   1.0000      -0.661233       -17.9931
   8   1.0000      -0.607397       -16.5281
   9   1.0000      -0.469268       -12.7694
  10   1.0000      -0.383323       -10.4308
  11   1.0000      -0.316056        -8.6003
  12   0.0000       0.025052         0.6817
  13   0.0000       0.035667         0.9705
  14   0.0000       0.036980         1.0063
  15   0.0000       0.042944         1.1686
  16   0.0000       0.054495         1.4829

                 SPIN DOWN ORBITALS
  NO   OCC          E(Eh)            E(eV)
   0   1.0000     -15.537191      -422.7885
   1   1.0000     -15.537175      -422.7880
   2   1.0000      -7.585387      -206.4089
   3   1.0000      -1.160620       -31.5821
   4   1.0000      -1.128329       -30.7034
   5   1.0000      -0.701109       -19.0782
   6   1.0000      -0.662305       -18.0222
   7   1.0000      -0.653532       -17.7835
   8   1.0000      -0.600603       -16.3432
   9   1.0000      -0.467261       -12.7148
  10   1.0000      -0.391689       -10.6584
  11   0.0000       0.022158         0.6030
  12   0.0000       0.036000         0.9796
  13   0.0000       0.036989         1.0065
  14   0.0000       0.043260         1.1772
  15   0.0000       0.054616         1.4862

MULLIKEN ATOMIC CHARGES AND SPIN POPULATIONS
--------------------------------------------
   0 B :    0.512503    0.986719
   1 N :   -0.718999   -0.033839
   2 N :   -0.718999   -0.033839
   3 H :    0.235451   -0.003552
   4 H :    0.227297    0.044031
   5 H :    0.235451   -0.003552
   6 H :    0.227297    0.044031
Sum of atomic charges         :    0.0000000

LOEWDIN ATOMIC CHARGES AND SPIN POPULATIONS
-------------------------------------------
   0 B :   -0.365562    0.541932
   1 N :    1.274607    0.162713
   2 N :    1.274607    0.162713
   3 H :   -0.562901    0.043779
   4 H :   -0.528924    0.022542
   5 H :   -0.562901    0.043779
   6 H :   -0.528924    0.022542

  Mayer bond orders larger than 0.100000
B(  0-B ,  1-N ) :   1.1492 B(  0-B ,  2-N ) :   1.1492 B(  1-N ,  5-H ) :   0.9942
B(  1-N ,  6-H ) :   0.9957 B(  2-N ,  3-H ) :   0.9942 B(  2-N ,  4-H ) :   0.9957

MP2 TOTAL ENERGY:     -136.547512572 Eh
FINAL SINGLE POINT ENERGY      -136.547512572004

DIPOLE MOMENT
-------------
                                X             Y             Z
Electronic contribution:      0.00000       1.14254      -0.00000
Nuclear contribution   :      0.00000      -1.76996       0.00000
                        -----------------------------------------
Total Dipole Moment    :      0.00000      -0.62742       0.00000
                        -----------------------------------------
Magnitude (a.u.)       :      0.62742
Magnitude (Debye)      :      1.59477

Rotational constants in cm-1:     2.844332     0.296817     0.268770
Rotational constants in MHz : 85270.922280  8898.355165  8057.521225

                             ****ORCA TERMINATED NORMALLY****
TOTAL RUN TIME: 0 days 0 hours 14 minutes 5 seconds 641 msec
