                         Program Version 5.0.4 -  RELEASE  -
|  1> ! ri-mp2 aug-cc-pvdz aug-cc-pvdz/c tightscf
|  2> %pal nprocs 16 end
|  3> %maxcore 3800
|  4> %base "DZ_B-P_57_AB"
|  5>
|  6> *xyz 0 1
|  7> B         1.325898    0.486664   -0.111893
|  8> C        -0.207176    0.184369   -0.052925
|  9> C        -1.122396    1.176037    0.305155
| 10> C        -0.713671   -1.081422   -0.350117
| 11> C        -2.072251   -1.342389   -0.310882
| 12> C        -2.959628   -0.341075    0.045666
| 13> C        -2.480966    0.920378    0.359122
| 14> H        -4.021870   -0.544179    0.084049
| 15> H        -3.168615    1.704515    0.648289
| 16> H        -0.765163    2.164694    0.568731
| 17> H        -0.033114   -1.876897   -0.628911
| 18> H        -2.439850   -2.330497   -0.555043
| 19> N         1.770817    1.758201   -0.464012
| 20> P         2.599253   -0.935015    0.190121
| 21> H         1.142953    2.489130   -0.755984
| 22> H         2.739154    2.026278   -0.482993
| 23> H         2.172345   -1.291854    1.487026
| 24> H         3.696689   -0.152081    0.614451
| 25> *
| 26>
| 27> $new_job
| 28> ! ri-mp2 aug-cc-pvtz aug-cc-pvtz/c tightscf
| 29> %pal nprocs 16 end
| 30> %maxcore 3800
| 31> %base "TZ_B-P_57_AB"
| 32>
| 33> *xyz 0 1
| 34> B         1.325898    0.486664   -0.111893
| 35> C        -0.207176    0.184369   -0.052925
| 36> C        -1.122396    1.176037    0.305155
| 37> C        -0.713671   -1.081422   -0.350117
| 38> C        -2.072251   -1.342389   -0.310882
| 39> C        -2.959628   -0.341075    0.045666
| 40> C        -2.480966    0.920378    0.359122
| 41> H        -4.021870   -0.544179    0.084049
| 42> H        -3.168615    1.704515    0.648289
| 43> H        -0.765163    2.164694    0.568731
| 44> H        -0.033114   -1.876897   -0.628911
| 45> H        -2.439850   -2.330497   -0.555043
| 46> N         1.770817    1.758201   -0.464012
| 47> P         2.599253   -0.935015    0.190121
| 48> H         1.142953    2.489130   -0.755984
| 49> H         2.739154    2.026278   -0.482993
| 50> H         2.172345   -1.291854    1.487026
| 51> H         3.696689   -0.152081    0.614451
| 52> *
| 53>
| 54> $new_job
| 55> ! ri-mp2 aug-cc-pvqz aug-cc-pvqz/c tightscf
| 56> %pal nprocs 16 end
| 57> %maxcore 3800
| 58> %base "QZ_B-P_57_AB"
| 59>
| 60> *xyz 0 1
| 61> B         1.325898    0.486664   -0.111893
| 62> C        -0.207176    0.184369   -0.052925
| 63> C        -1.122396    1.176037    0.305155
| 64> C        -0.713671   -1.081422   -0.350117
| 65> C        -2.072251   -1.342389   -0.310882
| 66> C        -2.959628   -0.341075    0.045666
| 67> C        -2.480966    0.920378    0.359122
| 68> H        -4.021870   -0.544179    0.084049
| 69> H        -3.168615    1.704515    0.648289
| 70> H        -0.765163    2.164694    0.568731
| 71> H        -0.033114   -1.876897   -0.628911
| 72> H        -2.439850   -2.330497   -0.555043
| 73> N         1.770817    1.758201   -0.464012
| 74> P         2.599253   -0.935015    0.190121
| 75> H         1.142953    2.489130   -0.755984
| 76> H         2.739154    2.026278   -0.482993
| 77> H         2.172345   -1.291854    1.487026
| 78> H         3.696689   -0.152081    0.614451
| 79> *
| 80>
| 81>
| 82>
| 83>
| 84>                          ****END OF INPUT****
 Total Charge           Charge          ....    0
 Multiplicity           Mult            ....    1
 Number of Electrons    NEL             ....   72
MP2 TOTAL ENERGY:     -653.620684756 Eh
FINAL SINGLE POINT ENERGY      -653.620684755900
MP2 TOTAL ENERGY:     -653.937481635 Eh
FINAL SINGLE POINT ENERGY      -653.937481634675

CARTESIAN COORDINATES (ANGSTROEM)
---------------------------------
  B      1.325898    0.486664   -0.111893
  C     -0.207176    0.184369   -0.052925
  C     -1.122396    1.176037    0.305155
  C     -0.713671   -1.081422   -0.350117
  C     -2.072251   -1.342389   -0.310882
  C     -2.959628   -0.341075    0.045666
  C     -2.480966    0.920378    0.359122
  H     -4.021870   -0.544179    0.084049
  H     -3.168615    1.704515    0.648289
  H     -0.765163    2.164694    0.568731
  H     -0.033114   -1.876897   -0.628911
  H     -2.439850   -2.330497   -0.555043
  N      1.770817    1.758201   -0.464012
  P      2.599253   -0.935015    0.190121
  H      1.142953    2.489130   -0.755984
  H      2.739154    2.026278   -0.482993
  H      2.172345   -1.291854    1.487026
  H      3.696689   -0.152081    0.614451

 Multiplicity           Mult            ....    1
 Number of Electrons    NEL             ....   72
 Basis Dimension        Dim             .... 1138

ORBITAL ENERGIES
----------------

  NO   OCC          E(Eh)            E(eV)
   0   2.0000     -79.912628     -2174.5332
   1   2.0000     -15.556873      -423.3240
   2   2.0000     -11.235161      -305.7243
   3   2.0000     -11.234346      -305.7021
   4   2.0000     -11.232616      -305.6550
   5   2.0000     -11.231123      -305.6144
   6   2.0000     -11.230129      -305.5873
   7   2.0000     -11.213043      -305.1224
   8   2.0000      -7.600708      -206.8258
   9   2.0000      -7.458522      -202.9567
  10   2.0000      -5.352803      -145.6572
  11   2.0000      -5.352321      -145.6440
  12   2.0000      -5.351785      -145.6295
  13   2.0000      -1.171360       -31.8743
  14   2.0000      -1.151419       -31.3317
  15   2.0000      -1.017275       -27.6815
  16   2.0000      -1.016195       -27.6521
  17   2.0000      -0.851326       -23.1658
  18   2.0000      -0.826575       -22.4923
  19   2.0000      -0.817594       -22.2479
  20   2.0000      -0.723627       -19.6909
  21   2.0000      -0.688332       -18.7305
  22   2.0000      -0.678427       -18.4609
  23   2.0000      -0.631945       -17.1961
  24   2.0000      -0.622535       -16.9400
  25   2.0000      -0.587463       -15.9857
  26   2.0000      -0.573580       -15.6079
  27   2.0000      -0.516690       -14.0598
  28   2.0000      -0.504206       -13.7201
  29   2.0000      -0.498466       -13.5639
  30   2.0000      -0.486921       -13.2498
  31   2.0000      -0.458256       -12.4698
  32   2.0000      -0.432148       -11.7593
  33   2.0000      -0.356187        -9.6923
  34   2.0000      -0.339004        -9.2248
  35   2.0000      -0.331274        -9.0144
  36   0.0000       0.019102         0.5198
  37   0.0000       0.027233         0.7410
  38   0.0000       0.030919         0.8413
  39   0.0000       0.036913         1.0045
  40   0.0000       0.040515         1.1025

MULLIKEN ATOMIC CHARGES
-----------------------
   0 B :    0.766171
   1 C :    0.370670
   2 C :   -0.513298
   3 C :   -0.571768
   4 C :   -0.273969
   5 C :   -0.329354
   6 C :   -0.273509
   7 H :    0.356492
   8 H :    0.265038
   9 H :    0.196171
  10 H :    0.166544
  11 H :    0.250494
  12 N :   -0.772556
  13 P :    0.184707
  14 H :    0.267167
  15 H :    0.173508
  16 H :   -0.076735
  17 H :   -0.185773
Sum of atomic charges:   -0.0000000

LOEWDIN ATOMIC CHARGES
----------------------
   0 B :   -0.984048
   1 C :   -0.010515
   2 C :    0.318668
   3 C :    0.291197
   4 C :    0.351557
   5 C :    0.338342
   6 C :    0.350722
   7 H :   -0.319410
   8 H :   -0.319978
   9 H :   -0.325202
  10 H :   -0.347601
  11 H :   -0.318890
  12 N :    1.329953
  13 P :    1.628820
  14 H :   -0.504198
  15 H :   -0.508831
  16 H :   -0.477138
  17 H :   -0.493446

  Mayer bond orders larger than 0.100000
B(  0-B ,  1-C ) :   0.9390 B(  0-B ,  2-C ) :  -0.1060 B(  0-B , 12-N ) :   1.1451
B(  0-B , 13-P ) :   0.8444 B(  1-C ,  2-C ) :   0.8540 B(  1-C ,  3-C ) :   0.9882
B(  1-C ,  4-C ) :  -0.3598 B(  1-C ,  5-C ) :  -0.1146 B(  1-C ,  6-C ) :  -0.3851
B(  2-C ,  3-C ) :   0.1323 B(  2-C ,  4-C ) :   0.1596 B(  2-C ,  5-C ) :   0.1250
B(  2-C ,  6-C ) :   1.2904 B(  2-C ,  8-H ) :  -0.1444 B(  2-C ,  9-H ) :   1.0532
B(  3-C ,  4-C ) :   1.2983 B(  3-C ,  5-C ) :   0.1059 B(  3-C ,  6-C ) :   0.1566
B(  3-C , 10-H ) :   1.0497 B(  3-C , 11-H ) :  -0.1621 B(  4-C ,  5-C ) :   1.1232
B(  4-C ,  6-C ) :  -0.1012 B(  4-C , 11-H ) :   1.1305 B(  5-C ,  6-C ) :   1.1380
B(  5-C ,  7-H ) :   0.9737 B(  5-C ,  8-H ) :  -0.1120 B(  6-C ,  8-H ) :   1.1110
B( 12-N , 14-H ) :   0.9386 B( 12-N , 15-H ) :   1.0394 B( 13-P , 16-H ) :   0.9268
B( 13-P , 17-H ) :   0.9401

MP2 TOTAL ENERGY:     -654.038468490 Eh
FINAL SINGLE POINT ENERGY      -654.038468489901

DIPOLE MOMENT
-------------
                                X             Y             Z
Electronic contribution:      3.94540      -1.84615      -0.86195
Nuclear contribution   :     -4.15843       2.66411       0.87494
                        -----------------------------------------
Total Dipole Moment    :     -0.21303       0.81796       0.01299
                        -----------------------------------------
Magnitude (a.u.)       :      0.84535
Magnitude (Debye)      :      2.14870

Rotational constants in cm-1:     0.093340     0.028114     0.022441
Rotational constants in MHz :  2798.269476   842.830883   672.752897

                             ****ORCA TERMINATED NORMALLY****
TOTAL RUN TIME: 0 days 0 hours 36 minutes 57 seconds 818 msec
