                         Program Version 5.0.4 -  RELEASE  -
|  1> ! ri-mp2 aug-cc-pvdz aug-cc-pvdz/c tightscf
|  2> %pal nprocs 16 end
|  3> %maxcore 3800
|  4> %base "DZ_B-P_73_AB"
|  5>
|  6> *xyz 0 1
|  7> C         2.087637   -0.405266    0.104285
|  8> C         1.102170   -1.341731   -0.143262
|  9> C        -0.192762   -0.914064   -0.343895
| 10> C         1.755399    0.935190    0.147476
| 11> C         0.445878    1.325671   -0.057045
| 12> C        -0.570543    0.415568   -0.304265
| 13> F         3.339462   -0.790175    0.301438
| 14> F         1.404125   -2.632988   -0.183884
| 15> F        -1.128544   -1.855137   -0.583154
| 16> F         2.696224    1.839136    0.386640
| 17> F         0.181357    2.631896   -0.011471
| 18> B        -3.377982    0.133602    0.689270
| 19> O        -3.240687   -1.100381    1.192121
| 20> H        -2.517360   -1.626553    0.833156
| 21> P        -2.288465    0.929262   -0.689224
| 22> H        -4.314109    0.777614    1.051661
| 23> H        -2.226441    2.218248   -0.135654
| 24> *
| 25>
| 26> $new_job
| 27> ! ri-mp2 aug-cc-pvtz aug-cc-pvtz/c tightscf
| 28> %pal nprocs 16 end
| 29> %maxcore 3800
| 30> %base "TZ_B-P_73_AB"
| 31>
| 32> *xyz 0 1
| 33> C         2.087637   -0.405266    0.104285
| 34> C         1.102170   -1.341731   -0.143262
| 35> C        -0.192762   -0.914064   -0.343895
| 36> C         1.755399    0.935190    0.147476
| 37> C         0.445878    1.325671   -0.057045
| 38> C        -0.570543    0.415568   -0.304265
| 39> F         3.339462   -0.790175    0.301438
| 40> F         1.404125   -2.632988   -0.183884
| 41> F        -1.128544   -1.855137   -0.583154
| 42> F         2.696224    1.839136    0.386640
| 43> F         0.181357    2.631896   -0.011471
| 44> B        -3.377982    0.133602    0.689270
| 45> O        -3.240687   -1.100381    1.192121
| 46> H        -2.517360   -1.626553    0.833156
| 47> P        -2.288465    0.929262   -0.689224
| 48> H        -4.314109    0.777614    1.051661
| 49> H        -2.226441    2.218248   -0.135654
| 50> *
| 51>
| 52> $new_job
| 53> ! ri-mp2 aug-cc-pvqz aug-cc-pvqz/c tightscf
| 54> %pal nprocs 16 end
| 55> %maxcore 3800
| 56> %base "QZ_B-P_73_AB"
| 57>
| 58> *xyz 0 1
| 59> C         2.087637   -0.405266    0.104285
| 60> C         1.102170   -1.341731   -0.143262
| 61> C        -0.192762   -0.914064   -0.343895
| 62> C         1.755399    0.935190    0.147476
| 63> C         0.445878    1.325671   -0.057045
| 64> C        -0.570543    0.415568   -0.304265
| 65> F         3.339462   -0.790175    0.301438
| 66> F         1.404125   -2.632988   -0.183884
| 67> F        -1.128544   -1.855137   -0.583154
| 68> F         2.696224    1.839136    0.386640
| 69> F         0.181357    2.631896   -0.011471
| 70> B        -3.377982    0.133602    0.689270
| 71> O        -3.240687   -1.100381    1.192121
| 72> H        -2.517360   -1.626553    0.833156
| 73> P        -2.288465    0.929262   -0.689224
| 74> H        -4.314109    0.777614    1.051661
| 75> H        -2.226441    2.218248   -0.135654
| 76> *
| 77>
| 78>
| 79>
| 80>
| 81>                          ****END OF INPUT****
 Total Charge           Charge          ....    0
 Multiplicity           Mult            ....    1
 Number of Electrons    NEL             ....  112
MP2 TOTAL ENERGY:    -1168.717560908 Eh
FINAL SINGLE POINT ENERGY     -1168.717560907934
MP2 TOTAL ENERGY:    -1169.446812547 Eh
FINAL SINGLE POINT ENERGY     -1169.446812547081

CARTESIAN COORDINATES (ANGSTROEM)
---------------------------------
  C      2.087637   -0.405266    0.104285
  C      1.102170   -1.341731   -0.143262
  C     -0.192762   -0.914064   -0.343895
  C      1.755399    0.935190    0.147476
  C      0.445878    1.325671   -0.057045
  C     -0.570543    0.415568   -0.304265
  F      3.339462   -0.790175    0.301438
  F      1.404125   -2.632988   -0.183884
  F     -1.128544   -1.855137   -0.583154
  F      2.696224    1.839136    0.386640
  F      0.181357    2.631896   -0.011471
  B     -3.377982    0.133602    0.689270
  O     -3.240687   -1.100381    1.192121
  H     -2.517360   -1.626553    0.833156
  P     -2.288465    0.929262   -0.689224
  H     -4.314109    0.777614    1.051661
  H     -2.226441    2.218248   -0.135654

 Multiplicity           Mult            ....    1
 Number of Electrons    NEL             ....  112
 Basis Dimension        Dim             .... 1262

ORBITAL ENERGIES
----------------

  NO   OCC          E(Eh)            E(eV)
   0   2.0000     -79.957841     -2175.7635
   1   2.0000     -26.364112      -717.4040
   2   2.0000     -26.356869      -717.2069
   3   2.0000     -26.355282      -717.1637
   4   2.0000     -26.352025      -717.0751
   5   2.0000     -26.349370      -717.0028
   6   2.0000     -20.594128      -560.3947
   7   2.0000     -11.381993      -309.7198
   8   2.0000     -11.379878      -309.6622
   9   2.0000     -11.378033      -309.6120
  10   2.0000     -11.377434      -309.5957
  11   2.0000     -11.375364      -309.5394
  12   2.0000     -11.300978      -307.5152
  13   2.0000      -7.650692      -208.1859
  14   2.0000      -7.502988      -204.1667
  15   2.0000      -5.397363      -146.8697
  16   2.0000      -5.396716      -146.8521
  17   2.0000      -5.396256      -146.8396
  18   2.0000      -1.692266       -46.0489
  19   2.0000      -1.686109       -45.8814
  20   2.0000      -1.678780       -45.6819
  21   2.0000      -1.670656       -45.4609
  22   2.0000      -1.664607       -45.2962
  23   2.0000      -1.392725       -37.8980
  24   2.0000      -1.229648       -33.4604
  25   2.0000      -1.095387       -29.8070
  26   2.0000      -1.080063       -29.3900
  27   2.0000      -0.952969       -25.9316
  28   2.0000      -0.928002       -25.2522
  29   2.0000      -0.867883       -23.6163
  30   2.0000      -0.846394       -23.0316
  31   2.0000      -0.832284       -22.6476
  32   2.0000      -0.808546       -22.0017
  33   2.0000      -0.787872       -21.4391
  34   2.0000      -0.775268       -21.0961
  35   2.0000      -0.772346       -21.0166
  36   2.0000      -0.771073       -20.9820
  37   2.0000      -0.756126       -20.5752
  38   2.0000      -0.751929       -20.4610
  39   2.0000      -0.742146       -20.1948
  40   2.0000      -0.727366       -19.7926
  41   2.0000      -0.720407       -19.6033
  42   2.0000      -0.707472       -19.2513
  43   2.0000      -0.698887       -19.0177
  44   2.0000      -0.669978       -18.2310
  45   2.0000      -0.645193       -17.5566
  46   2.0000      -0.629727       -17.1357
  47   2.0000      -0.607588       -16.5333
  48   2.0000      -0.599156       -16.3039
  49   2.0000      -0.566102       -15.4044
  50   2.0000      -0.550478       -14.9793
  51   2.0000      -0.539090       -14.6694
  52   2.0000      -0.469431       -12.7739
  53   2.0000      -0.429292       -11.6816
  54   2.0000      -0.384508       -10.4630
  55   2.0000      -0.347343        -9.4517
  56   0.0000       0.022629         0.6158
  57   0.0000       0.029308         0.7975
  58   0.0000       0.034332         0.9342
  59   0.0000       0.035017         0.9529
  60   0.0000       0.048404         1.3171

MULLIKEN ATOMIC CHARGES
-----------------------
   0 C :    0.817613
   1 C :    0.886894
   2 C :    0.825659
   3 C :    0.845117
   4 C :    1.016747
   5 C :   -0.933445
   6 F :   -0.747547
   7 F :   -0.756753
   8 F :   -0.743778
   9 F :   -0.762858
  10 F :   -0.736477
  11 B :    0.915751
  12 O :   -1.112199
  13 H :    0.424293
  14 P :    0.408938
  15 H :   -0.301865
  16 H :   -0.046091
Sum of atomic charges:   -0.0000000

LOEWDIN ATOMIC CHARGES
----------------------
   0 C :   -0.801531
   1 C :   -0.794965
   2 C :   -0.819957
   3 C :   -0.799260
   4 C :   -0.841267
   5 C :   -0.401697
   6 F :    0.810746
   7 F :    0.806255
   8 F :    0.869848
   9 F :    0.806244
  10 F :    0.810248
  11 B :   -0.624478
  12 O :    1.304525
  13 H :   -0.956031
  14 P :    1.350075
  15 H :   -0.245038
  16 H :   -0.473718

  Mayer bond orders larger than 0.100000
B(  0-C ,  1-C ) :   1.5861 B(  0-C ,  3-C ) :   1.5395 B(  1-C ,  2-C ) :   1.5292
B(  1-C ,  4-C ) :   0.1391 B(  1-C ,  5-C ) :  -0.2090 B(  2-C ,  5-C ) :   1.0574
B(  2-C ,  7-F ) :   0.1043 B(  2-C ,  8-F ) :   0.1421 B(  3-C ,  4-C ) :   1.5866
B(  3-C ,  5-C ) :  -0.1415 B(  4-C ,  5-C ) :   0.9619 B(  4-C , 14-P ) :  -0.2301
B(  5-C ,  8-F ) :   0.1026 B(  5-C , 10-F ) :   0.2330 B(  5-C , 14-P ) :   0.8382
B( 11-B , 12-O ) :   0.5657 B( 11-B , 14-P ) :   1.0618 B( 11-B , 15-H ) :   0.9023
B( 12-O , 13-H ) :   0.8550 B( 14-P , 16-H ) :   0.9124

MP2 TOTAL ENERGY:    -1169.688080957 Eh
FINAL SINGLE POINT ENERGY     -1169.688080956685

DIPOLE MOMENT
-------------
                                X             Y             Z
Electronic contribution:      9.67416      -0.96636      -1.86374
Nuclear contribution   :     -9.80312       1.06763       1.80769
                        -----------------------------------------
Total Dipole Moment    :     -0.12896       0.10127      -0.05605
                        -----------------------------------------
Magnitude (a.u.)       :      0.17329
Magnitude (Debye)      :      0.44047

Rotational constants in cm-1:     0.028774     0.015822     0.010997
Rotational constants in MHz :   862.633389   474.322161   329.680226

                             ****ORCA TERMINATED NORMALLY****
TOTAL RUN TIME: 0 days 1 hours 0 minutes 54 seconds 864 msec
