                         Program Version 5.0.4 -  RELEASE  -
|  1> ! ri-mp2 aug-cc-pvdz aug-cc-pvdz/c tightscf
|  2> %pal nprocs 16 end
|  3> %maxcore 3800
|  4> %base "DZ_S-F_72_AB"
|  5>
|  6> *xyz 0 1
|  7> F        -1.303479    0.876061    0.000000
|  8> S        -0.595006   -0.581399    0.000002
|  9> N         0.981059   -0.429574    0.000000
| 10> N         1.675689    0.591572   -0.000003
| 11> H         2.654174    0.283854   -0.000001
| 12> *
| 13>
| 14> $new_job
| 15> ! ri-mp2 aug-cc-pvtz aug-cc-pvtz/c tightscf
| 16> %pal nprocs 16 end
| 17> %maxcore 3800
| 18> %base "TZ_S-F_72_AB"
| 19>
| 20> *xyz 0 1
| 21> F        -1.303479    0.876061    0.000000
| 22> S        -0.595006   -0.581399    0.000002
| 23> N         0.981059   -0.429574    0.000000
| 24> N         1.675689    0.591572   -0.000003
| 25> H         2.654174    0.283854   -0.000001
| 26> *
| 27>
| 28> $new_job
| 29> ! ri-mp2 aug-cc-pvqz aug-cc-pvqz/c tightscf
| 30> %pal nprocs 16 end
| 31> %maxcore 3800
| 32> %base "QZ_S-F_72_AB"
| 33>
| 34> *xyz 0 1
| 35> F        -1.303479    0.876061    0.000000
| 36> S        -0.595006   -0.581399    0.000002
| 37> N         0.981059   -0.429574    0.000000
| 38> N         1.675689    0.591572   -0.000003
| 39> H         2.654174    0.283854   -0.000001
| 40> *
| 41>
| 42>
| 43>
| 44>
| 45>                          ****END OF INPUT****
 Total Charge           Charge          ....    0
 Multiplicity           Mult            ....    1
 Number of Electrons    NEL             ....   40
MP2 TOTAL ENERGY:     -607.062132977 Eh
FINAL SINGLE POINT ENERGY      -607.062132976822
MP2 TOTAL ENERGY:     -607.292495178 Eh
FINAL SINGLE POINT ENERGY      -607.292495178177

CARTESIAN COORDINATES (ANGSTROEM)
---------------------------------
  F     -1.303479    0.876061    0.000000
  S     -0.595006   -0.581399    0.000002
  N      0.981059   -0.429574    0.000000
  N      1.675689    0.591572   -0.000003
  H      2.654174    0.283854   -0.000001

 Multiplicity           Mult            ....    1
 Number of Electrons    NEL             ....   40
 Basis Dimension        Dim             ....  370

ORBITAL ENERGIES
----------------

  NO   OCC          E(Eh)            E(eV)
   0   2.0000     -92.081920     -2505.6764
   1   2.0000     -26.323940      -716.3108
   2   2.0000     -15.688972      -426.9186
   3   2.0000     -15.643219      -425.6736
   4   2.0000      -9.074108      -246.9190
   5   2.0000      -6.755742      -183.8331
   6   2.0000      -6.753152      -183.7626
   7   2.0000      -6.752025      -183.7319
   8   2.0000      -1.624820       -44.2136
   9   2.0000      -1.403910       -38.2023
  10   2.0000      -1.108509       -30.1641
  11   2.0000      -0.861450       -23.4412
  12   2.0000      -0.756464       -20.5844
  13   2.0000      -0.710411       -19.3313
  14   2.0000      -0.707243       -19.2451
  15   2.0000      -0.650033       -17.6883
  16   2.0000      -0.594786       -16.1850
  17   2.0000      -0.569460       -15.4958
  18   2.0000      -0.427115       -11.6224
  19   2.0000      -0.386972       -10.5301
  20   0.0000       0.026081         0.7097
  21   0.0000       0.057720         1.5707
  22   0.0000       0.060858         1.6560
  23   0.0000       0.063739         1.7344
  24   0.0000       0.082104         2.2342

MULLIKEN ATOMIC CHARGES
-----------------------
   0 F :   -0.571458
   1 S :    1.104101
   2 N :   -0.505500
   3 N :   -0.337073
   4 H :    0.309930
Sum of atomic charges:    0.0000000

LOEWDIN ATOMIC CHARGES
----------------------
   0 F :    0.060003
   1 S :    0.473540
   2 N :   -0.378392
   3 N :    0.575754
   4 H :   -0.730906

  Mayer bond orders larger than 0.100000
B(  0-F ,  1-S ) :   0.6175 B(  1-S ,  2-N ) :   1.1296 B(  2-N ,  3-N ) :   1.7185
B(  3-N ,  4-H ) :   0.8761

MP2 TOTAL ENERGY:     -607.369744413 Eh
FINAL SINGLE POINT ENERGY      -607.369744412753

DIPOLE MOMENT
-------------
                                X             Y             Z
Electronic contribution:     -3.23642      -0.04070       0.00000
Nuclear contribution   :      3.72935      -0.52763      -0.00000
                        -----------------------------------------
Total Dipole Moment    :      0.49292      -0.56833       0.00000
                        -----------------------------------------
Magnitude (a.u.)       :      0.75231
Magnitude (Debye)      :      1.91222

Rotational constants in cm-1:     0.511864     0.163041     0.123654
Rotational constants in MHz : 15345.292436  4887.853240  3707.062587

                             ****ORCA TERMINATED NORMALLY****
TOTAL RUN TIME: 0 days 0 hours 1 minutes 37 seconds 699 msec
