                         Program Version 5.0.4 -  RELEASE  -
|  1> ! ri-mp2 aug-cc-pvdz aug-cc-pvdz/c tightscf
|  2> %pal nprocs 16 end
|  3> %maxcore 3800
|  4> %base "DZ_S-Cl_13_AB"
|  5> %scf
|  6> STABPerform true
|  7> STABRestartUHFifUnstable true
|  8> end
|  9>
| 10> *xyz 0 1
| 11> Cl         1.622263   -0.414163   -0.000010
| 12> S         0.038933    0.879901    0.000009
| 13> P        -1.571820   -0.486114   -0.000003
| 14> H        -2.312059    0.127074   -1.035925
| 15> H        -2.312025    0.126983    1.035997
| 16> *
| 17>
| 18> $new_job
| 19> ! ri-mp2 aug-cc-pvtz aug-cc-pvtz/c tightscf
| 20> %pal nprocs 16 end
| 21> %maxcore 3800
| 22> %base "TZ_S-Cl_13_AB"
| 23>
| 24> *xyz 0 1
| 25> Cl         1.622263   -0.414163   -0.000010
| 26> S         0.038933    0.879901    0.000009
| 27> P        -1.571820   -0.486114   -0.000003
| 28> H        -2.312059    0.127074   -1.035925
| 29> H        -2.312025    0.126983    1.035997
| 30> *
| 31>
| 32> $new_job
| 33> ! ri-mp2 aug-cc-pvqz aug-cc-pvqz/c tightscf
| 34> %pal nprocs 16 end
| 35> %maxcore 3800
| 36> %base "QZ_S-Cl_13_AB"
| 37>
| 38> *xyz 0 1
| 39> Cl         1.622263   -0.414163   -0.000010
| 40> S         0.038933    0.879901    0.000009
| 41> P        -1.571820   -0.486114   -0.000003
| 42> H        -2.312059    0.127074   -1.035925
| 43> H        -2.312025    0.126983    1.035997
| 44> *
| 45>
| 46>
| 47>
| 48>
| 49>                          ****END OF INPUT****
 Total Charge           Charge          ....    0
 Multiplicity           Mult            ....    1
 Number of Electrons    NEL             ....   50
MP2 TOTAL ENERGY:    -1199.346102683 Eh
FINAL SINGLE POINT ENERGY     -1199.346102682749
MP2 TOTAL ENERGY:    -1199.508126494 Eh
FINAL SINGLE POINT ENERGY     -1199.508126494450

CARTESIAN COORDINATES (ANGSTROEM)
---------------------------------
  Cl     1.622263   -0.414163   -0.000010
  S      0.038933    0.879901    0.000009
  P     -1.571820   -0.486114   -0.000003
  H     -2.312059    0.127074   -1.035925
  H     -2.312025    0.126983    1.035997

 Multiplicity           Mult            ....    1
 Number of Electrons    NEL             ....   50
 Basis Dimension        Dim             ....  344

ORBITAL ENERGIES
----------------

  NO   OCC          E(Eh)            E(eV)
   0   2.0000    -104.855185     -2853.2547
   1   2.0000     -92.015710     -2503.8748
   2   2.0000     -79.987120     -2176.5602
   3   2.0000     -10.579330      -287.8782
   4   2.0000      -9.014048      -245.2847
   5   2.0000      -8.046324      -218.9516
   6   2.0000      -8.044345      -218.8978
   7   2.0000      -8.044171      -218.8930
   8   2.0000      -7.528128      -204.8508
   9   2.0000      -6.695093      -182.1827
  10   2.0000      -6.693731      -182.1457
  11   2.0000      -6.692616      -182.1153
  12   2.0000      -5.421636      -147.5302
  13   2.0000      -5.421084      -147.5152
  14   2.0000      -5.420642      -147.5032
  15   2.0000      -1.142488       -31.0887
  16   2.0000      -0.963626       -26.2216
  17   2.0000      -0.810320       -22.0499
  18   2.0000      -0.568620       -15.4729
  19   2.0000      -0.557253       -15.1636
  20   2.0000      -0.543821       -14.7981
  21   2.0000      -0.508435       -13.8352
  22   2.0000      -0.445677       -12.1275
  23   2.0000      -0.393854       -10.7173
  24   2.0000      -0.372047       -10.1239
  25   0.0000       0.025084         0.6826
  26   0.0000       0.040759         1.1091
  27   0.0000       0.044325         1.2061
  28   0.0000       0.047443         1.2910
  29   0.0000       0.064823         1.7639

MULLIKEN ATOMIC CHARGES
-----------------------
   0 Cl:   -0.256949
   1 S :    0.028308
   2 P :    0.325599
   3 H :   -0.048479
   4 H :   -0.048478
Sum of atomic charges:    0.0000000

LOEWDIN ATOMIC CHARGES
----------------------
   0 Cl:    0.345675
   1 S :   -0.035202
   2 P :    0.860588
   3 H :   -0.585531
   4 H :   -0.585529

  Mayer bond orders larger than 0.100000
B(  0-Cl,  1-S ) :   0.9394 B(  1-S ,  2-P ) :   0.9515 B(  2-P ,  3-H ) :   0.8953
B(  2-P ,  4-H ) :   0.8953

MP2 TOTAL ENERGY:    -1199.561308206 Eh
FINAL SINGLE POINT ENERGY     -1199.561308206268

DIPOLE MOMENT
-------------
                                X             Y             Z
Electronic contribution:      4.27589      -1.08288      -0.00007
Nuclear contribution   :     -5.09141       1.19819       0.00008
                        -----------------------------------------
Total Dipole Moment    :     -0.81553       0.11530       0.00001
                        -----------------------------------------
Magnitude (a.u.)       :      0.82364
Magnitude (Debye)      :      2.09352

Rotational constants in cm-1:     0.417258     0.092357     0.077116
Rotational constants in MHz : 12509.066486  2768.806152  2311.891660

                             ****ORCA TERMINATED NORMALLY****
TOTAL RUN TIME: 0 days 0 hours 5 minutes 23 seconds 940 msec
