                         Program Version 5.0.4 -  RELEASE  -
|  1> ! ri-mp2 aug-cc-pvdz aug-cc-pvdz/c tightscf
|  2> %pal nprocs 16 end
|  3> %maxcore 3800
|  4> %base "DZ_B-F_6_AB"
|  5>
|  6> *xyz 0 1
|  7> F        -1.479998    1.135115   -0.000004
|  8> F        -1.479998   -1.135115   -0.000002
|  9> N         0.609416    0.000000    0.000002
| 10> B        -0.779296   -0.000000    0.000001
| 11> C         1.389786   -1.218816    0.000003
| 12> H         2.031492   -1.267864   -0.884221
| 13> H         0.733570   -2.084674    0.000004
| 14> H         2.031491   -1.267862    0.884228
| 15> C         1.389786    1.218816    0.000001
| 16> H         0.733570    2.084674   -0.000002
| 17> H         2.031494    1.267861   -0.884221
| 18> H         2.031489    1.267865    0.884227
| 19> *
| 20>
| 21> $new_job
| 22> ! ri-mp2 aug-cc-pvtz aug-cc-pvtz/c tightscf
| 23> %pal nprocs 16 end
| 24> %maxcore 3800
| 25> %base "TZ_B-F_6_AB"
| 26>
| 27> *xyz 0 1
| 28> F        -1.479998    1.135115   -0.000004
| 29> F        -1.479998   -1.135115   -0.000002
| 30> N         0.609416    0.000000    0.000002
| 31> B        -0.779296   -0.000000    0.000001
| 32> C         1.389786   -1.218816    0.000003
| 33> H         2.031492   -1.267864   -0.884221
| 34> H         0.733570   -2.084674    0.000004
| 35> H         2.031491   -1.267862    0.884228
| 36> C         1.389786    1.218816    0.000001
| 37> H         0.733570    2.084674   -0.000002
| 38> H         2.031494    1.267861   -0.884221
| 39> H         2.031489    1.267865    0.884227
| 40> *
| 41>
| 42> $new_job
| 43> ! ri-mp2 aug-cc-pvqz aug-cc-pvqz/c tightscf
| 44> %pal nprocs 16 end
| 45> %maxcore 3800
| 46> %base "QZ_B-F_6_AB"
| 47>
| 48> *xyz 0 1
| 49> F        -1.479998    1.135115   -0.000004
| 50> F        -1.479998   -1.135115   -0.000002
| 51> N         0.609416    0.000000    0.000002
| 52> B        -0.779296   -0.000000    0.000001
| 53> C         1.389786   -1.218816    0.000003
| 54> H         2.031492   -1.267864   -0.884221
| 55> H         0.733570   -2.084674    0.000004
| 56> H         2.031491   -1.267862    0.884228
| 57> C         1.389786    1.218816    0.000001
| 58> H         0.733570    2.084674   -0.000002
| 59> H         2.031494    1.267861   -0.884221
| 60> H         2.031489    1.267865    0.884227
| 61> *
| 62>
| 63>
| 64>
| 65>
| 66>                          ****END OF INPUT****
 Total Charge           Charge          ....    0
 Multiplicity           Mult            ....    1
 Number of Electrons    NEL             ....   48
MP2 TOTAL ENERGY:     -358.402962699 Eh
FINAL SINGLE POINT ENERGY      -358.402962699256
MP2 TOTAL ENERGY:     -358.726238253 Eh
FINAL SINGLE POINT ENERGY      -358.726238252940

CARTESIAN COORDINATES (ANGSTROEM)
---------------------------------
  F     -1.479998    1.135115   -0.000004
  F     -1.479998   -1.135115   -0.000002
  N      0.609416    0.000000    0.000002
  B     -0.779296   -0.000000    0.000001
  C      1.389786   -1.218816    0.000003
  H      2.031492   -1.267864   -0.884221
  H      0.733570   -2.084674    0.000004
  H      2.031491   -1.267862    0.884228
  C      1.389786    1.218816    0.000001
  H      0.733570    2.084674   -0.000002
  H      2.031494    1.267861   -0.884221
  H      2.031489    1.267865    0.884227

 Multiplicity           Mult            ....    1
 Number of Electrons    NEL             ....   48
 Basis Dimension        Dim             ....  756

ORBITAL ENERGIES
----------------

  NO   OCC          E(Eh)            E(eV)
   0   2.0000     -26.290544      -715.4021
   1   2.0000     -26.290529      -715.4017
   2   2.0000     -15.565208      -423.5509
   3   2.0000     -11.260216      -306.4060
   4   2.0000     -11.260198      -306.4056
   5   2.0000      -7.690093      -209.2581
   6   2.0000      -1.622760       -44.1575
   7   2.0000      -1.591673       -43.3116
   8   2.0000      -1.233819       -33.5739
   9   2.0000      -0.974110       -26.5069
  10   2.0000      -0.898813       -24.4579
  11   2.0000      -0.790928       -21.5222
  12   2.0000      -0.743089       -20.2205
  13   2.0000      -0.728582       -19.8257
  14   2.0000      -0.701664       -19.0932
  15   2.0000      -0.644978       -17.5507
  16   2.0000      -0.643376       -17.5072
  17   2.0000      -0.636992       -17.3334
  18   2.0000      -0.633008       -17.2250
  19   2.0000      -0.606827       -16.5126
  20   2.0000      -0.559133       -15.2148
  21   2.0000      -0.542962       -14.7747
  22   2.0000      -0.533056       -14.5052
  23   2.0000      -0.393285       -10.7018
  24   0.0000       0.022972         0.6251
  25   0.0000       0.033526         0.9123
  26   0.0000       0.035372         0.9625
  27   0.0000       0.038452         1.0463
  28   0.0000       0.053343         1.4515

MULLIKEN ATOMIC CHARGES
-----------------------
   0 F :   -0.849654
   1 F :   -0.849654
   2 N :   -0.137979
   3 B :    1.653719
   4 C :   -0.812805
   5 H :    0.285105
   6 H :    0.334380
   7 H :    0.285104
   8 C :   -0.812805
   9 H :    0.334380
  10 H :    0.285105
  11 H :    0.285104
Sum of atomic charges:    0.0000000

LOEWDIN ATOMIC CHARGES
----------------------
   0 F :    0.833393
   1 F :    0.833393
   2 N :    0.486107
   3 B :   -1.915091
   4 C :    0.752704
   5 H :   -0.275588
   6 H :   -0.320429
   7 H :   -0.275588
   8 C :    0.752704
   9 H :   -0.320429
  10 H :   -0.275589
  11 H :   -0.275588

  Mayer bond orders larger than 0.100000
B(  0-F ,  2-N ) :  -0.1429 B(  0-F ,  3-B ) :   0.3160 B(  1-F ,  2-N ) :  -0.1429
B(  1-F ,  3-B ) :   0.3160 B(  2-N ,  3-B ) :   1.1566 B(  2-N ,  4-C ) :   0.8816
B(  2-N ,  8-C ) :   0.8816 B(  4-C ,  5-H ) :   0.9430 B(  4-C ,  6-H ) :   0.8975
B(  4-C ,  7-H ) :   0.9431 B(  8-C ,  9-H ) :   0.8975 B(  8-C , 10-H ) :   0.9430
B(  8-C , 11-H ) :   0.9431

MP2 TOTAL ENERGY:     -358.828005096 Eh
FINAL SINGLE POINT ENERGY      -358.828005095999

DIPOLE MOMENT
-------------
                                X             Y             Z
Electronic contribution:    -11.67606       0.00000      -0.00001
Nuclear contribution   :     12.76068      -0.00000       0.00002
                        -----------------------------------------
Total Dipole Moment    :      1.08462       0.00000       0.00000
                        -----------------------------------------
Magnitude (a.u.)       :      1.08462
Magnitude (Debye)      :      2.75688

Rotational constants in cm-1:     0.163607     0.105077     0.065552
Rotational constants in MHz :  4904.818939  3150.141263  1965.209072

                             ****ORCA TERMINATED NORMALLY****
TOTAL RUN TIME: 0 days 0 hours 9 minutes 13 seconds 68 msec
