                         Program Version 5.0.4 -  RELEASE  -
|  1> ! ri-mp2 aug-cc-pvdz aug-cc-pvdz/c tightscf
|  2> %pal nprocs 16 end
|  3> %maxcore 3800
|  4> %base "DZ_B-S_13_AB"
|  5> %scf
|  6> STABPerform true
|  7> STABRestartUHFifUnstable true
|  8> end
|  9>
| 10> *xyz 0 1
| 11> C        -2.112886   -0.279988   -0.497376
| 12> S        -0.576238   -1.226300   -0.254214
| 13> B         0.714887   -0.003982   -0.058736
| 14> S         0.373079    1.766347   -0.175305
| 15> S         2.408030   -0.550320    0.246908
| 16> C        -2.756098    0.176232    0.798241
| 17> H        -2.770870   -0.959140   -1.037672
| 18> H        -1.903325    0.557771   -1.160270
| 19> H        -2.978268   -0.673657    1.442677
| 20> H        -3.690412    0.699996    0.588543
| 21> H        -2.103541    0.854641    1.345592
| 22> H         1.630596    2.198038   -0.011195
| 23> H         2.177361   -1.870839    0.242575
| 24> *
| 25>
| 26> $new_job
| 27> ! ri-mp2 aug-cc-pvtz aug-cc-pvtz/c tightscf
| 28> %pal nprocs 16 end
| 29> %maxcore 3800
| 30> %base "TZ_B-S_13_AB"
| 31>
| 32> *xyz 0 1
| 33> C        -2.112886   -0.279988   -0.497376
| 34> S        -0.576238   -1.226300   -0.254214
| 35> B         0.714887   -0.003982   -0.058736
| 36> S         0.373079    1.766347   -0.175305
| 37> S         2.408030   -0.550320    0.246908
| 38> C        -2.756098    0.176232    0.798241
| 39> H        -2.770870   -0.959140   -1.037672
| 40> H        -1.903325    0.557771   -1.160270
| 41> H        -2.978268   -0.673657    1.442677
| 42> H        -3.690412    0.699996    0.588543
| 43> H        -2.103541    0.854641    1.345592
| 44> H         1.630596    2.198038   -0.011195
| 45> H         2.177361   -1.870839    0.242575
| 46> *
| 47>
| 48> $new_job
| 49> ! ri-mp2 aug-cc-pvqz aug-cc-pvqz/c tightscf
| 50> %pal nprocs 16 end
| 51> %maxcore 3800
| 52> %base "QZ_B-S_13_AB"
| 53>
| 54> *xyz 0 1
| 55> C        -2.112886   -0.279988   -0.497376
| 56> S        -0.576238   -1.226300   -0.254214
| 57> B         0.714887   -0.003982   -0.058736
| 58> S         0.373079    1.766347   -0.175305
| 59> S         2.408030   -0.550320    0.246908
| 60> C        -2.756098    0.176232    0.798241
| 61> H        -2.770870   -0.959140   -1.037672
| 62> H        -1.903325    0.557771   -1.160270
| 63> H        -2.978268   -0.673657    1.442677
| 64> H        -3.690412    0.699996    0.588543
| 65> H        -2.103541    0.854641    1.345592
| 66> H         1.630596    2.198038   -0.011195
| 67> H         2.177361   -1.870839    0.242575
| 68> *
| 69>
| 70>
| 71>
| 72>
| 73>                          ****END OF INPUT****
 Total Charge           Charge          ....    0
 Multiplicity           Mult            ....    1
 Number of Electrons    NEL             ....   72
MP2 TOTAL ENERGY:    -1298.020042830 Eh
FINAL SINGLE POINT ENERGY     -1298.020042829791
MP2 TOTAL ENERGY:    -1298.272680291 Eh
FINAL SINGLE POINT ENERGY     -1298.272680291139

CARTESIAN COORDINATES (ANGSTROEM)
---------------------------------
  C     -2.112886   -0.279988   -0.497376
  S     -0.576238   -1.226300   -0.254214
  B      0.714887   -0.003982   -0.058736
  S      0.373079    1.766347   -0.175305
  S      2.408030   -0.550320    0.246908
  C     -2.756098    0.176232    0.798241
  H     -2.770870   -0.959140   -1.037672
  H     -1.903325    0.557771   -1.160270
  H     -2.978268   -0.673657    1.442677
  H     -3.690412    0.699996    0.588543
  H     -2.103541    0.854641    1.345592
  H      1.630596    2.198038   -0.011195
  H      2.177361   -1.870839    0.242575

 Multiplicity           Mult            ....    1
 Number of Electrons    NEL             ....   72
 Basis Dimension        Dim             ....  814

ORBITAL ENERGIES
----------------

  NO   OCC          E(Eh)            E(eV)
   0   2.0000     -91.961214     -2502.3919
   1   2.0000     -91.957716     -2502.2967
   2   2.0000     -91.950663     -2502.1047
   3   2.0000     -11.267540      -306.6054
   4   2.0000     -11.226393      -305.4857
   5   2.0000      -8.966343      -243.9866
   6   2.0000      -8.962702      -243.8875
   7   2.0000      -8.955475      -243.6909
   8   2.0000      -7.673464      -208.8056
   9   2.0000      -6.647928      -180.8993
  10   2.0000      -6.646990      -180.8738
  11   2.0000      -6.646453      -180.8592
  12   2.0000      -6.644279      -180.8000
  13   2.0000      -6.643353      -180.7748
  14   2.0000      -6.642794      -180.7596
  15   2.0000      -6.636990      -180.6017
  16   2.0000      -6.636085      -180.5771
  17   2.0000      -6.635739      -180.5676
  18   2.0000      -1.084597       -29.5134
  19   2.0000      -1.019035       -27.7293
  20   2.0000      -0.966953       -26.3121
  21   2.0000      -0.946799       -25.7637
  22   2.0000      -0.831120       -22.6159
  23   2.0000      -0.663696       -18.0601
  24   2.0000      -0.629826       -17.1384
  25   2.0000      -0.602019       -16.3818
  26   2.0000      -0.580559       -15.7978
  27   2.0000      -0.555812       -15.1244
  28   2.0000      -0.527592       -14.3565
  29   2.0000      -0.516961       -14.0672
  30   2.0000      -0.475488       -12.9387
  31   2.0000      -0.450753       -12.2656
  32   2.0000      -0.447329       -12.1724
  33   2.0000      -0.429037       -11.6747
  34   2.0000      -0.375122       -10.2076
  35   2.0000      -0.359195        -9.7742
  36   0.0000       0.024783         0.6744
  37   0.0000       0.031738         0.8636
  38   0.0000       0.034290         0.9331
  39   0.0000       0.035664         0.9705
  40   0.0000       0.045274         1.2320

MULLIKEN ATOMIC CHARGES
-----------------------
   0 C :   -0.470576
   1 S :    0.030725
   2 B :   -0.047203
   3 S :    0.018806
   4 S :   -0.105982
   5 C :   -0.858037
   6 H :    0.337768
   7 H :    0.276000
   8 H :    0.270350
   9 H :    0.293521
  10 H :    0.283473
  11 H :   -0.062057
  12 H :    0.033213
Sum of atomic charges:   -0.0000000

LOEWDIN ATOMIC CHARGES
----------------------
   0 C :    0.105984
   1 S :    1.335891
   2 B :   -2.161065
   3 S :    1.626620
   4 S :    1.573563
   5 C :    0.830971
   6 H :   -0.369490
   7 H :   -0.407329
   8 H :   -0.300369
   9 H :   -0.283085
  10 H :   -0.331331
  11 H :   -0.804944
  12 H :   -0.815416

  Mayer bond orders larger than 0.100000
B(  0-C ,  1-S ) :   0.9596 B(  0-C ,  5-C ) :   0.9979 B(  0-C ,  6-H ) :   0.8340
B(  0-C ,  7-H ) :   0.8960 B(  1-S ,  2-B ) :   1.3052 B(  2-B ,  3-S ) :   1.1697
B(  2-B ,  4-S ) :   1.1058 B(  3-S , 11-H ) :   1.1109 B(  4-S , 12-H ) :   1.0735
B(  5-C ,  8-H ) :   0.9393 B(  5-C ,  9-H ) :   0.8982 B(  5-C , 10-H ) :   0.9177

MP2 TOTAL ENERGY:    -1298.353602806 Eh
FINAL SINGLE POINT ENERGY     -1298.353602806226

DIPOLE MOMENT
-------------
                                X             Y             Z
Electronic contribution:      9.57568      -0.69958      -1.45662
Nuclear contribution   :    -10.07054       0.79363       1.43305
                        -----------------------------------------
Total Dipole Moment    :     -0.49486       0.09404      -0.02358
                        -----------------------------------------
Magnitude (a.u.)       :      0.50427
Magnitude (Debye)      :      1.28175

Rotational constants in cm-1:     0.087358     0.040228     0.029719
Rotational constants in MHz :  2618.934813  1206.000986   890.944262

                             ****ORCA TERMINATED NORMALLY****
TOTAL RUN TIME: 0 days 1 hours 36 minutes 18 seconds 943 msec
