                         Program Version 5.0.4 -  RELEASE  -
|  1> ! ri-mp2 aug-cc-pvdz aug-cc-pvdz/c tightscf
|  2> %pal nprocs 16 end
|  3> %maxcore 3800
|  4> %base "DZ_P-Cl_11_A"
|  5> %scf
|  6> STABPerform true
|  7> STABRestartUHFifUnstable true
|  8> end
|  9>
| 10> *xyz 0 2
| 11> P         0.000000    1.379213    0.000012
| 12> S         1.664820   -0.039425   -0.163895
| 13> S        -1.664820   -0.039429    0.163896
| 14> O         1.316858   -1.044704   -1.135090
| 15> O         2.803589    0.808033   -0.387318
| 16> O        -1.316860   -1.044728    1.135070
| 17> O        -2.803589    0.808025    0.387335
| 18> C         1.836863   -0.818021    1.412471
| 19> H         2.678462   -1.501779    1.301682
| 20> H         0.920138   -1.353119    1.643718
| 21> H         2.062389   -0.056889    2.155115
| 22> C        -1.836860   -0.817991   -1.412488
| 23> H        -0.920133   -1.353082   -1.643746
| 24> H        -2.062388   -0.056845   -2.155116
| 25> H        -2.678457   -1.501755   -1.301714
| 26> *
| 27>
| 28> $new_job
| 29> ! ri-mp2 aug-cc-pvtz aug-cc-pvtz/c tightscf
| 30> %pal nprocs 16 end
| 31> %maxcore 3800
| 32> %base "TZ_P-Cl_11_A"
| 33>
| 34> *xyz 0 2
| 35> P         0.000000    1.379213    0.000012
| 36> S         1.664820   -0.039425   -0.163895
| 37> S        -1.664820   -0.039429    0.163896
| 38> O         1.316858   -1.044704   -1.135090
| 39> O         2.803589    0.808033   -0.387318
| 40> O        -1.316860   -1.044728    1.135070
| 41> O        -2.803589    0.808025    0.387335
| 42> C         1.836863   -0.818021    1.412471
| 43> H         2.678462   -1.501779    1.301682
| 44> H         0.920138   -1.353119    1.643718
| 45> H         2.062389   -0.056889    2.155115
| 46> C        -1.836860   -0.817991   -1.412488
| 47> H        -0.920133   -1.353082   -1.643746
| 48> H        -2.062388   -0.056845   -2.155116
| 49> H        -2.678457   -1.501755   -1.301714
| 50> *
| 51>
| 52> $new_job
| 53> ! ri-mp2 aug-cc-pvqz aug-cc-pvqz/c tightscf
| 54> %pal nprocs 16 end
| 55> %maxcore 3800
| 56> %base "QZ_P-Cl_11_A"
| 57>
| 58> *xyz 0 2
| 59> P         0.000000    1.379213    0.000012
| 60> S         1.664820   -0.039425   -0.163895
| 61> S        -1.664820   -0.039429    0.163896
| 62> O         1.316858   -1.044704   -1.135090
| 63> O         2.803589    0.808033   -0.387318
| 64> O        -1.316860   -1.044728    1.135070
| 65> O        -2.803589    0.808025    0.387335
| 66> C         1.836863   -0.818021    1.412471
| 67> H         2.678462   -1.501779    1.301682
| 68> H         0.920138   -1.353119    1.643718
| 69> H         2.062389   -0.056889    2.155115
| 70> C        -1.836860   -0.817991   -1.412488
| 71> H        -0.920133   -1.353082   -1.643746
| 72> H        -2.062388   -0.056845   -2.155116
| 73> H        -2.678457   -1.501755   -1.301714
| 74> *
| 75>
| 76>
| 77>
| 78>
| 79>                          ****END OF INPUT****
 Total Charge           Charge          ....    0
 Multiplicity           Mult            ....    2
 Number of Electrons    NEL             ....   97
MP2 TOTAL ENERGY:    -1515.844554066 Eh
FINAL SINGLE POINT ENERGY     -1515.844554065531
MP2 TOTAL ENERGY:    -1516.393301115 Eh
FINAL SINGLE POINT ENERGY     -1516.393301115259

CARTESIAN COORDINATES (ANGSTROEM)
---------------------------------
  P      0.000000    1.379213    0.000012
  S      1.664820   -0.039425   -0.163895
  S     -1.664820   -0.039429    0.163896
  O      1.316858   -1.044704   -1.135090
  O      2.803589    0.808033   -0.387318
  O     -1.316860   -1.044728    1.135070
  O     -2.803589    0.808025    0.387335
  C      1.836863   -0.818021    1.412471
  H      2.678462   -1.501779    1.301682
  H      0.920138   -1.353119    1.643718
  H      2.062389   -0.056889    2.155115
  C     -1.836860   -0.817991   -1.412488
  H     -0.920133   -1.353082   -1.643746
  H     -2.062388   -0.056845   -2.155116
  H     -2.678457   -1.501755   -1.301714

 Multiplicity           Mult            ....    2
 Number of Electrons    NEL             ....   97
 Basis Dimension        Dim             .... 1008

ORBITAL ENERGIES
----------------
                 SPIN UP ORBITALS
  NO   OCC          E(Eh)            E(eV)
   0   1.0000     -92.192396     -2508.6826
   1   1.0000     -92.192396     -2508.6826
   2   1.0000     -80.043185     -2178.0858
   3   1.0000     -20.569499      -559.7245
   4   1.0000     -20.569498      -559.7245
   5   1.0000     -20.565906      -559.6267
   6   1.0000     -20.565905      -559.6267
   7   1.0000     -11.284453      -307.0656
   8   1.0000     -11.284453      -307.0656
   9   1.0000      -9.164020      -249.3657
  10   1.0000      -9.164018      -249.3656
  11   1.0000      -7.584511      -206.3850
  12   1.0000      -6.848942      -186.3692
  13   1.0000      -6.848940      -186.3691
  14   1.0000      -6.848379      -186.3539
  15   1.0000      -6.848379      -186.3539
  16   1.0000      -6.848278      -186.3511
  17   1.0000      -6.848277      -186.3511
  18   1.0000      -5.488131      -149.3396
  19   1.0000      -5.474036      -148.9561
  20   1.0000      -5.472238      -148.9072
  21   1.0000      -1.481775       -40.3212
  22   1.0000      -1.478050       -40.2198
  23   1.0000      -1.368748       -37.2455
  24   1.0000      -1.367339       -37.2072
  25   1.0000      -1.071508       -29.1572
  26   1.0000      -1.065506       -28.9939
  27   1.0000      -0.965490       -26.2723
  28   1.0000      -0.856460       -23.3055
  29   1.0000      -0.798641       -21.7321
  30   1.0000      -0.716441       -19.4953
  31   1.0000      -0.694500       -18.8983
  32   1.0000      -0.690221       -18.7819
  33   1.0000      -0.676108       -18.3978
  34   1.0000      -0.673742       -18.3335
  35   1.0000      -0.656353       -17.8603
  36   1.0000      -0.624518       -16.9940
  37   1.0000      -0.621255       -16.9052
  38   1.0000      -0.615273       -16.7424
  39   1.0000      -0.587021       -15.9737
  40   1.0000      -0.536405       -14.5963
  41   1.0000      -0.528152       -14.3717
  42   1.0000      -0.518248       -14.1022
  43   1.0000      -0.512573       -13.9478
  44   1.0000      -0.501168       -13.6375
  45   1.0000      -0.501074       -13.6349
  46   1.0000      -0.444348       -12.0913
  47   1.0000      -0.431950       -11.7539
  48   1.0000      -0.425549       -11.5798
  49   0.0000       0.022601         0.6150
  50   0.0000       0.028481         0.7750
  51   0.0000       0.035824         0.9748
  52   0.0000       0.039493         1.0747
  53   0.0000       0.045311         1.2330

                 SPIN DOWN ORBITALS
  NO   OCC          E(Eh)            E(eV)
   0   1.0000     -92.192706     -2508.6911
   1   1.0000     -92.192706     -2508.6911
   2   1.0000     -80.035846     -2177.8861
   3   1.0000     -20.569045      -559.7122
   4   1.0000     -20.569044      -559.7121
   5   1.0000     -20.566200      -559.6348
   6   1.0000     -20.566200      -559.6347
   7   1.0000     -11.284443      -307.0653
   8   1.0000     -11.284443      -307.0653
   9   1.0000      -9.164406      -249.3762
  10   1.0000      -9.164404      -249.3761
  11   1.0000      -7.575545      -206.1411
  12   1.0000      -6.849975      -186.3973
  13   1.0000      -6.849972      -186.3972
  14   1.0000      -6.848670      -186.3618
  15   1.0000      -6.848670      -186.3618
  16   1.0000      -6.848454      -186.3559
  17   1.0000      -6.848453      -186.3559
  18   1.0000      -5.468709      -148.8111
  19   1.0000      -5.468651      -148.8096
  20   1.0000      -5.453677      -148.4021
  21   1.0000      -1.481174       -40.3048
  22   1.0000      -1.477813       -40.2133
  23   1.0000      -1.368381       -37.2355
  24   1.0000      -1.366915       -37.1956
  25   1.0000      -1.067421       -29.0460
  26   1.0000      -1.064972       -28.9794
  27   1.0000      -0.928474       -25.2651
  28   1.0000      -0.856814       -23.3151
  29   1.0000      -0.781473       -21.2650
  30   1.0000      -0.714245       -19.4356
  31   1.0000      -0.690558       -18.7910
  32   1.0000      -0.688838       -18.7442
  33   1.0000      -0.674569       -18.3559
  34   1.0000      -0.673710       -18.3326
  35   1.0000      -0.637899       -17.3581
  36   1.0000      -0.624027       -16.9806
  37   1.0000      -0.616869       -16.7859
  38   1.0000      -0.614598       -16.7241
  39   1.0000      -0.576522       -15.6880
  40   1.0000      -0.536759       -14.6059
  41   1.0000      -0.525492       -14.2994
  42   1.0000      -0.518172       -14.1002
  43   1.0000      -0.510263       -13.8850
  44   1.0000      -0.499771       -13.5995
  45   1.0000      -0.499174       -13.5832
  46   1.0000      -0.429678       -11.6921
  47   1.0000      -0.418356       -11.3840
  48   0.0000      -0.032779        -0.8920
  49   0.0000       0.023122         0.6292
  50   0.0000       0.029444         0.8012
  51   0.0000       0.036025         0.9803
  52   0.0000       0.040812         1.1105

MULLIKEN ATOMIC CHARGES AND SPIN POPULATIONS
--------------------------------------------
   0 P :    0.445615    1.133893
   1 S :    2.294207   -0.055585
   2 S :    2.294213   -0.055582
   3 O :   -1.224446    0.006162
   4 O :   -1.314952   -0.011079
   5 O :   -1.224442    0.006161
   6 O :   -1.314955   -0.011080
   7 C :   -1.106189   -0.005970
   8 H :    0.354644    0.003301
   9 H :    0.435428   -0.002148
  10 H :    0.338496   -0.001627
  11 C :   -1.106190   -0.005971
  12 H :    0.435439   -0.002149
  13 H :    0.338491   -0.001626
  14 H :    0.354642    0.003300
Sum of atomic charges         :   -0.0000000

LOEWDIN ATOMIC CHARGES AND SPIN POPULATIONS
-------------------------------------------
   0 P :    0.762352    0.651451
   1 S :   -0.518968    0.138659
   2 S :   -0.518968    0.138659
   3 O :    0.268342    0.011314
   4 O :    0.221309   -0.001334
   5 O :    0.268341    0.011313
   6 O :    0.221308   -0.001334
   7 C :    0.742755    0.016167
   8 H :   -0.330346    0.001386
   9 H :   -0.428053    0.002207
  10 H :   -0.336214    0.005876
  11 C :    0.742755    0.016167
  12 H :   -0.428054    0.002208
  13 H :   -0.336215    0.005876
  14 H :   -0.330345    0.001386

  Mayer bond orders larger than 0.100000
B(  0-P ,  1-S ) :   0.8245 B(  0-P ,  2-S ) :   0.8245 B(  1-S ,  3-O ) :   1.0231
B(  1-S ,  4-O ) :   0.9729 B(  1-S ,  7-C ) :   0.9181 B(  2-S ,  5-O ) :   1.0231
B(  2-S ,  6-O ) :   0.9729 B(  2-S , 11-C ) :   0.9181 B(  7-C ,  8-H ) :   0.8291
B(  7-C ,  9-H ) :   0.8222 B(  7-C , 10-H ) :   0.8911 B( 11-C , 12-H ) :   0.8222
B( 11-C , 13-H ) :   0.8911 B( 11-C , 14-H ) :   0.8291

MP2 TOTAL ENERGY:    -1516.572086617 Eh
FINAL SINGLE POINT ENERGY     -1516.572086617154

DIPOLE MOMENT
-------------
                                X             Y             Z
Electronic contribution:     -0.00001       6.64746       0.00007
Nuclear contribution   :      0.00001      -6.87822      -0.00007
                        -----------------------------------------
Total Dipole Moment    :      0.00000      -0.23076       0.00000
                        -----------------------------------------
Magnitude (a.u.)       :      0.23076
Magnitude (Debye)      :      0.58654

Rotational constants in cm-1:     0.066881     0.023932     0.023089
Rotational constants in MHz :  2005.034778   717.449708   692.178292

                             ****ORCA TERMINATED NORMALLY****
TOTAL RUN TIME: 0 days 4 hours 1 minutes 7 seconds 672 msec
