                         Program Version 5.0.4 -  RELEASE  -
|  1> ! ri-mp2 aug-cc-pvdz aug-cc-pvdz/c tightscf
|  2> %pal nprocs 16 end
|  3> %maxcore 3800
|  4> %base "DZ_Si-Si_66_AB"
|  5> %scf
|  6> STABPerform true
|  7> STABRestartUHFifUnstable true
|  8> end
|  9>
| 10> *xyz 0 1
| 11> Si         0.782161   -1.215616   -0.872435
| 12> Si        -0.782162   -1.215616    0.872435
| 13> O         1.589011    0.259764   -0.910432
| 14> H         0.161200   -1.272387   -2.212001
| 15> H         1.740437   -2.334403   -0.723641
| 16> O         2.226471    0.362648    0.381631
| 17> C         1.892358    1.633991    0.892341
| 18> H         2.428307    1.701793    1.838364
| 19> H         0.818181    1.722462    1.065635
| 20> H         2.232621    2.417904    0.213938
| 21> O        -1.589012    0.259764    0.910433
| 22> H        -0.161200   -1.272387    2.212000
| 23> H        -1.740437   -2.334403    0.723641
| 24> O        -2.226471    0.362649   -0.381631
| 25> C        -1.892357    1.633992   -0.892341
| 26> H        -2.428306    1.701794   -1.838363
| 27> H        -0.818180    1.722462   -1.065634
| 28> H        -2.232620    2.417904   -0.213937
| 29> *
| 30>
| 31> $new_job
| 32> ! ri-mp2 aug-cc-pvtz aug-cc-pvtz/c tightscf
| 33> %pal nprocs 16 end
| 34> %maxcore 3800
| 35> %base "TZ_Si-Si_66_AB"
| 36>
| 37> *xyz 0 1
| 38> Si         0.782161   -1.215616   -0.872435
| 39> Si        -0.782162   -1.215616    0.872435
| 40> O         1.589011    0.259764   -0.910432
| 41> H         0.161200   -1.272387   -2.212001
| 42> H         1.740437   -2.334403   -0.723641
| 43> O         2.226471    0.362648    0.381631
| 44> C         1.892358    1.633991    0.892341
| 45> H         2.428307    1.701793    1.838364
| 46> H         0.818181    1.722462    1.065635
| 47> H         2.232621    2.417904    0.213938
| 48> O        -1.589012    0.259764    0.910433
| 49> H        -0.161200   -1.272387    2.212000
| 50> H        -1.740437   -2.334403    0.723641
| 51> O        -2.226471    0.362649   -0.381631
| 52> C        -1.892357    1.633992   -0.892341
| 53> H        -2.428306    1.701794   -1.838363
| 54> H        -0.818180    1.722462   -1.065634
| 55> H        -2.232620    2.417904   -0.213937
| 56> *
| 57>
| 58> $new_job
| 59> ! ri-mp2 aug-cc-pvqz aug-cc-pvqz/c tightscf
| 60> %pal nprocs 16 end
| 61> %maxcore 3800
| 62> %base "QZ_Si-Si_66_AB"
| 63>
| 64> *xyz 0 1
| 65> Si         0.782161   -1.215616   -0.872435
| 66> Si        -0.782162   -1.215616    0.872435
| 67> O         1.589011    0.259764   -0.910432
| 68> H         0.161200   -1.272387   -2.212001
| 69> H         1.740437   -2.334403   -0.723641
| 70> O         2.226471    0.362648    0.381631
| 71> C         1.892358    1.633991    0.892341
| 72> H         2.428307    1.701793    1.838364
| 73> H         0.818181    1.722462    1.065635
| 74> H         2.232621    2.417904    0.213938
| 75> O        -1.589012    0.259764    0.910433
| 76> H        -0.161200   -1.272387    2.212000
| 77> H        -1.740437   -2.334403    0.723641
| 78> O        -2.226471    0.362649   -0.381631
| 79> C        -1.892357    1.633992   -0.892341
| 80> H        -2.428306    1.701794   -1.838363
| 81> H        -0.818180    1.722462   -1.065634
| 82> H        -2.232620    2.417904   -0.213937
| 83> *
| 84>
| 85>
| 86>
| 87>
| 88>                          ****END OF INPUT****
 Total Charge           Charge          ....    0
 Multiplicity           Mult            ....    1
 Number of Electrons    NEL             ....   82
MP2 TOTAL ENERGY:     -960.064801935 Eh
FINAL SINGLE POINT ENERGY      -960.064801934521
MP2 TOTAL ENERGY:     -960.479038013 Eh
FINAL SINGLE POINT ENERGY      -960.479038013427

CARTESIAN COORDINATES (ANGSTROEM)
---------------------------------
  Si     0.782161   -1.215616   -0.872435
  Si    -0.782162   -1.215616    0.872435
  O      1.589011    0.259764   -0.910432
  H      0.161200   -1.272387   -2.212001
  H      1.740437   -2.334403   -0.723641
  O      2.226471    0.362648    0.381631
  C      1.892358    1.633991    0.892341
  H      2.428307    1.701793    1.838364
  H      0.818181    1.722462    1.065635
  H      2.232621    2.417904    0.213938
  O     -1.589012    0.259764    0.910433
  H     -0.161200   -1.272387    2.212000
  H     -1.740437   -2.334403    0.723641
  O     -2.226471    0.362649   -0.381631
  C     -1.892357    1.633992   -0.892341
  H     -2.428306    1.701794   -1.838363
  H     -0.818180    1.722462   -1.065634
  H     -2.232620    2.417904   -0.213937

 Multiplicity           Mult            ....    1
 Number of Electrons    NEL             ....   82
 Basis Dimension        Dim             .... 1108

ORBITAL ENERGIES
----------------

  NO   OCC          E(Eh)            E(eV)
   0   2.0000     -68.795295     -1872.0152
   1   2.0000     -68.795294     -1872.0151
   2   2.0000     -20.632786      -561.4467
   3   2.0000     -20.632786      -561.4467
   4   2.0000     -20.607063      -560.7467
   5   2.0000     -20.607063      -560.7467
   6   2.0000     -11.283219      -307.0320
   7   2.0000     -11.283218      -307.0320
   8   2.0000      -6.141813      -167.1272
   9   2.0000      -6.141667      -167.1233
  10   2.0000      -4.248457      -115.6064
  11   2.0000      -4.248449      -115.6062
  12   2.0000      -4.248137      -115.5977
  13   2.0000      -4.247906      -115.5914
  14   2.0000      -4.247879      -115.5907
  15   2.0000      -4.247362      -115.5766
  16   2.0000      -1.478448       -40.2306
  17   2.0000      -1.477293       -40.1992
  18   2.0000      -1.220414       -33.2091
  19   2.0000      -1.220214       -33.2037
  20   2.0000      -0.927425       -25.2365
  21   2.0000      -0.923002       -25.1162
  22   2.0000      -0.771393       -20.9907
  23   2.0000      -0.728228       -19.8161
  24   2.0000      -0.684982       -18.6393
  25   2.0000      -0.677977       -18.4487
  26   2.0000      -0.666040       -18.1239
  27   2.0000      -0.662753       -18.0344
  28   2.0000      -0.652486       -17.7550
  29   2.0000      -0.621961       -16.9244
  30   2.0000      -0.571243       -15.5443
  31   2.0000      -0.566821       -15.4240
  32   2.0000      -0.542075       -14.7506
  33   2.0000      -0.530332       -14.4311
  34   2.0000      -0.518814       -14.1177
  35   2.0000      -0.512222       -13.9383
  36   2.0000      -0.487426       -13.2635
  37   2.0000      -0.474405       -12.9092
  38   2.0000      -0.457613       -12.4523
  39   2.0000      -0.443439       -12.0666
  40   2.0000      -0.396848       -10.7988
  41   0.0000       0.024500         0.6667
  42   0.0000       0.030607         0.8329
  43   0.0000       0.031094         0.8461
  44   0.0000       0.034622         0.9421
  45   0.0000       0.044409         1.2084

MULLIKEN ATOMIC CHARGES
-----------------------
   0 Si:    1.461818
   1 Si:    1.461818
   2 O :   -0.737938
   3 H :   -0.290775
   4 H :   -0.463404
   5 O :   -0.450611
   6 C :   -0.688604
   7 H :    0.491703
   8 H :    0.375987
   9 H :    0.301825
  10 O :   -0.737938
  11 H :   -0.290775
  12 H :   -0.463405
  13 O :   -0.450611
  14 C :   -0.688605
  15 H :    0.491704
  16 H :    0.375988
  17 H :    0.301824
Sum of atomic charges:   -0.0000000

LOEWDIN ATOMIC CHARGES
----------------------
   0 Si:    0.355670
   1 Si:    0.355670
   2 O :    0.275878
   3 H :   -0.278363
   4 H :   -0.273856
   5 O :    0.445017
   6 C :    0.482776
   7 H :   -0.335485
   8 H :   -0.351512
   9 H :   -0.320125
  10 O :    0.275878
  11 H :   -0.278364
  12 H :   -0.273856
  13 O :    0.445018
  14 C :    0.482777
  15 H :   -0.335486
  16 H :   -0.351512
  17 H :   -0.320125

  Mayer bond orders larger than 0.100000
B(  0-Si,  1-Si) :   0.9703 B(  0-Si,  2-O ) :   0.4269 B(  0-Si,  3-H ) :   0.8213
B(  0-Si,  4-H ) :   0.6640 B(  1-Si, 10-O ) :   0.4269 B(  1-Si, 11-H ) :   0.8213
B(  1-Si, 12-H ) :   0.6640 B(  2-O ,  5-O ) :   0.7770 B(  5-O ,  6-C ) :   0.8327
B(  6-C ,  7-H ) :   0.7638 B(  6-C ,  8-H ) :   0.8292 B(  6-C ,  9-H ) :   0.9216
B( 10-O , 13-O ) :   0.7770 B( 13-O , 14-C ) :   0.8327 B( 14-C , 15-H ) :   0.7638
B( 14-C , 16-H ) :   0.8292 B( 14-C , 17-H ) :   0.9216

MP2 TOTAL ENERGY:     -960.610960674 Eh
FINAL SINGLE POINT ENERGY      -960.610960674039

DIPOLE MOMENT
-------------
                                X             Y             Z
Electronic contribution:     -0.00001      -4.19267      -0.00000
Nuclear contribution   :      0.00000       4.62990       0.00000
                        -----------------------------------------
Total Dipole Moment    :     -0.00000       0.43723      -0.00000
                        -----------------------------------------
Magnitude (a.u.)       :      0.43723
Magnitude (Debye)      :      1.11136

Rotational constants in cm-1:     0.055425     0.033552     0.029028
Rotational constants in MHz :  1661.591638  1005.876303   870.246909

                             ****ORCA TERMINATED NORMALLY****
TOTAL RUN TIME: 0 days 2 hours 32 minutes 51 seconds 232 msec
