                         Program Version 5.0.4 -  RELEASE  -
|  1> ! ri-mp2 aug-cc-pvdz aug-cc-pvdz/c tightscf
|  2> %pal nprocs 16 end
|  3> %maxcore 3800
|  4> %base "DZ_B-F_62_AB"
|  5>
|  6> *xyz 0 1
|  7> F        -2.414072   -1.125166    0.000000
|  8> B        -1.724384   -0.000000    0.000001
|  9> F        -2.414071    1.125166   -0.000002
| 10> C        -0.175555   -0.000001    0.000001
| 11> C         0.546954    1.188345   -0.000001
| 12> C         0.546955   -1.188345    0.000002
| 13> C         1.929727   -1.136790    0.000001
| 14> C         1.929727    1.136790   -0.000001
| 15> N         2.614421    0.000000   -0.000000
| 16> H         0.039305    2.143600   -0.000001
| 17> H         2.514398    2.049673   -0.000002
| 18> H         0.039306   -2.143601    0.000003
| 19> H         2.514399   -2.049672    0.000002
| 20> *
| 21>
| 22> $new_job
| 23> ! ri-mp2 aug-cc-pvtz aug-cc-pvtz/c tightscf
| 24> %pal nprocs 16 end
| 25> %maxcore 3800
| 26> %base "TZ_B-F_62_AB"
| 27>
| 28> *xyz 0 1
| 29> F        -2.414072   -1.125166    0.000000
| 30> B        -1.724384   -0.000000    0.000001
| 31> F        -2.414071    1.125166   -0.000002
| 32> C        -0.175555   -0.000001    0.000001
| 33> C         0.546954    1.188345   -0.000001
| 34> C         0.546955   -1.188345    0.000002
| 35> C         1.929727   -1.136790    0.000001
| 36> C         1.929727    1.136790   -0.000001
| 37> N         2.614421    0.000000   -0.000000
| 38> H         0.039305    2.143600   -0.000001
| 39> H         2.514398    2.049673   -0.000002
| 40> H         0.039306   -2.143601    0.000003
| 41> H         2.514399   -2.049672    0.000002
| 42> *
| 43>
| 44> $new_job
| 45> ! ri-mp2 aug-cc-pvqz aug-cc-pvqz/c tightscf
| 46> %pal nprocs 16 end
| 47> %maxcore 3800
| 48> %base "QZ_B-F_62_AB"
| 49>
| 50> *xyz 0 1
| 51> F        -2.414072   -1.125166    0.000000
| 52> B        -1.724384   -0.000000    0.000001
| 53> F        -2.414071    1.125166   -0.000002
| 54> C        -0.175555   -0.000001    0.000001
| 55> C         0.546954    1.188345   -0.000001
| 56> C         0.546955   -1.188345    0.000002
| 57> C         1.929727   -1.136790    0.000001
| 58> C         1.929727    1.136790   -0.000001
| 59> N         2.614421    0.000000   -0.000000
| 60> H         0.039305    2.143600   -0.000001
| 61> H         2.514398    2.049673   -0.000002
| 62> H         0.039306   -2.143601    0.000003
| 63> H         2.514399   -2.049672    0.000002
| 64> *
| 65>
| 66>
| 67>
| 68>
| 69>                          ****END OF INPUT****
 Total Charge           Charge          ....    0
 Multiplicity           Mult            ....    1
 Number of Electrons    NEL             ....   64
MP2 TOTAL ENERGY:     -471.177379288 Eh
FINAL SINGLE POINT ENERGY      -471.177379288155
MP2 TOTAL ENERGY:     -471.582361315 Eh
FINAL SINGLE POINT ENERGY      -471.582361314592

CARTESIAN COORDINATES (ANGSTROEM)
---------------------------------
  F     -2.414072   -1.125166    0.000000
  B     -1.724384   -0.000000    0.000001
  F     -2.414071    1.125166   -0.000002
  C     -0.175555   -0.000001    0.000001
  C      0.546954    1.188345   -0.000001
  C      0.546955   -1.188345    0.000002
  C      1.929727   -1.136790    0.000001
  C      1.929727    1.136790   -0.000001
  N      2.614421    0.000000   -0.000000
  H      0.039305    2.143600   -0.000001
  H      2.514398    2.049673   -0.000002
  H      0.039306   -2.143601    0.000003
  H      2.514399   -2.049672    0.000002

 Multiplicity           Mult            ....    1
 Number of Electrons    NEL             ....   64
 Basis Dimension        Dim             ....  904

ORBITAL ENERGIES
----------------

  NO   OCC          E(Eh)            E(eV)
   0   2.0000     -26.318990      -716.1761
   1   2.0000     -26.318973      -716.1757
   2   2.0000     -15.580279      -423.9609
   3   2.0000     -11.282069      -307.0007
   4   2.0000     -11.282051      -307.0002
   5   2.0000     -11.257478      -306.3315
   6   2.0000     -11.257338      -306.3277
   7   2.0000     -11.252126      -306.1859
   8   2.0000      -7.717736      -210.0103
   9   2.0000      -1.653309       -44.9888
  10   2.0000      -1.621110       -44.1126
  11   2.0000      -1.278653       -34.7939
  12   2.0000      -1.107004       -30.1231
  13   2.0000      -1.050477       -28.5849
  14   2.0000      -0.884892       -24.0791
  15   2.0000      -0.874061       -23.7844
  16   2.0000      -0.823445       -22.4071
  17   2.0000      -0.769626       -20.9426
  18   2.0000      -0.761676       -20.7263
  19   2.0000      -0.722187       -19.6517
  20   2.0000      -0.692677       -18.8487
  21   2.0000      -0.681821       -18.5533
  22   2.0000      -0.667781       -18.1712
  23   2.0000      -0.663714       -18.0606
  24   2.0000      -0.655331       -17.8325
  25   2.0000      -0.610967       -16.6253
  26   2.0000      -0.559082       -15.2134
  27   2.0000      -0.554219       -15.0811
  28   2.0000      -0.531634       -14.4665
  29   2.0000      -0.430510       -11.7148
  30   2.0000      -0.405112       -11.0237
  31   2.0000      -0.361260        -9.8304
  32   0.0000       0.020536         0.5588
  33   0.0000       0.027633         0.7519
  34   0.0000       0.033582         0.9138
  35   0.0000       0.035486         0.9656
  36   0.0000       0.042700         1.1619

MULLIKEN ATOMIC CHARGES
-----------------------
   0 F :   -0.869086
   1 B :    1.919583
   2 F :   -0.869086
   3 C :    0.349838
   4 C :   -0.555956
   5 C :   -0.555954
   6 C :   -0.165642
   7 C :   -0.165641
   8 N :   -0.572915
   9 H :    0.280066
  10 H :    0.462364
  11 H :    0.280066
  12 H :    0.462365
Sum of atomic charges:    0.0000000

LOEWDIN ATOMIC CHARGES
----------------------
   0 F :    0.838501
   1 B :   -1.727241
   2 F :    0.838502
   3 C :   -0.007044
   4 C :    0.305724
   5 C :    0.305722
   6 C :    0.091671
   7 C :    0.091672
   8 N :    0.602305
   9 H :   -0.323307
  10 H :   -0.346600
  11 H :   -0.323306
  12 H :   -0.346600

  Mayer bond orders larger than 0.100000
B(  0-F ,  1-B ) :   0.1647 B(  1-B ,  2-F ) :   0.1647 B(  1-B ,  3-C ) :   0.9620
B(  3-C ,  4-C ) :   0.9124 B(  3-C ,  5-C ) :   0.9124 B(  3-C ,  6-C ) :  -0.2880
B(  3-C ,  7-C ) :  -0.2880 B(  4-C ,  6-C ) :   0.1029 B(  4-C ,  7-C ) :   1.3689
B(  4-C ,  9-H ) :   0.9668 B(  4-C , 10-H ) :  -0.1512 B(  5-C ,  6-C ) :   1.3689
B(  5-C ,  7-C ) :   0.1029 B(  5-C , 11-H ) :   0.9668 B(  5-C , 12-H ) :  -0.1512
B(  6-C ,  8-N ) :   1.1875 B(  6-C , 12-H ) :   0.9010 B(  7-C ,  8-N ) :   1.1875
B(  7-C , 10-H ) :   0.9010 B(  8-N , 10-H ) :  -0.1115 B(  8-N , 12-H ) :  -0.1115

MP2 TOTAL ENERGY:     -471.712330763 Eh
FINAL SINGLE POINT ENERGY      -471.712330762945

DIPOLE MOMENT
-------------
                                X             Y             Z
Electronic contribution:    -10.69388       0.00000      -0.00000
Nuclear contribution   :     10.68461       0.00000       0.00000
                        -----------------------------------------
Total Dipole Moment    :     -0.00926       0.00000       0.00000
                        -----------------------------------------
Magnitude (a.u.)       :      0.00926
Magnitude (Debye)      :      0.02354

Rotational constants in cm-1:     0.128879     0.036800     0.028626
Rotational constants in MHz :  3863.686416  1103.246174   858.195109

                             ****ORCA TERMINATED NORMALLY****
TOTAL RUN TIME: 0 days 0 hours 18 minutes 52 seconds 102 msec
