                         Program Version 5.0.4 -  RELEASE  -
|  1> ! ri-mp2 aug-cc-pvdz aug-cc-pvdz/c tightscf
|  2> %pal nprocs 16 end
|  3> %maxcore 3800
|  4> %base "DZ_P-C_38_AB"
|  5>
|  6> *xyz 0 1
|  7> C         0.538184   -0.000004    0.704364
|  8> C         1.179204   -1.192827    0.386186
|  9> C         1.179202    1.192821    0.386192
| 10> C         2.413867    1.195371   -0.238986
| 11> C         3.035732    0.000001   -0.557657
| 12> C         2.413869   -1.195372   -0.238992
| 13> H         4.001934    0.000003   -1.044031
| 14> H         2.894612   -2.136048   -0.473806
| 15> H         0.705270   -2.133345    0.638275
| 16> H         0.705267    2.133337    0.638286
| 17> H         2.894608    2.136049   -0.473796
| 18> C        -0.812102   -0.000007    1.348020
| 19> P        -2.307372    0.000005    0.232650
| 20> H        -0.929075    0.873454    1.991941
| 21> H        -0.929079   -0.873478    1.991927
| 22> C        -1.930487   -1.400630   -0.893932
| 23> C        -1.930464    1.400636   -0.893929
| 24> H        -1.973962   -2.341162   -0.344363
| 25> H        -0.954687   -1.314315   -1.372210
| 26> H        -2.698886   -1.436576   -1.666506
| 27> H        -1.973923    2.341168   -0.344357
| 28> H        -2.698864    1.436597   -1.666501
| 29> H        -0.954667    1.314306   -1.372209
| 30> *
| 31>
| 32> $new_job
| 33> ! ri-mp2 aug-cc-pvtz aug-cc-pvtz/c tightscf
| 34> %pal nprocs 16 end
| 35> %maxcore 3800
| 36> %base "TZ_P-C_38_AB"
| 37>
| 38> *xyz 0 1
| 39> C         0.538184   -0.000004    0.704364
| 40> C         1.179204   -1.192827    0.386186
| 41> C         1.179202    1.192821    0.386192
| 42> C         2.413867    1.195371   -0.238986
| 43> C         3.035732    0.000001   -0.557657
| 44> C         2.413869   -1.195372   -0.238992
| 45> H         4.001934    0.000003   -1.044031
| 46> H         2.894612   -2.136048   -0.473806
| 47> H         0.705270   -2.133345    0.638275
| 48> H         0.705267    2.133337    0.638286
| 49> H         2.894608    2.136049   -0.473796
| 50> C        -0.812102   -0.000007    1.348020
| 51> P        -2.307372    0.000005    0.232650
| 52> H        -0.929075    0.873454    1.991941
| 53> H        -0.929079   -0.873478    1.991927
| 54> C        -1.930487   -1.400630   -0.893932
| 55> C        -1.930464    1.400636   -0.893929
| 56> H        -1.973962   -2.341162   -0.344363
| 57> H        -0.954687   -1.314315   -1.372210
| 58> H        -2.698886   -1.436576   -1.666506
| 59> H        -1.973923    2.341168   -0.344357
| 60> H        -2.698864    1.436597   -1.666501
| 61> H        -0.954667    1.314306   -1.372209
| 62> *
| 63>
| 64> $new_job
| 65> ! ri-mp2 aug-cc-pvqz aug-cc-pvqz/c tightscf
| 66> %pal nprocs 16 end
| 67> %maxcore 3800
| 68> %base "QZ_P-C_38_AB"
| 69>
| 70> *xyz 0 1
| 71> C         0.538184   -0.000004    0.704364
| 72> C         1.179204   -1.192827    0.386186
| 73> C         1.179202    1.192821    0.386192
| 74> C         2.413867    1.195371   -0.238986
| 75> C         3.035732    0.000001   -0.557657
| 76> C         2.413869   -1.195372   -0.238992
| 77> H         4.001934    0.000003   -1.044031
| 78> H         2.894612   -2.136048   -0.473806
| 79> H         0.705270   -2.133345    0.638275
| 80> H         0.705267    2.133337    0.638286
| 81> H         2.894608    2.136049   -0.473796
| 82> C        -0.812102   -0.000007    1.348020
| 83> P        -2.307372    0.000005    0.232650
| 84> H        -0.929075    0.873454    1.991941
| 85> H        -0.929079   -0.873478    1.991927
| 86> C        -1.930487   -1.400630   -0.893932
| 87> C        -1.930464    1.400636   -0.893929
| 88> H        -1.973962   -2.341162   -0.344363
| 89> H        -0.954687   -1.314315   -1.372210
| 90> H        -2.698886   -1.436576   -1.666506
| 91> H        -1.973923    2.341168   -0.344357
| 92> H        -2.698864    1.436597   -1.666501
| 93> H        -0.954667    1.314306   -1.372209
| 94> *
| 95>
| 96>
| 97>
| 98>
| 99>                          ****END OF INPUT****
 Total Charge           Charge          ....    0
 Multiplicity           Mult            ....    1
 Number of Electrons    NEL             ....   82
MP2 TOTAL ENERGY:     -690.560974252 Eh
FINAL SINGLE POINT ENERGY      -690.560974252467
MP2 TOTAL ENERGY:     -690.926187877 Eh
FINAL SINGLE POINT ENERGY      -690.926187876914

CARTESIAN COORDINATES (ANGSTROEM)
---------------------------------
  C      0.538184   -0.000004    0.704364
  C      1.179204   -1.192827    0.386186
  C      1.179202    1.192821    0.386192
  C      2.413867    1.195371   -0.238986
  C      3.035732    0.000001   -0.557657
  C      2.413869   -1.195372   -0.238992
  H      4.001934    0.000003   -1.044031
  H      2.894612   -2.136048   -0.473806
  H      0.705270   -2.133345    0.638275
  H      0.705267    2.133337    0.638286
  H      2.894608    2.136049   -0.473796
  C     -0.812102   -0.000007    1.348020
  P     -2.307372    0.000005    0.232650
  H     -0.929075    0.873454    1.991941
  H     -0.929079   -0.873478    1.991927
  C     -1.930487   -1.400630   -0.893932
  C     -1.930464    1.400636   -0.893929
  H     -1.973962   -2.341162   -0.344363
  H     -0.954687   -1.314315   -1.372210
  H     -2.698886   -1.436576   -1.666506
  H     -1.973923    2.341168   -0.344357
  H     -2.698864    1.436597   -1.666501
  H     -0.954667    1.314306   -1.372209

 Multiplicity           Mult            ....    1
 Number of Electrons    NEL             ....   82
 Basis Dimension        Dim             .... 1402

ORBITAL ENERGIES
----------------

  NO   OCC          E(Eh)            E(eV)
   0   2.0000     -79.927124     -2174.9276
   1   2.0000     -11.240761      -305.8766
   2   2.0000     -11.232715      -305.6577
   3   2.0000     -11.232539      -305.6529
   4   2.0000     -11.228762      -305.5502
   5   2.0000     -11.228505      -305.5432
   6   2.0000     -11.228391      -305.5401
   7   2.0000     -11.228213      -305.5352
   8   2.0000     -11.214075      -305.1505
   9   2.0000     -11.214066      -305.1502
  10   2.0000      -7.468426      -203.2262
  11   2.0000      -5.362549      -145.9224
  12   2.0000      -5.362462      -145.9200
  13   2.0000      -5.361330      -145.8892
  14   2.0000      -1.161596       -31.6086
  15   2.0000      -1.059774       -28.8379
  16   2.0000      -1.017780       -27.6952
  17   2.0000      -1.000069       -27.2133
  18   2.0000      -0.934108       -25.4184
  19   2.0000      -0.932117       -25.3642
  20   2.0000      -0.829937       -22.5837
  21   2.0000      -0.806542       -21.9471
  22   2.0000      -0.720945       -19.6179
  23   2.0000      -0.689707       -18.7679
  24   2.0000      -0.642752       -17.4902
  25   2.0000      -0.636047       -17.3077
  26   2.0000      -0.597334       -16.2543
  27   2.0000      -0.588676       -16.0187
  28   2.0000      -0.582120       -15.8403
  29   2.0000      -0.569747       -15.5036
  30   2.0000      -0.567347       -15.4383
  31   2.0000      -0.548943       -14.9375
  32   2.0000      -0.536135       -14.5890
  33   2.0000      -0.512338       -13.9414
  34   2.0000      -0.496169       -13.5015
  35   2.0000      -0.488953       -13.3051
  36   2.0000      -0.454984       -12.3807
  37   2.0000      -0.454009       -12.3542
  38   2.0000      -0.341062        -9.2808
  39   2.0000      -0.339923        -9.2498
  40   2.0000      -0.313353        -8.5268
  41   0.0000       0.024194         0.6583
  42   0.0000       0.027833         0.7574
  43   0.0000       0.029627         0.8062
  44   0.0000       0.032682         0.8893
  45   0.0000       0.039959         1.0874

MULLIKEN ATOMIC CHARGES
-----------------------
   0 C :    0.765055
   1 C :   -0.553222
   2 C :   -0.553219
   3 C :   -0.326761
   4 C :   -0.430045
   5 C :   -0.326774
   6 H :    0.322360
   7 H :    0.227713
   8 H :    0.258877
   9 H :    0.258867
  10 H :    0.227718
  11 C :   -0.541769
  12 P :    0.643823
  13 H :    0.248669
  14 H :    0.248660
  15 C :   -1.220347
  16 C :   -1.220344
  17 H :    0.304593
  18 H :    0.340380
  19 H :    0.340402
  20 H :    0.304588
  21 H :    0.340402
  22 H :    0.340377
Sum of atomic charges:   -0.0000000

LOEWDIN ATOMIC CHARGES
----------------------
   0 C :   -0.153735
   1 C :    0.318003
   2 C :    0.318002
   3 C :    0.347001
   4 C :    0.336885
   5 C :    0.347001
   6 H :   -0.323470
   7 H :   -0.317656
   8 H :   -0.316375
   9 H :   -0.316375
  10 H :   -0.317655
  11 C :    0.377461
  12 P :    0.996900
  13 H :   -0.360534
  14 H :   -0.360534
  15 C :    0.778139
  16 C :    0.778139
  17 H :   -0.350034
  18 H :   -0.361068
  19 H :   -0.354496
  20 H :   -0.350033
  21 H :   -0.354496
  22 H :   -0.361069

  Mayer bond orders larger than 0.100000
B(  0-C ,  1-C ) :   0.9866 B(  0-C ,  2-C ) :   0.9866 B(  0-C ,  3-C ) :  -0.3376
B(  0-C ,  5-C ) :  -0.3376 B(  0-C , 11-C ) :   0.6873 B(  1-C ,  3-C ) :   0.1334
B(  1-C ,  5-C ) :   1.3524 B(  1-C ,  7-H ) :  -0.1575 B(  1-C ,  8-H ) :   1.0038
B(  1-C , 11-C ) :  -0.2014 B(  2-C ,  3-C ) :   1.3524 B(  2-C ,  5-C ) :   0.1334
B(  2-C ,  9-H ) :   1.0038 B(  2-C , 10-H ) :  -0.1575 B(  2-C , 11-C ) :  -0.2014
B(  3-C ,  4-C ) :   1.1295 B(  3-C , 10-H ) :   1.1722 B(  4-C ,  5-C ) :   1.1295
B(  4-C ,  6-H ) :   1.0134 B(  4-C ,  7-H ) :  -0.1080 B(  4-C , 10-H ) :  -0.1080
B(  5-C ,  7-H ) :   1.1722 B( 11-C , 12-P ) :   0.6573 B( 11-C , 13-H ) :   1.0277
B( 11-C , 14-H ) :   1.0277 B( 12-P , 15-C ) :   0.8831 B( 12-P , 16-C ) :   0.8831
B( 15-C , 17-H ) :   0.8975 B( 15-C , 18-H ) :   0.8429 B( 15-C , 19-H ) :   0.9496
B( 16-C , 20-H ) :   0.8975 B( 16-C , 21-H ) :   0.9496 B( 16-C , 22-H ) :   0.8429

MP2 TOTAL ENERGY:     -691.038910407 Eh
FINAL SINGLE POINT ENERGY      -691.038910406984

DIPOLE MOMENT
-------------
                                X             Y             Z
Electronic contribution:      0.09783       0.00001       3.49994
Nuclear contribution   :      0.28946      -0.00001      -3.76352
                        -----------------------------------------
Total Dipole Moment    :      0.38729      -0.00000      -0.26358
                        -----------------------------------------
Magnitude (a.u.)       :      0.46847
Magnitude (Debye)      :      1.19076

Rotational constants in cm-1:     0.072828     0.024527     0.022056
Rotational constants in MHz :  2183.328265   735.301248   661.225939

                             ****ORCA TERMINATED NORMALLY****
TOTAL RUN TIME: 0 days 1 hours 28 minutes 23 seconds 121 msec
