                         Program Version 5.0.4 -  RELEASE  -
|  1> ! ri-mp2 aug-cc-pvdz aug-cc-pvdz/c tightscf
|  2> %pal nprocs 16 end
|  3> %maxcore 3800
|  4> %base "DZ_Si-Si_44_A"
|  5> %scf
|  6> STABPerform true
|  7> STABRestartUHFifUnstable true
|  8> end
|  9>
| 10> *xyz 0 2
| 11> Si         1.534028   -0.196649   -0.022656
| 12> C        -1.198322    0.151357    0.386948
| 13> O        -1.988883   -0.542075   -0.192588
| 14> C        -0.038680    0.831899   -0.262293
| 15> H         0.127958    1.810067    0.192343
| 16> H        -0.228749    0.943466   -1.329437
| 17> H         1.848532   -0.338163    1.418941
| 18> H         1.390525   -1.527366   -0.653730
| 19> H        -1.281581    0.302143    1.481835
| 20> *
| 21>
| 22> $new_job
| 23> ! ri-mp2 aug-cc-pvtz aug-cc-pvtz/c tightscf
| 24> %pal nprocs 16 end
| 25> %maxcore 3800
| 26> %base "TZ_Si-Si_44_A"
| 27>
| 28> *xyz 0 2
| 29> Si         1.534028   -0.196649   -0.022656
| 30> C        -1.198322    0.151357    0.386948
| 31> O        -1.988883   -0.542075   -0.192588
| 32> C        -0.038680    0.831899   -0.262293
| 33> H         0.127958    1.810067    0.192343
| 34> H        -0.228749    0.943466   -1.329437
| 35> H         1.848532   -0.338163    1.418941
| 36> H         1.390525   -1.527366   -0.653730
| 37> H        -1.281581    0.302143    1.481835
| 38> *
| 39>
| 40> $new_job
| 41> ! ri-mp2 aug-cc-pvqz aug-cc-pvqz/c tightscf
| 42> %pal nprocs 16 end
| 43> %maxcore 3800
| 44> %base "QZ_Si-Si_44_A"
| 45>
| 46> *xyz 0 2
| 47> Si         1.534028   -0.196649   -0.022656
| 48> C        -1.198322    0.151357    0.386948
| 49> O        -1.988883   -0.542075   -0.192588
| 50> C        -0.038680    0.831899   -0.262293
| 51> H         0.127958    1.810067    0.192343
| 52> H        -0.228749    0.943466   -1.329437
| 53> H         1.848532   -0.338163    1.418941
| 54> H         1.390525   -1.527366   -0.653730
| 55> H        -1.281581    0.302143    1.481835
| 56> *
| 57>
| 58>
| 59>
| 60>
| 61>                          ****END OF INPUT****
 Total Charge           Charge          ....    0
 Multiplicity           Mult            ....    2
 Number of Electrons    NEL             ....   39
MP2 TOTAL ENERGY:     -442.974722297 Eh
FINAL SINGLE POINT ENERGY      -442.974722297068
MP2 TOTAL ENERGY:     -443.141205613 Eh
FINAL SINGLE POINT ENERGY      -443.141205612582

CARTESIAN COORDINATES (ANGSTROEM)
---------------------------------
  Si     1.534028   -0.196649   -0.022656
  C     -1.198322    0.151357    0.386948
  O     -1.988883   -0.542075   -0.192588
  C     -0.038680    0.831899   -0.262293
  H      0.127958    1.810067    0.192343
  H     -0.228749    0.943466   -1.329437
  H      1.848532   -0.338163    1.418941
  H      1.390525   -1.527366   -0.653730
  H     -1.281581    0.302143    1.481835

 Multiplicity           Mult            ....    2
 Number of Electrons    NEL             ....   39
 Basis Dimension        Dim             ....  554

ORBITAL ENERGIES
----------------
                 SPIN UP ORBITALS
  NO   OCC          E(Eh)            E(eV)
   0   1.0000     -68.796664     -1872.0524
   1   1.0000     -20.556908      -559.3819
   2   1.0000     -11.336913      -308.4931
   3   1.0000     -11.240368      -305.8660
   4   1.0000      -6.146833      -167.2638
   5   1.0000      -4.259515      -115.9073
   6   1.0000      -4.249545      -115.6360
   7   1.0000      -4.249443      -115.6332
   8   1.0000      -1.403281       -38.1852
   9   1.0000      -1.027015       -27.9465
  10   1.0000      -0.806469       -21.9451
  11   1.0000      -0.721141       -19.6232
  12   1.0000      -0.679184       -18.4815
  13   1.0000      -0.634342       -17.2613
  14   1.0000      -0.579440       -15.7674
  15   1.0000      -0.558405       -15.1950
  16   1.0000      -0.495348       -13.4791
  17   1.0000      -0.469088       -12.7645
  18   1.0000      -0.432435       -11.7671
  19   1.0000      -0.342701        -9.3254
  20   0.0000       0.020954         0.5702
  21   0.0000       0.031402         0.8545
  22   0.0000       0.033276         0.9055
  23   0.0000       0.038738         1.0541
  24   0.0000       0.052091         1.4175

                 SPIN DOWN ORBITALS
  NO   OCC          E(Eh)            E(eV)
   0   1.0000     -68.790885     -1871.8952
   1   1.0000     -20.553794      -559.2972
   2   1.0000     -11.337378      -308.5057
   3   1.0000     -11.240082      -305.8582
   4   1.0000      -6.137908      -167.0210
   5   1.0000      -4.245675      -115.5307
   6   1.0000      -4.245612      -115.5290
   7   1.0000      -4.237067      -115.2965
   8   1.0000      -1.396694       -38.0060
   9   1.0000      -1.022412       -27.8212
  10   1.0000      -0.803548       -21.8657
  11   1.0000      -0.687140       -18.6980
  12   1.0000      -0.672526       -18.3004
  13   1.0000      -0.629606       -17.1324
  14   1.0000      -0.576529       -15.6882
  15   1.0000      -0.545413       -14.8414
  16   1.0000      -0.487300       -13.2601
  17   1.0000      -0.459629       -12.5072
  18   1.0000      -0.423036       -11.5114
  19   0.0000       0.015743         0.4284
  20   0.0000       0.025171         0.6850
  21   0.0000       0.032294         0.8788
  22   0.0000       0.036634         0.9969
  23   0.0000       0.044237         1.2037

MULLIKEN ATOMIC CHARGES AND SPIN POPULATIONS
--------------------------------------------
   0 Si:    0.619660    0.966216
   1 C :    0.218596   -0.046531
   2 O :   -0.736605    0.072251
   3 C :   -0.613943   -0.026341
   4 H :    0.265234    0.003722
   5 H :    0.254934    0.002877
   6 H :   -0.218170    0.007827
   7 H :   -0.203812    0.012455
   8 H :    0.414107    0.007523
Sum of atomic charges         :    0.0000000

LOEWDIN ATOMIC CHARGES AND SPIN POPULATIONS
-------------------------------------------
   0 Si:    1.101022    0.536367
   1 C :   -0.374473    0.010322
   2 O :    0.702158    0.045971
   3 C :    0.366152    0.126969
   4 H :   -0.385359    0.015351
   5 H :   -0.394471    0.013333
   6 H :   -0.332949    0.127479
   7 H :   -0.327558    0.126198
   8 H :   -0.354522   -0.001990

  Mayer bond orders larger than 0.100000
B(  0-Si,  3-C ) :   0.7116 B(  0-Si,  6-H ) :   0.8647 B(  0-Si,  7-H ) :   0.8805
B(  1-C ,  2-O ) :   1.5863 B(  1-C ,  3-C ) :   1.0579 B(  1-C ,  8-H ) :   0.7904
B(  3-C ,  4-H ) :   0.9331 B(  3-C ,  5-H ) :   0.9152

MP2 TOTAL ENERGY:     -443.194953202 Eh
FINAL SINGLE POINT ENERGY      -443.194953202279

DIPOLE MOMENT
-------------
                                X             Y             Z
Electronic contribution:     -0.88105      -0.39781      -0.74011
Nuclear contribution   :      1.73452       1.19514       1.10977
                        -----------------------------------------
Total Dipole Moment    :      0.85347       0.79732       0.36966
                        -----------------------------------------
Magnitude (a.u.)       :      1.22506
Magnitude (Debye)      :      3.11387

Rotational constants in cm-1:     0.548166     0.103105     0.096419
Rotational constants in MHz : 16433.590352  3090.997276  2890.562146

                             ****ORCA TERMINATED NORMALLY****
TOTAL RUN TIME: 0 days 0 hours 41 minutes 36 seconds 70 msec
