                         Program Version 5.0.4 -  RELEASE  -
|  1> ! ri-mp2 aug-cc-pvdz aug-cc-pvdz/c tightscf
|  2> %pal nprocs 16 end
|  3> %maxcore 3800
|  4> %base "DZ_Si-Si_141_AB"
|  5> %scf
|  6> STABPerform true
|  7> STABRestartUHFifUnstable true
|  8> end
|  9>
| 10> *xyz 0 1
| 11> Si         1.195710   -1.139656   -0.962781
| 12> Si        -0.869459   -1.361142    0.118771
| 13> P        -1.876746    0.630633    0.399404
| 14> H        -0.665564   -1.955014    1.462825
| 15> H        -1.743026   -2.288136   -0.651162
| 16> P         2.651912    0.310084   -0.040498
| 17> H         0.970713   -0.701111   -2.362800
| 18> H         1.837228   -2.476297   -1.007878
| 19> C        -2.154796    1.076889   -1.373114
| 20> H        -2.632968    0.281608   -1.945989
| 21> H        -1.204692    1.325130   -1.844887
| 22> H        -2.786493    1.964309   -1.417282
| 23> C        -3.570785    0.061378    0.868367
| 24> H        -3.542119   -0.386980    1.860947
| 25> H        -3.984980   -0.663272    0.166769
| 26> H        -4.235334    0.924691    0.913957
| 27> C         2.345068    0.011821    1.757947
| 28> H         2.650920   -1.000524    2.021048
| 29> H         1.303202    0.152775    2.045086
| 30> H         2.959537    0.701885    2.336514
| 31> C         1.739602    1.899798   -0.277672
| 32> H         1.663278    2.120318   -1.342209
| 33> H         2.318317    2.701449    0.182034
| 34> H         0.742453    1.900275    0.162419
| 35> *
| 36>
| 37> $new_job
| 38> ! ri-mp2 aug-cc-pvtz aug-cc-pvtz/c tightscf
| 39> %pal nprocs 16 end
| 40> %maxcore 3800
| 41> %base "TZ_Si-Si_141_AB"
| 42>
| 43> *xyz 0 1
| 44> Si         1.195710   -1.139656   -0.962781
| 45> Si        -0.869459   -1.361142    0.118771
| 46> P        -1.876746    0.630633    0.399404
| 47> H        -0.665564   -1.955014    1.462825
| 48> H        -1.743026   -2.288136   -0.651162
| 49> P         2.651912    0.310084   -0.040498
| 50> H         0.970713   -0.701111   -2.362800
| 51> H         1.837228   -2.476297   -1.007878
| 52> C        -2.154796    1.076889   -1.373114
| 53> H        -2.632968    0.281608   -1.945989
| 54> H        -1.204692    1.325130   -1.844887
| 55> H        -2.786493    1.964309   -1.417282
| 56> C        -3.570785    0.061378    0.868367
| 57> H        -3.542119   -0.386980    1.860947
| 58> H        -3.984980   -0.663272    0.166769
| 59> H        -4.235334    0.924691    0.913957
| 60> C         2.345068    0.011821    1.757947
| 61> H         2.650920   -1.000524    2.021048
| 62> H         1.303202    0.152775    2.045086
| 63> H         2.959537    0.701885    2.336514
| 64> C         1.739602    1.899798   -0.277672
| 65> H         1.663278    2.120318   -1.342209
| 66> H         2.318317    2.701449    0.182034
| 67> H         0.742453    1.900275    0.162419
| 68> *
| 69>
| 70> $new_job
| 71> ! ri-mp2 aug-cc-pvqz aug-cc-pvqz/c tightscf
| 72> %pal nprocs 16 end
| 73> %maxcore 3800
| 74> %base "QZ_Si-Si_141_AB"
| 75>
| 76> *xyz 0 1
| 77> Si         1.195710   -1.139656   -0.962781
| 78> Si        -0.869459   -1.361142    0.118771
| 79> P        -1.876746    0.630633    0.399404
| 80> H        -0.665564   -1.955014    1.462825
| 81> H        -1.743026   -2.288136   -0.651162
| 82> P         2.651912    0.310084   -0.040498
| 83> H         0.970713   -0.701111   -2.362800
| 84> H         1.837228   -2.476297   -1.007878
| 85> C        -2.154796    1.076889   -1.373114
| 86> H        -2.632968    0.281608   -1.945989
| 87> H        -1.204692    1.325130   -1.844887
| 88> H        -2.786493    1.964309   -1.417282
| 89> C        -3.570785    0.061378    0.868367
| 90> H        -3.542119   -0.386980    1.860947
| 91> H        -3.984980   -0.663272    0.166769
| 92> H        -4.235334    0.924691    0.913957
| 93> C         2.345068    0.011821    1.757947
| 94> H         2.650920   -1.000524    2.021048
| 95> H         1.303202    0.152775    2.045086
| 96> H         2.959537    0.701885    2.336514
| 97> C         1.739602    1.899798   -0.277672
| 98> H         1.663278    2.120318   -1.342209
| 99> H         2.318317    2.701449    0.182034
|100> H         0.742453    1.900275    0.162419
|101> *
|102>
|103>
|104>
|105>
|106>                          ****END OF INPUT****
 Total Charge           Charge          ....    0
 Multiplicity           Mult            ....    1
 Number of Electrons    NEL             ....   98
MP2 TOTAL ENERGY:    -1421.246289951 Eh
FINAL SINGLE POINT ENERGY     -1421.246289950660
MP2 TOTAL ENERGY:    -1421.566090745 Eh
FINAL SINGLE POINT ENERGY     -1421.566090745008

CARTESIAN COORDINATES (ANGSTROEM)
---------------------------------
  Si     1.195710   -1.139656   -0.962781
  Si    -0.869459   -1.361142    0.118771
  P     -1.876746    0.630633    0.399404
  H     -0.665564   -1.955014    1.462825
  H     -1.743026   -2.288136   -0.651162
  P      2.651912    0.310084   -0.040498
  H      0.970713   -0.701111   -2.362800
  H      1.837228   -2.476297   -1.007878
  C     -2.154796    1.076889   -1.373114
  H     -2.632968    0.281608   -1.945989
  H     -1.204692    1.325130   -1.844887
  H     -2.786493    1.964309   -1.417282
  C     -3.570785    0.061378    0.868367
  H     -3.542119   -0.386980    1.860947
  H     -3.984980   -0.663272    0.166769
  H     -4.235334    0.924691    0.913957
  C      2.345068    0.011821    1.757947
  H      2.650920   -1.000524    2.021048
  H      1.303202    0.152775    2.045086
  H      2.959537    0.701885    2.336514
  C      1.739602    1.899798   -0.277672
  H      1.663278    2.120318   -1.342209
  H      2.318317    2.701449    0.182034
  H      0.742453    1.900275    0.162419

 Multiplicity           Mult            ....    1
 Number of Electrons    NEL             ....   98
 Basis Dimension        Dim             .... 1392

ORBITAL ENERGIES
----------------

  NO   OCC          E(Eh)            E(eV)
   0   2.0000     -79.926573     -2174.9126
   1   2.0000     -79.923072     -2174.8174
   2   2.0000     -68.766471     -1871.2308
   3   2.0000     -68.765066     -1871.1926
   4   2.0000     -11.229199      -305.5620
   5   2.0000     -11.227925      -305.5274
   6   2.0000     -11.223642      -305.4108
   7   2.0000     -11.221651      -305.3567
   8   2.0000      -7.469845      -203.2648
   9   2.0000      -7.465936      -203.1585
  10   2.0000      -6.117251      -166.4588
  11   2.0000      -6.115731      -166.4175
  12   2.0000      -5.363903      -145.9592
  13   2.0000      -5.363882      -145.9587
  14   2.0000      -5.362921      -145.9325
  15   2.0000      -5.359974      -145.8523
  16   2.0000      -5.359950      -145.8516
  17   2.0000      -5.358965      -145.8248
  18   2.0000      -4.223221      -114.9197
  19   2.0000      -4.223135      -114.9174
  20   2.0000      -4.223039      -114.9147
  21   2.0000      -4.221707      -114.8785
  22   2.0000      -4.221555      -114.8743
  23   2.0000      -4.221490      -114.8726
  24   2.0000      -1.008213       -27.4349
  25   2.0000      -1.002018       -27.2663
  26   2.0000      -0.943691       -25.6791
  27   2.0000      -0.938262       -25.5314
  28   2.0000      -0.782253       -21.2862
  29   2.0000      -0.755704       -20.5638
  30   2.0000      -0.690556       -18.7910
  31   2.0000      -0.640483       -17.4284
  32   2.0000      -0.595327       -16.1997
  33   2.0000      -0.586770       -15.9668
  34   2.0000      -0.586206       -15.9515
  35   2.0000      -0.579477       -15.7684
  36   2.0000      -0.565297       -15.3825
  37   2.0000      -0.560810       -15.2604
  38   2.0000      -0.559884       -15.2352
  39   2.0000      -0.552930       -15.0460
  40   2.0000      -0.492437       -13.3999
  41   2.0000      -0.482289       -13.1237
  42   2.0000      -0.472309       -12.8522
  43   2.0000      -0.459044       -12.4912
  44   2.0000      -0.433347       -11.7920
  45   2.0000      -0.415577       -11.3084
  46   2.0000      -0.400288       -10.8924
  47   2.0000      -0.330957        -9.0058
  48   2.0000      -0.317491        -8.6394
  49   0.0000       0.021827         0.5939
  50   0.0000       0.029051         0.7905
  51   0.0000       0.029815         0.8113
  52   0.0000       0.031099         0.8462
  53   0.0000       0.041177         1.1205

MULLIKEN ATOMIC CHARGES
-----------------------
   0 Si:    1.126638
   1 Si:    0.994792
   2 P :    0.602761
   3 H :   -0.420580
   4 H :   -0.598385
   5 P :    0.275384
   6 H :   -0.374638
   7 H :   -0.597817
   8 C :   -1.295346
   9 H :    0.290256
  10 H :    0.396470
  11 H :    0.382571
  12 C :   -1.409369
  13 H :    0.351096
  14 H :    0.288327
  15 H :    0.372898
  16 C :   -1.259483
  17 H :    0.321528
  18 H :    0.349517
  19 H :    0.386012
  20 C :   -1.133415
  21 H :    0.317296
  22 H :    0.296094
  23 H :    0.337393
Sum of atomic charges:    0.0000000

LOEWDIN ATOMIC CHARGES
----------------------
   0 Si:    0.522508
   1 Si:    0.519016
   2 P :    0.827005
   3 H :   -0.284111
   4 H :   -0.269292
   5 P :    0.841218
   6 H :   -0.287210
   7 H :   -0.301003
   8 C :    0.712910
   9 H :   -0.349476
  10 H :   -0.375828
  11 H :   -0.350769
  12 C :    0.715313
  13 H :   -0.365307
  14 H :   -0.359272
  15 H :   -0.358170
  16 C :    0.698395
  17 H :   -0.362212
  18 H :   -0.375931
  19 H :   -0.356431
  20 C :    0.693802
  21 H :   -0.365767
  22 H :   -0.354532
  23 H :   -0.414855

  Mayer bond orders larger than 0.100000
B(  0-Si,  1-Si) :   0.8567 B(  0-Si,  5-P ) :   0.8418 B(  0-Si,  6-H ) :   0.7246
B(  0-Si,  7-H ) :   0.4508 B(  1-Si,  2-P ) :   0.8879 B(  1-Si,  3-H ) :   0.6445
B(  1-Si,  4-H ) :   0.3801 B(  2-P ,  8-C ) :   0.7817 B(  2-P , 12-C ) :   0.9025
B(  5-P , 16-C ) :   0.8810 B(  5-P , 20-C ) :   0.8156 B(  8-C ,  9-H ) :   0.8882
B(  8-C , 10-H ) :   0.8409 B(  8-C , 11-H ) :   0.8719 B( 12-C , 13-H ) :   0.8821
B( 12-C , 14-H ) :   0.8777 B( 12-C , 15-H ) :   0.8592 B( 16-C , 17-H ) :   0.8939
B( 16-C , 18-H ) :   0.8342 B( 16-C , 19-H ) :   0.8875 B( 20-C , 21-H ) :   0.8589
B( 20-C , 22-H ) :   0.9972 B( 20-C , 23-H ) :   0.8569

MP2 TOTAL ENERGY:    -1421.663413138 Eh
FINAL SINGLE POINT ENERGY     -1421.663413137869

DIPOLE MOMENT
-------------
                                X             Y             Z
Electronic contribution:      6.39993      -1.70828      -0.22292
Nuclear contribution   :     -7.17617       1.87493       0.29160
                        -----------------------------------------
Total Dipole Moment    :     -0.77624       0.16665       0.06868
                        -----------------------------------------
Magnitude (a.u.)       :      0.79689
Magnitude (Debye)      :      2.02555

Rotational constants in cm-1:     0.049473     0.018012     0.016885
Rotational constants in MHz :  1483.148616   539.972813   506.187977

                             ****ORCA TERMINATED NORMALLY****
TOTAL RUN TIME: 0 days 5 hours 29 minutes 15 seconds 69 msec
