                         Program Version 5.0.4 -  RELEASE  -
|  1> ! ri-mp2 aug-cc-pvdz aug-cc-pvdz/c tightscf
|  2> %pal nprocs 16 end
|  3> %maxcore 3800
|  4> %base "DZ_P-P_13_AB"
|  5>
|  6> *xyz 0 1
|  7> C         1.698271    1.860655   -0.155002
|  8> P         1.189452    0.443601    0.947602
|  9> C        -0.550515    0.156889    0.491387
| 10> P         2.315136   -1.098420   -0.143523
| 11> O         1.762535   -1.489147   -1.442954
| 12> O         2.846131    1.966258   -0.537160
| 13> C        -0.979164   -0.211475   -0.783151
| 14> C        -2.324162   -0.377167   -1.048652
| 15> C        -3.250056   -0.175723   -0.038485
| 16> C        -2.848751    0.180034    1.234983
| 17> C        -1.499143    0.340608    1.492832
| 18> H        -1.180417    0.613620    2.490570
| 19> H        -3.583249    0.325227    2.013805
| 20> H        -0.253819   -0.397765   -1.562932
| 21> H        -2.658004   -0.666004   -2.034917
| 22> C         0.680812    2.916115   -0.457398
| 23> H         0.018682    2.551508   -1.244622
| 24> H         1.185879    3.816903   -0.797578
| 25> H         0.057223    3.125497    0.411226
| 26> Cl        -4.935796   -0.379902   -0.375166
| 27> O         3.761202   -0.489717   -0.090344
| 28> H         3.740639    0.466318   -0.338713
| 29> O         2.427458   -2.309263    0.878698
| 30> H         2.070403   -3.119326    0.494773
| 31> *
| 32>
| 33> $new_job
| 34> ! ri-mp2 aug-cc-pvtz aug-cc-pvtz/c tightscf
| 35> %pal nprocs 16 end
| 36> %maxcore 3800
| 37> %base "TZ_P-P_13_AB"
| 38>
| 39> *xyz 0 1
| 40> C         1.698271    1.860655   -0.155002
| 41> P         1.189452    0.443601    0.947602
| 42> C        -0.550515    0.156889    0.491387
| 43> P         2.315136   -1.098420   -0.143523
| 44> O         1.762535   -1.489147   -1.442954
| 45> O         2.846131    1.966258   -0.537160
| 46> C        -0.979164   -0.211475   -0.783151
| 47> C        -2.324162   -0.377167   -1.048652
| 48> C        -3.250056   -0.175723   -0.038485
| 49> C        -2.848751    0.180034    1.234983
| 50> C        -1.499143    0.340608    1.492832
| 51> H        -1.180417    0.613620    2.490570
| 52> H        -3.583249    0.325227    2.013805
| 53> H        -0.253819   -0.397765   -1.562932
| 54> H        -2.658004   -0.666004   -2.034917
| 55> C         0.680812    2.916115   -0.457398
| 56> H         0.018682    2.551508   -1.244622
| 57> H         1.185879    3.816903   -0.797578
| 58> H         0.057223    3.125497    0.411226
| 59> Cl        -4.935796   -0.379902   -0.375166
| 60> O         3.761202   -0.489717   -0.090344
| 61> H         3.740639    0.466318   -0.338713
| 62> O         2.427458   -2.309263    0.878698
| 63> H         2.070403   -3.119326    0.494773
| 64> *
| 65>
| 66> $new_job
| 67> ! ri-mp2 aug-cc-pvqz aug-cc-pvqz/c tightscf
| 68> %pal nprocs 16 end
| 69> %maxcore 3800
| 70> %base "QZ_P-P_13_AB"
| 71>
| 72> *xyz 0 1
| 73> C         1.698271    1.860655   -0.155002
| 74> P         1.189452    0.443601    0.947602
| 75> C        -0.550515    0.156889    0.491387
| 76> P         2.315136   -1.098420   -0.143523
| 77> O         1.762535   -1.489147   -1.442954
| 78> O         2.846131    1.966258   -0.537160
| 79> C        -0.979164   -0.211475   -0.783151
| 80> C        -2.324162   -0.377167   -1.048652
| 81> C        -3.250056   -0.175723   -0.038485
| 82> C        -2.848751    0.180034    1.234983
| 83> C        -1.499143    0.340608    1.492832
| 84> H        -1.180417    0.613620    2.490570
| 85> H        -3.583249    0.325227    2.013805
| 86> H        -0.253819   -0.397765   -1.562932
| 87> H        -2.658004   -0.666004   -2.034917
| 88> C         0.680812    2.916115   -0.457398
| 89> H         0.018682    2.551508   -1.244622
| 90> H         1.185879    3.816903   -0.797578
| 91> H         0.057223    3.125497    0.411226
| 92> Cl        -4.935796   -0.379902   -0.375166
| 93> O         3.761202   -0.489717   -0.090344
| 94> H         3.740639    0.466318   -0.338713
| 95> O         2.427458   -2.309263    0.878698
| 96> H         2.070403   -3.119326    0.494773
| 97> *
| 98>
| 99>
|100>
|101>
|102>                          ****END OF INPUT****
 Total Charge           Charge          ....    0
 Multiplicity           Mult            ....    1
 Number of Electrons    NEL             ....  136
MP2 TOTAL ENERGY:    -1751.052532145 Eh
FINAL SINGLE POINT ENERGY     -1751.052532145418
MP2 TOTAL ENERGY:    -1751.750471073 Eh
FINAL SINGLE POINT ENERGY     -1751.750471072592

CARTESIAN COORDINATES (ANGSTROEM)
---------------------------------
  C      1.698271    1.860655   -0.155002
  P      1.189452    0.443601    0.947602
  C     -0.550515    0.156889    0.491387
  P      2.315136   -1.098420   -0.143523
  O      1.762535   -1.489147   -1.442954
  O      2.846131    1.966258   -0.537160
  C     -0.979164   -0.211475   -0.783151
  C     -2.324162   -0.377167   -1.048652
  C     -3.250056   -0.175723   -0.038485
  C     -2.848751    0.180034    1.234983
  C     -1.499143    0.340608    1.492832
  H     -1.180417    0.613620    2.490570
  H     -3.583249    0.325227    2.013805
  H     -0.253819   -0.397765   -1.562932
  H     -2.658004   -0.666004   -2.034917
  C      0.680812    2.916115   -0.457398
  H      0.018682    2.551508   -1.244622
  H      1.185879    3.816903   -0.797578
  H      0.057223    3.125497    0.411226
  Cl    -4.935796   -0.379902   -0.375166
  O      3.761202   -0.489717   -0.090344
  H      3.740639    0.466318   -0.338713
  O      2.427458   -2.309263    0.878698
  H      2.070403   -3.119326    0.494773

 Multiplicity           Mult            ....    1
 Number of Electrons    NEL             ....  136
 Basis Dimension        Dim             .... 1626

ORBITAL ENERGIES
----------------

  NO   OCC          E(Eh)            E(eV)
   0   2.0000    -104.854872     -2853.2461
   1   2.0000     -80.077844     -2179.0289
   2   2.0000     -79.974927     -2176.2284
   3   2.0000     -20.605313      -560.6991
   4   2.0000     -20.587692      -560.2196
   5   2.0000     -20.587380      -560.2111
   6   2.0000     -20.513252      -558.1940
   7   2.0000     -11.371514      -309.4346
   8   2.0000     -11.323446      -308.1266
   9   2.0000     -11.271875      -306.7233
  10   2.0000     -11.269340      -306.6543
  11   2.0000     -11.263975      -306.5083
  12   2.0000     -11.262834      -306.4773
  13   2.0000     -11.260920      -306.4252
  14   2.0000     -11.255290      -306.2720
  15   2.0000     -10.580486      -287.9097
  16   2.0000      -8.047638      -218.9874
  17   2.0000      -8.045836      -218.9383
  18   2.0000      -8.045816      -218.9378
  19   2.0000      -7.599866      -206.8029
  20   2.0000      -7.518943      -204.6008
  21   2.0000      -5.498041      -149.6093
  22   2.0000      -5.497659      -149.5989
  23   2.0000      -5.496524      -149.5680
  24   2.0000      -5.412736      -147.2880
  25   2.0000      -5.412627      -147.2851
  26   2.0000      -5.411951      -147.2667
  27   2.0000      -1.443625       -39.2830
  28   2.0000      -1.430394       -38.9230
  29   2.0000      -1.383556       -37.6485
  30   2.0000      -1.305963       -35.5371
  31   2.0000      -1.214586       -33.0506
  32   2.0000      -1.143819       -31.1249
  33   2.0000      -1.054505       -28.6945
  34   2.0000      -1.052298       -28.6345
  35   2.0000      -1.022934       -27.8355
  36   2.0000      -0.921552       -25.0767
  37   2.0000      -0.869234       -23.6531
  38   2.0000      -0.848313       -23.0838
  39   2.0000      -0.826800       -22.4984
  40   2.0000      -0.778672       -21.1887
  41   2.0000      -0.727341       -19.7920
  42   2.0000      -0.713678       -19.4202
  43   2.0000      -0.682558       -18.5734
  44   2.0000      -0.674963       -18.3667
  45   2.0000      -0.667496       -18.1635
  46   2.0000      -0.660989       -17.9864
  47   2.0000      -0.653248       -17.7758
  48   2.0000      -0.640993       -17.4423
  49   2.0000      -0.627791       -17.0831
  50   2.0000      -0.621990       -16.9252
  51   2.0000      -0.596722       -16.2376
  52   2.0000      -0.587348       -15.9826
  53   2.0000      -0.574593       -15.6355
  54   2.0000      -0.566917       -15.4266
  55   2.0000      -0.560242       -15.2450
  56   2.0000      -0.545610       -14.8468
  57   2.0000      -0.541271       -14.7287
  58   2.0000      -0.534942       -14.5565
  59   2.0000      -0.504121       -13.7178
  60   2.0000      -0.492341       -13.3973
  61   2.0000      -0.474690       -12.9170
  62   2.0000      -0.470035       -12.7903
  63   2.0000      -0.466902       -12.7051
  64   2.0000      -0.431578       -11.7438
  65   2.0000      -0.380698       -10.3593
  66   2.0000      -0.371433       -10.1072
  67   2.0000      -0.355428        -9.6717
  68   0.0000       0.017418         0.4740
  69   0.0000       0.025862         0.7037
  70   0.0000       0.028230         0.7682
  71   0.0000       0.031919         0.8686
  72   0.0000       0.040199         1.0939

MULLIKEN ATOMIC CHARGES
-----------------------
   0 C :    0.687098
   1 P :    0.453868
   2 C :    0.085715
   3 P :    2.562703
   4 O :   -1.275076
   5 O :   -0.899256
   6 C :   -0.439817
   7 C :    0.099650
   8 C :   -0.511043
   9 C :   -0.105267
  10 C :   -0.351490
  11 H :    0.333187
  12 H :    0.421183
  13 H :    0.362102
  14 H :    0.389227
  15 C :   -0.902305
  16 H :    0.298795
  17 H :    0.397246
  18 H :    0.192042
  19 Cl:   -0.382672
  20 O :   -1.124355
  21 H :    0.398154
  22 O :   -1.109424
  23 H :    0.419733
Sum of atomic charges:   -0.0000000

LOEWDIN ATOMIC CHARGES
----------------------
   0 C :   -0.744157
   1 P :    0.900197
   2 C :   -0.310061
   3 P :   -0.771432
   4 O :    0.320883
   5 O :    0.789091
   6 C :    0.240583
   7 C :    0.222146
   8 C :   -0.859514
   9 C :    0.208602
  10 C :    0.233558
  11 H :   -0.341101
  12 H :   -0.352838
  13 H :   -0.416371
  14 H :   -0.348690
  15 C :    0.843535
  16 H :   -0.301225
  17 H :   -0.307558
  18 H :   -0.306565
  19 Cl:    1.222081
  20 O :    1.066103
  21 H :   -1.175709
  22 O :    1.065349
  23 H :   -0.876906

  Mayer bond orders larger than 0.100000
B(  0-C ,  1-P ) :   0.7109 B(  0-C ,  5-O ) :   0.9936 B(  0-C , 15-C ) :   0.8499
B(  1-P ,  2-C ) :   0.9638 B(  1-P ,  3-P ) :   0.9470 B(  1-P , 10-C ) :  -0.2254
B(  2-C ,  4-O ) :  -0.1051 B(  2-C ,  6-C ) :   0.7907 B(  2-C ,  7-C ) :  -0.3516
B(  2-C ,  8-C ) :  -0.1093 B(  2-C ,  9-C ) :  -0.2567 B(  2-C , 10-C ) :   0.7722
B(  2-C , 11-H ) :  -0.1085 B(  2-C , 13-H ) :  -0.1390 B(  3-P ,  4-O ) :   1.1737
B(  3-P , 20-O ) :   0.5834 B(  3-P , 22-O ) :   0.4037 B(  5-O , 21-H ) :   0.1238
B(  6-C ,  7-C ) :   1.3005 B(  6-C ,  8-C ) :   0.2235 B(  6-C , 10-C ) :  -0.1004
B(  6-C , 13-H ) :   0.8815 B(  6-C , 14-H ) :  -0.1276 B(  7-C ,  8-C ) :   0.9087
B(  7-C , 10-C ) :   0.1624 B(  7-C , 14-H ) :   0.9189 B(  7-C , 19-Cl) :  -0.2395
B(  8-C ,  9-C ) :   1.0315 B(  8-C , 10-C ) :   0.1267 B(  8-C , 19-Cl) :   1.1593
B(  9-C , 10-C ) :   1.4340 B(  9-C , 12-H ) :   0.8558 B(  9-C , 19-Cl) :  -0.2325
B( 10-C , 11-H ) :   0.9969 B( 15-C , 16-H ) :   0.8631 B( 15-C , 17-H ) :   0.8833
B( 15-C , 18-H ) :   1.0410 B( 20-O , 21-H ) :   0.7667 B( 22-O , 23-H ) :   0.9283

MP2 TOTAL ENERGY:    -1751.977579937 Eh
FINAL SINGLE POINT ENERGY     -1751.977579937188

DIPOLE MOMENT
-------------
                                X             Y             Z
Electronic contribution:     -4.34534      -6.79383       1.50550
Nuclear contribution   :      3.15376       7.51862      -0.78211
                        -----------------------------------------
Total Dipole Moment    :     -1.19159       0.72479       0.72338
                        -----------------------------------------
Magnitude (a.u.)       :      1.57114
Magnitude (Debye)      :      3.99353

Rotational constants in cm-1:     0.028079     0.007800     0.006989
Rotational constants in MHz :   841.777527   233.833612   209.532683

                             ****ORCA TERMINATED NORMALLY****
TOTAL RUN TIME: 0 days 2 hours 11 minutes 21 seconds 419 msec
