                         Program Version 5.0.4 -  RELEASE  -
|  1> ! ri-mp2 aug-cc-pvdz aug-cc-pvdz/c tightscf
|  2> %pal nprocs 16 end
|  3> %maxcore 3800
|  4> %base "DZ_P-S_23_AB"
|  5> %scf
|  6> STABPerform true
|  7> STABRestartUHFifUnstable true
|  8> end
|  9>
| 10> *xyz 0 1
| 11> P         1.000263   -0.633196    0.273656
| 12> C         1.697827    0.959272   -0.330203
| 13> H         1.116642    1.833584   -0.045270
| 14> H         1.774220    0.918918   -1.415802
| 15> H         2.704688    1.063702    0.077291
| 16> S        -1.004854   -0.588424   -0.344439
| 17> C        -1.671881    0.963120    0.307647
| 18> H        -2.735816    0.969791    0.077751
| 19> H        -1.209393    1.827294   -0.162617
| 20> H        -1.542124    1.012808    1.386958
| 21> H         0.809823   -0.247723    1.623209
| 22> *
| 23>
| 24> $new_job
| 25> ! ri-mp2 aug-cc-pvtz aug-cc-pvtz/c tightscf
| 26> %pal nprocs 16 end
| 27> %maxcore 3800
| 28> %base "TZ_P-S_23_AB"
| 29>
| 30> *xyz 0 1
| 31> P         1.000263   -0.633196    0.273656
| 32> C         1.697827    0.959272   -0.330203
| 33> H         1.116642    1.833584   -0.045270
| 34> H         1.774220    0.918918   -1.415802
| 35> H         2.704688    1.063702    0.077291
| 36> S        -1.004854   -0.588424   -0.344439
| 37> C        -1.671881    0.963120    0.307647
| 38> H        -2.735816    0.969791    0.077751
| 39> H        -1.209393    1.827294   -0.162617
| 40> H        -1.542124    1.012808    1.386958
| 41> H         0.809823   -0.247723    1.623209
| 42> *
| 43>
| 44> $new_job
| 45> ! ri-mp2 aug-cc-pvqz aug-cc-pvqz/c tightscf
| 46> %pal nprocs 16 end
| 47> %maxcore 3800
| 48> %base "QZ_P-S_23_AB"
| 49>
| 50> *xyz 0 1
| 51> P         1.000263   -0.633196    0.273656
| 52> C         1.697827    0.959272   -0.330203
| 53> H         1.116642    1.833584   -0.045270
| 54> H         1.774220    0.918918   -1.415802
| 55> H         2.704688    1.063702    0.077291
| 56> S        -1.004854   -0.588424   -0.344439
| 57> C        -1.671881    0.963120    0.307647
| 58> H        -2.735816    0.969791    0.077751
| 59> H        -1.209393    1.827294   -0.162617
| 60> H        -1.542124    1.012808    1.386958
| 61> H         0.809823   -0.247723    1.623209
| 62> *
| 63>
| 64>
| 65>
| 66>
| 67>                          ****END OF INPUT****
 Total Charge           Charge          ....    0
 Multiplicity           Mult            ....    1
 Number of Electrons    NEL             ....   50
MP2 TOTAL ENERGY:     -818.675813281 Eh
FINAL SINGLE POINT ENERGY      -818.675813281333
MP2 TOTAL ENERGY:     -818.856433175 Eh
FINAL SINGLE POINT ENERGY      -818.856433175425

CARTESIAN COORDINATES (ANGSTROEM)
---------------------------------
  P      1.000263   -0.633196    0.273656
  C      1.697827    0.959272   -0.330203
  H      1.116642    1.833584   -0.045270
  H      1.774220    0.918918   -1.415802
  H      2.704688    1.063702    0.077291
  S     -1.004854   -0.588424   -0.344439
  C     -1.671881    0.963120    0.307647
  H     -2.735816    0.969791    0.077751
  H     -1.209393    1.827294   -0.162617
  H     -1.542124    1.012808    1.386958
  H      0.809823   -0.247723    1.623209

 Multiplicity           Mult            ....    1
 Number of Electrons    NEL             ....   50
 Basis Dimension        Dim             ....  650

ORBITAL ENERGIES
----------------

  NO   OCC          E(Eh)            E(eV)
   0   2.0000     -91.947942     -2502.0307
   1   2.0000     -79.958737     -2175.7879
   2   2.0000     -11.256733      -306.3113
   3   2.0000     -11.230922      -305.6089
   4   2.0000      -8.950551      -243.5569
   5   2.0000      -7.498697      -204.0499
   6   2.0000      -6.632046      -180.4672
   7   2.0000      -6.631039      -180.4397
   8   2.0000      -6.630312      -180.4200
   9   2.0000      -5.392671      -146.7420
  10   2.0000      -5.392137      -146.7275
  11   2.0000      -5.391323      -146.7054
  12   2.0000      -1.049534       -28.5593
  13   2.0000      -0.982003       -26.7217
  14   2.0000      -0.880321       -23.9547
  15   2.0000      -0.747041       -20.3280
  16   2.0000      -0.607946       -16.5431
  17   2.0000      -0.597086       -16.2475
  18   2.0000      -0.588103       -16.0031
  19   2.0000      -0.565459       -15.3869
  20   2.0000      -0.521705       -14.1963
  21   2.0000      -0.501242       -13.6395
  22   2.0000      -0.423368       -11.5204
  23   2.0000      -0.361231        -9.8296
  24   2.0000      -0.352319        -9.5871
  25   0.0000       0.024477         0.6660
  26   0.0000       0.032464         0.8834
  27   0.0000       0.035938         0.9779
  28   0.0000       0.041159         1.1200
  29   0.0000       0.049844         1.3563

MULLIKEN ATOMIC CHARGES
-----------------------
   0 P :    0.416737
   1 C :   -0.979242
   2 H :    0.261339
   3 H :    0.266467
   4 H :    0.315869
   5 S :   -0.191993
   6 C :   -0.896003
   7 H :    0.396423
   8 H :    0.244210
   9 H :    0.262597
  10 H :   -0.096404
Sum of atomic charges:   -0.0000000

LOEWDIN ATOMIC CHARGES
----------------------
   0 P :    0.736351
   1 C :    0.664341
   2 H :   -0.385920
   3 H :   -0.379639
   4 H :   -0.376060
   5 S :    0.950341
   6 C :    0.460795
   7 H :   -0.396482
   8 H :   -0.395584
   9 H :   -0.384866
  10 H :   -0.493278

  Mayer bond orders larger than 0.100000
B(  0-P ,  1-C ) :   0.8785 B(  0-P ,  5-S ) :   1.0054 B(  0-P , 10-H ) :   0.9229
B(  1-C ,  2-H ) :   0.9069 B(  1-C ,  3-H ) :   0.9313 B(  1-C ,  4-H ) :   0.8949
B(  5-S ,  6-C ) :   0.9708 B(  6-C ,  7-H ) :   0.8198 B(  6-C ,  8-H ) :   0.9245
B(  6-C ,  9-H ) :   0.9202

MP2 TOTAL ENERGY:     -818.911960859 Eh
FINAL SINGLE POINT ENERGY      -818.911960858560

DIPOLE MOMENT
-------------
                                X             Y             Z
Electronic contribution:      0.07797      -6.96963      -0.98681
Nuclear contribution   :     -0.00357       7.98186       1.28867
                        -----------------------------------------
Total Dipole Moment    :      0.07440       1.01222       0.30185
                        -----------------------------------------
Magnitude (a.u.)       :      1.05889
Magnitude (Debye)      :      2.69149

Rotational constants in cm-1:     0.237589     0.098786     0.079759
Rotational constants in MHz :  7122.741790  2961.524542  2391.115321

                             ****ORCA TERMINATED NORMALLY****
TOTAL RUN TIME: 0 days 0 hours 26 minutes 56 seconds 430 msec
