                         Program Version 5.0.4 -  RELEASE  -
|  1> ! ri-mp2 aug-cc-pvdz aug-cc-pvdz/c tightscf
|  2> %pal nprocs 16 end
|  3> %maxcore 3800
|  4> %base "DZ_Si-S_45_AB"
|  5>
|  6> *xyz 0 1
|  7> S         1.182093   -0.000002   -0.562137
|  8> Si         2.157131    0.000004    1.428314
|  9> O         1.505813    1.254189   -1.201105
| 10> O         1.505813   -1.254197   -1.201096
| 11> C        -0.558619   -0.000001   -0.226972
| 12> C        -1.221295   -1.208892   -0.087186
| 13> C        -1.221294    1.208891   -0.087191
| 14> C        -2.574110   -1.203149    0.201090
| 15> C        -2.574110    1.203150    0.201085
| 16> C        -3.246317    0.000001    0.347514
| 17> H        -0.679491   -2.133970   -0.225899
| 18> H        -3.106526   -2.138730    0.304856
| 19> H        -0.679491    2.133969   -0.225909
| 20> H        -3.106525    2.138732    0.304846
| 21> H        -4.304834    0.000002    0.571248
| 22> H         3.598414    0.000002    1.132659
| 23> H         1.723299   -1.219116    2.131786
| 24> H         1.723301    1.219129    2.131779
| 25> *
| 26>
| 27> $new_job
| 28> ! ri-mp2 aug-cc-pvtz aug-cc-pvtz/c tightscf
| 29> %pal nprocs 16 end
| 30> %maxcore 3800
| 31> %base "TZ_Si-S_45_AB"
| 32>
| 33> *xyz 0 1
| 34> S         1.182093   -0.000002   -0.562137
| 35> Si         2.157131    0.000004    1.428314
| 36> O         1.505813    1.254189   -1.201105
| 37> O         1.505813   -1.254197   -1.201096
| 38> C        -0.558619   -0.000001   -0.226972
| 39> C        -1.221295   -1.208892   -0.087186
| 40> C        -1.221294    1.208891   -0.087191
| 41> C        -2.574110   -1.203149    0.201090
| 42> C        -2.574110    1.203150    0.201085
| 43> C        -3.246317    0.000001    0.347514
| 44> H        -0.679491   -2.133970   -0.225899
| 45> H        -3.106526   -2.138730    0.304856
| 46> H        -0.679491    2.133969   -0.225909
| 47> H        -3.106525    2.138732    0.304846
| 48> H        -4.304834    0.000002    0.571248
| 49> H         3.598414    0.000002    1.132659
| 50> H         1.723299   -1.219116    2.131786
| 51> H         1.723301    1.219129    2.131779
| 52> *
| 53>
| 54> $new_job
| 55> ! ri-mp2 aug-cc-pvqz aug-cc-pvqz/c tightscf
| 56> %pal nprocs 16 end
| 57> %maxcore 3800
| 58> %base "QZ_Si-S_45_AB"
| 59>
| 60> *xyz 0 1
| 61> S         1.182093   -0.000002   -0.562137
| 62> Si         2.157131    0.000004    1.428314
| 63> O         1.505813    1.254189   -1.201105
| 64> O         1.505813   -1.254197   -1.201096
| 65> C        -0.558619   -0.000001   -0.226972
| 66> C        -1.221295   -1.208892   -0.087186
| 67> C        -1.221294    1.208891   -0.087191
| 68> C        -2.574110   -1.203149    0.201090
| 69> C        -2.574110    1.203150    0.201085
| 70> C        -3.246317    0.000001    0.347514
| 71> H        -0.679491   -2.133970   -0.225899
| 72> H        -3.106526   -2.138730    0.304856
| 73> H        -0.679491    2.133969   -0.225909
| 74> H        -3.106525    2.138732    0.304846
| 75> H        -4.304834    0.000002    0.571248
| 76> H         3.598414    0.000002    1.132659
| 77> H         1.723299   -1.219116    2.131786
| 78> H         1.723301    1.219129    2.131779
| 79> *
| 80>
| 81>
| 82>
| 83>
| 84>                          ****END OF INPUT****
 Total Charge           Charge          ....    0
 Multiplicity           Mult            ....    1
 Number of Electrons    NEL             ....   90
MP2 TOTAL ENERGY:    -1069.474162770 Eh
FINAL SINGLE POINT ENERGY     -1069.474162770070
MP2 TOTAL ENERGY:    -1069.928747150 Eh
FINAL SINGLE POINT ENERGY     -1069.928747150333

CARTESIAN COORDINATES (ANGSTROEM)
---------------------------------
  S      1.182093   -0.000002   -0.562137
  Si     2.157131    0.000004    1.428314
  O      1.505813    1.254189   -1.201105
  O      1.505813   -1.254197   -1.201096
  C     -0.558619   -0.000001   -0.226972
  C     -1.221295   -1.208892   -0.087186
  C     -1.221294    1.208891   -0.087191
  C     -2.574110   -1.203149    0.201090
  C     -2.574110    1.203150    0.201085
  C     -3.246317    0.000001    0.347514
  H     -0.679491   -2.133970   -0.225899
  H     -3.106526   -2.138730    0.304856
  H     -0.679491    2.133969   -0.225909
  H     -3.106525    2.138732    0.304846
  H     -4.304834    0.000002    0.571248
  H      3.598414    0.000002    1.132659
  H      1.723299   -1.219116    2.131786
  H      1.723301    1.219129    2.131779

 Multiplicity           Mult            ....    1
 Number of Electrons    NEL             ....   90
 Basis Dimension        Dim             .... 1176

ORBITAL ENERGIES
----------------

  NO   OCC          E(Eh)            E(eV)
   0   2.0000     -92.153126     -2507.6140
   1   2.0000     -68.816347     -1872.5880
   2   2.0000     -20.537658      -558.8581
   3   2.0000     -20.537639      -558.8576
   4   2.0000     -11.272385      -306.7372
   5   2.0000     -11.264050      -306.5104
   6   2.0000     -11.263939      -306.5074
   7   2.0000     -11.261796      -306.4490
   8   2.0000     -11.254975      -306.2634
   9   2.0000     -11.254848      -306.2600
  10   2.0000      -9.126218      -248.3370
  11   2.0000      -6.811220      -185.3427
  12   2.0000      -6.810605      -185.3260
  13   2.0000      -6.810593      -185.3257
  14   2.0000      -6.165961      -167.7843
  15   2.0000      -4.272357      -116.2567
  16   2.0000      -4.271620      -116.2367
  17   2.0000      -4.271586      -116.2358
  18   2.0000      -1.445379       -39.3308
  19   2.0000      -1.336094       -36.3570
  20   2.0000      -1.188331       -32.3361
  21   2.0000      -1.061890       -28.8955
  22   2.0000      -1.046634       -28.4803
  23   2.0000      -0.919923       -25.0324
  24   2.0000      -0.857375       -23.3304
  25   2.0000      -0.829436       -22.5701
  26   2.0000      -0.763969       -20.7886
  27   2.0000      -0.727832       -19.8053
  28   2.0000      -0.671855       -18.2821
  29   2.0000      -0.663988       -18.0680
  30   2.0000      -0.644295       -17.5322
  31   2.0000      -0.639454       -17.4004
  32   2.0000      -0.625670       -17.0253
  33   2.0000      -0.617267       -16.7967
  34   2.0000      -0.547531       -14.8991
  35   2.0000      -0.539984       -14.6937
  36   2.0000      -0.531317       -14.4579
  37   2.0000      -0.522174       -14.2091
  38   2.0000      -0.519081       -14.1249
  39   2.0000      -0.498389       -13.5619
  40   2.0000      -0.488641       -13.2966
  41   2.0000      -0.470464       -12.8020
  42   2.0000      -0.409332       -11.1385
  43   2.0000      -0.370227       -10.0744
  44   2.0000      -0.364161        -9.9093
  45   0.0000       0.017115         0.4657
  46   0.0000       0.023880         0.6498
  47   0.0000       0.026772         0.7285
  48   0.0000       0.036862         1.0031
  49   0.0000       0.038889         1.0582

MULLIKEN ATOMIC CHARGES
-----------------------
   0 S :    2.543149
   1 Si:    0.748444
   2 O :   -1.345317
   3 O :   -1.345317
   4 C :   -0.180471
   5 C :   -0.358695
   6 C :   -0.358705
   7 C :   -0.314675
   8 C :   -0.314696
   9 C :   -0.292580
  10 H :    0.392375
  11 H :    0.232413
  12 H :    0.392378
  13 H :    0.232413
  14 H :    0.352279
  15 H :   -0.137669
  16 H :   -0.122662
  17 H :   -0.122663
Sum of atomic charges:   -0.0000000

LOEWDIN ATOMIC CHARGES
----------------------
   0 S :   -0.316391
   1 Si:    1.010552
   2 O :    0.248400
   3 O :    0.248400
   4 C :   -0.318382
   5 C :    0.267646
   6 C :    0.267647
   7 C :    0.354650
   8 C :    0.354650
   9 C :    0.347605
  10 H :   -0.344895
  11 H :   -0.316676
  12 H :   -0.344894
  13 H :   -0.316677
  14 H :   -0.313542
  15 H :   -0.279513
  16 H :   -0.274289
  17 H :   -0.274289

  Mayer bond orders larger than 0.100000
B(  0-S ,  1-Si) :   0.5235 B(  0-S ,  2-O ) :   0.9123 B(  0-S ,  3-O ) :   0.9123
B(  0-S ,  4-C ) :   0.7354 B(  0-S ,  5-C ) :  -0.1273 B(  0-S ,  6-C ) :  -0.1273
B(  1-Si,  4-C ) :  -0.1132 B(  1-Si, 15-H ) :   0.7623 B(  1-Si, 16-H ) :   0.7541
B(  1-Si, 17-H ) :   0.7541 B(  2-O ,  4-C ) :  -0.1060 B(  2-O ,  6-C ) :   0.1111
B(  3-O ,  4-C ) :  -0.1060 B(  3-O ,  5-C ) :   0.1111 B(  4-C ,  5-C ) :   0.8971
B(  4-C ,  6-C ) :   0.8972 B(  4-C ,  7-C ) :  -0.3326 B(  4-C ,  8-C ) :  -0.3326
B(  4-C , 10-H ) :  -0.1093 B(  4-C , 12-H ) :  -0.1093 B(  5-C ,  7-C ) :   1.4100
B(  5-C ,  8-C ) :   0.1263 B(  5-C , 10-H ) :   0.8184 B(  5-C , 11-H ) :  -0.1143
B(  6-C ,  7-C ) :   0.1263 B(  6-C ,  8-C ) :   1.4100 B(  6-C , 12-H ) :   0.8184
B(  6-C , 13-H ) :  -0.1143 B(  7-C ,  9-C ) :   1.1217 B(  7-C , 11-H ) :   1.1336
B(  8-C ,  9-C ) :   1.1217 B(  8-C , 13-H ) :   1.1336 B(  9-C , 11-H ) :  -0.1091
B(  9-C , 13-H ) :  -0.1091 B(  9-C , 14-H ) :   0.9782

MP2 TOTAL ENERGY:    -1070.077143758 Eh
FINAL SINGLE POINT ENERGY     -1070.077143758287

DIPOLE MOMENT
-------------
                                X             Y             Z
Electronic contribution:      3.66185      -0.00001      -4.04875
Nuclear contribution   :     -4.85847       0.00002       5.90469
                        -----------------------------------------
Total Dipole Moment    :     -1.19661       0.00001       1.85594
                        -----------------------------------------
Magnitude (a.u.)       :      2.20825
Magnitude (Debye)      :      5.61294

Rotational constants in cm-1:     0.062622     0.022210     0.021807
Rotational constants in MHz :  1877.371381   665.834908   653.753626

                             ****ORCA TERMINATED NORMALLY****
TOTAL RUN TIME: 0 days 0 hours 53 minutes 50 seconds 732 msec
