                         Program Version 5.0.4 -  RELEASE  -
|  1> ! ri-mp2 aug-cc-pvdz aug-cc-pvdz/c tightscf
|  2> %pal nprocs 16 end
|  3> %maxcore 3800
|  4> %base "DZ_B-P_49_AB"
|  5> %scf
|  6> STABPerform true
|  7> STABRestartUHFifUnstable true
|  8> end
|  9>
| 10> *xyz 0 1
| 11> B         2.341480    0.387905   -0.306139
| 12> P         0.896849   -0.618402    0.189916
| 13> C        -0.706088    0.112874   -0.367463
| 14> C        -1.852557   -0.866898   -0.136350
| 15> H        -1.990015   -1.061919    0.929369
| 16> H        -1.673584   -1.821395   -0.629986
| 17> C        -1.003584    1.471382    0.256381
| 18> H        -2.788372   -0.454270   -0.517431
| 19> H        -0.569546    0.241473   -1.444889
| 20> H        -1.955582    1.861261   -0.111679
| 21> H        -1.076030    1.392268    1.342792
| 22> H        -0.224636    2.196620    0.025560
| 23> H         3.340469    0.328843    0.334854
| 24> H         2.331736    0.949306   -1.355726
| 25> H         0.818808   -0.599832    1.593679
| 26> *
| 27>
| 28> $new_job
| 29> ! ri-mp2 aug-cc-pvtz aug-cc-pvtz/c tightscf
| 30> %pal nprocs 16 end
| 31> %maxcore 3800
| 32> %base "TZ_B-P_49_AB"
| 33>
| 34> *xyz 0 1
| 35> B         2.341480    0.387905   -0.306139
| 36> P         0.896849   -0.618402    0.189916
| 37> C        -0.706088    0.112874   -0.367463
| 38> C        -1.852557   -0.866898   -0.136350
| 39> H        -1.990015   -1.061919    0.929369
| 40> H        -1.673584   -1.821395   -0.629986
| 41> C        -1.003584    1.471382    0.256381
| 42> H        -2.788372   -0.454270   -0.517431
| 43> H        -0.569546    0.241473   -1.444889
| 44> H        -1.955582    1.861261   -0.111679
| 45> H        -1.076030    1.392268    1.342792
| 46> H        -0.224636    2.196620    0.025560
| 47> H         3.340469    0.328843    0.334854
| 48> H         2.331736    0.949306   -1.355726
| 49> H         0.818808   -0.599832    1.593679
| 50> *
| 51>
| 52> $new_job
| 53> ! ri-mp2 aug-cc-pvqz aug-cc-pvqz/c tightscf
| 54> %pal nprocs 16 end
| 55> %maxcore 3800
| 56> %base "QZ_B-P_49_AB"
| 57>
| 58> *xyz 0 1
| 59> B         2.341480    0.387905   -0.306139
| 60> P         0.896849   -0.618402    0.189916
| 61> C        -0.706088    0.112874   -0.367463
| 62> C        -1.852557   -0.866898   -0.136350
| 63> H        -1.990015   -1.061919    0.929369
| 64> H        -1.673584   -1.821395   -0.629986
| 65> C        -1.003584    1.471382    0.256381
| 66> H        -2.788372   -0.454270   -0.517431
| 67> H        -0.569546    0.241473   -1.444889
| 68> H        -1.955582    1.861261   -0.111679
| 69> H        -1.076030    1.392268    1.342792
| 70> H        -0.224636    2.196620    0.025560
| 71> H         3.340469    0.328843    0.334854
| 72> H         2.331736    0.949306   -1.355726
| 73> H         0.818808   -0.599832    1.593679
| 74> *
| 75>
| 76>
| 77>
| 78>
| 79>                          ****END OF INPUT****
 Total Charge           Charge          ....    0
 Multiplicity           Mult            ....    1
 Number of Electrons    NEL             ....   48
MP2 TOTAL ENERGY:     -485.514913428 Eh
FINAL SINGLE POINT ENERGY      -485.514913427557
MP2 TOTAL ENERGY:     -485.699503487 Eh
FINAL SINGLE POINT ENERGY      -485.699503487174

CARTESIAN COORDINATES (ANGSTROEM)
---------------------------------
  B      2.341480    0.387905   -0.306139
  P      0.896849   -0.618402    0.189916
  C     -0.706088    0.112874   -0.367463
  C     -1.852557   -0.866898   -0.136350
  H     -1.990015   -1.061919    0.929369
  H     -1.673584   -1.821395   -0.629986
  C     -1.003584    1.471382    0.256381
  H     -2.788372   -0.454270   -0.517431
  H     -0.569546    0.241473   -1.444889
  H     -1.955582    1.861261   -0.111679
  H     -1.076030    1.392268    1.342792
  H     -0.224636    2.196620    0.025560
  H      3.340469    0.328843    0.334854
  H      2.331736    0.949306   -1.355726
  H      0.818808   -0.599832    1.593679

 Multiplicity           Mult            ....    1
 Number of Electrons    NEL             ....   48
 Basis Dimension        Dim             ....  864

ORBITAL ENERGIES
----------------

  NO   OCC          E(Eh)            E(eV)
   0   2.0000     -79.917243     -2174.6587
   1   2.0000     -11.244847      -305.9878
   2   2.0000     -11.221742      -305.3591
   3   2.0000     -11.221481      -305.3520
   4   2.0000      -7.601183      -206.8387
   5   2.0000      -7.464429      -203.1174
   6   2.0000      -5.359029      -145.8266
   7   2.0000      -5.358963      -145.8248
   8   2.0000      -5.358345      -145.8080
   9   2.0000      -1.078785       -29.3552
  10   2.0000      -0.940433       -25.5905
  11   2.0000      -0.871783       -23.7224
  12   2.0000      -0.774540       -21.0763
  13   2.0000      -0.671744       -18.2791
  14   2.0000      -0.620338       -16.8803
  15   2.0000      -0.596726       -16.2377
  16   2.0000      -0.571213       -15.5435
  17   2.0000      -0.544751       -14.8234
  18   2.0000      -0.522514       -14.2183
  19   2.0000      -0.493600       -13.4315
  20   2.0000      -0.491110       -13.3638
  21   2.0000      -0.468870       -12.7586
  22   2.0000      -0.434664       -11.8278
  23   2.0000      -0.332148        -9.0382
  24   0.0000       0.023529         0.6403
  25   0.0000       0.029445         0.8012
  26   0.0000       0.031538         0.8582
  27   0.0000       0.034141         0.9290
  28   0.0000       0.043359         1.1799

MULLIKEN ATOMIC CHARGES
-----------------------
   0 B :    0.236952
   1 P :    0.291268
   2 C :   -0.009840
   3 C :   -0.914262
   4 H :    0.236353
   5 H :    0.275539
   6 C :   -0.974028
   7 H :    0.297777
   8 H :    0.257823
   9 H :    0.275641
  10 H :    0.237960
  11 H :    0.286883
  12 H :   -0.266412
  13 H :   -0.142766
  14 H :   -0.088887
Sum of atomic charges:    0.0000000

LOEWDIN ATOMIC CHARGES
----------------------
   0 B :    0.108026
   1 P :    1.308026
   2 C :   -0.094041
   3 C :    0.837946
   4 H :   -0.290147
   5 H :   -0.295186
   6 C :    0.850108
   7 H :   -0.281742
   8 H :   -0.351866
   9 H :   -0.277709
  10 H :   -0.290552
  11 H :   -0.293928
  12 H :   -0.268730
  13 H :   -0.252787
  14 H :   -0.407419

  Mayer bond orders larger than 0.100000
B(  0-B ,  1-P ) :   1.3642 B(  0-B , 12-H ) :   0.9345 B(  0-B , 13-H ) :   0.9257
B(  1-P ,  2-C ) :   0.7251 B(  1-P , 14-H ) :   0.9640 B(  2-C ,  3-C ) :   0.7525
B(  2-C ,  6-C ) :   0.8244 B(  2-C ,  8-H ) :   0.8944 B(  3-C ,  4-H ) :   0.9626
B(  3-C ,  5-H ) :   0.9727 B(  3-C ,  7-H ) :   0.9578 B(  6-C ,  9-H ) :   0.9413
B(  6-C , 10-H ) :   0.9690 B(  6-C , 11-H ) :   0.9630

MP2 TOTAL ENERGY:     -485.755487286 Eh
FINAL SINGLE POINT ENERGY      -485.755487285727

DIPOLE MOMENT
-------------
                                X             Y             Z
Electronic contribution:      6.13902      -3.04869      -0.17535
Nuclear contribution   :     -6.69479       3.39345       0.23831
                        -----------------------------------------
Total Dipole Moment    :     -0.55577       0.34475       0.06296
                        -----------------------------------------
Magnitude (a.u.)       :      0.65704
Magnitude (Debye)      :      1.67006

Rotational constants in cm-1:     0.211631     0.086313     0.068685
Rotational constants in MHz :  6344.524193  2587.599942  2059.130269

                             ****ORCA TERMINATED NORMALLY****
TOTAL RUN TIME: 0 days 1 hours 11 minutes 44 seconds 250 msec
