                         Program Version 5.0.4 -  RELEASE  -
|  1> ! ri-mp2 aug-cc-pvdz aug-cc-pvdz/c tightscf
|  2> %pal nprocs 16 end
|  3> %maxcore 3800
|  4> %base "DZ_B-Cl_15_AB"
|  5> %scf
|  6> STABPerform true
|  7> STABRestartUHFifUnstable true
|  8> end
|  9>
| 10> *xyz 0 1
| 11> Cl         0.539512    1.725056    0.204175
| 12> Cl         1.694533   -1.042705   -0.152760
| 13> B         0.341052    0.038708   -0.095301
| 14> C        -1.116280   -0.585805   -0.297248
| 15> F        -2.038424    0.350749   -0.640466
| 16> F        -1.497273   -1.116353    0.909725
| 17> H        -1.165077   -1.388247   -1.037402
| 18> *
| 19>
| 20> $new_job
| 21> ! ri-mp2 aug-cc-pvtz aug-cc-pvtz/c tightscf
| 22> %pal nprocs 16 end
| 23> %maxcore 3800
| 24> %base "TZ_B-Cl_15_AB"
| 25>
| 26> *xyz 0 1
| 27> Cl         0.539512    1.725056    0.204175
| 28> Cl         1.694533   -1.042705   -0.152760
| 29> B         0.341052    0.038708   -0.095301
| 30> C        -1.116280   -0.585805   -0.297248
| 31> F        -2.038424    0.350749   -0.640466
| 32> F        -1.497273   -1.116353    0.909725
| 33> H        -1.165077   -1.388247   -1.037402
| 34> *
| 35>
| 36> $new_job
| 37> ! ri-mp2 aug-cc-pvqz aug-cc-pvqz/c tightscf
| 38> %pal nprocs 16 end
| 39> %maxcore 3800
| 40> %base "QZ_B-Cl_15_AB"
| 41>
| 42> *xyz 0 1
| 43> Cl         0.539512    1.725056    0.204175
| 44> Cl         1.694533   -1.042705   -0.152760
| 45> B         0.341052    0.038708   -0.095301
| 46> C        -1.116280   -0.585805   -0.297248
| 47> F        -2.038424    0.350749   -0.640466
| 48> F        -1.497273   -1.116353    0.909725
| 49> H        -1.165077   -1.388247   -1.037402
| 50> *
| 51>
| 52>
| 53>
| 54>
| 55>                          ****END OF INPUT****
 Total Charge           Charge          ....    0
 Multiplicity           Mult            ....    1
 Number of Electrons    NEL             ....   64
MP2 TOTAL ENERGY:    -1182.045919139 Eh
FINAL SINGLE POINT ENERGY     -1182.045919139237
MP2 TOTAL ENERGY:    -1182.384017417 Eh
FINAL SINGLE POINT ENERGY     -1182.384017416944

CARTESIAN COORDINATES (ANGSTROEM)
---------------------------------
  Cl     0.539512    1.725056    0.204175
  Cl     1.694533   -1.042705   -0.152760
  B      0.341052    0.038708   -0.095301
  C     -1.116280   -0.585805   -0.297248
  F     -2.038424    0.350749   -0.640466
  F     -1.497273   -1.116353    0.909725
  H     -1.165077   -1.388247   -1.037402

 Multiplicity           Mult            ....    1
 Number of Electrons    NEL             ....   64
 Basis Dimension        Dim             ....  534

ORBITAL ENERGIES
----------------

  NO   OCC          E(Eh)            E(eV)
   0   2.0000    -104.866534     -2853.5635
   1   2.0000    -104.863702     -2853.4864
   2   2.0000     -26.318770      -716.1701
   3   2.0000     -26.317130      -716.1255
   4   2.0000     -11.405959      -310.3719
   5   2.0000     -10.594331      -288.2864
   6   2.0000     -10.591490      -288.2091
   7   2.0000      -8.061150      -219.3551
   8   2.0000      -8.060060      -219.3254
   9   2.0000      -8.059769      -219.3175
  10   2.0000      -8.058318      -219.2780
  11   2.0000      -8.057216      -219.2480
  12   2.0000      -8.056886      -219.2390
  13   2.0000      -7.737111      -210.5375
  14   2.0000      -1.666682       -45.3527
  15   2.0000      -1.607068       -43.7306
  16   2.0000      -1.170987       -31.8642
  17   2.0000      -1.126476       -30.6530
  18   2.0000      -0.977383       -26.5959
  19   2.0000      -0.793966       -21.6049
  20   2.0000      -0.780160       -21.2292
  21   2.0000      -0.761899       -20.7323
  22   2.0000      -0.682982       -18.5849
  23   2.0000      -0.677647       -18.4397
  24   2.0000      -0.641457       -17.4549
  25   2.0000      -0.627793       -17.0831
  26   2.0000      -0.592559       -16.1244
  27   2.0000      -0.552727       -15.0405
  28   2.0000      -0.537700       -14.6316
  29   2.0000      -0.488477       -13.2921
  30   2.0000      -0.479458       -13.0467
  31   2.0000      -0.475493       -12.9388
  32   0.0000       0.025138         0.6840
  33   0.0000       0.036990         1.0066
  34   0.0000       0.038293         1.0420
  35   0.0000       0.041093         1.1182
  36   0.0000       0.054463         1.4820

MULLIKEN ATOMIC CHARGES
-----------------------
   0 Cl:   -0.142729
   1 Cl:   -0.161201
   2 B :    0.445354
   3 C :    0.778067
   4 F :   -0.638131
   5 F :   -0.632273
   6 H :    0.350914
Sum of atomic charges:    0.0000000

LOEWDIN ATOMIC CHARGES
----------------------
   0 Cl:    1.291605
   1 Cl:    1.284719
   2 B :   -2.447243
   3 C :   -1.147946
   4 F :    0.737141
   5 F :    0.735097
   6 H :   -0.453374

  Mayer bond orders larger than 0.100000
B(  0-Cl,  2-B ) :   1.1683 B(  1-Cl,  2-B ) :   1.1343 B(  2-B ,  3-C ) :   0.9528
B(  3-C ,  4-F ) :   0.5858 B(  3-C ,  5-F ) :   0.5186 B(  3-C ,  6-H ) :   0.8122

MP2 TOTAL ENERGY:    -1182.497452317 Eh
FINAL SINGLE POINT ENERGY     -1182.497452316793

DIPOLE MOMENT
-------------
                                X             Y             Z
Electronic contribution:      1.48961       1.24280       0.71001
Nuclear contribution   :     -1.03617      -1.48472      -1.17731
                        -----------------------------------------
Total Dipole Moment    :      0.45344      -0.24192      -0.46730
                        -----------------------------------------
Magnitude (a.u.)       :      0.69462
Magnitude (Debye)      :      1.76559

Rotational constants in cm-1:     0.082588     0.060356     0.039443
Rotational constants in MHz :  2475.913805  1809.413479  1182.476564

                             ****ORCA TERMINATED NORMALLY****
TOTAL RUN TIME: 0 days 0 hours 18 minutes 59 seconds 990 msec
