                         Program Version 5.0.4 -  RELEASE  -
|  1> ! ri-mp2 aug-cc-pvdz aug-cc-pvdz/c tightscf
|  2> %pal nprocs 16 end
|  3> %maxcore 3800
|  4> %base "DZ_S-Cl_71_AB"
|  5> %scf
|  6> STABPerform true
|  7> STABRestartUHFifUnstable true
|  8> end
|  9>
| 10> *xyz 0 1
| 11> Cl        -1.727084   -0.804109    0.000007
| 12> S        -0.763847    0.989604    0.000005
| 13> N         0.857738    0.695538   -0.000026
| 14> N         1.337893   -0.428501   -0.000004
| 15> C         2.792246   -0.437107    0.000002
| 16> H         3.123348   -0.989836   -0.879456
| 17> H         3.123347   -0.989819    0.879471
| 18> H         3.212391    0.569235   -0.000008
| 19> *
| 20>
| 21> $new_job
| 22> ! ri-mp2 aug-cc-pvtz aug-cc-pvtz/c tightscf
| 23> %pal nprocs 16 end
| 24> %maxcore 3800
| 25> %base "TZ_S-Cl_71_AB"
| 26>
| 27> *xyz 0 1
| 28> Cl        -1.727084   -0.804109    0.000007
| 29> S        -0.763847    0.989604    0.000005
| 30> N         0.857738    0.695538   -0.000026
| 31> N         1.337893   -0.428501   -0.000004
| 32> C         2.792246   -0.437107    0.000002
| 33> H         3.123348   -0.989836   -0.879456
| 34> H         3.123347   -0.989819    0.879471
| 35> H         3.212391    0.569235   -0.000008
| 36> *
| 37>
| 38> $new_job
| 39> ! ri-mp2 aug-cc-pvqz aug-cc-pvqz/c tightscf
| 40> %pal nprocs 16 end
| 41> %maxcore 3800
| 42> %base "QZ_S-Cl_71_AB"
| 43>
| 44> *xyz 0 1
| 45> Cl        -1.727084   -0.804109    0.000007
| 46> S        -0.763847    0.989604    0.000005
| 47> N         0.857738    0.695538   -0.000026
| 48> N         1.337893   -0.428501   -0.000004
| 49> C         2.792246   -0.437107    0.000002
| 50> H         3.123348   -0.989836   -0.879456
| 51> H         3.123347   -0.989819    0.879471
| 52> H         3.212391    0.569235   -0.000008
| 53> *
| 54>
| 55>
| 56>
| 57>
| 58>                          ****END OF INPUT****
 Total Charge           Charge          ....    0
 Multiplicity           Mult            ....    1
 Number of Electrons    NEL             ....   56
MP2 TOTAL ENERGY:    -1006.268243172 Eh
FINAL SINGLE POINT ENERGY     -1006.268243172429
MP2 TOTAL ENERGY:    -1006.514777348 Eh
FINAL SINGLE POINT ENERGY     -1006.514777347530

CARTESIAN COORDINATES (ANGSTROEM)
---------------------------------
  Cl    -1.727084   -0.804109    0.000007
  S     -0.763847    0.989604    0.000005
  N      0.857738    0.695538   -0.000026
  N      1.337893   -0.428501   -0.000004
  C      2.792246   -0.437107    0.000002
  H      3.123348   -0.989836   -0.879456
  H      3.123347   -0.989819    0.879471
  H      3.212391    0.569235   -0.000008

 Multiplicity           Mult            ....    1
 Number of Electrons    NEL             ....   56
 Basis Dimension        Dim             ....  546

ORBITAL ENERGIES
----------------

  NO   OCC          E(Eh)            E(eV)
   0   2.0000    -104.856308     -2853.2852
   1   2.0000     -92.044431     -2504.6563
   2   2.0000     -15.669871      -426.3989
   3   2.0000     -15.643789      -425.6891
   4   2.0000     -11.268065      -306.6196
   5   2.0000     -10.580604      -287.9129
   6   2.0000      -9.040631      -246.0081
   7   2.0000      -8.047563      -218.9853
   8   2.0000      -8.045670      -218.9338
   9   2.0000      -8.045482      -218.9287
  10   2.0000      -6.721822      -182.9101
  11   2.0000      -6.719746      -182.8536
  12   2.0000      -6.718617      -182.8229
  13   2.0000      -1.406476       -38.2721
  14   2.0000      -1.158589       -31.5268
  15   2.0000      -1.072627       -29.1877
  16   2.0000      -0.952933       -25.9306
  17   2.0000      -0.782105       -21.2822
  18   2.0000      -0.681905       -18.5556
  19   2.0000      -0.670794       -18.2532
  20   2.0000      -0.641026       -17.4432
  21   2.0000      -0.558499       -15.1975
  22   2.0000      -0.557709       -15.1760
  23   2.0000      -0.516396       -14.0518
  24   2.0000      -0.493444       -13.4273
  25   2.0000      -0.467119       -12.7109
  26   2.0000      -0.405385       -11.0311
  27   2.0000      -0.364656        -9.9228
  28   0.0000       0.025699         0.6993
  29   0.0000       0.039434         1.0731
  30   0.0000       0.040957         1.1145
  31   0.0000       0.051300         1.3959
  32   0.0000       0.055945         1.5223

MULLIKEN ATOMIC CHARGES
-----------------------
   0 Cl:   -0.268330
   1 S :    0.604214
   2 N :   -0.438943
   3 N :   -0.193899
   4 C :   -0.612470
   5 H :    0.299562
   6 H :    0.299565
   7 H :    0.310301
Sum of atomic charges:    0.0000000

LOEWDIN ATOMIC CHARGES
----------------------
   0 Cl:    0.433671
   1 S :    0.166889
   2 N :   -0.366995
   3 N :    0.140026
   4 C :    0.640490
   5 H :   -0.330912
   6 H :   -0.330910
   7 H :   -0.352257

  Mayer bond orders larger than 0.100000
B(  0-Cl,  1-S ) :   0.9742 B(  1-S ,  2-N ) :   1.0329 B(  2-N ,  3-N ) :   1.7200
B(  3-N ,  4-C ) :   0.8241 B(  4-C ,  5-H ) :   0.9104 B(  4-C ,  6-H ) :   0.9104
B(  4-C ,  7-H ) :   0.9093

MP2 TOTAL ENERGY:    -1006.595347725 Eh
FINAL SINGLE POINT ENERGY     -1006.595347725222

DIPOLE MOMENT
-------------
                                X             Y             Z
Electronic contribution:    -10.57092       0.33754       0.00001
Nuclear contribution   :     11.38304      -0.27490      -0.00000
                        -----------------------------------------
Total Dipole Moment    :      0.81212       0.06264       0.00001
                        -----------------------------------------
Magnitude (a.u.)       :      0.81453
Magnitude (Debye)      :      2.07037

Rotational constants in cm-1:     0.242076     0.059355     0.048092
Rotational constants in MHz :  7257.249904  1779.424841  1441.749377

                             ****ORCA TERMINATED NORMALLY****
TOTAL RUN TIME: 0 days 0 hours 12 minutes 17 seconds 418 msec
