                         Program Version 5.0.4 -  RELEASE  -
|  1> ! ri-mp2 aug-cc-pvdz aug-cc-pvdz/c tightscf
|  2> %pal nprocs 16 end
|  3> %maxcore 3800
|  4> %base "DZ_Si-Si_32_AB"
|  5> %scf
|  6> STABPerform true
|  7> STABRestartUHFifUnstable true
|  8> end
|  9>
| 10> *xyz 0 1
| 11> Si         1.296529   -0.000017    0.393871
| 12> Si        -1.027817   -0.000008    0.307504
| 13> F        -1.624459   -0.000047    1.772821
| 14> Cl        -1.684077   -1.663398   -0.644044
| 15> F         1.817015   -1.271833    1.169954
| 16> Cl         2.082959    0.000058   -1.466992
| 17> Cl        -1.684068    1.663439   -0.643951
| 18> F         1.817023    1.271731    1.170060
| 19> *
| 20>
| 21> $new_job
| 22> ! ri-mp2 aug-cc-pvtz aug-cc-pvtz/c tightscf
| 23> %pal nprocs 16 end
| 24> %maxcore 3800
| 25> %base "TZ_Si-Si_32_AB"
| 26>
| 27> *xyz 0 1
| 28> Si         1.296529   -0.000017    0.393871
| 29> Si        -1.027817   -0.000008    0.307504
| 30> F        -1.624459   -0.000047    1.772821
| 31> Cl        -1.684077   -1.663398   -0.644044
| 32> F         1.817015   -1.271833    1.169954
| 33> Cl         2.082959    0.000058   -1.466992
| 34> Cl        -1.684068    1.663439   -0.643951
| 35> F         1.817023    1.271731    1.170060
| 36> *
| 37>
| 38> $new_job
| 39> ! ri-mp2 aug-cc-pvqz aug-cc-pvqz/c tightscf
| 40> %pal nprocs 16 end
| 41> %maxcore 3800
| 42> %base "QZ_Si-Si_32_AB"
| 43>
| 44> *xyz 0 1
| 45> Si         1.296529   -0.000017    0.393871
| 46> Si        -1.027817   -0.000008    0.307504
| 47> F        -1.624459   -0.000047    1.772821
| 48> Cl        -1.684077   -1.663398   -0.644044
| 49> F         1.817015   -1.271833    1.169954
| 50> Cl         2.082959    0.000058   -1.466992
| 51> Cl        -1.684068    1.663439   -0.643951
| 52> F         1.817023    1.271731    1.170060
| 53> *
| 54>
| 55>
| 56>
| 57>
| 58>                          ****END OF INPUT****
 Total Charge           Charge          ....    0
 Multiplicity           Mult            ....    1
 Number of Electrons    NEL             ....  106
MP2 TOTAL ENERGY:    -2256.313773285 Eh
FINAL SINGLE POINT ENERGY     -2256.313773284519
MP2 TOTAL ENERGY:    -2256.835761374 Eh
FINAL SINGLE POINT ENERGY     -2256.835761374191

CARTESIAN COORDINATES (ANGSTROEM)
---------------------------------
  Si     1.296529   -0.000017    0.393871
  Si    -1.027817   -0.000008    0.307504
  F     -1.624459   -0.000047    1.772821
  Cl    -1.684077   -1.663398   -0.644044
  F      1.817015   -1.271833    1.169954
  Cl     2.082959    0.000058   -1.466992
  Cl    -1.684068    1.663439   -0.643951
  F      1.817023    1.271731    1.170060

 Multiplicity           Mult            ....    1
 Number of Electrons    NEL             ....  106
 Basis Dimension        Dim             ....  660

ORBITAL ENERGIES
----------------

  NO   OCC          E(Eh)            E(eV)
   0   2.0000    -104.865234     -2853.5281
   1   2.0000    -104.865234     -2853.5281
   2   2.0000    -104.865032     -2853.5226
   3   2.0000     -68.915305     -1875.2808
   4   2.0000     -68.910562     -1875.1517
   5   2.0000     -26.326864      -716.3904
   6   2.0000     -26.326855      -716.3901
   7   2.0000     -26.326623      -716.3838
   8   2.0000     -10.592840      -288.2458
   9   2.0000     -10.592834      -288.2457
  10   2.0000     -10.592722      -288.2426
  11   2.0000      -8.059588      -219.3125
  12   2.0000      -8.059587      -219.3125
  13   2.0000      -8.059487      -219.3098
  14   2.0000      -8.058389      -219.2799
  15   2.0000      -8.058388      -219.2799
  16   2.0000      -8.058377      -219.2796
  17   2.0000      -8.058377      -219.2796
  18   2.0000      -8.058308      -219.2777
  19   2.0000      -8.058296      -219.2774
  20   2.0000      -6.250816      -170.0933
  21   2.0000      -6.245726      -169.9548
  22   2.0000      -4.358454      -118.5996
  23   2.0000      -4.358399      -118.5981
  24   2.0000      -4.357213      -118.5658
  25   2.0000      -4.353786      -118.4725
  26   2.0000      -4.353767      -118.4720
  27   2.0000      -4.352438      -118.4359
  28   2.0000      -1.643011       -44.7086
  29   2.0000      -1.632765       -44.4298
  30   2.0000      -1.623508       -44.1779
  31   2.0000      -1.152550       -31.3625
  32   2.0000      -1.138124       -30.9699
  33   2.0000      -1.124360       -30.5954
  34   2.0000      -0.830694       -22.6043
  35   2.0000      -0.796015       -21.6607
  36   2.0000      -0.753603       -20.5066
  37   2.0000      -0.734244       -19.9798
  38   2.0000      -0.725911       -19.7530
  39   2.0000      -0.711772       -19.3683
  40   2.0000      -0.707758       -19.2591
  41   2.0000      -0.696111       -18.9421
  42   2.0000      -0.679340       -18.4858
  43   2.0000      -0.667552       -18.1650
  44   2.0000      -0.608189       -16.5497
  45   2.0000      -0.574302       -15.6276
  46   2.0000      -0.550284       -14.9740
  47   2.0000      -0.526060       -14.3148
  48   2.0000      -0.511954       -13.9310
  49   2.0000      -0.507974       -13.8227
  50   2.0000      -0.500479       -13.6187
  51   2.0000      -0.489078       -13.3085
  52   2.0000      -0.456981       -12.4351
  53   0.0000       0.032253         0.8776
  54   0.0000       0.032683         0.8893
  55   0.0000       0.040087         1.0908
  56   0.0000       0.040098         1.0911
  57   0.0000       0.054739         1.4895

MULLIKEN ATOMIC CHARGES
-----------------------
   0 Si:    2.025109
   1 Si:    1.848016
   2 F :   -0.747422
   3 Cl:   -0.560634
   4 F :   -0.728457
   5 Cl:   -0.547520
   6 Cl:   -0.560635
   7 F :   -0.728457
Sum of atomic charges:    0.0000000

LOEWDIN ATOMIC CHARGES
----------------------
   0 Si:   -1.778670
   1 Si:   -2.064601
   2 F :    0.343801
   3 Cl:    0.902639
   4 F :    0.378235
   5 Cl:    0.937722
   6 Cl:    0.902639
   7 F :    0.378235

  Mayer bond orders larger than 0.100000
B(  0-Si,  1-Si) :   0.9667 B(  0-Si,  4-F ) :   0.4032 B(  0-Si,  5-Cl) :   0.6169
B(  0-Si,  7-F ) :   0.4032 B(  1-Si,  2-F ) :   0.3787 B(  1-Si,  3-Cl) :   0.5915
B(  1-Si,  6-Cl) :   0.5915

MP2 TOTAL ENERGY:    -2257.012885926 Eh
FINAL SINGLE POINT ENERGY     -2257.012885926141

DIPOLE MOMENT
-------------
                                X             Y             Z
Electronic contribution:      0.04571       0.00001      -0.19986
Nuclear contribution   :     -0.14718       0.00001      -0.14776
                        -----------------------------------------
Total Dipole Moment    :     -0.10146       0.00001      -0.34762
                        -----------------------------------------
Magnitude (a.u.)       :      0.36212
Magnitude (Debye)      :      0.92045

Rotational constants in cm-1:     0.034968     0.020266     0.019488
Rotational constants in MHz :  1048.311568   607.560389   584.234367

                             ****ORCA TERMINATED NORMALLY****
TOTAL RUN TIME: 0 days 0 hours 27 minutes 54 seconds 83 msec
