                         Program Version 5.0.4 -  RELEASE  -
|  1> ! ri-mp2 aug-cc-pvdz aug-cc-pvdz/c tightscf
|  2> %pal nprocs 16 end
|  3> %maxcore 3800
|  4> %base "DZ_S-S_1_A"
|  5> %scf
|  6> STABPerform true
|  7> STABRestartUHFifUnstable true
|  8> end
|  9>
| 10> *xyz 0 2
| 11> S         2.092172    0.004105   -0.000013
| 12> C         0.513420    0.846805   -0.000106
| 13> C        -0.758153   -0.012231    0.000005
| 14> C        -1.952876    0.941776   -0.000112
| 15> H        -1.946444    1.583570    0.883007
| 16> H        -2.890361    0.383952   -0.000036
| 17> H        -1.946452    1.583343   -0.883396
| 18> C        -0.803457   -0.886400    1.249723
| 19> H        -0.785860   -0.277484    2.156139
| 20> H         0.047445   -1.567043    1.281484
| 21> H        -1.715752   -1.484215    1.266012
| 22> C        -0.803468   -0.886721   -1.249486
| 23> H        -0.785886   -0.278038   -2.156059
| 24> H        -1.715761   -1.484544   -1.265609
| 25> H         0.047437   -1.567368   -1.281084
| 26> H         0.522049    1.511267   -0.870235
| 27> H         0.522043    1.511503    0.869842
| 28> *
| 29>
| 30> $new_job
| 31> ! ri-mp2 aug-cc-pvtz aug-cc-pvtz/c tightscf
| 32> %pal nprocs 16 end
| 33> %maxcore 3800
| 34> %base "TZ_S-S_1_A"
| 35>
| 36> *xyz 0 2
| 37> S         2.092172    0.004105   -0.000013
| 38> C         0.513420    0.846805   -0.000106
| 39> C        -0.758153   -0.012231    0.000005
| 40> C        -1.952876    0.941776   -0.000112
| 41> H        -1.946444    1.583570    0.883007
| 42> H        -2.890361    0.383952   -0.000036
| 43> H        -1.946452    1.583343   -0.883396
| 44> C        -0.803457   -0.886400    1.249723
| 45> H        -0.785860   -0.277484    2.156139
| 46> H         0.047445   -1.567043    1.281484
| 47> H        -1.715752   -1.484215    1.266012
| 48> C        -0.803468   -0.886721   -1.249486
| 49> H        -0.785886   -0.278038   -2.156059
| 50> H        -1.715761   -1.484544   -1.265609
| 51> H         0.047437   -1.567368   -1.281084
| 52> H         0.522049    1.511267   -0.870235
| 53> H         0.522043    1.511503    0.869842
| 54> *
| 55>
| 56> $new_job
| 57> ! ri-mp2 aug-cc-pvqz aug-cc-pvqz/c tightscf
| 58> %pal nprocs 16 end
| 59> %maxcore 3800
| 60> %base "QZ_S-S_1_A"
| 61>
| 62> *xyz 0 2
| 63> S         2.092172    0.004105   -0.000013
| 64> C         0.513420    0.846805   -0.000106
| 65> C        -0.758153   -0.012231    0.000005
| 66> C        -1.952876    0.941776   -0.000112
| 67> H        -1.946444    1.583570    0.883007
| 68> H        -2.890361    0.383952   -0.000036
| 69> H        -1.946452    1.583343   -0.883396
| 70> C        -0.803457   -0.886400    1.249723
| 71> H        -0.785860   -0.277484    2.156139
| 72> H         0.047445   -1.567043    1.281484
| 73> H        -1.715752   -1.484215    1.266012
| 74> C        -0.803468   -0.886721   -1.249486
| 75> H        -0.785886   -0.278038   -2.156059
| 76> H        -1.715761   -1.484544   -1.265609
| 77> H         0.047437   -1.567368   -1.281084
| 78> H         0.522049    1.511267   -0.870235
| 79> H         0.522043    1.511503    0.869842
| 80> *
| 81>
| 82>
| 83>
| 84>
| 85>                          ****END OF INPUT****
 Total Charge           Charge          ....    0
 Multiplicity           Mult            ....    2
 Number of Electrons    NEL             ....   57
MP2 TOTAL ENERGY:     -594.159050374 Eh
FINAL SINGLE POINT ENERGY      -594.159050373583
MP2 TOTAL ENERGY:     -594.396088243 Eh
FINAL SINGLE POINT ENERGY      -594.396088243318

CARTESIAN COORDINATES (ANGSTROEM)
---------------------------------
  S      2.092172    0.004105   -0.000013
  C      0.513420    0.846805   -0.000106
  C     -0.758153   -0.012231    0.000005
  C     -1.952876    0.941776   -0.000112
  H     -1.946444    1.583570    0.883007
  H     -2.890361    0.383952   -0.000036
  H     -1.946452    1.583343   -0.883396
  C     -0.803457   -0.886400    1.249723
  H     -0.785860   -0.277484    2.156139
  H      0.047445   -1.567043    1.281484
  H     -1.715752   -1.484215    1.266012
  C     -0.803468   -0.886721   -1.249486
  H     -0.785886   -0.278038   -2.156059
  H     -1.715761   -1.484544   -1.265609
  H      0.047437   -1.567368   -1.281084
  H      0.522049    1.511267   -0.870235
  H      0.522043    1.511503    0.869842

 Multiplicity           Mult            ....    2
 Number of Electrons    NEL             ....   57
 Basis Dimension        Dim             ....  990

ORBITAL ENERGIES
----------------
                 SPIN UP ORBITALS
  NO   OCC          E(Eh)            E(eV)
   0   1.0000     -91.962539     -2502.4279
   1   1.0000     -11.257049      -306.3199
   2   1.0000     -11.239776      -305.8498
   3   1.0000     -11.215982      -305.2024
   4   1.0000     -11.210751      -305.0600
   5   1.0000     -11.210734      -305.0596
   6   1.0000      -8.964932      -243.9482
   7   1.0000      -6.660858      -181.2512
   8   1.0000      -6.642401      -180.7489
   9   1.0000      -6.641011      -180.7111
  10   1.0000      -1.128195       -30.6997
  11   1.0000      -1.021777       -27.8040
  12   1.0000      -0.939136       -25.5552
  13   1.0000      -0.936600       -25.4862
  14   1.0000      -0.862130       -23.4598
  15   1.0000      -0.736301       -20.0358
  16   1.0000      -0.637727       -17.3534
  17   1.0000      -0.631039       -17.1714
  18   1.0000      -0.603542       -16.4232
  19   1.0000      -0.579393       -15.7661
  20   1.0000      -0.552305       -15.0290
  21   1.0000      -0.529038       -14.3958
  22   1.0000      -0.517513       -14.0822
  23   1.0000      -0.503418       -13.6987
  24   1.0000      -0.479449       -13.0465
  25   1.0000      -0.469360       -12.7719
  26   1.0000      -0.451202       -12.2778
  27   1.0000      -0.421652       -11.4737
  28   1.0000      -0.363468        -9.8905
  29   0.0000       0.025030         0.6811
  30   0.0000       0.031849         0.8667
  31   0.0000       0.031904         0.8682
  32   0.0000       0.036129         0.9831
  33   0.0000       0.049633         1.3506

                 SPIN DOWN ORBITALS
  NO   OCC          E(Eh)            E(eV)
   0   1.0000     -91.953457     -2502.1808
   1   1.0000     -11.258052      -306.3472
   2   1.0000     -11.239770      -305.8497
   3   1.0000     -11.216020      -305.2034
   4   1.0000     -11.210720      -305.0592
   5   1.0000     -11.210703      -305.0587
   6   1.0000      -8.954926      -243.6759
   7   1.0000      -6.637376      -180.6122
   8   1.0000      -6.635759      -180.5682
   9   1.0000      -6.619852      -180.1353
  10   1.0000      -1.124291       -30.5935
  11   1.0000      -0.989688       -26.9308
  12   1.0000      -0.938822       -25.5466
  13   1.0000      -0.936303       -25.4781
  14   1.0000      -0.809920       -22.0390
  15   1.0000      -0.727081       -19.7849
  16   1.0000      -0.630055       -17.1447
  17   1.0000      -0.628303       -17.0970
  18   1.0000      -0.600234       -16.3332
  19   1.0000      -0.567734       -15.4488
  20   1.0000      -0.550283       -14.9740
  21   1.0000      -0.524054       -14.2602
  22   1.0000      -0.517062       -14.0700
  23   1.0000      -0.498340       -13.5605
  24   1.0000      -0.477808       -13.0018
  25   1.0000      -0.465587       -12.6693
  26   1.0000      -0.445172       -12.1138
  27   1.0000      -0.345123        -9.3913
  28   0.0000       0.023037         0.6269
  29   0.0000       0.025087         0.6826
  30   0.0000       0.031869         0.8672
  31   0.0000       0.034282         0.9329
  32   0.0000       0.036382         0.9900

MULLIKEN ATOMIC CHARGES AND SPIN POPULATIONS
--------------------------------------------
   0 S :   -0.280542    1.153831
   1 C :   -0.461920   -0.225940
   2 C :    1.295592    0.013220
   3 C :   -1.030411    0.000312
   4 H :    0.244021    0.000174
   5 H :    0.212099   -0.000768
   6 H :    0.244077    0.000174
   7 C :   -1.003367   -0.003493
   8 H :    0.226484    0.000778
   9 H :    0.239237    0.000339
  10 H :    0.244577   -0.000098
  11 C :   -1.003350   -0.003494
  12 H :    0.226470    0.000777
  13 H :    0.244587   -0.000098
  14 H :    0.239203    0.000342
  15 H :    0.181591    0.031977
  16 H :    0.181652    0.031968
Sum of atomic charges         :   -0.0000000

LOEWDIN ATOMIC CHARGES AND SPIN POPULATIONS
-------------------------------------------
   0 S :    1.146197    0.731955
   1 C :   -0.067090    0.188299
   2 C :   -0.421229    0.007457
   3 C :    0.894799    0.000757
   4 H :   -0.270202    0.000329
   5 H :   -0.268612   -0.000185
   6 H :   -0.270202    0.000329
   7 C :    0.867606    0.005916
   8 H :   -0.270722    0.000480
   9 H :   -0.310554    0.005489
  10 H :   -0.270359    0.000273
  11 C :    0.867605    0.005915
  12 H :   -0.270721    0.000480
  13 H :   -0.270359    0.000273
  14 H :   -0.310556    0.005488
  15 H :   -0.387803    0.023373
  16 H :   -0.387798    0.023369

  Mayer bond orders larger than 0.100000
B(  0-S ,  1-C ) :   0.7992 B(  1-C ,  2-C ) :   0.6422 B(  1-C , 15-H ) :   1.0064
B(  1-C , 16-H ) :   1.0064 B(  2-C ,  3-C ) :   0.4043 B(  2-C ,  7-C ) :   0.4488
B(  2-C ,  8-H ) :  -0.1002 B(  2-C , 11-C ) :   0.4488 B(  2-C , 12-H ) :  -0.1002
B(  3-C ,  4-H ) :   1.0272 B(  3-C ,  5-H ) :   1.0450 B(  3-C ,  6-H ) :   1.0272
B(  3-C ,  7-C ) :   0.1091 B(  3-C , 11-C ) :   0.1091 B(  7-C ,  8-H ) :   1.0405
B(  7-C ,  9-H ) :   1.0341 B(  7-C , 10-H ) :   1.0222 B( 11-C , 12-H ) :   1.0405
B( 11-C , 13-H ) :   1.0222 B( 11-C , 14-H ) :   1.0341

MP2 TOTAL ENERGY:     -594.468197258 Eh
FINAL SINGLE POINT ENERGY      -594.468197257544

DIPOLE MOMENT
-------------
                                X             Y             Z
Electronic contribution:     10.45647       0.32492      -0.00009
Nuclear contribution   :    -11.11142      -0.08836       0.00007
                        -----------------------------------------
Total Dipole Moment    :     -0.65496       0.23656      -0.00003
                        -----------------------------------------
Magnitude (a.u.)       :      0.69637
Magnitude (Debye)      :      1.77003

Rotational constants in cm-1:     0.147839     0.057943     0.057748
Rotational constants in MHz :  4432.092531  1737.101499  1731.238210

                             ****ORCA TERMINATED NORMALLY****
TOTAL RUN TIME: 0 days 5 hours 31 minutes 4 seconds 105 msec
