                         Program Version 5.0.4 -  RELEASE  -
|  1> ! ri-mp2 aug-cc-pvdz aug-cc-pvdz/c tightscf
|  2> %pal nprocs 16 end
|  3> %maxcore 3800
|  4> %base "DZ_S-F_69_AB"
|  5>
|  6> *xyz 0 1
|  7> F         1.205292   -0.489595    0.000000
|  8> S         0.000000    0.550795    0.000000
|  9> F        -1.205292   -0.489595    0.000000
| 10> *
| 11>
| 12> $new_job
| 13> ! ri-mp2 aug-cc-pvtz aug-cc-pvtz/c tightscf
| 14> %pal nprocs 16 end
| 15> %maxcore 3800
| 16> %base "TZ_S-F_69_AB"
| 17>
| 18> *xyz 0 1
| 19> F         1.205292   -0.489595    0.000000
| 20> S         0.000000    0.550795    0.000000
| 21> F        -1.205292   -0.489595    0.000000
| 22> *
| 23>
| 24> $new_job
| 25> ! ri-mp2 aug-cc-pvqz aug-cc-pvqz/c tightscf
| 26> %pal nprocs 16 end
| 27> %maxcore 3800
| 28> %base "QZ_S-F_69_AB"
| 29>
| 30> *xyz 0 1
| 31> F         1.205292   -0.489595    0.000000
| 32> S         0.000000    0.550795    0.000000
| 33> F        -1.205292   -0.489595    0.000000
| 34> *
| 35>
| 36>
| 37>
| 38>
| 39>                          ****END OF INPUT****
 Total Charge           Charge          ....    0
 Multiplicity           Mult            ....    1
 Number of Electrons    NEL             ....   34
MP2 TOTAL ENERGY:     -596.914793642 Eh
FINAL SINGLE POINT ENERGY      -596.914793641972
MP2 TOTAL ENERGY:     -597.138027397 Eh
FINAL SINGLE POINT ENERGY      -597.138027396786

CARTESIAN COORDINATES (ANGSTROEM)
---------------------------------
  F      1.205292   -0.489595    0.000000
  S      0.000000    0.550795    0.000000
  F     -1.205292   -0.489595    0.000000

 Multiplicity           Mult            ....    1
 Number of Electrons    NEL             ....   34
 Basis Dimension        Dim             ....  244

ORBITAL ENERGIES
----------------

  NO   OCC          E(Eh)            E(eV)
   0   2.0000     -92.119803     -2506.7073
   1   2.0000     -26.347796      -716.9600
   2   2.0000     -26.347784      -716.9597
   3   2.0000      -9.105922      -247.7847
   4   2.0000      -6.787083      -184.6859
   5   2.0000      -6.785553      -184.6443
   6   2.0000      -6.782858      -184.5709
   7   2.0000      -1.673784       -45.5460
   8   2.0000      -1.632114       -44.4121
   9   2.0000      -0.988225       -26.8910
  10   2.0000      -0.775621       -21.1057
  11   2.0000      -0.752905       -20.4876
  12   2.0000      -0.751224       -20.4418
  13   2.0000      -0.706888       -19.2354
  14   2.0000      -0.673144       -18.3172
  15   2.0000      -0.605527       -16.4772
  16   2.0000      -0.398801       -10.8519
  17   0.0000       0.049886         1.3575
  18   0.0000       0.056456         1.5363
  19   0.0000       0.065519         1.7829
  20   0.0000       0.075364         2.0508
  21   0.0000       0.114694         3.1210

MULLIKEN ATOMIC CHARGES
-----------------------
   0 F :   -0.533592
   1 S :    1.067183
   2 F :   -0.533592
Sum of atomic charges:   -0.0000000

LOEWDIN ATOMIC CHARGES
----------------------
   0 F :   -0.000670
   1 S :    0.001339
   2 F :   -0.000670

  Mayer bond orders larger than 0.100000
B(  0-F ,  1-S ) :   0.6825 B(  1-S ,  2-F ) :   0.6825

MP2 TOTAL ENERGY:     -597.212588383 Eh
FINAL SINGLE POINT ENERGY      -597.212588382908

DIPOLE MOMENT
-------------
                                X             Y             Z
Electronic contribution:     -0.00000      -0.34560      -0.00000
Nuclear contribution   :      0.00000       0.86594       0.00000
                        -----------------------------------------
Total Dipole Moment    :     -0.00000       0.52034      -0.00000
                        -----------------------------------------
Magnitude (a.u.)       :      0.52034
Magnitude (Debye)      :      1.32259

Rotational constants in cm-1:     0.895671     0.305404     0.227747
Rotational constants in MHz : 26851.540411  9155.776380  6827.687297

                             ****ORCA TERMINATED NORMALLY****
TOTAL RUN TIME: 0 days 0 hours 0 minutes 57 seconds 296 msec
