                         Program Version 5.0.4 -  RELEASE  -
|  1> ! ri-mp2 aug-cc-pvdz aug-cc-pvdz/c tightscf
|  2> %pal nprocs 16 end
|  3> %maxcore 3800
|  4> %base "DZ_B-B_39_AB"
|  5> %scf
|  6> STABPerform true
|  7> STABRestartUHFifUnstable true
|  8> end
|  9>
| 10> *xyz 0 1
| 11> B         0.683285   -1.013195   -0.453126
| 12> B        -0.683282   -1.013189    0.453129
| 13> C        -1.817250    0.038409    0.230140
| 14> N        -1.662040    1.228427    0.655798
| 15> H        -0.741873    1.385825    1.070965
| 16> C         1.817254    0.038405   -0.230150
| 17> N         1.662035    1.228424   -0.655802
| 18> H         0.741866    1.385818   -1.070966
| 19> C        -3.105013   -0.339807   -0.431219
| 20> H        -3.596251   -1.142922    0.122572
| 21> H        -2.925367   -0.712166   -1.442494
| 22> H        -3.762633    0.526901   -0.476457
| 23> C         3.105012   -0.339801    0.431224
| 24> H         3.596260   -1.142915   -0.122560
| 25> H         2.925360   -0.712156    1.442499
| 26> H         3.762627    0.526912    0.476464
| 27> H        -0.827876   -1.782274    1.357403
| 28> H         0.827883   -1.782296   -1.357385
| 29> *
| 30>
| 31> $new_job
| 32> ! ri-mp2 aug-cc-pvtz aug-cc-pvtz/c tightscf
| 33> %pal nprocs 16 end
| 34> %maxcore 3800
| 35> %base "TZ_B-B_39_AB"
| 36>
| 37> *xyz 0 1
| 38> B         0.683285   -1.013195   -0.453126
| 39> B        -0.683282   -1.013189    0.453129
| 40> C        -1.817250    0.038409    0.230140
| 41> N        -1.662040    1.228427    0.655798
| 42> H        -0.741873    1.385825    1.070965
| 43> C         1.817254    0.038405   -0.230150
| 44> N         1.662035    1.228424   -0.655802
| 45> H         0.741866    1.385818   -1.070966
| 46> C        -3.105013   -0.339807   -0.431219
| 47> H        -3.596251   -1.142922    0.122572
| 48> H        -2.925367   -0.712166   -1.442494
| 49> H        -3.762633    0.526901   -0.476457
| 50> C         3.105012   -0.339801    0.431224
| 51> H         3.596260   -1.142915   -0.122560
| 52> H         2.925360   -0.712156    1.442499
| 53> H         3.762627    0.526912    0.476464
| 54> H        -0.827876   -1.782274    1.357403
| 55> H         0.827883   -1.782296   -1.357385
| 56> *
| 57>
| 58> $new_job
| 59> ! ri-mp2 aug-cc-pvqz aug-cc-pvqz/c tightscf
| 60> %pal nprocs 16 end
| 61> %maxcore 3800
| 62> %base "QZ_B-B_39_AB"
| 63>
| 64> *xyz 0 1
| 65> B         0.683285   -1.013195   -0.453126
| 66> B        -0.683282   -1.013189    0.453129
| 67> C        -1.817250    0.038409    0.230140
| 68> N        -1.662040    1.228427    0.655798
| 69> H        -0.741873    1.385825    1.070965
| 70> C         1.817254    0.038405   -0.230150
| 71> N         1.662035    1.228424   -0.655802
| 72> H         0.741866    1.385818   -1.070966
| 73> C        -3.105013   -0.339807   -0.431219
| 74> H        -3.596251   -1.142922    0.122572
| 75> H        -2.925367   -0.712166   -1.442494
| 76> H        -3.762633    0.526901   -0.476457
| 77> C         3.105012   -0.339801    0.431224
| 78> H         3.596260   -1.142915   -0.122560
| 79> H         2.925360   -0.712156    1.442499
| 80> H         3.762627    0.526912    0.476464
| 81> H        -0.827876   -1.782274    1.357403
| 82> H         0.827883   -1.782296   -1.357385
| 83> *
| 84>
| 85>
| 86>
| 87>
| 88>                          ****END OF INPUT****
 Total Charge           Charge          ....    0
 Multiplicity           Mult            ....    1
 Number of Electrons    NEL             ....   58
MP2 TOTAL ENERGY:     -316.600649430 Eh
FINAL SINGLE POINT ENERGY      -316.600649430066
MP2 TOTAL ENERGY:     -316.882124683 Eh
FINAL SINGLE POINT ENERGY      -316.882124682593

CARTESIAN COORDINATES (ANGSTROEM)
---------------------------------
  B      0.683285   -1.013195   -0.453126
  B     -0.683282   -1.013189    0.453129
  C     -1.817250    0.038409    0.230140
  N     -1.662040    1.228427    0.655798
  H     -0.741873    1.385825    1.070965
  C      1.817254    0.038405   -0.230150
  N      1.662035    1.228424   -0.655802
  H      0.741866    1.385818   -1.070966
  C     -3.105013   -0.339807   -0.431219
  H     -3.596251   -1.142922    0.122572
  H     -2.925367   -0.712166   -1.442494
  H     -3.762633    0.526901   -0.476457
  C      3.105012   -0.339801    0.431224
  H      3.596260   -1.142915   -0.122560
  H      2.925360   -0.712156    1.442499
  H      3.762627    0.526912    0.476464
  H     -0.827876   -1.782274    1.357403
  H      0.827883   -1.782296   -1.357385

 Multiplicity           Mult            ....    1
 Number of Electrons    NEL             ....   58
 Basis Dimension        Dim             .... 1100

ORBITAL ENERGIES
----------------

  NO   OCC          E(Eh)            E(eV)
   0   2.0000     -15.549461      -423.1223
   1   2.0000     -15.549460      -423.1223
   2   2.0000     -11.273792      -306.7755
   3   2.0000     -11.273792      -306.7755
   4   2.0000     -11.230014      -305.5842
   5   2.0000     -11.230014      -305.5842
   6   2.0000      -7.607787      -207.0184
   7   2.0000      -7.606803      -206.9916
   8   2.0000      -1.214343       -33.0439
   9   2.0000      -1.209499       -32.9121
  10   2.0000      -0.996974       -27.1290
  11   2.0000      -0.995955       -27.1013
  12   2.0000      -0.820875       -22.3372
  13   2.0000      -0.782155       -21.2835
  14   2.0000      -0.735797       -20.0221
  15   2.0000      -0.700705       -19.0671
  16   2.0000      -0.618452       -16.8289
  17   2.0000      -0.599309       -16.3080
  18   2.0000      -0.594632       -16.1808
  19   2.0000      -0.576505       -15.6875
  20   2.0000      -0.572476       -15.5779
  21   2.0000      -0.562822       -15.3152
  22   2.0000      -0.542474       -14.7615
  23   2.0000      -0.530712       -14.4414
  24   2.0000      -0.493937       -13.4407
  25   2.0000      -0.428945       -11.6722
  26   2.0000      -0.415743       -11.3129
  27   2.0000      -0.402467       -10.9517
  28   2.0000      -0.383245       -10.4286
  29   0.0000       0.015853         0.4314
  30   0.0000       0.024584         0.6690
  31   0.0000       0.027257         0.7417
  32   0.0000       0.032481         0.8839
  33   0.0000       0.038919         1.0590

MULLIKEN ATOMIC CHARGES
-----------------------
   0 B :    0.492615
   1 B :    0.492606
   2 C :    0.343543
   3 N :   -0.846319
   4 H :    0.329624
   5 C :    0.343536
   6 N :   -0.846318
   7 H :    0.329624
   8 C :   -0.826603
   9 H :    0.277928
  10 H :    0.259760
  11 H :    0.319456
  12 C :   -0.826608
  13 H :    0.277926
  14 H :    0.259763
  15 H :    0.319456
  16 H :   -0.349993
  17 H :   -0.349996
Sum of atomic charges:    0.0000000

LOEWDIN ATOMIC CHARGES
----------------------
   0 B :   -0.012090
   1 B :   -0.012090
   2 C :   -0.203187
   3 N :    1.015335
   4 H :   -0.657251
   5 C :   -0.203186
   6 N :    1.015335
   7 H :   -0.657252
   8 C :    0.884575
   9 H :   -0.286512
  10 H :   -0.284653
  11 H :   -0.313195
  12 C :    0.884575
  13 H :   -0.286512
  14 H :   -0.284653
  15 H :   -0.313194
  16 H :   -0.143022
  17 H :   -0.143023

  Mayer bond orders larger than 0.100000
B(  0-B ,  1-B ) :   1.0752 B(  0-B ,  5-C ) :   0.8594 B(  0-B , 17-H ) :   0.8813
B(  1-B ,  2-C ) :   0.8594 B(  1-B , 16-H ) :   0.8813 B(  2-C ,  3-N ) :   1.4761
B(  2-C ,  8-C ) :   0.8109 B(  3-N ,  4-H ) :   0.7694 B(  5-C ,  6-N ) :   1.4761
B(  5-C , 12-C ) :   0.8109 B(  6-N ,  7-H ) :   0.7694 B(  8-C ,  9-H ) :   0.9648
B(  8-C , 10-H ) :   0.9161 B(  8-C , 11-H ) :   0.9549 B( 12-C , 13-H ) :   0.9648
B( 12-C , 14-H ) :   0.9161 B( 12-C , 15-H ) :   0.9549

MP2 TOTAL ENERGY:     -316.970848322 Eh
FINAL SINGLE POINT ENERGY      -316.970848321914

DIPOLE MOMENT
-------------
                                X             Y             Z
Electronic contribution:      0.00001       0.23070      -0.00003
Nuclear contribution   :     -0.00001      -1.82156       0.00004
                        -----------------------------------------
Total Dipole Moment    :      0.00000      -1.59086       0.00000
                        -----------------------------------------
Magnitude (a.u.)       :      1.59086
Magnitude (Debye)      :      4.04365

Rotational constants in cm-1:     0.147179     0.033335     0.030394
Rotational constants in MHz :  4412.308647   999.362293   911.183145

                             ****ORCA TERMINATED NORMALLY****
TOTAL RUN TIME: 0 days 1 hours 38 minutes 55 seconds 184 msec
