                         Program Version 5.0.4 -  RELEASE  -
|  1> ! ri-mp2 aug-cc-pvdz aug-cc-pvdz/c tightscf
|  2> %pal nprocs 16 end
|  3> %maxcore 3800
|  4> %base "DZ_B-S_48_AB"
|  5> %scf
|  6> STABPerform true
|  7> STABRestartUHFifUnstable true
|  8> end
|  9>
| 10> *xyz 0 1
| 11> S        -0.453014   -1.167749    0.533960
| 12> B        -1.723522    0.055386    0.064118
| 13> S        -3.275689   -0.646343   -0.520084
| 14> S        -1.601141    1.832691    0.141027
| 15> S         1.183088   -0.122186    1.185816
| 16> C         2.147493    0.003392   -0.350720
| 17> F         3.273360    0.651227   -0.043240
| 18> F         1.518515    0.688036   -1.304191
| 19> F         2.470220   -1.181783   -0.858487
| 20> H        -0.344388    1.882489    0.609230
| 21> H        -2.933718   -1.939700   -0.423753
| 22> *
| 23>
| 24> $new_job
| 25> ! ri-mp2 aug-cc-pvtz aug-cc-pvtz/c tightscf
| 26> %pal nprocs 16 end
| 27> %maxcore 3800
| 28> %base "TZ_B-S_48_AB"
| 29>
| 30> *xyz 0 1
| 31> S        -0.453014   -1.167749    0.533960
| 32> B        -1.723522    0.055386    0.064118
| 33> S        -3.275689   -0.646343   -0.520084
| 34> S        -1.601141    1.832691    0.141027
| 35> S         1.183088   -0.122186    1.185816
| 36> C         2.147493    0.003392   -0.350720
| 37> F         3.273360    0.651227   -0.043240
| 38> F         1.518515    0.688036   -1.304191
| 39> F         2.470220   -1.181783   -0.858487
| 40> H        -0.344388    1.882489    0.609230
| 41> H        -2.933718   -1.939700   -0.423753
| 42> *
| 43>
| 44> $new_job
| 45> ! ri-mp2 aug-cc-pvqz aug-cc-pvqz/c tightscf
| 46> %pal nprocs 16 end
| 47> %maxcore 3800
| 48> %base "QZ_B-S_48_AB"
| 49>
| 50> *xyz 0 1
| 51> S        -0.453014   -1.167749    0.533960
| 52> B        -1.723522    0.055386    0.064118
| 53> S        -3.275689   -0.646343   -0.520084
| 54> S        -1.601141    1.832691    0.141027
| 55> S         1.183088   -0.122186    1.185816
| 56> C         2.147493    0.003392   -0.350720
| 57> F         3.273360    0.651227   -0.043240
| 58> F         1.518515    0.688036   -1.304191
| 59> F         2.470220   -1.181783   -0.858487
| 60> H        -0.344388    1.882489    0.609230
| 61> H        -2.933718   -1.939700   -0.423753
| 62> *
| 63>
| 64>
| 65>
| 66>
| 67>                          ****END OF INPUT****
 Total Charge           Charge          ....    0
 Multiplicity           Mult            ....    1
 Number of Electrons    NEL             ....  104
MP2 TOTAL ENERGY:    -1953.690849442 Eh
FINAL SINGLE POINT ENERGY     -1953.690849441847
MP2 TOTAL ENERGY:    -1954.197774820 Eh
FINAL SINGLE POINT ENERGY     -1954.197774820233

CARTESIAN COORDINATES (ANGSTROEM)
---------------------------------
  S     -0.453014   -1.167749    0.533960
  B     -1.723522    0.055386    0.064118
  S     -3.275689   -0.646343   -0.520084
  S     -1.601141    1.832691    0.141027
  S      1.183088   -0.122186    1.185816
  C      2.147493    0.003392   -0.350720
  F      3.273360    0.651227   -0.043240
  F      1.518515    0.688036   -1.304191
  F      2.470220   -1.181783   -0.858487
  H     -0.344388    1.882489    0.609230
  H     -2.933718   -1.939700   -0.423753

 Multiplicity           Mult            ....    1
 Number of Electrons    NEL             ....  104
 Basis Dimension        Dim             ....  828

ORBITAL ENERGIES
----------------

  NO   OCC          E(Eh)            E(eV)
   0   2.0000     -92.027436     -2504.1938
   1   2.0000     -92.007060     -2503.6394
   2   2.0000     -91.975234     -2502.7734
   3   2.0000     -91.972055     -2502.6869
   4   2.0000     -26.361269      -717.3266
   5   2.0000     -26.358268      -717.2449
   6   2.0000     -26.357160      -717.2148
   7   2.0000     -11.548091      -314.2395
   8   2.0000      -9.028482      -245.6775
   9   2.0000      -9.009505      -245.1611
  10   2.0000      -8.980112      -244.3613
  11   2.0000      -8.977328      -244.2855
  12   2.0000      -7.696494      -209.4323
  13   2.0000      -6.709538      -182.5758
  14   2.0000      -6.708515      -182.5480
  15   2.0000      -6.707491      -182.5201
  16   2.0000      -6.690916      -182.0691
  17   2.0000      -6.689330      -182.0259
  18   2.0000      -6.689024      -182.0176
  19   2.0000      -6.661597      -181.2713
  20   2.0000      -6.660727      -181.2476
  21   2.0000      -6.660129      -181.2313
  22   2.0000      -6.658810      -181.1954
  23   2.0000      -6.657988      -181.1731
  24   2.0000      -6.657432      -181.1579
  25   2.0000      -1.756530       -47.7976
  26   2.0000      -1.660666       -45.1890
  27   2.0000      -1.657589       -45.1053
  28   2.0000      -1.119484       -30.4627
  29   2.0000      -1.039851       -28.2958
  30   2.0000      -0.989576       -26.9277
  31   2.0000      -0.984986       -26.8028
  32   2.0000      -0.914260       -24.8783
  33   2.0000      -0.848674       -23.0936
  34   2.0000      -0.848005       -23.0754
  35   2.0000      -0.791237       -21.5306
  36   2.0000      -0.734111       -19.9762
  37   2.0000      -0.731469       -19.9043
  38   2.0000      -0.689228       -18.7549
  39   2.0000      -0.687550       -18.7092
  40   2.0000      -0.671982       -18.2856
  41   2.0000      -0.669600       -18.2207
  42   2.0000      -0.611880       -16.6501
  43   2.0000      -0.569922       -15.5084
  44   2.0000      -0.547265       -14.8918
  45   2.0000      -0.533487       -14.5169
  46   2.0000      -0.478497       -13.0206
  47   2.0000      -0.468526       -12.7493
  48   2.0000      -0.465430       -12.6650
  49   2.0000      -0.410233       -11.1630
  50   2.0000      -0.398314       -10.8387
  51   2.0000      -0.385554       -10.4915
  52   0.0000       0.027099         0.7374
  53   0.0000       0.033025         0.8987
  54   0.0000       0.038005         1.0342
  55   0.0000       0.039744         1.0815
  56   0.0000       0.056570         1.5393

MULLIKEN ATOMIC CHARGES
-----------------------
   0 S :    0.078774
   1 B :    0.011780
   2 S :   -0.044864
   3 S :    0.015001
   4 S :   -0.068506
   5 C :    1.657306
   6 F :   -0.582536
   7 F :   -0.585431
   8 F :   -0.574139
   9 H :    0.050439
  10 H :    0.042175
Sum of atomic charges:   -0.0000000

LOEWDIN ATOMIC CHARGES
----------------------
   0 S :    0.802046
   1 B :   -2.274852
   2 S :    1.550144
   3 S :    1.592992
   4 S :    0.682989
   5 C :   -2.678911
   6 F :    0.677001
   7 F :    0.690666
   8 F :    0.687277
   9 H :   -0.903130
  10 H :   -0.826222

  Mayer bond orders larger than 0.100000
B(  0-S ,  1-B ) :   1.1923 B(  0-S ,  4-S ) :   1.1118 B(  1-B ,  2-S ) :   1.1007
B(  1-B ,  3-S ) :   1.2184 B(  2-S , 10-H ) :   1.0670 B(  3-S ,  9-H ) :   1.0261
B(  4-S ,  5-C ) :   0.9768 B(  5-C ,  6-F ) :   0.5210 B(  5-C ,  7-F ) :   0.5617
B(  5-C ,  8-F ) :   0.5159

MP2 TOTAL ENERGY:    -1954.365626605 Eh
FINAL SINGLE POINT ENERGY     -1954.365626604551

DIPOLE MOMENT
-------------
                                X             Y             Z
Electronic contribution:      8.22074       0.01528      -1.75659
Nuclear contribution   :     -8.30600      -0.23632       2.11151
                        -----------------------------------------
Total Dipole Moment    :     -0.08526      -0.22104       0.35493
                        -----------------------------------------
Magnitude (a.u.)       :      0.42673
Magnitude (Debye)      :      1.08467

Rotational constants in cm-1:     0.051376     0.016073     0.014618
Rotational constants in MHz :  1540.208040   481.863102   438.245281

                             ****ORCA TERMINATED NORMALLY****
TOTAL RUN TIME: 0 days 1 hours 8 minutes 51 seconds 649 msec
