                         Program Version 5.0.4 -  RELEASE  -
|  1> ! ri-mp2 aug-cc-pvdz aug-cc-pvdz/c tightscf
|  2> %pal nprocs 16 end
|  3> %maxcore 3800
|  4> %base "DZ_P-C_7_AB"
|  5> %scf
|  6> STABPerform true
|  7> STABRestartUHFifUnstable true
|  8> end
|  9>
| 10> *xyz 0 1
| 11> P         1.516575    0.000000   -0.131125
| 12> C        -0.348810    0.000000    0.006872
| 13> C        -0.831448    0.000000    1.453687
| 14> H        -0.480103    0.881828    1.990221
| 15> H        -0.480103   -0.881829    1.990221
| 16> C        -0.861036   -1.249244   -0.710245
| 17> H        -1.924738    0.000000    1.488104
| 18> H        -1.953325   -1.266657   -0.696942
| 19> H        -0.537828   -1.274492   -1.751703
| 20> H        -0.509064   -2.161249   -0.225031
| 21> C        -0.861035    1.249244   -0.710245
| 22> H        -0.509064    2.161249   -0.225031
| 23> H        -1.953325    1.266657   -0.696941
| 24> H        -0.537828    1.274492   -1.751703
| 25> H         1.775362   -1.032290    0.802629
| 26> H         1.775362    1.032290    0.802629
| 27> *
| 28>
| 29> $new_job
| 30> ! ri-mp2 aug-cc-pvtz aug-cc-pvtz/c tightscf
| 31> %pal nprocs 16 end
| 32> %maxcore 3800
| 33> %base "TZ_P-C_7_AB"
| 34>
| 35> *xyz 0 1
| 36> P         1.516575    0.000000   -0.131125
| 37> C        -0.348810    0.000000    0.006872
| 38> C        -0.831448    0.000000    1.453687
| 39> H        -0.480103    0.881828    1.990221
| 40> H        -0.480103   -0.881829    1.990221
| 41> C        -0.861036   -1.249244   -0.710245
| 42> H        -1.924738    0.000000    1.488104
| 43> H        -1.953325   -1.266657   -0.696942
| 44> H        -0.537828   -1.274492   -1.751703
| 45> H        -0.509064   -2.161249   -0.225031
| 46> C        -0.861035    1.249244   -0.710245
| 47> H        -0.509064    2.161249   -0.225031
| 48> H        -1.953325    1.266657   -0.696941
| 49> H        -0.537828    1.274492   -1.751703
| 50> H         1.775362   -1.032290    0.802629
| 51> H         1.775362    1.032290    0.802629
| 52> *
| 53>
| 54> $new_job
| 55> ! ri-mp2 aug-cc-pvqz aug-cc-pvqz/c tightscf
| 56> %pal nprocs 16 end
| 57> %maxcore 3800
| 58> %base "QZ_P-C_7_AB"
| 59>
| 60> *xyz 0 1
| 61> P         1.516575    0.000000   -0.131125
| 62> C        -0.348810    0.000000    0.006872
| 63> C        -0.831448    0.000000    1.453687
| 64> H        -0.480103    0.881828    1.990221
| 65> H        -0.480103   -0.881829    1.990221
| 66> C        -0.861036   -1.249244   -0.710245
| 67> H        -1.924738    0.000000    1.488104
| 68> H        -1.953325   -1.266657   -0.696942
| 69> H        -0.537828   -1.274492   -1.751703
| 70> H        -0.509064   -2.161249   -0.225031
| 71> C        -0.861035    1.249244   -0.710245
| 72> H        -0.509064    2.161249   -0.225031
| 73> H        -1.953325    1.266657   -0.696941
| 74> H        -0.537828    1.274492   -1.751703
| 75> H         1.775362   -1.032290    0.802629
| 76> H         1.775362    1.032290    0.802629
| 77> *
| 78>
| 79>
| 80>
| 81>
| 82>                          ****END OF INPUT****
 Total Charge           Charge          ....    0
 Multiplicity           Mult            ....    1
 Number of Electrons    NEL             ....   50
MP2 TOTAL ENERGY:     -499.371248476 Eh
FINAL SINGLE POINT ENERGY      -499.371248475776
MP2 TOTAL ENERGY:     -499.570628000 Eh
FINAL SINGLE POINT ENERGY      -499.570627999878

CARTESIAN COORDINATES (ANGSTROEM)
---------------------------------
  P      1.516575    0.000000   -0.131125
  C     -0.348810    0.000000    0.006872
  C     -0.831448    0.000000    1.453687
  H     -0.480103    0.881828    1.990221
  H     -0.480103   -0.881829    1.990221
  C     -0.861036   -1.249244   -0.710245
  H     -1.924738    0.000000    1.488104
  H     -1.953325   -1.266657   -0.696942
  H     -0.537828   -1.274492   -1.751703
  H     -0.509064   -2.161249   -0.225031
  C     -0.861035    1.249244   -0.710245
  H     -0.509064    2.161249   -0.225031
  H     -1.953325    1.266657   -0.696941
  H     -0.537828    1.274492   -1.751703
  H      1.775362   -1.032290    0.802629
  H      1.775362    1.032290    0.802629

 Multiplicity           Mult            ....    1
 Number of Electrons    NEL             ....   50
 Basis Dimension        Dim             ....  910

ORBITAL ENERGIES
----------------

  NO   OCC          E(Eh)            E(eV)
   0   2.0000     -79.927582     -2174.9401
   1   2.0000     -11.242200      -305.9158
   2   2.0000     -11.217820      -305.2524
   3   2.0000     -11.217802      -305.2519
   4   2.0000     -11.216030      -305.2037
   5   2.0000      -7.471145      -203.3002
   6   2.0000      -5.365068      -145.9909
   7   2.0000      -5.364827      -145.9844
   8   2.0000      -5.363763      -145.9554
   9   2.0000      -1.100572       -29.9481
  10   2.0000      -0.939226       -25.5576
  11   2.0000      -0.938056       -25.5258
  12   2.0000      -0.851405       -23.1679
  13   2.0000      -0.727023       -19.7833
  14   2.0000      -0.617195       -16.7947
  15   2.0000      -0.609001       -16.5718
  16   2.0000      -0.604110       -16.4387
  17   2.0000      -0.551810       -15.0155
  18   2.0000      -0.546579       -14.8732
  19   2.0000      -0.519954       -14.1487
  20   2.0000      -0.500751       -13.6261
  21   2.0000      -0.477617       -12.9966
  22   2.0000      -0.471112       -12.8196
  23   2.0000      -0.433866       -11.8061
  24   2.0000      -0.354600        -9.6491
  25   0.0000       0.024954         0.6790
  26   0.0000       0.032507         0.8846
  27   0.0000       0.033426         0.9096
  28   0.0000       0.036771         1.0006
  29   0.0000       0.051747         1.4081

MULLIKEN ATOMIC CHARGES
-----------------------
   0 P :    0.335447
   1 C :    0.714614
   2 C :   -1.059085
   3 H :    0.260302
   4 H :    0.260302
   5 C :   -1.011748
   6 H :    0.232316
   7 H :    0.231943
   8 H :    0.278094
   9 H :    0.244653
  10 C :   -1.011748
  11 H :    0.244653
  12 H :    0.231941
  13 H :    0.278094
  14 H :   -0.114889
  15 H :   -0.114889
Sum of atomic charges:    0.0000000

LOEWDIN ATOMIC CHARGES
----------------------
   0 P :    1.522907
   1 C :   -0.530243
   2 C :    0.826214
   3 H :   -0.291578
   4 H :   -0.291577
   5 C :    0.812958
   6 H :   -0.274181
   7 H :   -0.275358
   8 H :   -0.289778
   9 H :   -0.286358
  10 C :    0.812957
  11 H :   -0.286358
  12 H :   -0.275357
  13 H :   -0.289778
  14 H :   -0.442235
  15 H :   -0.442235

  Mayer bond orders larger than 0.100000
B(  0-P ,  1-C ) :   0.7554 B(  0-P , 14-H ) :   0.9264 B(  0-P , 15-H ) :   0.9264
B(  1-C ,  2-C ) :   0.5442 B(  1-C ,  5-C ) :   0.5528 B(  1-C , 10-C ) :   0.5528
B(  2-C ,  3-H ) :   1.0076 B(  2-C ,  4-H ) :   1.0076 B(  2-C ,  5-C ) :   0.1079
B(  2-C ,  6-H ) :   0.9870 B(  2-C , 10-C ) :   0.1079 B(  5-C ,  7-H ) :   1.0004
B(  5-C ,  8-H ) :   0.9925 B(  5-C ,  9-H ) :   1.0066 B( 10-C , 11-H ) :   1.0066
B( 10-C , 12-H ) :   1.0004 B( 10-C , 13-H ) :   0.9925

MP2 TOTAL ENERGY:     -499.630742420 Eh
FINAL SINGLE POINT ENERGY      -499.630742420288

DIPOLE MOMENT
-------------
                                X             Y             Z
Electronic contribution:      6.60256       0.00000      -1.66755
Nuclear contribution   :     -7.06471      -0.00000       1.92936
                        -----------------------------------------
Total Dipole Moment    :     -0.46214       0.00000       0.26181
                        -----------------------------------------
Magnitude (a.u.)       :      0.53115
Magnitude (Debye)      :      1.35008

Rotational constants in cm-1:     0.148176     0.096639     0.096366
Rotational constants in MHz :  4442.209953  2897.152886  2888.969340

                             ****ORCA TERMINATED NORMALLY****
TOTAL RUN TIME: 0 days 1 hours 18 minutes 37 seconds 188 msec
