                         Program Version 5.0.4 -  RELEASE  -
|  1> ! ri-mp2 aug-cc-pvdz aug-cc-pvdz/c tightscf
|  2> %pal nprocs 16 end
|  3> %maxcore 3800
|  4> %base "DZ_Si-Si_38_AB"
|  5> %scf
|  6> STABPerform true
|  7> STABRestartUHFifUnstable true
|  8> end
|  9>
| 10> *xyz 0 1
| 11> Si        -0.700883    0.544948   -0.017516
| 12> Si         1.532619   -0.161163    0.007997
| 13> O        -1.756142   -0.719399    0.101153
| 14> H        -1.748515   -1.400673   -0.572917
| 15> H         2.436535    1.000476   -0.161207
| 16> H         1.779468   -1.108786   -1.105750
| 17> H         1.866762   -0.843678    1.278415
| 18> H        -0.989952    1.409793    1.143771
| 19> H        -0.939466    1.325062   -1.258283
| 20> *
| 21>
| 22> $new_job
| 23> ! ri-mp2 aug-cc-pvtz aug-cc-pvtz/c tightscf
| 24> %pal nprocs 16 end
| 25> %maxcore 3800
| 26> %base "TZ_Si-Si_38_AB"
| 27>
| 28> *xyz 0 1
| 29> Si        -0.700883    0.544948   -0.017516
| 30> Si         1.532619   -0.161163    0.007997
| 31> O        -1.756142   -0.719399    0.101153
| 32> H        -1.748515   -1.400673   -0.572917
| 33> H         2.436535    1.000476   -0.161207
| 34> H         1.779468   -1.108786   -1.105750
| 35> H         1.866762   -0.843678    1.278415
| 36> H        -0.989952    1.409793    1.143771
| 37> H        -0.939466    1.325062   -1.258283
| 38> *
| 39>
| 40> $new_job
| 41> ! ri-mp2 aug-cc-pvqz aug-cc-pvqz/c tightscf
| 42> %pal nprocs 16 end
| 43> %maxcore 3800
| 44> %base "QZ_Si-Si_38_AB"
| 45>
| 46> *xyz 0 1
| 47> Si        -0.700883    0.544948   -0.017516
| 48> Si         1.532619   -0.161163    0.007997
| 49> O        -1.756142   -0.719399    0.101153
| 50> H        -1.748515   -1.400673   -0.572917
| 51> H         2.436535    1.000476   -0.161207
| 52> H         1.779468   -1.108786   -1.105750
| 53> H         1.866762   -0.843678    1.278415
| 54> H        -0.989952    1.409793    1.143771
| 55> H        -0.939466    1.325062   -1.258283
| 56> *
| 57>
| 58>
| 59>
| 60>
| 61>                          ****END OF INPUT****
 Total Charge           Charge          ....    0
 Multiplicity           Mult            ....    1
 Number of Electrons    NEL             ....   42
MP2 TOTAL ENERGY:     -656.677903931 Eh
FINAL SINGLE POINT ENERGY      -656.677903931187
MP2 TOTAL ENERGY:     -656.825108274 Eh
FINAL SINGLE POINT ENERGY      -656.825108274125

CARTESIAN COORDINATES (ANGSTROEM)
---------------------------------
  Si    -0.700883    0.544948   -0.017516
  Si     1.532619   -0.161163    0.007997
  O     -1.756142   -0.719399    0.101153
  H     -1.748515   -1.400673   -0.572917
  H      2.436535    1.000476   -0.161207
  H      1.779468   -1.108786   -1.105750
  H      1.866762   -0.843678    1.278415
  H     -0.989952    1.409793    1.143771
  H     -0.939466    1.325062   -1.258283

 Multiplicity           Mult            ....    1
 Number of Electrons    NEL             ....   42
 Basis Dimension        Dim             ....  524

ORBITAL ENERGIES
----------------

  NO   OCC          E(Eh)            E(eV)
   0   2.0000     -68.791408     -1871.9094
   1   2.0000     -68.766012     -1871.2183
   2   2.0000     -20.560865      -559.4896
   3   2.0000      -6.136989      -166.9960
   4   2.0000      -6.117242      -166.4586
   5   2.0000      -4.243694      -115.4768
   6   2.0000      -4.243550      -115.4729
   7   2.0000      -4.243374      -115.4681
   8   2.0000      -4.223340      -114.9229
   9   2.0000      -4.223291      -114.9216
  10   2.0000      -4.223197      -114.9190
  11   2.0000      -1.345420       -36.6107
  12   2.0000      -0.771439       -20.9919
  13   2.0000      -0.717609       -19.5271
  14   2.0000      -0.628750       -17.1092
  15   2.0000      -0.559814       -15.2333
  16   2.0000      -0.546540       -14.8721
  17   2.0000      -0.491151       -13.3649
  18   2.0000      -0.485976       -13.2241
  19   2.0000      -0.464965       -12.6523
  20   2.0000      -0.393684       -10.7127
  21   0.0000       0.024355         0.6627
  22   0.0000       0.031043         0.8447
  23   0.0000       0.036782         1.0009
  24   0.0000       0.041663         1.1337
  25   0.0000       0.050228         1.3668

MULLIKEN ATOMIC CHARGES
-----------------------
   0 Si:    1.058100
   1 Si:    0.407217
   2 O :   -0.924130
   3 H :    0.359279
   4 H :   -0.169580
   5 H :   -0.162172
   6 H :   -0.151541
   7 H :   -0.207200
   8 H :   -0.209973
Sum of atomic charges:    0.0000000

LOEWDIN ATOMIC CHARGES
----------------------
   0 Si:    0.401693
   1 Si:    1.040826
   2 O :    1.021415
   3 H :   -0.908145
   4 H :   -0.325995
   5 H :   -0.326408
   6 H :   -0.324773
   7 H :   -0.290848
   8 H :   -0.287767

  Mayer bond orders larger than 0.100000
B(  0-Si,  1-Si) :   0.8015 B(  0-Si,  2-O ) :   0.5286 B(  0-Si,  7-H ) :   0.8797
B(  0-Si,  8-H ) :   0.8653 B(  1-Si,  4-H ) :   0.8106 B(  1-Si,  5-H ) :   0.8055
B(  1-Si,  6-H ) :   0.8067 B(  2-O ,  3-H ) :   0.8986

MP2 TOTAL ENERGY:     -656.873232747 Eh
FINAL SINGLE POINT ENERGY      -656.873232747006

DIPOLE MOMENT
-------------
                                X             Y             Z
Electronic contribution:     -2.19664      -0.54203       0.25376
Nuclear contribution   :      2.34629       0.35049      -0.67948
                        -----------------------------------------
Total Dipole Moment    :      0.14965      -0.19154      -0.42572
                        -----------------------------------------
Magnitude (a.u.)       :      0.49023
Magnitude (Debye)      :      1.24606

Rotational constants in cm-1:     0.520864     0.110183     0.097562
Rotational constants in MHz : 15615.120458  3303.213937  2924.840288

                             ****ORCA TERMINATED NORMALLY****
TOTAL RUN TIME: 0 days 0 hours 12 minutes 56 seconds 408 msec
