                         Program Version 5.0.4 -  RELEASE  -
|  1> ! ri-mp2 aug-cc-pvdz aug-cc-pvdz/c tightscf
|  2> %pal nprocs 16 end
|  3> %maxcore 3800
|  4> %base "DZ_P-F_31_AB"
|  5>
|  6> *xyz 0 1
|  7> C        -0.682767   -0.248613   -0.400367
|  8> C        -1.470944    0.759905   -0.939848
|  9> H        -1.078959    1.384336   -1.732291
| 10> C        -2.753878    0.969780   -0.463672
| 11> H        -3.362115    1.758815   -0.885056
| 12> C        -3.260162    0.161754    0.539682
| 13> H        -4.265945    0.319998    0.905593
| 14> C        -2.481714   -0.854685    1.072075
| 15> H        -2.878288   -1.488799    1.853750
| 16> C        -1.194708   -1.057167    0.610105
| 17> H        -0.585301   -1.848573    1.026528
| 18> P         1.004220   -0.489648   -1.046812
| 19> F         1.179475   -2.057812   -0.794751
| 20> C         1.870396    0.050285    0.534232
| 21> O         2.420648   -0.724464    1.263885
| 22> C         1.862374    1.530777    0.839026
| 23> F         1.292657    2.229830   -0.210960
| 24> H         2.884419    1.881828    0.985137
| 25> H         1.276933    1.712446    1.741438
| 26> *
| 27>
| 28> $new_job
| 29> ! ri-mp2 aug-cc-pvtz aug-cc-pvtz/c tightscf
| 30> %pal nprocs 16 end
| 31> %maxcore 3800
| 32> %base "TZ_P-F_31_AB"
| 33>
| 34> *xyz 0 1
| 35> C        -0.682767   -0.248613   -0.400367
| 36> C        -1.470944    0.759905   -0.939848
| 37> H        -1.078959    1.384336   -1.732291
| 38> C        -2.753878    0.969780   -0.463672
| 39> H        -3.362115    1.758815   -0.885056
| 40> C        -3.260162    0.161754    0.539682
| 41> H        -4.265945    0.319998    0.905593
| 42> C        -2.481714   -0.854685    1.072075
| 43> H        -2.878288   -1.488799    1.853750
| 44> C        -1.194708   -1.057167    0.610105
| 45> H        -0.585301   -1.848573    1.026528
| 46> P         1.004220   -0.489648   -1.046812
| 47> F         1.179475   -2.057812   -0.794751
| 48> C         1.870396    0.050285    0.534232
| 49> O         2.420648   -0.724464    1.263885
| 50> C         1.862374    1.530777    0.839026
| 51> F         1.292657    2.229830   -0.210960
| 52> H         2.884419    1.881828    0.985137
| 53> H         1.276933    1.712446    1.741438
| 54> *
| 55>
| 56> $new_job
| 57> ! ri-mp2 aug-cc-pvqz aug-cc-pvqz/c tightscf
| 58> %pal nprocs 16 end
| 59> %maxcore 3800
| 60> %base "QZ_P-F_31_AB"
| 61>
| 62> *xyz 0 1
| 63> C        -0.682767   -0.248613   -0.400367
| 64> C        -1.470944    0.759905   -0.939848
| 65> H        -1.078959    1.384336   -1.732291
| 66> C        -2.753878    0.969780   -0.463672
| 67> H        -3.362115    1.758815   -0.885056
| 68> C        -3.260162    0.161754    0.539682
| 69> H        -4.265945    0.319998    0.905593
| 70> C        -2.481714   -0.854685    1.072075
| 71> H        -2.878288   -1.488799    1.853750
| 72> C        -1.194708   -1.057167    0.610105
| 73> H        -0.585301   -1.848573    1.026528
| 74> P         1.004220   -0.489648   -1.046812
| 75> F         1.179475   -2.057812   -0.794751
| 76> C         1.870396    0.050285    0.534232
| 77> O         2.420648   -0.724464    1.263885
| 78> C         1.862374    1.530777    0.839026
| 79> F         1.292657    2.229830   -0.210960
| 80> H         2.884419    1.881828    0.985137
| 81> H         1.276933    1.712446    1.741438
| 82> *
| 83>
| 84>
| 85>
| 86>
| 87>                          ****END OF INPUT****
 Total Charge           Charge          ....    0
 Multiplicity           Mult            ....    1
 Number of Electrons    NEL             ....   96
MP2 TOTAL ENERGY:     -923.372251779 Eh
FINAL SINGLE POINT ENERGY      -923.372251779175
MP2 TOTAL ENERGY:     -923.912161469 Eh
FINAL SINGLE POINT ENERGY      -923.912161469017

CARTESIAN COORDINATES (ANGSTROEM)
---------------------------------
  C     -0.682767   -0.248613   -0.400367
  C     -1.470944    0.759905   -0.939848
  H     -1.078959    1.384336   -1.732291
  C     -2.753878    0.969780   -0.463672
  H     -3.362115    1.758815   -0.885056
  C     -3.260162    0.161754    0.539682
  H     -4.265945    0.319998    0.905593
  C     -2.481714   -0.854685    1.072075
  H     -2.878288   -1.488799    1.853750
  C     -1.194708   -1.057167    0.610105
  H     -0.585301   -1.848573    1.026528
  P      1.004220   -0.489648   -1.046812
  F      1.179475   -2.057812   -0.794751
  C      1.870396    0.050285    0.534232
  O      2.420648   -0.724464    1.263885
  C      1.862374    1.530777    0.839026
  F      1.292657    2.229830   -0.210960
  H      2.884419    1.881828    0.985137
  H      1.276933    1.712446    1.741438

 Multiplicity           Mult            ....    1
 Number of Electrons    NEL             ....   96
 Basis Dimension        Dim             .... 1286

ORBITAL ENERGIES
----------------

  NO   OCC          E(Eh)            E(eV)
   0   2.0000     -80.015452     -2177.3311
   1   2.0000     -26.308856      -715.9004
   2   2.0000     -26.298623      -715.6219
   3   2.0000     -20.575488      -559.8875
   4   2.0000     -11.348657      -308.8127
   5   2.0000     -11.337730      -308.5153
   6   2.0000     -11.254759      -306.2576
   7   2.0000     -11.253556      -306.2248
   8   2.0000     -11.252249      -306.1893
   9   2.0000     -11.251837      -306.1781
  10   2.0000     -11.246670      -306.0375
  11   2.0000     -11.246476      -306.0322
  12   2.0000      -7.550043      -205.4471
  13   2.0000      -5.444253      -148.1457
  14   2.0000      -5.443037      -148.1126
  15   2.0000      -5.442140      -148.0882
  16   2.0000      -1.623415       -44.1754
  17   2.0000      -1.608234       -43.7623
  18   2.0000      -1.420976       -38.6667
  19   2.0000      -1.176097       -32.0032
  20   2.0000      -1.049541       -28.5595
  21   2.0000      -1.036196       -28.1963
  22   2.0000      -1.024566       -27.8799
  23   2.0000      -0.910819       -24.7846
  24   2.0000      -0.846635       -23.0381
  25   2.0000      -0.829273       -22.5657
  26   2.0000      -0.785141       -21.3648
  27   2.0000      -0.738187       -20.0871
  28   2.0000      -0.729623       -19.8540
  29   2.0000      -0.727808       -19.8047
  30   2.0000      -0.714299       -19.4371
  31   2.0000      -0.683498       -18.5989
  32   2.0000      -0.676627       -18.4120
  33   2.0000      -0.664485       -18.0815
  34   2.0000      -0.642037       -17.4707
  35   2.0000      -0.635042       -17.2804
  36   2.0000      -0.606301       -16.4983
  37   2.0000      -0.602596       -16.3975
  38   2.0000      -0.595016       -16.1912
  39   2.0000      -0.585519       -15.9328
  40   2.0000      -0.532112       -14.4795
  41   2.0000      -0.524224       -14.2649
  42   2.0000      -0.519264       -14.1299
  43   2.0000      -0.511667       -13.9232
  44   2.0000      -0.435793       -11.8585
  45   2.0000      -0.393640       -10.7115
  46   2.0000      -0.355677        -9.6785
  47   2.0000      -0.344266        -9.3680
  48   0.0000       0.020511         0.5581
  49   0.0000       0.027854         0.7580
  50   0.0000       0.029120         0.7924
  51   0.0000       0.036156         0.9839
  52   0.0000       0.040719         1.1080

MULLIKEN ATOMIC CHARGES
-----------------------
   0 C :   -0.230686
   1 C :   -0.168109
   2 H :    0.382351
   3 C :   -0.327078
   4 H :    0.246656
   5 C :   -0.338536
   6 H :    0.358464
   7 C :   -0.262084
   8 H :    0.248575
   9 C :   -0.409086
  10 H :    0.387768
  11 P :    1.207349
  12 F :   -0.762737
  13 C :    0.500964
  14 O :   -0.887417
  15 C :   -0.022475
  16 F :   -0.744999
  17 H :    0.504268
  18 H :    0.316811
Sum of atomic charges:   -0.0000000

LOEWDIN ATOMIC CHARGES
----------------------
   0 C :   -0.304473
   1 C :    0.230257
   2 H :   -0.340546
   3 C :    0.343975
   4 H :   -0.318522
   5 C :    0.341910
   6 H :   -0.316368
   7 C :    0.348608
   8 H :   -0.317754
   9 C :    0.252127
  10 H :   -0.342274
  11 P :    0.378789
  12 F :    0.335309
  13 C :   -0.870830
  14 O :    0.645861
  15 C :   -0.145878
  16 F :    0.772958
  17 H :   -0.349753
  18 H :   -0.343395

  Mayer bond orders larger than 0.100000
B(  0-C ,  1-C ) :   0.8039 B(  0-C ,  2-H ) :  -0.1403 B(  0-C ,  3-C ) :  -0.2238
B(  0-C ,  7-C ) :  -0.2933 B(  0-C ,  9-C ) :   0.9435 B(  0-C , 10-H ) :  -0.1072
B(  0-C , 11-P ) :   0.7878 B(  0-C , 12-F ) :  -0.1483 B(  1-C ,  2-H ) :   0.8994
B(  1-C ,  3-C ) :   1.3420 B(  1-C ,  4-H ) :  -0.1293 B(  1-C ,  5-C ) :   0.1101
B(  1-C ,  7-C ) :   0.1267 B(  1-C , 11-P ) :  -0.1397 B(  3-C ,  4-H ) :   1.1225
B(  3-C ,  5-C ) :   1.1292 B(  3-C ,  9-C ) :   0.1246 B(  5-C ,  6-H ) :   0.9759
B(  5-C ,  7-C ) :   1.1218 B(  5-C ,  9-C ) :   0.1142 B(  7-C ,  8-H ) :   1.1296
B(  7-C ,  9-C ) :   1.3157 B(  8-H ,  9-C ) :  -0.1503 B(  9-C , 10-H ) :   0.8919
B( 11-P , 12-F ) :   0.4667 B( 11-P , 13-C ) :   0.7164 B( 13-C , 14-O ) :   1.2591
B( 13-C , 15-C ) :   1.0250 B( 15-C , 16-F ) :   0.5256 B( 15-C , 17-H ) :   0.7183
B( 15-C , 18-H ) :   0.8601

MP2 TOTAL ENERGY:     -924.088192684 Eh
FINAL SINGLE POINT ENERGY      -924.088192683557

DIPOLE MOMENT
-------------
                                X             Y             Z
Electronic contribution:      9.97024      -2.87495      -5.35504
Nuclear contribution   :    -10.89645       3.83862       5.65979
                        -----------------------------------------
Total Dipole Moment    :     -0.92621       0.96367       0.30475
                        -----------------------------------------
Magnitude (a.u.)       :      1.37091
Magnitude (Debye)      :      3.48458

Rotational constants in cm-1:     0.040941     0.021305     0.018028
Rotational constants in MHz :  1227.376570   638.704758   540.456837

                             ****ORCA TERMINATED NORMALLY****
TOTAL RUN TIME: 0 days 0 hours 56 minutes 51 seconds 124 msec
