                         Program Version 5.0.4 -  RELEASE  -
|  1> ! ri-mp2 aug-cc-pvdz aug-cc-pvdz/c tightscf
|  2> %pal nprocs 16 end
|  3> %maxcore 3800
|  4> %base "DZ_S-S_15_A"
|  5> %scf
|  6> STABPerform true
|  7> STABRestartUHFifUnstable true
|  8> end
|  9>
| 10> *xyz 0 2
| 11> S         2.109127   -0.366581    0.304115
| 12> C         0.565734    0.305848   -0.224397
| 13> O         0.430430    1.498844   -0.202652
| 14> C        -0.475502   -0.671577   -0.703278
| 15> C        -1.899529   -0.159739   -0.527649
| 16> H        -0.330988   -1.627342   -0.193227
| 17> H        -0.255353   -0.847880   -1.760415
| 18> C        -2.318103   -0.062066    0.931162
| 19> H        -2.571383   -0.833010   -1.063043
| 20> H        -1.982839    0.816950   -1.004677
| 21> H        -2.253711   -1.033513    1.425392
| 22> H        -3.346503    0.287447    1.019282
| 23> H        -1.684299    0.637103    1.477038
| 24> *
| 25>
| 26> $new_job
| 27> ! ri-mp2 aug-cc-pvtz aug-cc-pvtz/c tightscf
| 28> %pal nprocs 16 end
| 29> %maxcore 3800
| 30> %base "TZ_S-S_15_A"
| 31>
| 32> *xyz 0 2
| 33> S         2.109127   -0.366581    0.304115
| 34> C         0.565734    0.305848   -0.224397
| 35> O         0.430430    1.498844   -0.202652
| 36> C        -0.475502   -0.671577   -0.703278
| 37> C        -1.899529   -0.159739   -0.527649
| 38> H        -0.330988   -1.627342   -0.193227
| 39> H        -0.255353   -0.847880   -1.760415
| 40> C        -2.318103   -0.062066    0.931162
| 41> H        -2.571383   -0.833010   -1.063043
| 42> H        -1.982839    0.816950   -1.004677
| 43> H        -2.253711   -1.033513    1.425392
| 44> H        -3.346503    0.287447    1.019282
| 45> H        -1.684299    0.637103    1.477038
| 46> *
| 47>
| 48> $new_job
| 49> ! ri-mp2 aug-cc-pvqz aug-cc-pvqz/c tightscf
| 50> %pal nprocs 16 end
| 51> %maxcore 3800
| 52> %base "QZ_S-S_15_A"
| 53>
| 54> *xyz 0 2
| 55> S         2.109127   -0.366581    0.304115
| 56> C         0.565734    0.305848   -0.224397
| 57> O         0.430430    1.498844   -0.202652
| 58> C        -0.475502   -0.671577   -0.703278
| 59> C        -1.899529   -0.159739   -0.527649
| 60> H        -0.330988   -1.627342   -0.193227
| 61> H        -0.255353   -0.847880   -1.760415
| 62> C        -2.318103   -0.062066    0.931162
| 63> H        -2.571383   -0.833010   -1.063043
| 64> H        -1.982839    0.816950   -1.004677
| 65> H        -2.253711   -1.033513    1.425392
| 66> H        -3.346503    0.287447    1.019282
| 67> H        -1.684299    0.637103    1.477038
| 68> *
| 69>
| 70>
| 71>
| 72>
| 73>                          ****END OF INPUT****
 Total Charge           Charge          ....    0
 Multiplicity           Mult            ....    2
 Number of Electrons    NEL             ....   55
MP2 TOTAL ENERGY:     -628.844290402 Eh
FINAL SINGLE POINT ENERGY      -628.844290402476
MP2 TOTAL ENERGY:     -629.097589594 Eh
FINAL SINGLE POINT ENERGY      -629.097589594380

CARTESIAN COORDINATES (ANGSTROEM)
---------------------------------
  S      2.109127   -0.366581    0.304115
  C      0.565734    0.305848   -0.224397
  O      0.430430    1.498844   -0.202652
  C     -0.475502   -0.671577   -0.703278
  C     -1.899529   -0.159739   -0.527649
  H     -0.330988   -1.627342   -0.193227
  H     -0.255353   -0.847880   -1.760415
  C     -2.318103   -0.062066    0.931162
  H     -2.571383   -0.833010   -1.063043
  H     -1.982839    0.816950   -1.004677
  H     -2.253711   -1.033513    1.425392
  H     -3.346503    0.287447    1.019282
  H     -1.684299    0.637103    1.477038

 Multiplicity           Mult            ....    2
 Number of Electrons    NEL             ....   55
 Basis Dimension        Dim             ....  806

ORBITAL ENERGIES
----------------
                 SPIN UP ORBITALS
  NO   OCC          E(Eh)            E(eV)
   0   1.0000     -91.998548     -2503.4078
   1   1.0000     -20.561579      -559.5090
   2   1.0000     -11.368967      -309.3653
   3   1.0000     -11.254547      -306.2518
   4   1.0000     -11.234242      -305.6993
   5   1.0000     -11.218087      -305.2597
   6   1.0000      -9.001624      -244.9467
   7   1.0000      -6.697685      -182.2533
   8   1.0000      -6.678619      -181.7345
   9   1.0000      -6.677512      -181.7043
  10   1.0000      -1.417374       -38.5687
  11   1.0000      -1.099357       -29.9150
  12   1.0000      -1.040727       -28.3196
  13   1.0000      -0.962883       -26.2014
  14   1.0000      -0.839575       -22.8460
  15   1.0000      -0.740112       -20.1395
  16   1.0000      -0.673757       -18.3339
  17   1.0000      -0.648135       -17.6367
  18   1.0000      -0.629885       -17.1400
  19   1.0000      -0.598453       -16.2847
  20   1.0000      -0.571251       -15.5445
  21   1.0000      -0.547566       -14.9000
  22   1.0000      -0.512056       -13.9338
  23   1.0000      -0.495263       -13.4768
  24   1.0000      -0.492643       -13.4055
  25   1.0000      -0.463502       -12.6125
  26   1.0000      -0.421098       -11.4587
  27   1.0000      -0.406487       -11.0611
  28   0.0000       0.023436         0.6377
  29   0.0000       0.031848         0.8666
  30   0.0000       0.034477         0.9382
  31   0.0000       0.040011         1.0887
  32   0.0000       0.051957         1.4138

                 SPIN DOWN ORBITALS
  NO   OCC          E(Eh)            E(eV)
   0   1.0000     -91.989164     -2503.1524
   1   1.0000     -20.560393      -559.4767
   2   1.0000     -11.369821      -309.3886
   3   1.0000     -11.254306      -306.2452
   4   1.0000     -11.234075      -305.6947
   5   1.0000     -11.218098      -305.2600
   6   1.0000      -8.991265      -244.6648
   7   1.0000      -6.673687      -181.6002
   8   1.0000      -6.671843      -181.5501
   9   1.0000      -6.655425      -181.1033
  10   1.0000      -1.413511       -38.4636
  11   1.0000      -1.095111       -29.7995
  12   1.0000      -1.002904       -27.2904
  13   1.0000      -0.932350       -25.3705
  14   1.0000      -0.830315       -22.5940
  15   1.0000      -0.731306       -19.8999
  16   1.0000      -0.662618       -18.0308
  17   1.0000      -0.647543       -17.6205
  18   1.0000      -0.616457       -16.7746
  19   1.0000      -0.592528       -16.1235
  20   1.0000      -0.567814       -15.4510
  21   1.0000      -0.545949       -14.8560
  22   1.0000      -0.505034       -13.7427
  23   1.0000      -0.494914       -13.4673
  24   1.0000      -0.491757       -13.3814
  25   1.0000      -0.412920       -11.2361
  26   1.0000      -0.386759       -10.5242
  27   0.0000      -0.000977        -0.0266
  28   0.0000       0.023814         0.6480
  29   0.0000       0.032010         0.8710
  30   0.0000       0.035520         0.9666
  31   0.0000       0.040468         1.1012

MULLIKEN ATOMIC CHARGES AND SPIN POPULATIONS
--------------------------------------------
   0 S :   -0.004406    1.137581
   1 C :    0.486214   -0.149861
   2 O :   -0.754241    0.006288
   3 C :   -0.344131    0.004618
   4 C :   -0.365073    0.004443
   5 H :    0.242984   -0.000212
   6 H :    0.345051   -0.002673
   7 C :   -0.843917   -0.000351
   8 H :    0.254849    0.001043
   9 H :    0.232612   -0.000288
  10 H :    0.219812   -0.000602
  11 H :    0.290808    0.000188
  12 H :    0.239438   -0.000175
Sum of atomic charges         :   -0.0000000

LOEWDIN ATOMIC CHARGES AND SPIN POPULATIONS
-------------------------------------------
   0 S :    1.051582    0.739615
   1 C :   -1.343896    0.189209
   2 O :    0.605370    0.025165
   3 C :    0.332078    0.023037
   4 C :    0.477336    0.002386
   5 H :   -0.332347    0.017749
   6 H :   -0.292305    0.001599
   7 C :    0.918818    0.000122
   8 H :   -0.271570    0.000497
   9 H :   -0.290669    0.000639
  10 H :   -0.281552   -0.000058
  11 H :   -0.277615    0.000027
  12 H :   -0.295231    0.000012

  Mayer bond orders larger than 0.100000
B(  0-S ,  1-C ) :   0.9802 B(  0-S ,  3-C ) :  -0.1845 B(  1-C ,  2-O ) :   1.4165
B(  1-C ,  3-C ) :   0.8804 B(  2-O ,  3-C ) :   0.1221 B(  3-C ,  4-C ) :   0.9156
B(  3-C ,  5-H ) :   0.9420 B(  3-C ,  6-H ) :   0.8071 B(  4-C ,  7-C ) :   0.9188
B(  4-C ,  8-H ) :   0.9055 B(  4-C ,  9-H ) :   0.8859 B(  7-C , 10-H ) :   0.9509
B(  7-C , 11-H ) :   0.9619 B(  7-C , 12-H ) :   0.9469

MP2 TOTAL ENERGY:     -629.178329248 Eh
FINAL SINGLE POINT ENERGY      -629.178329248085

DIPOLE MOMENT
-------------
                                X             Y             Z
Electronic contribution:     12.05630       1.53028      -0.09007
Nuclear contribution   :    -12.49971      -2.56866      -0.11238
                        -----------------------------------------
Total Dipole Moment    :     -0.44341      -1.03838      -0.20245
                        -----------------------------------------
Magnitude (a.u.)       :      1.14710
Magnitude (Debye)      :      2.91570

Rotational constants in cm-1:     0.191825     0.052187     0.049261
Rotational constants in MHz :  5750.772448  1564.538493  1476.813456

                             ****ORCA TERMINATED NORMALLY****
TOTAL RUN TIME: 0 days 2 hours 7 minutes 39 seconds 641 msec
