                         Program Version 5.0.4 -  RELEASE  -
|  1> ! ri-mp2 aug-cc-pvdz aug-cc-pvdz/c tightscf
|  2> %pal nprocs 16 end
|  3> %maxcore 3800
|  4> %base "DZ_P-N_21_AB"
|  5> %scf
|  6> STABPerform true
|  7> STABRestartUHFifUnstable true
|  8> end
|  9>
| 10> *xyz 0 1
| 11> N         0.346748    0.024340   -0.255411
| 12> N         0.892153    1.289993    0.039473
| 13> P        -1.327752   -0.173350   -0.009187
| 14> C         1.211339   -1.098273    0.047686
| 15> H         2.137877   -1.015629   -0.524902
| 16> H         0.719878   -2.029091   -0.230511
| 17> H         1.474315   -1.149607    1.114174
| 18> H         1.656065    1.478562   -0.599339
| 19> H         1.257253    1.309851    0.990396
| 20> H        -1.757062    0.994867   -0.672128
| 21> H        -1.512381    0.400613    1.285563
| 22> *
| 23>
| 24> $new_job
| 25> ! ri-mp2 aug-cc-pvtz aug-cc-pvtz/c tightscf
| 26> %pal nprocs 16 end
| 27> %maxcore 3800
| 28> %base "TZ_P-N_21_AB"
| 29>
| 30> *xyz 0 1
| 31> N         0.346748    0.024340   -0.255411
| 32> N         0.892153    1.289993    0.039473
| 33> P        -1.327752   -0.173350   -0.009187
| 34> C         1.211339   -1.098273    0.047686
| 35> H         2.137877   -1.015629   -0.524902
| 36> H         0.719878   -2.029091   -0.230511
| 37> H         1.474315   -1.149607    1.114174
| 38> H         1.656065    1.478562   -0.599339
| 39> H         1.257253    1.309851    0.990396
| 40> H        -1.757062    0.994867   -0.672128
| 41> H        -1.512381    0.400613    1.285563
| 42> *
| 43>
| 44> $new_job
| 45> ! ri-mp2 aug-cc-pvqz aug-cc-pvqz/c tightscf
| 46> %pal nprocs 16 end
| 47> %maxcore 3800
| 48> %base "QZ_P-N_21_AB"
| 49>
| 50> *xyz 0 1
| 51> N         0.346748    0.024340   -0.255411
| 52> N         0.892153    1.289993    0.039473
| 53> P        -1.327752   -0.173350   -0.009187
| 54> C         1.211339   -1.098273    0.047686
| 55> H         2.137877   -1.015629   -0.524902
| 56> H         0.719878   -2.029091   -0.230511
| 57> H         1.474315   -1.149607    1.114174
| 58> H         1.656065    1.478562   -0.599339
| 59> H         1.257253    1.309851    0.990396
| 60> H        -1.757062    0.994867   -0.672128
| 61> H        -1.512381    0.400613    1.285563
| 62> *
| 63>
| 64>
| 65>
| 66>
| 67>                          ****END OF INPUT****
 Total Charge           Charge          ....    0
 Multiplicity           Mult            ....    1
 Number of Electrons    NEL             ....   42
MP2 TOTAL ENERGY:     -492.187910399 Eh
FINAL SINGLE POINT ENERGY      -492.187910399326
MP2 TOTAL ENERGY:     -492.375236577 Eh
FINAL SINGLE POINT ENERGY      -492.375236576621

CARTESIAN COORDINATES (ANGSTROEM)
---------------------------------
  N      0.346748    0.024340   -0.255411
  N      0.892153    1.289993    0.039473
  P     -1.327752   -0.173350   -0.009187
  C      1.211339   -1.098273    0.047686
  H      2.137877   -1.015629   -0.524902
  H      0.719878   -2.029091   -0.230511
  H      1.474315   -1.149607    1.114174
  H      1.656065    1.478562   -0.599339
  H      1.257253    1.309851    0.990396
  H     -1.757062    0.994867   -0.672128
  H     -1.512381    0.400613    1.285563

 Multiplicity           Mult            ....    1
 Number of Electrons    NEL             ....   42
 Basis Dimension        Dim             ....  646

ORBITAL ENERGIES
----------------

  NO   OCC          E(Eh)            E(eV)
   0   2.0000     -79.948126     -2175.4991
   1   2.0000     -15.578859      -423.9223
   2   2.0000     -15.577855      -423.8950
   3   2.0000     -11.254873      -306.2607
   4   2.0000      -7.487866      -203.7552
   5   2.0000      -5.381975      -146.4510
   6   2.0000      -5.381602      -146.4408
   7   2.0000      -5.380948      -146.4230
   8   2.0000      -1.288876       -35.0721
   9   2.0000      -1.064931       -28.9782
  10   2.0000      -0.924302       -25.1515
  11   2.0000      -0.787899       -21.4398
  12   2.0000      -0.690912       -18.8007
  13   2.0000      -0.654974       -17.8228
  14   2.0000      -0.615306       -16.7433
  15   2.0000      -0.584708       -15.9107
  16   2.0000      -0.533568       -14.5191
  17   2.0000      -0.510002       -13.8779
  18   2.0000      -0.425300       -11.5730
  19   2.0000      -0.379187       -10.3182
  20   2.0000      -0.358145        -9.7456
  21   0.0000       0.023142         0.6297
  22   0.0000       0.036968         1.0059
  23   0.0000       0.037955         1.0328
  24   0.0000       0.039839         1.0841
  25   0.0000       0.055383         1.5071

MULLIKEN ATOMIC CHARGES
-----------------------
   0 N :   -0.363732
   1 N :   -0.515285
   2 P :    0.473155
   3 C :   -0.798123
   4 H :    0.301205
   5 H :    0.325596
   6 H :    0.291606
   7 H :    0.252741
   8 H :    0.233513
   9 H :   -0.089250
  10 H :   -0.111426
Sum of atomic charges:    0.0000000

LOEWDIN ATOMIC CHARGES
----------------------
   0 N :   -0.035969
   1 N :    1.032638
   2 P :    1.324136
   3 C :    0.618364
   4 H :   -0.305943
   5 H :   -0.344147
   6 H :   -0.293622
   7 H :   -0.532691
   8 H :   -0.532989
   9 H :   -0.475914
  10 H :   -0.453864

  Mayer bond orders larger than 0.100000
B(  0-N ,  1-N ) :   0.7343 B(  0-N ,  2-P ) :   0.7599 B(  0-N ,  3-C ) :   0.8667
B(  1-N ,  7-H ) :   0.9245 B(  1-N ,  8-H ) :   0.9365 B(  2-P ,  9-H ) :   0.9704
B(  2-P , 10-H ) :   0.8952 B(  3-C ,  4-H ) :   0.9422 B(  3-C ,  5-H ) :   0.9225
B(  3-C ,  6-H ) :   0.9137

MP2 TOTAL ENERGY:     -492.434030224 Eh
FINAL SINGLE POINT ENERGY      -492.434030224093

DIPOLE MOMENT
-------------
                                X             Y             Z
Electronic contribution:     -4.49779      -0.20126      -1.10297
Nuclear contribution   :      5.30313       0.16409       1.38521
                        -----------------------------------------
Total Dipole Moment    :      0.80534      -0.03717       0.28224
                        -----------------------------------------
Magnitude (a.u.)       :      0.85418
Magnitude (Debye)      :      2.17115

Rotational constants in cm-1:     0.300641     0.155975     0.110790
Rotational constants in MHz :  9012.984666  4675.999651  3321.386896

                             ****ORCA TERMINATED NORMALLY****
TOTAL RUN TIME: 0 days 0 hours 25 minutes 53 seconds 412 msec
