                         Program Version 5.0.4 -  RELEASE  -
|  1> ! ri-mp2 aug-cc-pvdz aug-cc-pvdz/c tightscf
|  2> %pal nprocs 16 end
|  3> %maxcore 3800
|  4> %base "DZ_P-C_52_AB"
|  5>
|  6> *xyz 0 1
|  7> C        -0.633064   -0.266409    0.480814
|  8> P         1.931609   -0.232488   -0.534778
|  9> F         1.869038    1.359590   -0.547694
| 10> F         3.295614   -0.388737    0.276887
| 11> C        -1.181762    1.007855    0.564788
| 12> C        -1.417052   -1.298481   -0.020412
| 13> C        -2.486188    1.241696    0.167275
| 14> C        -3.260664    0.205241   -0.326277
| 15> C        -2.721639   -1.066326   -0.419938
| 16> H        -3.319198   -1.882614   -0.803476
| 17> H        -1.003241   -2.296906   -0.092872
| 18> H        -2.899411    2.238647    0.243610
| 19> H        -4.280941    0.387849   -0.635683
| 20> H        -0.578884    1.823434    0.942894
| 21> C         0.794791   -0.510103    0.874636
| 22> H         0.943952   -1.544609    1.191222
| 23> H         1.115196    0.143001    1.687931
| 24> *
| 25>
| 26> $new_job
| 27> ! ri-mp2 aug-cc-pvtz aug-cc-pvtz/c tightscf
| 28> %pal nprocs 16 end
| 29> %maxcore 3800
| 30> %base "TZ_P-C_52_AB"
| 31>
| 32> *xyz 0 1
| 33> C        -0.633064   -0.266409    0.480814
| 34> P         1.931609   -0.232488   -0.534778
| 35> F         1.869038    1.359590   -0.547694
| 36> F         3.295614   -0.388737    0.276887
| 37> C        -1.181762    1.007855    0.564788
| 38> C        -1.417052   -1.298481   -0.020412
| 39> C        -2.486188    1.241696    0.167275
| 40> C        -3.260664    0.205241   -0.326277
| 41> C        -2.721639   -1.066326   -0.419938
| 42> H        -3.319198   -1.882614   -0.803476
| 43> H        -1.003241   -2.296906   -0.092872
| 44> H        -2.899411    2.238647    0.243610
| 45> H        -4.280941    0.387849   -0.635683
| 46> H        -0.578884    1.823434    0.942894
| 47> C         0.794791   -0.510103    0.874636
| 48> H         0.943952   -1.544609    1.191222
| 49> H         1.115196    0.143001    1.687931
| 50> *
| 51>
| 52> $new_job
| 53> ! ri-mp2 aug-cc-pvqz aug-cc-pvqz/c tightscf
| 54> %pal nprocs 16 end
| 55> %maxcore 3800
| 56> %base "QZ_P-C_52_AB"
| 57>
| 58> *xyz 0 1
| 59> C        -0.633064   -0.266409    0.480814
| 60> P         1.931609   -0.232488   -0.534778
| 61> F         1.869038    1.359590   -0.547694
| 62> F         3.295614   -0.388737    0.276887
| 63> C        -1.181762    1.007855    0.564788
| 64> C        -1.417052   -1.298481   -0.020412
| 65> C        -2.486188    1.241696    0.167275
| 66> C        -3.260664    0.205241   -0.326277
| 67> C        -2.721639   -1.066326   -0.419938
| 68> H        -3.319198   -1.882614   -0.803476
| 69> H        -1.003241   -2.296906   -0.092872
| 70> H        -2.899411    2.238647    0.243610
| 71> H        -4.280941    0.387849   -0.635683
| 72> H        -0.578884    1.823434    0.942894
| 73> C         0.794791   -0.510103    0.874636
| 74> H         0.943952   -1.544609    1.191222
| 75> H         1.115196    0.143001    1.687931
| 76> *
| 77>
| 78>
| 79>
| 80>
| 81>                          ****END OF INPUT****
 Total Charge           Charge          ....    0
 Multiplicity           Mult            ....    1
 Number of Electrons    NEL             ....   82
MP2 TOTAL ENERGY:     -810.364947973 Eh
FINAL SINGLE POINT ENERGY      -810.364947972632
MP2 TOTAL ENERGY:     -810.822621242 Eh
FINAL SINGLE POINT ENERGY      -810.822621242320

CARTESIAN COORDINATES (ANGSTROEM)
---------------------------------
  C     -0.633064   -0.266409    0.480814
  P      1.931609   -0.232488   -0.534778
  F      1.869038    1.359590   -0.547694
  F      3.295614   -0.388737    0.276887
  C     -1.181762    1.007855    0.564788
  C     -1.417052   -1.298481   -0.020412
  C     -2.486188    1.241696    0.167275
  C     -3.260664    0.205241   -0.326277
  C     -2.721639   -1.066326   -0.419938
  H     -3.319198   -1.882614   -0.803476
  H     -1.003241   -2.296906   -0.092872
  H     -2.899411    2.238647    0.243610
  H     -4.280941    0.387849   -0.635683
  H     -0.578884    1.823434    0.942894
  C      0.794791   -0.510103    0.874636
  H      0.943952   -1.544609    1.191222
  H      1.115196    0.143001    1.687931

 Multiplicity           Mult            ....    1
 Number of Electrons    NEL             ....   82
 Basis Dimension        Dim             .... 1126

ORBITAL ENERGIES
----------------

  NO   OCC          E(Eh)            E(eV)
   0   2.0000     -80.056794     -2178.4561
   1   2.0000     -26.308706      -715.8963
   2   2.0000     -26.308565      -715.8924
   3   2.0000     -11.254831      -306.2595
   4   2.0000     -11.246844      -306.0422
   5   2.0000     -11.241216      -305.8890
   6   2.0000     -11.240354      -305.8656
   7   2.0000     -11.239856      -305.8520
   8   2.0000     -11.238299      -305.8097
   9   2.0000     -11.237515      -305.7883
  10   2.0000      -7.584126      -206.3746
  11   2.0000      -5.478242      -149.0705
  12   2.0000      -5.477222      -149.0428
  13   2.0000      -5.475232      -148.9886
  14   2.0000      -1.636150       -44.5219
  15   2.0000      -1.602824       -43.6151
  16   2.0000      -1.172489       -31.9051
  17   2.0000      -1.071548       -29.1583
  18   2.0000      -1.026962       -27.9451
  19   2.0000      -0.971569       -26.4377
  20   2.0000      -0.859122       -23.3779
  21   2.0000      -0.840359       -22.8673
  22   2.0000      -0.809520       -22.0282
  23   2.0000      -0.742983       -20.2176
  24   2.0000      -0.720321       -19.6009
  25   2.0000      -0.718054       -19.5392
  26   2.0000      -0.703203       -19.1351
  27   2.0000      -0.677568       -18.4376
  28   2.0000      -0.652817       -17.7640
  29   2.0000      -0.647429       -17.6175
  30   2.0000      -0.642300       -17.4779
  31   2.0000      -0.601973       -16.3805
  32   2.0000      -0.595956       -16.2168
  33   2.0000      -0.581199       -15.8152
  34   2.0000      -0.561510       -15.2795
  35   2.0000      -0.508395       -13.8341
  36   2.0000      -0.503529       -13.7017
  37   2.0000      -0.499565       -13.5939
  38   2.0000      -0.400085       -10.8869
  39   2.0000      -0.348269        -9.4769
  40   2.0000      -0.335960        -9.1419
  41   0.0000       0.023183         0.6308
  42   0.0000       0.027426         0.7463
  43   0.0000       0.029803         0.8110
  44   0.0000       0.040023         1.0891
  45   0.0000       0.041493         1.1291

MULLIKEN ATOMIC CHARGES
-----------------------
   0 C :    0.384143
   1 P :    1.531211
   2 F :   -0.717895
   3 F :   -0.728943
   4 C :   -0.403896
   5 C :   -0.504545
   6 C :   -0.310479
   7 C :   -0.288913
   8 C :   -0.305915
   9 H :    0.242845
  10 H :    0.285199
  11 H :    0.231996
  12 H :    0.332717
  13 H :    0.328360
  14 C :   -0.484277
  15 H :    0.228803
  16 H :    0.179589
Sum of atomic charges:    0.0000000

LOEWDIN ATOMIC CHARGES
----------------------
   0 C :   -0.192403
   1 P :   -0.057355
   2 F :    0.311416
   3 F :    0.294562
   4 C :    0.321681
   5 C :    0.320154
   6 C :    0.346406
   7 C :    0.338169
   8 C :    0.343478
   9 H :   -0.318898
  10 H :   -0.317989
  11 H :   -0.318093
  12 H :   -0.321437
  13 H :   -0.320283
  14 C :    0.306598
  15 H :   -0.372988
  16 H :   -0.363019

  Mayer bond orders larger than 0.100000
B(  0-C ,  4-C ) :   1.0455 B(  0-C ,  5-C ) :   1.0449 B(  0-C ,  6-C ) :  -0.3260
B(  0-C ,  8-C ) :  -0.3242 B(  0-C , 14-C ) :   0.8336 B(  1-P ,  2-F ) :   0.5371
B(  1-P ,  3-F ) :   0.5127 B(  1-P , 14-C ) :   0.8548 B(  3-F , 14-C ) :  -0.1459
B(  4-C ,  6-C ) :   1.3540 B(  4-C ,  8-C ) :   0.1465 B(  4-C , 11-H ) :  -0.1220
B(  4-C , 13-H ) :   0.9244 B(  4-C , 14-C ) :  -0.1210 B(  5-C ,  6-C ) :   0.1723
B(  5-C ,  8-C ) :   1.3972 B(  5-C ,  9-H ) :  -0.1243 B(  5-C , 10-H ) :   0.9702
B(  5-C , 14-C ) :  -0.1621 B(  6-C ,  7-C ) :   1.1305 B(  6-C , 11-H ) :   1.1334
B(  7-C ,  8-C ) :   1.1155 B(  7-C ,  9-H ) :  -0.1094 B(  7-C , 12-H ) :   0.9936
B(  8-C ,  9-H ) :   1.1247 B( 14-C , 15-H ) :   0.9604 B( 14-C , 16-H ) :   0.9964

MP2 TOTAL ENERGY:     -810.969831049 Eh
FINAL SINGLE POINT ENERGY      -810.969831048712

DIPOLE MOMENT
-------------
                                X             Y             Z
Electronic contribution:     15.53964       1.42884      -2.92379
Nuclear contribution   :    -16.31630      -1.79738       3.18423
                        -----------------------------------------
Total Dipole Moment    :     -0.77666      -0.36854       0.26044
                        -----------------------------------------
Magnitude (a.u.)       :      0.89825
Magnitude (Debye)      :      2.28317

Rotational constants in cm-1:     0.098970     0.020710     0.018709
Rotational constants in MHz :  2967.032601   620.871608   560.874711

                             ****ORCA TERMINATED NORMALLY****
TOTAL RUN TIME: 0 days 0 hours 33 minutes 8 seconds 879 msec
