                         Program Version 5.0.4 -  RELEASE  -
|  1> ! ri-mp2 aug-cc-pvdz aug-cc-pvdz/c tightscf
|  2> %pal nprocs 16 end
|  3> %maxcore 3800
|  4> %base "DZ_B-P_8_AB"
|  5> %scf
|  6> STABPerform true
|  7> STABRestartUHFifUnstable true
|  8> end
|  9>
| 10> *xyz 0 1
| 11> P        -0.408727    0.473265    0.682740
| 12> B         1.263582   -0.284475    0.056117
| 13> O         1.377660   -1.626822   -0.081310
| 14> C        -0.526879    1.917633   -0.445986
| 15> H        -0.450534    1.645514   -1.496711
| 16> H         0.291662    2.592723   -0.192282
| 17> Cl        -1.764764   -0.824483   -0.210875
| 18> H        -1.469541    2.433374   -0.273639
| 19> H         2.239928   -1.969149   -0.335131
| 20> O         2.275074    0.611533   -0.121937
| 21> H         3.141862    0.253658   -0.337153
| 22> *
| 23>
| 24> $new_job
| 25> ! ri-mp2 aug-cc-pvtz aug-cc-pvtz/c tightscf
| 26> %pal nprocs 16 end
| 27> %maxcore 3800
| 28> %base "TZ_B-P_8_AB"
| 29>
| 30> *xyz 0 1
| 31> P        -0.408727    0.473265    0.682740
| 32> B         1.263582   -0.284475    0.056117
| 33> O         1.377660   -1.626822   -0.081310
| 34> C        -0.526879    1.917633   -0.445986
| 35> H        -0.450534    1.645514   -1.496711
| 36> H         0.291662    2.592723   -0.192282
| 37> Cl        -1.764764   -0.824483   -0.210875
| 38> H        -1.469541    2.433374   -0.273639
| 39> H         2.239928   -1.969149   -0.335131
| 40> O         2.275074    0.611533   -0.121937
| 41> H         3.141862    0.253658   -0.337153
| 42> *
| 43>
| 44> $new_job
| 45> ! ri-mp2 aug-cc-pvqz aug-cc-pvqz/c tightscf
| 46> %pal nprocs 16 end
| 47> %maxcore 3800
| 48> %base "QZ_B-P_8_AB"
| 49>
| 50> *xyz 0 1
| 51> P        -0.408727    0.473265    0.682740
| 52> B         1.263582   -0.284475    0.056117
| 53> O         1.377660   -1.626822   -0.081310
| 54> C        -0.526879    1.917633   -0.445986
| 55> H        -0.450534    1.645514   -1.496711
| 56> H         0.291662    2.592723   -0.192282
| 57> Cl        -1.764764   -0.824483   -0.210875
| 58> H        -1.469541    2.433374   -0.273639
| 59> H         2.239928   -1.969149   -0.335131
| 60> O         2.275074    0.611533   -0.121937
| 61> H         3.141862    0.253658   -0.337153
| 62> *
| 63>
| 64>
| 65>
| 66>
| 67>                          ****END OF INPUT****
 Total Charge           Charge          ....    0
 Multiplicity           Mult            ....    1
 Number of Electrons    NEL             ....   64
MP2 TOTAL ENERGY:    -1016.502494734 Eh
FINAL SINGLE POINT ENERGY     -1016.502494734498
MP2 TOTAL ENERGY:    -1016.801161911 Eh
FINAL SINGLE POINT ENERGY     -1016.801161910694

CARTESIAN COORDINATES (ANGSTROEM)
---------------------------------
  P     -0.408727    0.473265    0.682740
  B      1.263582   -0.284475    0.056117
  O      1.377660   -1.626822   -0.081310
  C     -0.526879    1.917633   -0.445986
  H     -0.450534    1.645514   -1.496711
  H      0.291662    2.592723   -0.192282
  Cl    -1.764764   -0.824483   -0.210875
  H     -1.469541    2.433374   -0.273639
  H      2.239928   -1.969149   -0.335131
  O      2.275074    0.611533   -0.121937
  H      3.141862    0.253658   -0.337153

 Multiplicity           Mult            ....    1
 Number of Electrons    NEL             ....   64
 Basis Dimension        Dim             ....  718

ORBITAL ENERGIES
----------------

  NO   OCC          E(Eh)            E(eV)
   0   2.0000    -104.812535     -2852.0941
   1   2.0000     -79.963167     -2175.9084
   2   2.0000     -20.592383      -560.3472
   3   2.0000     -20.587990      -560.2277
   4   2.0000     -11.229151      -305.5607
   5   2.0000     -10.538722      -286.7732
   6   2.0000      -8.005608      -217.8437
   7   2.0000      -8.004212      -217.8057
   8   2.0000      -8.004113      -217.8030
   9   2.0000      -7.664705      -208.5672
  10   2.0000      -7.502998      -204.1669
  11   2.0000      -5.397235      -146.8662
  12   2.0000      -5.395955      -146.8314
  13   2.0000      -5.395310      -146.8139
  14   2.0000      -1.408066       -38.3154
  15   2.0000      -1.369542       -37.2671
  16   2.0000      -1.090427       -29.6720
  17   2.0000      -0.975703       -26.5502
  18   2.0000      -0.821776       -22.3617
  19   2.0000      -0.763045       -20.7635
  20   2.0000      -0.731861       -19.9149
  21   2.0000      -0.656280       -17.8583
  22   2.0000      -0.600496       -16.3403
  23   2.0000      -0.581037       -15.8108
  24   2.0000      -0.579282       -15.7631
  25   2.0000      -0.553549       -15.0628
  26   2.0000      -0.527926       -14.3656
  27   2.0000      -0.509163       -13.8550
  28   2.0000      -0.489766       -13.3272
  29   2.0000      -0.463489       -12.6122
  30   2.0000      -0.422395       -11.4939
  31   2.0000      -0.339772        -9.2457
  32   0.0000       0.011735         0.3193
  33   0.0000       0.031918         0.8685
  34   0.0000       0.035007         0.9526
  35   0.0000       0.038144         1.0380
  36   0.0000       0.052543         1.4298

MULLIKEN ATOMIC CHARGES
-----------------------
   0 P :    0.695359
   1 B :    1.318738
   2 O :   -1.057670
   3 C :   -1.076904
   4 H :    0.250729
   5 H :    0.296063
   6 Cl:   -0.502793
   7 H :    0.386659
   8 H :    0.356978
   9 O :   -1.005611
  10 H :    0.338452
Sum of atomic charges:    0.0000000

LOEWDIN ATOMIC CHARGES
----------------------
   0 P :    0.273720
   1 B :   -1.547637
   2 O :    1.285275
   3 C :    0.649823
   4 H :   -0.366608
   5 H :   -0.377784
   6 Cl:    0.727172
   7 H :   -0.378965
   8 H :   -0.785763
   9 O :    1.300324
  10 H :   -0.779557

  Mayer bond orders larger than 0.100000
B(  0-P ,  1-B ) :   1.0311 B(  0-P ,  3-C ) :   0.9330 B(  0-P ,  6-Cl) :   0.7551
B(  1-B ,  2-O ) :   0.4101 B(  1-B ,  9-O ) :   0.3760 B(  2-O ,  8-H ) :   0.9455
B(  3-C ,  4-H ) :   0.9194 B(  3-C ,  5-H ) :   0.8834 B(  3-C ,  7-H ) :   0.8651
B(  9-O , 10-H ) :   0.9600

MP2 TOTAL ENERGY:    -1016.898634128 Eh
FINAL SINGLE POINT ENERGY     -1016.898634128068

DIPOLE MOMENT
-------------
                                X             Y             Z
Electronic contribution:     -3.71791      -5.43181       2.37127
Nuclear contribution   :      5.43162       5.61377      -2.88568
                        -----------------------------------------
Total Dipole Moment    :      1.71371       0.18196      -0.51441
                        -----------------------------------------
Magnitude (a.u.)       :      1.79848
Magnitude (Debye)      :      4.57137

Rotational constants in cm-1:     0.102604     0.058460     0.041088
Rotational constants in MHz :  3075.984485  1752.594684  1231.802158

                             ****ORCA TERMINATED NORMALLY****
TOTAL RUN TIME: 0 days 0 hours 45 minutes 6 seconds 537 msec
