                         Program Version 5.0.4 -  RELEASE  -
|  1> ! ri-mp2 aug-cc-pvdz aug-cc-pvdz/c tightscf
|  2> %pal nprocs 16 end
|  3> %maxcore 3800
|  4> %base "DZ_Si-Cl_71_A"
|  5> %scf
|  6> STABPerform true
|  7> STABRestartUHFifUnstable true
|  8> end
|  9>
| 10> *xyz 0 2
| 11> Si         1.378202    0.284170   -0.100724
| 12> C        -1.635497    0.680362   -0.034183
| 13> S        -0.481220   -0.721582    0.042860
| 14> H        -2.632903    0.277267    0.121994
| 15> H        -1.597062    1.162425   -1.007638
| 16> H        -1.420362    1.405011    0.747617
| 17> H         2.413616   -0.741449    0.166077
| 18> H         1.454371    1.381497    0.901413
| 19> *
| 20>
| 21> $new_job
| 22> ! ri-mp2 aug-cc-pvtz aug-cc-pvtz/c tightscf
| 23> %pal nprocs 16 end
| 24> %maxcore 3800
| 25> %base "TZ_Si-Cl_71_A"
| 26>
| 27> *xyz 0 2
| 28> Si         1.378202    0.284170   -0.100724
| 29> C        -1.635497    0.680362   -0.034183
| 30> S        -0.481220   -0.721582    0.042860
| 31> H        -2.632903    0.277267    0.121994
| 32> H        -1.597062    1.162425   -1.007638
| 33> H        -1.420362    1.405011    0.747617
| 34> H         2.413616   -0.741449    0.166077
| 35> H         1.454371    1.381497    0.901413
| 36> *
| 37>
| 38> $new_job
| 39> ! ri-mp2 aug-cc-pvqz aug-cc-pvqz/c tightscf
| 40> %pal nprocs 16 end
| 41> %maxcore 3800
| 42> %base "QZ_Si-Cl_71_A"
| 43>
| 44> *xyz 0 2
| 45> Si         1.378202    0.284170   -0.100724
| 46> C        -1.635497    0.680362   -0.034183
| 47> S        -0.481220   -0.721582    0.042860
| 48> H        -2.632903    0.277267    0.121994
| 49> H        -1.597062    1.162425   -1.007638
| 50> H        -1.420362    1.405011    0.747617
| 51> H         2.413616   -0.741449    0.166077
| 52> H         1.454371    1.381497    0.901413
| 53> *
| 54>
| 55>
| 56>
| 57>
| 58>                          ****END OF INPUT****
 Total Charge           Charge          ....    0
 Multiplicity           Mult            ....    2
 Number of Electrons    NEL             ....   41
MP2 TOTAL ENERGY:     -727.613326155 Eh
FINAL SINGLE POINT ENERGY      -727.613326154601
MP2 TOTAL ENERGY:     -727.740411055 Eh
FINAL SINGLE POINT ENERGY      -727.740411054756

CARTESIAN COORDINATES (ANGSTROEM)
---------------------------------
  Si     1.378202    0.284170   -0.100724
  C     -1.635497    0.680362   -0.034183
  S     -0.481220   -0.721582    0.042860
  H     -2.632903    0.277267    0.121994
  H     -1.597062    1.162425   -1.007638
  H     -1.420362    1.405011    0.747617
  H      2.413616   -0.741449    0.166077
  H      1.454371    1.381497    0.901413

 Multiplicity           Mult            ....    2
 Number of Electrons    NEL             ....   41
 Basis Dimension        Dim             ....  478

ORBITAL ENERGIES
----------------
                 SPIN UP ORBITALS
  NO   OCC          E(Eh)            E(eV)
   0   1.0000     -91.946576     -2501.9935
   1   1.0000     -68.798962     -1872.1149
   2   1.0000     -11.262501      -306.4682
   3   1.0000      -8.950352      -243.5515
   4   1.0000      -6.633026      -180.4938
   5   1.0000      -6.631076      -180.4407
   6   1.0000      -6.630225      -180.4176
   7   1.0000      -6.147183      -167.2733
   8   1.0000      -4.258770      -115.8870
   9   1.0000      -4.250168      -115.6529
  10   1.0000      -4.249624      -115.6381
  11   1.0000      -1.042212       -28.3600
  12   1.0000      -0.872110       -23.7313
  13   1.0000      -0.700638       -19.0653
  14   1.0000      -0.600226       -16.3330
  15   1.0000      -0.597072       -16.2471
  16   1.0000      -0.521280       -14.1847
  17   1.0000      -0.479759       -13.0549
  18   1.0000      -0.442216       -12.0333
  19   1.0000      -0.392878       -10.6907
  20   1.0000      -0.313926        -8.5424
  21   0.0000       0.024864         0.6766
  22   0.0000       0.033706         0.9172
  23   0.0000       0.038229         1.0403
  24   0.0000       0.041987         1.1425
  25   0.0000       0.049770         1.3543

                 SPIN DOWN ORBITALS
  NO   OCC          E(Eh)            E(eV)
   0   1.0000     -91.945408     -2501.9617
   1   1.0000     -68.793488     -1871.9660
   2   1.0000     -11.262586      -306.4706
   3   1.0000      -8.949039      -243.5157
   4   1.0000      -6.630756      -180.4320
   5   1.0000      -6.630058      -180.4130
   6   1.0000      -6.627187      -180.3349
   7   1.0000      -6.138561      -167.0387
   8   1.0000      -4.246646      -115.5571
   9   1.0000      -4.246233      -115.5459
  10   1.0000      -4.237881      -115.3186
  11   1.0000      -1.037829       -28.2408
  12   1.0000      -0.865885       -23.5619
  13   1.0000      -0.663683       -18.0597
  14   1.0000      -0.597914       -16.2701
  15   1.0000      -0.593978       -16.1630
  16   1.0000      -0.513383       -13.9699
  17   1.0000      -0.472757       -12.8644
  18   1.0000      -0.424568       -11.5531
  19   1.0000      -0.364084        -9.9072
  20   0.0000       0.021583         0.5873
  21   0.0000       0.030805         0.8383
  22   0.0000       0.034799         0.9469
  23   0.0000       0.038446         1.0462
  24   0.0000       0.048349         1.3157

MULLIKEN ATOMIC CHARGES AND SPIN POPULATIONS
--------------------------------------------
   0 Si:    0.699810    0.862626
   1 C :   -0.898496   -0.011194
   2 S :   -0.281616    0.072117
   3 H :    0.384209   -0.002641
   4 H :    0.260099    0.011386
   5 H :    0.275068   -0.001866
   6 H :   -0.233422    0.020739
   7 H :   -0.205652    0.048832
Sum of atomic charges         :    0.0000000

LOEWDIN ATOMIC CHARGES AND SPIN POPULATIONS
-------------------------------------------
   0 Si:    0.557145    0.541923
   1 C :    0.422877    0.025281
   2 S :    0.989923    0.168279
   3 H :   -0.397291    0.002523
   4 H :   -0.386450    0.006760
   5 H :   -0.392905    0.001227
   6 H :   -0.412910    0.118950
   7 H :   -0.380390    0.135057

  Mayer bond orders larger than 0.100000
B(  0-Si,  2-S ) :   0.9244 B(  0-Si,  6-H ) :   0.8858 B(  0-Si,  7-H ) :   0.8866
B(  1-C ,  2-S ) :   0.9725 B(  1-C ,  3-H ) :   0.8324 B(  1-C ,  4-H ) :   0.9206
B(  1-C ,  5-H ) :   0.9126

MP2 TOTAL ENERGY:     -727.780503077 Eh
FINAL SINGLE POINT ENERGY      -727.780503076541

DIPOLE MOMENT
-------------
                                X             Y             Z
Electronic contribution:      1.61177      -2.91847      -0.96084
Nuclear contribution   :     -1.84646       3.48091       0.93188
                        -----------------------------------------
Total Dipole Moment    :     -0.23468       0.56244      -0.02896
                        -----------------------------------------
Magnitude (a.u.)       :      0.61013
Magnitude (Debye)      :      1.55082

Rotational constants in cm-1:     0.514078     0.146012     0.118056
Rotational constants in MHz : 15411.674751  4377.331073  3539.218566

                             ****ORCA TERMINATED NORMALLY****
TOTAL RUN TIME: 0 days 0 hours 21 minutes 2 seconds 707 msec
