                         Program Version 5.0.4 -  RELEASE  -
|  1> ! ri-mp2 aug-cc-pvdz aug-cc-pvdz/c tightscf
|  2> %pal nprocs 16 end
|  3> %maxcore 3800
|  4> %base "DZ_Si-Cl_34_A"
|  5> %scf
|  6> STABPerform true
|  7> STABRestartUHFifUnstable true
|  8> end
|  9>
| 10> *xyz 0 2
| 11> C         1.551502   -0.104894    0.023459
| 12> Si        -0.025470    0.825033   -0.122027
| 13> N         2.564971   -0.644633    0.026836
| 14> Cl        -1.577968   -0.484399    0.024805
| 15> H        -0.081768    1.826121    0.958089
| 16> *
| 17>
| 18> $new_job
| 19> ! ri-mp2 aug-cc-pvtz aug-cc-pvtz/c tightscf
| 20> %pal nprocs 16 end
| 21> %maxcore 3800
| 22> %base "TZ_Si-Cl_34_A"
| 23>
| 24> *xyz 0 2
| 25> C         1.551502   -0.104894    0.023459
| 26> Si        -0.025470    0.825033   -0.122027
| 27> N         2.564971   -0.644633    0.026836
| 28> Cl        -1.577968   -0.484399    0.024805
| 29> H        -0.081768    1.826121    0.958089
| 30> *
| 31>
| 32> $new_job
| 33> ! ri-mp2 aug-cc-pvqz aug-cc-pvqz/c tightscf
| 34> %pal nprocs 16 end
| 35> %maxcore 3800
| 36> %base "QZ_Si-Cl_34_A"
| 37>
| 38> *xyz 0 2
| 39> C         1.551502   -0.104894    0.023459
| 40> Si        -0.025470    0.825033   -0.122027
| 41> N         2.564971   -0.644633    0.026836
| 42> Cl        -1.577968   -0.484399    0.024805
| 43> H        -0.081768    1.826121    0.958089
| 44> *
| 45>
| 46>
| 47>
| 48>
| 49>                          ****END OF INPUT****
 Total Charge           Charge          ....    0
 Multiplicity           Mult            ....    2
 Number of Electrons    NEL             ....   45
MP2 TOTAL ENERGY:     -841.865085321 Eh
FINAL SINGLE POINT ENERGY      -841.865085320614
MP2 TOTAL ENERGY:     -842.033627445 Eh
FINAL SINGLE POINT ENERGY      -842.033627444849

CARTESIAN COORDINATES (ANGSTROEM)
---------------------------------
  C      1.551502   -0.104894    0.023459
  Si    -0.025470    0.825033   -0.122027
  N      2.564971   -0.644633    0.026836
  Cl    -1.577968   -0.484399    0.024805
  H     -0.081768    1.826121    0.958089

 Multiplicity           Mult            ....    2
 Number of Electrons    NEL             ....   45
 Basis Dimension        Dim             ....  374

ORBITAL ENERGIES
----------------
                 SPIN UP ORBITALS
  NO   OCC          E(Eh)            E(eV)
   0   1.0000    -104.861455     -2853.4252
   1   1.0000     -68.875963     -1874.2102
   2   1.0000     -15.603135      -424.5829
   3   1.0000     -11.265671      -306.5545
   4   1.0000     -10.588590      -288.1302
   5   1.0000      -8.056427      -219.2265
   6   1.0000      -8.054275      -219.1680
   7   1.0000      -8.053838      -219.1561
   8   1.0000      -6.220802      -169.2766
   9   1.0000      -4.332588      -117.8957
  10   1.0000      -4.324103      -117.6648
  11   1.0000      -4.323095      -117.6374
  12   1.0000      -1.248475       -33.9727
  13   1.0000      -1.134409       -30.8688
  14   1.0000      -0.817005       -22.2318
  15   1.0000      -0.645788       -17.5728
  16   1.0000      -0.577277       -15.7085
  17   1.0000      -0.574952       -15.6453
  18   1.0000      -0.536160       -14.5897
  19   1.0000      -0.509320       -13.8593
  20   1.0000      -0.499878       -13.6024
  21   1.0000      -0.491408       -13.3719
  22   1.0000      -0.382019       -10.3953
  23   0.0000       0.024929         0.6783
  24   0.0000       0.031500         0.8571
  25   0.0000       0.037008         1.0070
  26   0.0000       0.039055         1.0627
  27   0.0000       0.064618         1.7584

                 SPIN DOWN ORBITALS
  NO   OCC          E(Eh)            E(eV)
   0   1.0000    -104.860446     -2853.3978
   1   1.0000     -68.869539     -1874.0354
   2   1.0000     -15.593415      -424.3184
   3   1.0000     -11.270996      -306.6994
   4   1.0000     -10.587502      -288.1006
   5   1.0000      -8.054398      -219.1713
   6   1.0000      -8.053308      -219.1417
   7   1.0000      -8.051695      -219.0978
   8   1.0000      -6.210452      -168.9950
   9   1.0000      -4.319620      -117.5428
  10   1.0000      -4.318852      -117.5219
  11   1.0000      -4.310240      -117.2876
  12   1.0000      -1.230422       -33.4815
  13   1.0000      -1.126254       -30.6469
  14   1.0000      -0.793429       -21.5903
  15   1.0000      -0.630659       -17.1611
  16   1.0000      -0.564335       -15.3563
  17   1.0000      -0.563429       -15.3317
  18   1.0000      -0.510513       -13.8918
  19   1.0000      -0.491952       -13.3867
  20   1.0000      -0.487895       -13.2763
  21   1.0000      -0.482466       -13.1286
  22   0.0000      -0.001671        -0.0455
  23   0.0000       0.028137         0.7656
  24   0.0000       0.033946         0.9237
  25   0.0000       0.039255         1.0682
  26   0.0000       0.041631         1.1329

MULLIKEN ATOMIC CHARGES AND SPIN POPULATIONS
--------------------------------------------
   0 C :   -0.113454   -0.267916
   1 Si:    1.237757    0.867488
   2 N :   -0.454028    0.313252
   3 Cl:   -0.489670    0.040052
   4 H :   -0.180605    0.047123
Sum of atomic charges         :   -0.0000000

LOEWDIN ATOMIC CHARGES AND SPIN POPULATIONS
-------------------------------------------
   0 C :   -0.520656    0.085863
   1 Si:   -0.160346    0.507040
   2 N :    0.272286    0.146957
   3 Cl:    0.796701    0.133832
   4 H :   -0.387985    0.126308

  Mayer bond orders larger than 0.100000
B(  0-C ,  1-Si) :   0.7909 B(  0-C ,  2-N ) :   2.6494 B(  1-Si,  3-Cl) :   0.7532
B(  1-Si,  4-H ) :   0.9215

MP2 TOTAL ENERGY:     -842.090158654 Eh
FINAL SINGLE POINT ENERGY      -842.090158653533

DIPOLE MOMENT
-------------
                                X             Y             Z
Electronic contribution:     -2.91236      -1.40520      -0.91429
Nuclear contribution   :      2.04586       2.30053       0.86801
                        -----------------------------------------
Total Dipole Moment    :     -0.86649       0.89533      -0.04627
                        -----------------------------------------
Magnitude (a.u.)       :      1.24682
Magnitude (Debye)      :      3.16917

Rotational constants in cm-1:     0.443055     0.080044     0.068502
Rotational constants in MHz : 13282.443787  2399.645385  2053.637982

                             ****ORCA TERMINATED NORMALLY****
TOTAL RUN TIME: 0 days 0 hours 9 minutes 24 seconds 425 msec
