                         Program Version 5.0.4 -  RELEASE  -
|  1> ! ri-mp2 aug-cc-pvdz aug-cc-pvdz/c tightscf
|  2> %pal nprocs 16 end
|  3> %maxcore 3800
|  4> %base "DZ_Si-Cl_16_A"
|  5> %scf
|  6> STABPerform true
|  7> STABRestartUHFifUnstable true
|  8> end
|  9>
| 10> *xyz 0 2
| 11> Si        -1.358202   -0.658172    0.079882
| 12> C         0.452583   -0.647318   -0.428614
| 13> C         1.323705    0.327692    0.369846
| 14> H         0.516282   -0.409618   -1.494760
| 15> H         0.846573   -1.662181   -0.323901
| 16> C        -2.158253    1.025105   -0.135803
| 17> H        -1.666980    1.771503    0.493386
| 18> H        -3.211710    0.997192    0.142166
| 19> H        -2.091921    1.361522   -1.171013
| 20> C         2.786219    0.290224   -0.049948
| 21> H         1.245893    0.098139    1.435861
| 22> H         0.940926    1.344527    0.250911
| 23> H         3.206893   -0.706912    0.091584
| 24> H         3.386638    0.992325    0.530330
| 25> H         2.895921    0.547748   -1.104990
| 26> H        -1.479209   -1.094057    1.499186
| 27> *
| 28>
| 29> $new_job
| 30> ! ri-mp2 aug-cc-pvtz aug-cc-pvtz/c tightscf
| 31> %pal nprocs 16 end
| 32> %maxcore 3800
| 33> %base "TZ_Si-Cl_16_A"
| 34>
| 35> *xyz 0 2
| 36> Si        -1.358202   -0.658172    0.079882
| 37> C         0.452583   -0.647318   -0.428614
| 38> C         1.323705    0.327692    0.369846
| 39> H         0.516282   -0.409618   -1.494760
| 40> H         0.846573   -1.662181   -0.323901
| 41> C        -2.158253    1.025105   -0.135803
| 42> H        -1.666980    1.771503    0.493386
| 43> H        -3.211710    0.997192    0.142166
| 44> H        -2.091921    1.361522   -1.171013
| 45> C         2.786219    0.290224   -0.049948
| 46> H         1.245893    0.098139    1.435861
| 47> H         0.940926    1.344527    0.250911
| 48> H         3.206893   -0.706912    0.091584
| 49> H         3.386638    0.992325    0.530330
| 50> H         2.895921    0.547748   -1.104990
| 51> H        -1.479209   -1.094057    1.499186
| 52> *
| 53>
| 54> $new_job
| 55> ! ri-mp2 aug-cc-pvqz aug-cc-pvqz/c tightscf
| 56> %pal nprocs 16 end
| 57> %maxcore 3800
| 58> %base "QZ_Si-Cl_16_A"
| 59>
| 60> *xyz 0 2
| 61> Si        -1.358202   -0.658172    0.079882
| 62> C         0.452583   -0.647318   -0.428614
| 63> C         1.323705    0.327692    0.369846
| 64> H         0.516282   -0.409618   -1.494760
| 65> H         0.846573   -1.662181   -0.323901
| 66> C        -2.158253    1.025105   -0.135803
| 67> H        -1.666980    1.771503    0.493386
| 68> H        -3.211710    0.997192    0.142166
| 69> H        -2.091921    1.361522   -1.171013
| 70> C         2.786219    0.290224   -0.049948
| 71> H         1.245893    0.098139    1.435861
| 72> H         0.940926    1.344527    0.250911
| 73> H         3.206893   -0.706912    0.091584
| 74> H         3.386638    0.992325    0.530330
| 75> H         2.895921    0.547748   -1.104990
| 76> H        -1.479209   -1.094057    1.499186
| 77> *
| 78>
| 79>
| 80>
| 81>
| 82>                          ****END OF INPUT****
 Total Charge           Charge          ....    0
 Multiplicity           Mult            ....    2
 Number of Electrons    NEL             ....   49
MP2 TOTAL ENERGY:     -447.491701182 Eh
FINAL SINGLE POINT ENERGY      -447.491701182481
MP2 TOTAL ENERGY:     -447.684086979 Eh
FINAL SINGLE POINT ENERGY      -447.684086979392

CARTESIAN COORDINATES (ANGSTROEM)
---------------------------------
  Si    -1.358202   -0.658172    0.079882
  C      0.452583   -0.647318   -0.428614
  C      1.323705    0.327692    0.369846
  H      0.516282   -0.409618   -1.494760
  H      0.846573   -1.662181   -0.323901
  C     -2.158253    1.025105   -0.135803
  H     -1.666980    1.771503    0.493386
  H     -3.211710    0.997192    0.142166
  H     -2.091921    1.361522   -1.171013
  C      2.786219    0.290224   -0.049948
  H      1.245893    0.098139    1.435861
  H      0.940926    1.344527    0.250911
  H      3.206893   -0.706912    0.091584
  H      3.386638    0.992325    0.530330
  H      2.895921    0.547748   -1.104990
  H     -1.479209   -1.094057    1.499186

 Multiplicity           Mult            ....    2
 Number of Electrons    NEL             ....   49
 Basis Dimension        Dim             ....  910

ORBITAL ENERGIES
----------------
                 SPIN UP ORBITALS
  NO   OCC          E(Eh)            E(eV)
   0   1.0000     -68.759995     -1871.0546
   1   1.0000     -11.223727      -305.4131
   2   1.0000     -11.210627      -305.0567
   3   1.0000     -11.206060      -304.9324
   4   1.0000     -11.203954      -304.8751
   5   1.0000      -6.110445      -166.2737
   6   1.0000      -4.223178      -114.9185
   7   1.0000      -4.213447      -114.6537
   8   1.0000      -4.213133      -114.6452
   9   1.0000      -1.059218       -28.8228
  10   1.0000      -0.951302       -25.8863
  11   1.0000      -0.921764       -25.0825
  12   1.0000      -0.806503       -21.9461
  13   1.0000      -0.666631       -18.1400
  14   1.0000      -0.632186       -17.2026
  15   1.0000      -0.577557       -15.7161
  16   1.0000      -0.563386       -15.3305
  17   1.0000      -0.559638       -15.2285
  18   1.0000      -0.537064       -14.6142
  19   1.0000      -0.530139       -14.4258
  20   1.0000      -0.483244       -13.1497
  21   1.0000      -0.475279       -12.9330
  22   1.0000      -0.450391       -12.2558
  23   1.0000      -0.422869       -11.5068
  24   1.0000      -0.306011        -8.3270
  25   0.0000       0.023454         0.6382
  26   0.0000       0.031691         0.8624
  27   0.0000       0.032801         0.8926
  28   0.0000       0.033689         0.9167
  29   0.0000       0.046446         1.2639

                 SPIN DOWN ORBITALS
  NO   OCC          E(Eh)            E(eV)
   0   1.0000     -68.754482     -1870.9046
   1   1.0000     -11.222818      -305.3884
   2   1.0000     -11.210393      -305.0503
   3   1.0000     -11.205399      -304.9144
   4   1.0000     -11.203331      -304.8581
   5   1.0000      -6.101968      -166.0430
   6   1.0000      -4.209829      -114.5553
   7   1.0000      -4.209471      -114.5455
   8   1.0000      -4.201336      -114.3242
   9   1.0000      -1.056331       -28.7442
  10   1.0000      -0.945087       -25.7171
  11   1.0000      -0.919269       -25.0146
  12   1.0000      -0.803933       -21.8761
  13   1.0000      -0.636314       -17.3150
  14   1.0000      -0.629296       -17.1240
  15   1.0000      -0.573994       -15.6192
  16   1.0000      -0.558714       -15.2034
  17   1.0000      -0.550751       -14.9867
  18   1.0000      -0.536083       -14.5876
  19   1.0000      -0.524521       -14.2729
  20   1.0000      -0.479473       -13.0471
  21   1.0000      -0.474504       -12.9119
  22   1.0000      -0.442546       -12.0423
  23   1.0000      -0.414946       -11.2913
  24   0.0000       0.022378         0.6089
  25   0.0000       0.030511         0.8303
  26   0.0000       0.032558         0.8860
  27   0.0000       0.033915         0.9229
  28   0.0000       0.046193         1.2570

MULLIKEN ATOMIC CHARGES AND SPIN POPULATIONS
--------------------------------------------
   0 Si:    0.656328    1.005196
   1 C :   -0.588992   -0.044966
   2 C :   -0.351716    0.021162
   3 H :    0.194427   -0.002298
   4 H :    0.258324    0.000763
   5 C :   -1.098301   -0.004686
   6 H :    0.245370    0.022973
   7 H :    0.324937   -0.008700
   8 H :    0.235221   -0.001156
   9 C :   -0.809614    0.004634
  10 H :    0.239933   -0.000641
  11 H :    0.234444    0.000545
  12 H :    0.220032   -0.000736
  13 H :    0.260117    0.002099
  14 H :    0.224338   -0.000646
  15 H :   -0.244849    0.006457
Sum of atomic charges         :    0.0000000

LOEWDIN ATOMIC CHARGES AND SPIN POPULATIONS
-------------------------------------------
   0 Si:    0.848160    0.516154
   1 C :    0.463165    0.126387
   2 C :    0.420623    0.017717
   3 H :   -0.350364    0.013868
   4 H :   -0.357234    0.015185
   5 C :    0.871870    0.131159
   6 H :   -0.363925    0.016895
   7 H :   -0.377756    0.014542
   8 H :   -0.368208    0.012890
   9 C :    0.920816    0.004116
  10 H :   -0.287458    0.005852
  11 H :   -0.294170    0.003518
  12 H :   -0.286206    0.000463
  13 H :   -0.282204    0.001382
  14 H :   -0.285680    0.000515
  15 H :   -0.271428    0.119357

  Mayer bond orders larger than 0.100000
B(  0-Si,  1-C ) :   0.7961 B(  0-Si,  5-C ) :   0.7933 B(  0-Si, 15-H ) :   0.8789
B(  1-C ,  2-C ) :   0.8684 B(  1-C ,  3-H ) :   0.9587 B(  1-C ,  4-H ) :   0.9301
B(  2-C ,  9-C ) :   0.9115 B(  2-C , 10-H ) :   0.8823 B(  2-C , 11-H ) :   0.8668
B(  5-C ,  6-H ) :   0.9294 B(  5-C ,  7-H ) :   0.9360 B(  5-C ,  8-H ) :   0.9583
B(  9-C , 12-H ) :   0.9796 B(  9-C , 13-H ) :   0.9915 B(  9-C , 14-H ) :   0.9550

MP2 TOTAL ENERGY:     -447.741313631 Eh
FINAL SINGLE POINT ENERGY      -447.741313630806

DIPOLE MOMENT
-------------
                                X             Y             Z
Electronic contribution:     -4.73211      -3.18709      -0.44937
Nuclear contribution   :      4.92927       3.46095       0.36287
                        -----------------------------------------
Total Dipole Moment    :      0.19716       0.27386      -0.08650
                        -----------------------------------------
Magnitude (a.u.)       :      0.34836
Magnitude (Debye)      :      0.88546

Rotational constants in cm-1:     0.281256     0.057692     0.052070
Rotational constants in MHz :  8431.832662  1729.557572  1561.019260

                             ****ORCA TERMINATED NORMALLY****
TOTAL RUN TIME: 0 days 2 hours 40 minutes 55 seconds 590 msec
