                         Program Version 5.0.4 -  RELEASE  -
|  1> ! ri-mp2 aug-cc-pvdz aug-cc-pvdz/c tightscf
|  2> %pal nprocs 16 end
|  3> %maxcore 3800
|  4> %base "DZ_Si-Cl_25_AB"
|  5> %scf
|  6> STABPerform true
|  7> STABRestartUHFifUnstable true
|  8> end
|  9>
| 10> *xyz 0 1
| 11> C         1.504319   -0.218774   -0.528746
| 12> Si        -0.034651    0.314712    0.345548
| 13> C        -0.608058    1.997277   -0.183425
| 14> C         2.617349   -0.536178    0.118815
| 15> Cl        -1.549005   -1.031742   -0.081633
| 16> H        -0.790006    2.024445   -1.258314
| 17> H         0.149536    2.746062    0.054143
| 18> H        -1.533550    2.270317    0.323565
| 19> H         3.523178   -0.833404   -0.397468
| 20> H         2.672164   -0.516793    1.201855
| 21> H         1.508043   -0.265142   -1.614684
| 22> H         0.207184    0.254205    1.801128
| 23> *
| 24>
| 25> $new_job
| 26> ! ri-mp2 aug-cc-pvtz aug-cc-pvtz/c tightscf
| 27> %pal nprocs 16 end
| 28> %maxcore 3800
| 29> %base "TZ_Si-Cl_25_AB"
| 30>
| 31> *xyz 0 1
| 32> C         1.504319   -0.218774   -0.528746
| 33> Si        -0.034651    0.314712    0.345548
| 34> C        -0.608058    1.997277   -0.183425
| 35> C         2.617349   -0.536178    0.118815
| 36> Cl        -1.549005   -1.031742   -0.081633
| 37> H        -0.790006    2.024445   -1.258314
| 38> H         0.149536    2.746062    0.054143
| 39> H        -1.533550    2.270317    0.323565
| 40> H         3.523178   -0.833404   -0.397468
| 41> H         2.672164   -0.516793    1.201855
| 42> H         1.508043   -0.265142   -1.614684
| 43> H         0.207184    0.254205    1.801128
| 44> *
| 45>
| 46> $new_job
| 47> ! ri-mp2 aug-cc-pvqz aug-cc-pvqz/c tightscf
| 48> %pal nprocs 16 end
| 49> %maxcore 3800
| 50> %base "QZ_Si-Cl_25_AB"
| 51>
| 52> *xyz 0 1
| 53> C         1.504319   -0.218774   -0.528746
| 54> Si        -0.034651    0.314712    0.345548
| 55> C        -0.608058    1.997277   -0.183425
| 56> C         2.617349   -0.536178    0.118815
| 57> Cl        -1.549005   -1.031742   -0.081633
| 58> H        -0.790006    2.024445   -1.258314
| 59> H         0.149536    2.746062    0.054143
| 60> H        -1.533550    2.270317    0.323565
| 61> H         3.523178   -0.833404   -0.397468
| 62> H         2.672164   -0.516793    1.201855
| 63> H         1.508043   -0.265142   -1.614684
| 64> H         0.207184    0.254205    1.801128
| 65> *
| 66>
| 67>
| 68>
| 69>
| 70>                          ****END OF INPUT****
 Total Charge           Charge          ....    0
 Multiplicity           Mult            ....    1
 Number of Electrons    NEL             ....   56
MP2 TOTAL ENERGY:     -866.853131710 Eh
FINAL SINGLE POINT ENERGY      -866.853131710085
MP2 TOTAL ENERGY:     -867.066853233 Eh
FINAL SINGLE POINT ENERGY      -867.066853232818

CARTESIAN COORDINATES (ANGSTROEM)
---------------------------------
  C      1.504319   -0.218774   -0.528746
  Si    -0.034651    0.314712    0.345548
  C     -0.608058    1.997277   -0.183425
  C      2.617349   -0.536178    0.118815
  Cl    -1.549005   -1.031742   -0.081633
  H     -0.790006    2.024445   -1.258314
  H      0.149536    2.746062    0.054143
  H     -1.533550    2.270317    0.323565
  H      3.523178   -0.833404   -0.397468
  H      2.672164   -0.516793    1.201855
  H      1.508043   -0.265142   -1.614684
  H      0.207184    0.254205    1.801128

 Multiplicity           Mult            ....    1
 Number of Electrons    NEL             ....   56
 Basis Dimension        Dim             ....  730

ORBITAL ENERGIES
----------------

  NO   OCC          E(Eh)            E(eV)
   0   2.0000    -104.813309     -2852.1151
   1   2.0000     -68.801540     -1872.1851
   2   2.0000     -11.248228      -306.0798
   3   2.0000     -11.224239      -305.4271
   4   2.0000     -11.212012      -305.0944
   5   2.0000     -10.540904      -286.8326
   6   2.0000      -8.007690      -217.9003
   7   2.0000      -8.006649      -217.8720
   8   2.0000      -8.006635      -217.8716
   9   2.0000      -6.147241      -167.2749
  10   2.0000      -4.254415      -115.7685
  11   2.0000      -4.253398      -115.7408
  12   2.0000      -4.252915      -115.7277
  13   2.0000      -1.086390       -29.5622
  14   2.0000      -1.046973       -28.4896
  15   2.0000      -0.956312       -26.0226
  16   2.0000      -0.799340       -21.7512
  17   2.0000      -0.692172       -18.8349
  18   2.0000      -0.628655       -17.1066
  19   2.0000      -0.587471       -15.9859
  20   2.0000      -0.573727       -15.6119
  21   2.0000      -0.557738       -15.1768
  22   2.0000      -0.506328       -13.7779
  23   2.0000      -0.498116       -13.5544
  24   2.0000      -0.481937       -13.1142
  25   2.0000      -0.438909       -11.9433
  26   2.0000      -0.432011       -11.7556
  27   2.0000      -0.390614       -10.6291
  28   0.0000       0.022356         0.6083
  29   0.0000       0.031834         0.8662
  30   0.0000       0.032809         0.8928
  31   0.0000       0.039480         1.0743
  32   0.0000       0.046648         1.2693

MULLIKEN ATOMIC CHARGES
-----------------------
   0 C :   -0.869437
   1 Si:    1.738625
   2 C :   -1.062301
   3 C :   -0.792748
   4 Cl:   -0.711654
   5 H :    0.223210
   6 H :    0.247537
   7 H :    0.277893
   8 H :    0.387992
   9 H :    0.401537
  10 H :    0.398021
  11 H :   -0.238676
Sum of atomic charges:    0.0000000

LOEWDIN ATOMIC CHARGES
----------------------
   0 C :    0.294466
   1 Si:   -0.349681
   2 C :    0.879924
   3 C :    0.694488
   4 Cl:    0.929452
   5 H :   -0.361136
   6 H :   -0.354134
   7 H :   -0.365366
   8 H :   -0.345109
   9 H :   -0.375031
  10 H :   -0.410525
  11 H :   -0.237348

  Mayer bond orders larger than 0.100000
B(  0-C ,  1-Si) :   0.8203 B(  0-C ,  3-C ) :   1.8250 B(  0-C , 10-H ) :   0.8093
B(  1-Si,  2-C ) :   0.7728 B(  1-Si,  4-Cl) :   0.2227 B(  1-Si, 11-H ) :   0.8618
B(  2-C ,  5-H ) :   0.9653 B(  2-C ,  6-H ) :   0.9545 B(  2-C ,  7-H ) :   0.9397
B(  3-C ,  8-H ) :   0.8851 B(  3-C ,  9-H ) :   0.8289

MP2 TOTAL ENERGY:     -867.134902347 Eh
FINAL SINGLE POINT ENERGY      -867.134902346741

DIPOLE MOMENT
-------------
                                X             Y             Z
Electronic contribution:     -7.15298      -6.47251      -0.23712
Nuclear contribution   :      7.84613       7.03921       0.20322
                        -----------------------------------------
Total Dipole Moment    :      0.69315       0.56670      -0.03390
                        -----------------------------------------
Magnitude (a.u.)       :      0.89596
Magnitude (Debye)      :      2.27736

Rotational constants in cm-1:     0.134108     0.069871     0.050544
Rotational constants in MHz :  4020.467732  2094.667904  1515.274122

                             ****ORCA TERMINATED NORMALLY****
TOTAL RUN TIME: 0 days 0 hours 38 minutes 23 seconds 862 msec
