                         Program Version 5.0.4 -  RELEASE  -
|  1> ! ri-mp2 aug-cc-pvdz aug-cc-pvdz/c tightscf
|  2> %pal nprocs 16 end
|  3> %maxcore 3800
|  4> %base "DZ_Si-Si_138_AB"
|  5>
|  6> *xyz 0 1
|  7> Si         1.148786    1.604427   -0.366869
|  8> Si        -1.155934    1.649522   -0.007758
|  9> C        -1.742402   -0.127406   -0.319204
| 10> H        -1.844657    2.506692   -0.996092
| 11> H        -1.524978    2.094571    1.353033
| 12> S        -1.217577   -0.861506   -1.670580
| 13> S        -2.782865   -0.808346    0.865492
| 14> C         1.744442   -0.044999    0.340357
| 15> H         1.843933    2.675225    0.378626
| 16> H         1.504491    1.720377   -1.799475
| 17> S         1.275468   -0.410038    1.853515
| 18> S         2.741889   -1.114381   -0.572682
| 19> H        -2.956372   -2.006642    0.278688
| 20> H         2.794782   -0.402752   -1.708845
| 21> *
| 22>
| 23> $new_job
| 24> ! ri-mp2 aug-cc-pvtz aug-cc-pvtz/c tightscf
| 25> %pal nprocs 16 end
| 26> %maxcore 3800
| 27> %base "TZ_Si-Si_138_AB"
| 28>
| 29> *xyz 0 1
| 30> Si         1.148786    1.604427   -0.366869
| 31> Si        -1.155934    1.649522   -0.007758
| 32> C        -1.742402   -0.127406   -0.319204
| 33> H        -1.844657    2.506692   -0.996092
| 34> H        -1.524978    2.094571    1.353033
| 35> S        -1.217577   -0.861506   -1.670580
| 36> S        -2.782865   -0.808346    0.865492
| 37> C         1.744442   -0.044999    0.340357
| 38> H         1.843933    2.675225    0.378626
| 39> H         1.504491    1.720377   -1.799475
| 40> S         1.275468   -0.410038    1.853515
| 41> S         2.741889   -1.114381   -0.572682
| 42> H        -2.956372   -2.006642    0.278688
| 43> H         2.794782   -0.402752   -1.708845
| 44> *
| 45>
| 46> $new_job
| 47> ! ri-mp2 aug-cc-pvqz aug-cc-pvqz/c tightscf
| 48> %pal nprocs 16 end
| 49> %maxcore 3800
| 50> %base "QZ_Si-Si_138_AB"
| 51>
| 52> *xyz 0 1
| 53> Si         1.148786    1.604427   -0.366869
| 54> Si        -1.155934    1.649522   -0.007758
| 55> C        -1.742402   -0.127406   -0.319204
| 56> H        -1.844657    2.506692   -0.996092
| 57> H        -1.524978    2.094571    1.353033
| 58> S        -1.217577   -0.861506   -1.670580
| 59> S        -2.782865   -0.808346    0.865492
| 60> C         1.744442   -0.044999    0.340357
| 61> H         1.843933    2.675225    0.378626
| 62> H         1.504491    1.720377   -1.799475
| 63> S         1.275468   -0.410038    1.853515
| 64> S         2.741889   -1.114381   -0.572682
| 65> H        -2.956372   -2.006642    0.278688
| 66> H         2.794782   -0.402752   -1.708845
| 67> *
| 68>
| 69>
| 70>
| 71>
| 72>                          ****END OF INPUT****
 Total Charge           Charge          ....    0
 Multiplicity           Mult            ....    1
 Number of Electrons    NEL             ....  110
MP2 TOTAL ENERGY:    -2248.250400993 Eh
FINAL SINGLE POINT ENERGY     -2248.250400992566
MP2 TOTAL ENERGY:    -2248.585471282 Eh
FINAL SINGLE POINT ENERGY     -2248.585471281897

CARTESIAN COORDINATES (ANGSTROEM)
---------------------------------
  Si     1.148786    1.604427   -0.366869
  Si    -1.155934    1.649522   -0.007758
  C     -1.742402   -0.127406   -0.319204
  H     -1.844657    2.506692   -0.996092
  H     -1.524978    2.094571    1.353033
  S     -1.217577   -0.861506   -1.670580
  S     -2.782865   -0.808346    0.865492
  C      1.744442   -0.044999    0.340357
  H      1.843933    2.675225    0.378626
  H      1.504491    1.720377   -1.799475
  S      1.275468   -0.410038    1.853515
  S      2.741889   -1.114381   -0.572682
  H     -2.956372   -2.006642    0.278688
  H      2.794782   -0.402752   -1.708845

 Multiplicity           Mult            ....    1
 Number of Electrons    NEL             ....  110
 Basis Dimension        Dim             ....  940

ORBITAL ENERGIES
----------------

  NO   OCC          E(Eh)            E(eV)
   0   2.0000     -91.999474     -2503.4330
   1   2.0000     -91.997936     -2503.3911
   2   2.0000     -91.945380     -2501.9610
   3   2.0000     -91.943052     -2501.8976
   4   2.0000     -68.795234     -1872.0135
   5   2.0000     -68.794324     -1871.9887
   6   2.0000     -11.340230      -308.5833
   7   2.0000     -11.338423      -308.5342
   8   2.0000      -9.002433      -244.9687
   9   2.0000      -9.000546      -244.9173
  10   2.0000      -8.949253      -243.5215
  11   2.0000      -8.946911      -243.4578
  12   2.0000      -6.683858      -181.8770
  13   2.0000      -6.682641      -181.8439
  14   2.0000      -6.682182      -181.8314
  15   2.0000      -6.681771      -181.8202
  16   2.0000      -6.680862      -181.7955
  17   2.0000      -6.680198      -181.7774
  18   2.0000      -6.630390      -180.4221
  19   2.0000      -6.629577      -180.4000
  20   2.0000      -6.628275      -180.3645
  21   2.0000      -6.628017      -180.3575
  22   2.0000      -6.627254      -180.3368
  23   2.0000      -6.625920      -180.3004
  24   2.0000      -6.145308      -167.2223
  25   2.0000      -6.144512      -167.2007
  26   2.0000      -4.251415      -115.6869
  27   2.0000      -4.251281      -115.6832
  28   2.0000      -4.251185      -115.6806
  29   2.0000      -4.250609      -115.6650
  30   2.0000      -4.250399      -115.6592
  31   2.0000      -4.250264      -115.6556
  32   2.0000      -1.119139       -30.4533
  33   2.0000      -1.113767       -30.3072
  34   2.0000      -0.979000       -26.6399
  35   2.0000      -0.978008       -26.6130
  36   2.0000      -0.810271       -22.0486
  37   2.0000      -0.776452       -21.1283
  38   2.0000      -0.706641       -19.2287
  39   2.0000      -0.669546       -18.2193
  40   2.0000      -0.595343       -16.2001
  41   2.0000      -0.590580       -16.0705
  42   2.0000      -0.557469       -15.1695
  43   2.0000      -0.544220       -14.8090
  44   2.0000      -0.524185       -14.2638
  45   2.0000      -0.514671       -14.0049
  46   2.0000      -0.488428       -13.2908
  47   2.0000      -0.481495       -13.1022
  48   2.0000      -0.474603       -12.9146
  49   2.0000      -0.470244       -12.7960
  50   2.0000      -0.418272       -11.3818
  51   2.0000      -0.363091        -9.8802
  52   2.0000      -0.355966        -9.6863
  53   2.0000      -0.343190        -9.3387
  54   2.0000      -0.340980        -9.2785
  55   0.0000       0.020675         0.5626
  56   0.0000       0.024331         0.6621
  57   0.0000       0.027606         0.7512
  58   0.0000       0.029749         0.8095
  59   0.0000       0.035513         0.9664

MULLIKEN ATOMIC CHARGES
-----------------------
   0 Si:    0.988220
   1 Si:    0.991435
   2 C :   -0.478187
   3 H :   -0.300570
   4 H :   -0.242704
   5 S :   -0.099900
   6 S :    0.067696
   7 C :   -0.541014
   8 H :   -0.318598
   9 H :   -0.250761
  10 S :   -0.042950
  11 S :    0.123451
  12 H :    0.064456
  13 H :    0.039426
Sum of atomic charges:   -0.0000000

LOEWDIN ATOMIC CHARGES
----------------------
   0 Si:    0.354360
   1 Si:    0.351840
   2 C :   -1.475739
   3 H :   -0.266415
   4 H :   -0.264464
   5 S :    0.984432
   6 S :    1.469762
   7 C :   -1.469411
   8 H :   -0.263385
   9 H :   -0.262979
  10 S :    0.960792
  11 S :    1.461562
  12 H :   -0.782562
  13 H :   -0.797795

  Mayer bond orders larger than 0.100000
B(  0-Si,  1-Si) :   0.8074 B(  0-Si,  7-C ) :   0.6354 B(  0-Si,  8-H ) :   0.7453
B(  0-Si,  9-H ) :   0.8168 B(  1-Si,  2-C ) :   0.5803 B(  1-Si,  3-H ) :   0.7599
B(  1-Si,  4-H ) :   0.8147 B(  2-C ,  5-S ) :   1.5037 B(  2-C ,  6-S ) :   0.9599
B(  5-S ,  6-S ) :   0.1029 B(  6-S , 12-H ) :   1.0486 B(  7-C , 10-S ) :   1.5583
B(  7-C , 11-S ) :   1.0027 B( 11-S , 13-H ) :   1.0170

MP2 TOTAL ENERGY:    -2248.697960577 Eh
FINAL SINGLE POINT ENERGY     -2248.697960576659

DIPOLE MOMENT
-------------
                                X             Y             Z
Electronic contribution:      0.05587      -5.68988       1.93868
Nuclear contribution   :     -0.17616       6.24969      -2.39450
                        -----------------------------------------
Total Dipole Moment    :     -0.12028       0.55980      -0.45582
                        -----------------------------------------
Magnitude (a.u.)       :      0.73186
Magnitude (Debye)      :      1.86025

Rotational constants in cm-1:     0.032829     0.016618     0.016383
Rotational constants in MHz :   984.183510   498.209707   491.154837

                             ****ORCA TERMINATED NORMALLY****
TOTAL RUN TIME: 0 days 0 hours 23 minutes 40 seconds 150 msec
