                         Program Version 5.0.4 -  RELEASE  -
|  1> ! ri-mp2 aug-cc-pvdz aug-cc-pvdz/c tightscf
|  2> %pal nprocs 16 end
|  3> %maxcore 3800
|  4> %base "DZ_Si-Cl_82_AB"
|  5> %scf
|  6> STABPerform true
|  7> STABRestartUHFifUnstable true
|  8> end
|  9>
| 10> *xyz 0 1
| 11> C        -0.477848   -0.938305    0.000000
| 12> Si         0.359686    0.771178    0.000000
| 13> Cl        -2.241021   -0.766924    0.000000
| 14> F        -0.113304   -1.650634    1.083943
| 15> F        -0.113304   -1.650634   -1.083943
| 16> Cl         2.353399    0.570895    0.000000
| 17> F        -0.113304    1.548737    1.277221
| 18> F        -0.113304    1.548737   -1.277221
| 19> *
| 20>
| 21> $new_job
| 22> ! ri-mp2 aug-cc-pvtz aug-cc-pvtz/c tightscf
| 23> %pal nprocs 16 end
| 24> %maxcore 3800
| 25> %base "TZ_Si-Cl_82_AB"
| 26>
| 27> *xyz 0 1
| 28> C        -0.477848   -0.938305    0.000000
| 29> Si         0.359686    0.771178    0.000000
| 30> Cl        -2.241021   -0.766924    0.000000
| 31> F        -0.113304   -1.650634    1.083943
| 32> F        -0.113304   -1.650634   -1.083943
| 33> Cl         2.353399    0.570895    0.000000
| 34> F        -0.113304    1.548737    1.277221
| 35> F        -0.113304    1.548737   -1.277221
| 36> *
| 37>
| 38> $new_job
| 39> ! ri-mp2 aug-cc-pvqz aug-cc-pvqz/c tightscf
| 40> %pal nprocs 16 end
| 41> %maxcore 3800
| 42> %base "QZ_Si-Cl_82_AB"
| 43>
| 44> *xyz 0 1
| 45> C        -0.477848   -0.938305    0.000000
| 46> Si         0.359686    0.771178    0.000000
| 47> Cl        -2.241021   -0.766924    0.000000
| 48> F        -0.113304   -1.650634    1.083943
| 49> F        -0.113304   -1.650634   -1.083943
| 50> Cl         2.353399    0.570895    0.000000
| 51> F        -0.113304    1.548737    1.277221
| 52> F        -0.113304    1.548737   -1.277221
| 53> *
| 54>
| 55>
| 56>
| 57>
| 58>                          ****END OF INPUT****
 Total Charge           Charge          ....    0
 Multiplicity           Mult            ....    1
 Number of Electrons    NEL             ....   90
MP2 TOTAL ENERGY:    -1645.119402629 Eh
FINAL SINGLE POINT ENERGY     -1645.119402628944
MP2 TOTAL ENERGY:    -1645.653750634 Eh
FINAL SINGLE POINT ENERGY     -1645.653750634446

CARTESIAN COORDINATES (ANGSTROEM)
---------------------------------
  C     -0.477848   -0.938305    0.000000
  Si     0.359686    0.771178    0.000000
  Cl    -2.241021   -0.766924    0.000000
  F     -0.113304   -1.650634    1.083943
  F     -0.113304   -1.650634   -1.083943
  Cl     2.353399    0.570895    0.000000
  F     -0.113304    1.548737    1.277221
  F     -0.113304    1.548737   -1.277221

 Multiplicity           Mult            ....    1
 Number of Electrons    NEL             ....   90
 Basis Dimension        Dim             ....  652

ORBITAL ENERGIES
----------------

  NO   OCC          E(Eh)            E(eV)
   0   2.0000    -104.875525     -2853.8081
   1   2.0000    -104.874479     -2853.7797
   2   2.0000     -68.924318     -1875.5260
   3   2.0000     -26.354967      -717.1551
   4   2.0000     -26.354948      -717.1546
   5   2.0000     -26.338482      -716.7065
   6   2.0000     -26.338473      -716.7063
   7   2.0000     -11.489406      -312.6426
   8   2.0000     -10.603155      -288.5265
   9   2.0000     -10.600701      -288.4597
  10   2.0000      -8.069970      -219.5950
  11   2.0000      -8.068720      -219.5610
  12   2.0000      -8.068705      -219.5606
  13   2.0000      -8.067669      -219.5324
  14   2.0000      -8.065796      -219.4815
  15   2.0000      -8.065778      -219.4810
  16   2.0000      -6.259801      -170.3379
  17   2.0000      -4.368259      -118.8664
  18   2.0000      -4.368234      -118.8657
  19   2.0000      -4.367045      -118.8333
  20   2.0000      -1.714298       -46.6484
  21   2.0000      -1.655693       -45.0537
  22   2.0000      -1.648396       -44.8551
  23   2.0000      -1.636360       -44.5276
  24   2.0000      -1.174343       -31.9555
  25   2.0000      -1.150459       -31.3056
  26   2.0000      -0.959260       -26.1028
  27   2.0000      -0.851029       -23.1577
  28   2.0000      -0.810124       -22.0446
  29   2.0000      -0.801190       -21.8015
  30   2.0000      -0.783268       -21.3138
  31   2.0000      -0.765317       -20.8253
  32   2.0000      -0.737639       -20.0722
  33   2.0000      -0.728331       -19.8189
  34   2.0000      -0.713415       -19.4130
  35   2.0000      -0.708100       -19.2684
  36   2.0000      -0.691665       -18.8212
  37   2.0000      -0.675002       -18.3677
  38   2.0000      -0.645591       -17.5674
  39   2.0000      -0.610829       -16.6215
  40   2.0000      -0.538066       -14.6415
  41   2.0000      -0.521863       -14.2006
  42   2.0000      -0.518718       -14.1150
  43   2.0000      -0.499865       -13.6020
  44   2.0000      -0.477677       -12.9982
  45   0.0000       0.034014         0.9256
  46   0.0000       0.039946         1.0870
  47   0.0000       0.042197         1.1482
  48   0.0000       0.042849         1.1660
  49   0.0000       0.068802         1.8722

MULLIKEN ATOMIC CHARGES
-----------------------
   0 C :    1.004762
   1 Si:    2.318590
   2 Cl:   -0.174065
   3 F :   -0.594591
   4 F :   -0.594591
   5 Cl:   -0.523434
   6 F :   -0.718336
   7 F :   -0.718336
Sum of atomic charges:    0.0000000

LOEWDIN ATOMIC CHARGES
----------------------
   0 C :   -2.310296
   1 Si:   -1.894342
   2 Cl:    1.086717
   3 F :    0.629282
   4 F :    0.629282
   5 Cl:    1.006017
   6 F :    0.426670
   7 F :    0.426670

  Mayer bond orders larger than 0.100000
B(  0-C ,  1-Si) :   0.7479 B(  0-C ,  2-Cl) :   0.9625 B(  0-C ,  3-F ) :   0.5430
B(  0-C ,  4-F ) :   0.5430 B(  1-Si,  5-Cl) :   0.6707 B(  1-Si,  6-F ) :   0.4879
B(  1-Si,  7-F ) :   0.4879

MP2 TOTAL ENERGY:    -1645.832298140 Eh
FINAL SINGLE POINT ENERGY     -1645.832298139746

DIPOLE MOMENT
-------------
                                X             Y             Z
Electronic contribution:     -0.02114      -0.20752      -0.00000
Nuclear contribution   :      0.23952       0.39311       0.00000
                        -----------------------------------------
Total Dipole Moment    :      0.21837       0.18559      -0.00000
                        -----------------------------------------
Magnitude (a.u.)       :      0.28658
Magnitude (Debye)      :      0.72844

Rotational constants in cm-1:     0.058761     0.029971     0.026501
Rotational constants in MHz :  1761.605323   898.503512   794.493097

                             ****ORCA TERMINATED NORMALLY****
TOTAL RUN TIME: 0 days 0 hours 36 minutes 53 seconds 449 msec
