                         Program Version 5.0.4 -  RELEASE  -
|  1> ! ri-mp2 aug-cc-pvdz aug-cc-pvdz/c tightscf
|  2> %pal nprocs 16 end
|  3> %maxcore 3800
|  4> %base "DZ_Si-S_17_A"
|  5> %scf
|  6> STABPerform true
|  7> STABRestartUHFifUnstable true
|  8> end
|  9>
| 10> *xyz 0 2
| 11> S         1.556580   -0.012502   -0.021033
| 12> O         1.416297   -1.293364   -0.686333
| 13> O         1.466963    0.083628    1.422336
| 14> C         0.309423    1.124562   -0.716228
| 15> C        -1.051769    0.955769   -0.059535
| 16> H         0.301272    0.908087   -1.783270
| 17> H         0.715510    2.120944   -0.548718
| 18> C        -1.696675   -0.407181   -0.258324
| 19> H        -1.696401    1.731013   -0.484885
| 20> H        -0.960588    1.174727    1.005491
| 21> C        -3.089367   -0.470261    0.347541
| 22> H        -1.743865   -0.635300   -1.326450
| 23> H        -1.068141   -1.179810    0.188226
| 24> H        -3.753214    0.268030   -0.106445
| 25> H        -3.058690   -0.273895    1.420630
| 26> H        -3.536922   -1.453204    0.203203
| 27> *
| 28>
| 29> $new_job
| 30> ! ri-mp2 aug-cc-pvtz aug-cc-pvtz/c tightscf
| 31> %pal nprocs 16 end
| 32> %maxcore 3800
| 33> %base "TZ_Si-S_17_A"
| 34>
| 35> *xyz 0 2
| 36> S         1.556580   -0.012502   -0.021033
| 37> O         1.416297   -1.293364   -0.686333
| 38> O         1.466963    0.083628    1.422336
| 39> C         0.309423    1.124562   -0.716228
| 40> C        -1.051769    0.955769   -0.059535
| 41> H         0.301272    0.908087   -1.783270
| 42> H         0.715510    2.120944   -0.548718
| 43> C        -1.696675   -0.407181   -0.258324
| 44> H        -1.696401    1.731013   -0.484885
| 45> H        -0.960588    1.174727    1.005491
| 46> C        -3.089367   -0.470261    0.347541
| 47> H        -1.743865   -0.635300   -1.326450
| 48> H        -1.068141   -1.179810    0.188226
| 49> H        -3.753214    0.268030   -0.106445
| 50> H        -3.058690   -0.273895    1.420630
| 51> H        -3.536922   -1.453204    0.203203
| 52> *
| 53>
| 54> $new_job
| 55> ! ri-mp2 aug-cc-pvqz aug-cc-pvqz/c tightscf
| 56> %pal nprocs 16 end
| 57> %maxcore 3800
| 58> %base "QZ_Si-S_17_A"
| 59>
| 60> *xyz 0 2
| 61> S         1.556580   -0.012502   -0.021033
| 62> O         1.416297   -1.293364   -0.686333
| 63> O         1.466963    0.083628    1.422336
| 64> C         0.309423    1.124562   -0.716228
| 65> C        -1.051769    0.955769   -0.059535
| 66> H         0.301272    0.908087   -1.783270
| 67> H         0.715510    2.120944   -0.548718
| 68> C        -1.696675   -0.407181   -0.258324
| 69> H        -1.696401    1.731013   -0.484885
| 70> H        -0.960588    1.174727    1.005491
| 71> C        -3.089367   -0.470261    0.347541
| 72> H        -1.743865   -0.635300   -1.326450
| 73> H        -1.068141   -1.179810    0.188226
| 74> H        -3.753214    0.268030   -0.106445
| 75> H        -3.058690   -0.273895    1.420630
| 76> H        -3.536922   -1.453204    0.203203
| 77> *
| 78>
| 79>
| 80>
| 81>
| 82>                          ****END OF INPUT****
 Total Charge           Charge          ....    0
 Multiplicity           Mult            ....    2
 Number of Electrons    NEL             ....   65
MP2 TOTAL ENERGY:     -705.046731609 Eh
FINAL SINGLE POINT ENERGY      -705.046731609178
MP2 TOTAL ENERGY:     -705.407804762 Eh
FINAL SINGLE POINT ENERGY      -705.407804762082

CARTESIAN COORDINATES (ANGSTROEM)
---------------------------------
  S      1.556580   -0.012502   -0.021033
  O      1.416297   -1.293364   -0.686333
  O      1.466963    0.083628    1.422336
  C      0.309423    1.124562   -0.716228
  C     -1.051769    0.955769   -0.059535
  H      0.301272    0.908087   -1.783270
  H      0.715510    2.120944   -0.548718
  C     -1.696675   -0.407181   -0.258324
  H     -1.696401    1.731013   -0.484885
  H     -0.960588    1.174727    1.005491
  C     -3.089367   -0.470261    0.347541
  H     -1.743865   -0.635300   -1.326450
  H     -1.068141   -1.179810    0.188226
  H     -3.753214    0.268030   -0.106445
  H     -3.058690   -0.273895    1.420630
  H     -3.536922   -1.453204    0.203203

 Multiplicity           Mult            ....    2
 Number of Electrons    NEL             ....   65
 Basis Dimension        Dim             ....  978

ORBITAL ENERGIES
----------------
                 SPIN UP ORBITALS
  NO   OCC          E(Eh)            E(eV)
   0   1.0000     -92.150156     -2507.5332
   1   1.0000     -20.581779      -560.0587
   2   1.0000     -20.577817      -559.9509
   3   1.0000     -11.294392      -307.3360
   4   1.0000     -11.250111      -306.1311
   5   1.0000     -11.229141      -305.5605
   6   1.0000     -11.219069      -305.2864
   7   1.0000      -9.128567      -248.4009
   8   1.0000      -6.819099      -185.5571
   9   1.0000      -6.809109      -185.2853
  10   1.0000      -6.808726      -185.2749
  11   1.0000      -1.472484       -40.0683
  12   1.0000      -1.373471       -37.3741
  13   1.0000      -1.117556       -30.4102
  14   1.0000      -1.035937       -28.1893
  15   1.0000      -0.931906       -25.3585
  16   1.0000      -0.848028       -23.0760
  17   1.0000      -0.806860       -21.9558
  18   1.0000      -0.710946       -19.3458
  19   1.0000      -0.683800       -18.6071
  20   1.0000      -0.672558       -18.3012
  21   1.0000      -0.648537       -17.6476
  22   1.0000      -0.621561       -16.9135
  23   1.0000      -0.607513       -16.5313
  24   1.0000      -0.572339       -15.5741
  25   1.0000      -0.553018       -15.0484
  26   1.0000      -0.543765       -14.7966
  27   1.0000      -0.512227       -13.9384
  28   1.0000      -0.506973       -13.7954
  29   1.0000      -0.502344       -13.6695
  30   1.0000      -0.485448       -13.2097
  31   1.0000      -0.484943       -13.1960
  32   1.0000      -0.403516       -10.9802
  33   0.0000       0.020058         0.5458
  34   0.0000       0.028083         0.7642
  35   0.0000       0.032685         0.8894
  36   0.0000       0.038419         1.0454
  37   0.0000       0.047216         1.2848

                 SPIN DOWN ORBITALS
  NO   OCC          E(Eh)            E(eV)
   0   1.0000     -92.146037     -2507.4211
   1   1.0000     -20.567436      -559.6684
   2   1.0000     -20.565050      -559.6035
   3   1.0000     -11.289695      -307.2082
   4   1.0000     -11.249713      -306.1203
   5   1.0000     -11.229162      -305.5610
   6   1.0000     -11.219037      -305.2855
   7   1.0000      -9.123194      -248.2547
   8   1.0000      -6.808700      -185.2742
   9   1.0000      -6.808299      -185.2632
  10   1.0000      -6.799882      -185.0342
  11   1.0000      -1.442842       -39.2617
  12   1.0000      -1.335493       -36.3406
  13   1.0000      -1.109053       -30.1789
  14   1.0000      -1.025588       -27.9077
  15   1.0000      -0.914548       -24.8861
  16   1.0000      -0.828686       -22.5497
  17   1.0000      -0.784706       -21.3529
  18   1.0000      -0.681298       -18.5391
  19   1.0000      -0.661539       -18.0014
  20   1.0000      -0.643681       -17.5154
  21   1.0000      -0.632768       -17.2185
  22   1.0000      -0.611048       -16.6275
  23   1.0000      -0.581117       -15.8130
  24   1.0000      -0.559801       -15.2330
  25   1.0000      -0.542017       -14.7490
  26   1.0000      -0.503644       -13.7048
  27   1.0000      -0.494086       -13.4448
  28   1.0000      -0.489711       -13.3257
  29   1.0000      -0.485751       -13.2179
  30   1.0000      -0.472826       -12.8662
  31   1.0000      -0.446125       -12.1397
  32   0.0000       0.011000         0.2993
  33   0.0000       0.022431         0.6104
  34   0.0000       0.028974         0.7884
  35   0.0000       0.033046         0.8992
  36   0.0000       0.041465         1.1283

MULLIKEN ATOMIC CHARGES AND SPIN POPULATIONS
--------------------------------------------
   0 S :    1.814698    0.350530
   1 O :   -1.061158    0.283780
   2 O :   -1.080647    0.254181
   3 C :   -0.531713    0.128789
   4 C :   -0.357164    0.003723
   5 H :    0.289753   -0.016749
   6 H :    0.307961   -0.015985
   7 C :   -0.346808   -0.000866
   8 H :    0.300317    0.019898
   9 H :    0.259278   -0.001116
  10 C :   -0.812902    0.002391
  11 H :    0.229329    0.001191
  12 H :    0.298207   -0.008238
  13 H :    0.209237   -0.001333
  14 H :    0.225026   -0.000119
  15 H :    0.256586   -0.000077
Sum of atomic charges         :   -0.0000000

LOEWDIN ATOMIC CHARGES AND SPIN POPULATIONS
-------------------------------------------
   0 S :    0.079609    0.344801
   1 O :    0.180195    0.261936
   2 O :    0.174717    0.237029
   3 C :    0.368501    0.092152
   4 C :    0.448422    0.023900
   5 H :   -0.340619    0.013391
   6 H :   -0.336618    0.015900
   7 C :    0.480130    0.001414
   8 H :   -0.270381    0.007175
   9 H :   -0.294931    0.001621
  10 C :    0.933492    0.000593
  11 H :   -0.268278    0.000031
  12 H :   -0.313546   -0.000267
  13 H :   -0.282119    0.000342
  14 H :   -0.279505   -0.000010
  15 H :   -0.279070   -0.000006

  Mayer bond orders larger than 0.100000
B(  0-S ,  1-O ) :   1.3174 B(  0-S ,  2-O ) :   1.3100 B(  0-S ,  3-C ) :   0.8960
B(  3-C ,  4-C ) :   0.9738 B(  3-C ,  5-H ) :   0.8960 B(  3-C ,  6-H ) :   0.9145
B(  4-C ,  7-C ) :   0.8633 B(  4-C ,  8-H ) :   0.8219 B(  4-C ,  9-H ) :   0.8683
B(  7-C , 10-C ) :   0.9145 B(  7-C , 11-H ) :   0.8995 B(  7-C , 12-H ) :   0.8886
B( 10-C , 13-H ) :   0.9777 B( 10-C , 14-H ) :   0.9580 B( 10-C , 15-H ) :   1.0147

MP2 TOTAL ENERGY:     -705.522101775 Eh
FINAL SINGLE POINT ENERGY      -705.522101775186

DIPOLE MOMENT
-------------
                                X             Y             Z
Electronic contribution:     14.18604      -1.41481       0.62824
Nuclear contribution   :    -14.91366       2.66155      -1.43052
                        -----------------------------------------
Total Dipole Moment    :     -0.72762       1.24673      -0.80228
                        -----------------------------------------
Magnitude (a.u.)       :      1.65150
Magnitude (Debye)      :      4.19777

Rotational constants in cm-1:     0.131293     0.041358     0.039858
Rotational constants in MHz :  3936.063679  1239.879465  1194.915523

                             ****ORCA TERMINATED NORMALLY****
TOTAL RUN TIME: 0 days 5 hours 27 minutes 53 seconds 794 msec
