                         Program Version 5.0.4 -  RELEASE  -
|  1> ! ri-mp2 aug-cc-pvdz aug-cc-pvdz/c tightscf
|  2> %pal nprocs 16 end
|  3> %maxcore 3800
|  4> %base "DZ_S-Cl_55_AB"
|  5> %scf
|  6> STABPerform true
|  7> STABRestartUHFifUnstable true
|  8> end
|  9>
| 10> *xyz 0 1
| 11> Cl         2.272081    0.376317   -0.383018
| 12> S         0.926069   -0.128763    1.030795
| 13> S        -0.746357   -0.572816   -0.126737
| 14> O        -1.688995   -0.917301    0.885585
| 15> O        -1.142086    0.791022   -0.791666
| 16> C        -1.681100    1.835743    0.038648
| 17> H        -1.949921    2.630378   -0.649115
| 18> H        -0.921096    2.182400    0.737336
| 19> H        -2.555347    1.472837    0.572326
| 20> O        -0.417394   -1.432744   -1.199677
| 21> *
| 22>
| 23> $new_job
| 24> ! ri-mp2 aug-cc-pvtz aug-cc-pvtz/c tightscf
| 25> %pal nprocs 16 end
| 26> %maxcore 3800
| 27> %base "TZ_S-Cl_55_AB"
| 28>
| 29> *xyz 0 1
| 30> Cl         2.272081    0.376317   -0.383018
| 31> S         0.926069   -0.128763    1.030795
| 32> S        -0.746357   -0.572816   -0.126737
| 33> O        -1.688995   -0.917301    0.885585
| 34> O        -1.142086    0.791022   -0.791666
| 35> C        -1.681100    1.835743    0.038648
| 36> H        -1.949921    2.630378   -0.649115
| 37> H        -0.921096    2.182400    0.737336
| 38> H        -2.555347    1.472837    0.572326
| 39> O        -0.417394   -1.432744   -1.199677
| 40> *
| 41>
| 42> $new_job
| 43> ! ri-mp2 aug-cc-pvqz aug-cc-pvqz/c tightscf
| 44> %pal nprocs 16 end
| 45> %maxcore 3800
| 46> %base "QZ_S-Cl_55_AB"
| 47>
| 48> *xyz 0 1
| 49> Cl         2.272081    0.376317   -0.383018
| 50> S         0.926069   -0.128763    1.030795
| 51> S        -0.746357   -0.572816   -0.126737
| 52> O        -1.688995   -0.917301    0.885585
| 53> O        -1.142086    0.791022   -0.791666
| 54> C        -1.681100    1.835743    0.038648
| 55> H        -1.949921    2.630378   -0.649115
| 56> H        -0.921096    2.182400    0.737336
| 57> H        -2.555347    1.472837    0.572326
| 58> O        -0.417394   -1.432744   -1.199677
| 59> *
| 60>
| 61>
| 62>
| 63>
| 64>                          ****END OF INPUT****
 Total Charge           Charge          ....    0
 Multiplicity           Mult            ....    1
 Number of Electrons    NEL             ....   82
MP2 TOTAL ENERGY:    -1519.870265139 Eh
FINAL SINGLE POINT ENERGY     -1519.870265139081
MP2 TOTAL ENERGY:    -1520.316628719 Eh
FINAL SINGLE POINT ENERGY     -1520.316628718870

CARTESIAN COORDINATES (ANGSTROEM)
---------------------------------
  Cl     2.272081    0.376317   -0.383018
  S      0.926069   -0.128763    1.030795
  S     -0.746357   -0.572816   -0.126737
  O     -1.688995   -0.917301    0.885585
  O     -1.142086    0.791022   -0.791666
  C     -1.681100    1.835743    0.038648
  H     -1.949921    2.630378   -0.649115
  H     -0.921096    2.182400    0.737336
  H     -2.555347    1.472837    0.572326
  O     -0.417394   -1.432744   -1.199677

 Multiplicity           Mult            ....    1
 Number of Electrons    NEL             ....   82
 Basis Dimension        Dim             ....  710

ORBITAL ENERGIES
----------------

  NO   OCC          E(Eh)            E(eV)
   0   2.0000    -104.886326     -2854.1020
   1   2.0000     -92.242358     -2510.0422
   2   2.0000     -92.059133     -2505.0564
   3   2.0000     -20.647355      -561.8431
   4   2.0000     -20.585212      -560.1521
   5   2.0000     -20.580683      -560.0288
   6   2.0000     -11.320427      -308.0445
   7   2.0000     -10.610351      -288.7223
   8   2.0000      -9.205459      -250.4933
   9   2.0000      -9.057079      -246.4556
  10   2.0000      -8.077377      -219.7966
  11   2.0000      -8.075262      -219.7391
  12   2.0000      -8.075041      -219.7330
  13   2.0000      -6.891679      -187.5321
  14   2.0000      -6.891056      -187.5152
  15   2.0000      -6.890000      -187.4864
  16   2.0000      -6.737790      -183.3446
  17   2.0000      -6.736531      -183.3103
  18   2.0000      -6.735094      -183.2712
  19   2.0000      -1.543796       -42.0088
  20   2.0000      -1.423821       -38.7441
  21   2.0000      -1.392686       -37.8969
  22   2.0000      -1.181593       -32.1528
  23   2.0000      -1.024568       -27.8799
  24   2.0000      -0.985193       -26.8085
  25   2.0000      -0.840805       -22.8795
  26   2.0000      -0.754809       -20.5394
  27   2.0000      -0.734457       -19.9856
  28   2.0000      -0.714656       -19.4468
  29   2.0000      -0.667143       -18.1539
  30   2.0000      -0.651025       -17.7153
  31   2.0000      -0.593273       -16.1438
  32   2.0000      -0.578654       -15.7460
  33   2.0000      -0.555203       -15.1078
  34   2.0000      -0.554065       -15.0769
  35   2.0000      -0.536718       -14.6048
  36   2.0000      -0.527129       -14.3439
  37   2.0000      -0.523659       -14.2495
  38   2.0000      -0.509061       -13.8522
  39   2.0000      -0.457209       -12.4413
  40   2.0000      -0.408802       -11.1241
  41   0.0000       0.021571         0.5870
  42   0.0000       0.034180         0.9301
  43   0.0000       0.036099         0.9823
  44   0.0000       0.045846         1.2475
  45   0.0000       0.049267         1.3406

MULLIKEN ATOMIC CHARGES
-----------------------
   0 Cl:   -0.230280
   1 S :    0.221802
   2 S :    2.669859
   3 O :   -1.141115
   4 O :   -0.725510
   5 C :   -0.700541
   6 H :    0.440739
   7 H :    0.327734
   8 H :    0.318132
   9 O :   -1.180822
Sum of atomic charges:   -0.0000000

LOEWDIN ATOMIC CHARGES
----------------------
   0 Cl:    0.464464
   1 S :    0.171755
   2 S :   -1.132833
   3 O :    0.243251
   4 O :    0.542252
   5 C :    0.512174
   6 H :   -0.323568
   7 H :   -0.353696
   8 H :   -0.342189
   9 O :    0.218391

  Mayer bond orders larger than 0.100000
B(  0-Cl,  1-S ) :   0.9793 B(  1-S ,  2-S ) :   0.9144 B(  2-S ,  3-O ) :   1.2157
B(  2-S ,  4-O ) :   0.7372 B(  2-S ,  9-O ) :   1.0510 B(  4-O ,  5-C ) :   0.8390
B(  5-C ,  6-H ) :   0.8127 B(  5-C ,  7-H ) :   0.8734 B(  5-C ,  8-H ) :   0.8980

MP2 TOTAL ENERGY:    -1520.462425823 Eh
FINAL SINGLE POINT ENERGY     -1520.462425823043

DIPOLE MOMENT
-------------
                                X             Y             Z
Electronic contribution:      8.34393      -3.86619      -0.55760
Nuclear contribution   :     -8.27161       5.44039       1.10165
                        -----------------------------------------
Total Dipole Moment    :      0.07232       1.57420       0.54405
                        -----------------------------------------
Magnitude (a.u.)       :      1.66713
Magnitude (Debye)      :      4.23751

Rotational constants in cm-1:     0.079287     0.039222     0.035938
Rotational constants in MHz :  2376.975740  1175.859717  1077.405418

                             ****ORCA TERMINATED NORMALLY****
TOTAL RUN TIME: 0 days 0 hours 35 minutes 52 seconds 765 msec
