                         Program Version 5.0.4 -  RELEASE  -
|  1> ! ri-mp2 aug-cc-pvdz aug-cc-pvdz/c tightscf
|  2> %pal nprocs 16 end
|  3> %maxcore 3800
|  4> %base "DZ_S-F_12_AB"
|  5> %scf
|  6> STABPerform true
|  7> STABRestartUHFifUnstable true
|  8> end
|  9>
| 10> *xyz 0 1
| 11> F        -1.673054    0.884271    0.273417
| 12> S        -1.058476   -0.507117   -0.316746
| 13> Si         0.945882   -0.328310    0.363417
| 14> F         1.813897    0.699617   -0.487417
| 15> H         0.954077    0.142611    1.753963
| 16> H         1.471611   -1.687394    0.152134
| 17> *
| 18>
| 19> $new_job
| 20> ! ri-mp2 aug-cc-pvtz aug-cc-pvtz/c tightscf
| 21> %pal nprocs 16 end
| 22> %maxcore 3800
| 23> %base "TZ_S-F_12_AB"
| 24>
| 25> *xyz 0 1
| 26> F        -1.673054    0.884271    0.273417
| 27> S        -1.058476   -0.507117   -0.316746
| 28> Si         0.945882   -0.328310    0.363417
| 29> F         1.813897    0.699617   -0.487417
| 30> H         0.954077    0.142611    1.753963
| 31> H         1.471611   -1.687394    0.152134
| 32> *
| 33>
| 34> $new_job
| 35> ! ri-mp2 aug-cc-pvqz aug-cc-pvqz/c tightscf
| 36> %pal nprocs 16 end
| 37> %maxcore 3800
| 38> %base "QZ_S-F_12_AB"
| 39>
| 40> *xyz 0 1
| 41> F        -1.673054    0.884271    0.273417
| 42> S        -1.058476   -0.507117   -0.316746
| 43> Si         0.945882   -0.328310    0.363417
| 44> F         1.813897    0.699617   -0.487417
| 45> H         0.954077    0.142611    1.753963
| 46> H         1.471611   -1.687394    0.152134
| 47> *
| 48>
| 49>
| 50>
| 51>
| 52>                          ****END OF INPUT****
 Total Charge           Charge          ....    0
 Multiplicity           Mult            ....    1
 Number of Electrons    NEL             ....   50
MP2 TOTAL ENERGY:     -887.221008130 Eh
FINAL SINGLE POINT ENERGY      -887.221008130114
MP2 TOTAL ENERGY:     -887.482967758 Eh
FINAL SINGLE POINT ENERGY      -887.482967757924

CARTESIAN COORDINATES (ANGSTROEM)
---------------------------------
  F     -1.673054    0.884271    0.273417
  S     -1.058476   -0.507117   -0.316746
  Si     0.945882   -0.328310    0.363417
  F      1.813897    0.699617   -0.487417
  H      0.954077    0.142611    1.753963
  H      1.471611   -1.687394    0.152134

 Multiplicity           Mult            ....    1
 Number of Electrons    NEL             ....   50
 Basis Dimension        Dim             ....  420

ORBITAL ENERGIES
----------------

  NO   OCC          E(Eh)            E(eV)
   0   2.0000     -92.034796     -2504.3941
   1   2.0000     -68.852060     -1873.5598
   2   2.0000     -26.319467      -716.1891
   3   2.0000     -26.302157      -715.7181
   4   2.0000      -9.031305      -245.7543
   5   2.0000      -6.712925      -182.6680
   6   2.0000      -6.710771      -182.6093
   7   2.0000      -6.709978      -182.5878
   8   2.0000      -6.194354      -168.5569
   9   2.0000      -4.301586      -117.0521
  10   2.0000      -4.301212      -117.0419
  11   2.0000      -4.300527      -117.0233
  12   2.0000      -1.615129       -43.9499
  13   2.0000      -1.605843       -43.6972
  14   2.0000      -0.980516       -26.6812
  15   2.0000      -0.789217       -21.4757
  16   2.0000      -0.711061       -19.3489
  17   2.0000      -0.700034       -19.0489
  18   2.0000      -0.692145       -18.8342
  19   2.0000      -0.682641       -18.5756
  20   2.0000      -0.677936       -18.4476
  21   2.0000      -0.616862       -16.7857
  22   2.0000      -0.519084       -14.1250
  23   2.0000      -0.464525       -12.6404
  24   2.0000      -0.404267       -11.0007
  25   0.0000       0.027754         0.7552
  26   0.0000       0.036796         1.0013
  27   0.0000       0.039505         1.0750
  28   0.0000       0.040691         1.1073
  29   0.0000       0.054746         1.4897

MULLIKEN ATOMIC CHARGES
-----------------------
   0 F :   -0.591114
   1 S :    0.197544
   2 Si:    1.374971
   3 F :   -0.662447
   4 H :   -0.147526
   5 H :   -0.171428
Sum of atomic charges:   -0.0000000

LOEWDIN ATOMIC CHARGES
----------------------
   0 F :    0.000779
   1 S :    0.468085
   2 Si:   -0.197561
   3 F :    0.362358
   4 H :   -0.307969
   5 H :   -0.325692

  Mayer bond orders larger than 0.100000
B(  0-F ,  1-S ) :   0.6154 B(  1-S ,  2-Si) :   0.7858 B(  2-Si,  3-F ) :   0.4204
B(  2-Si,  4-H ) :   0.9140 B(  2-Si,  5-H ) :   0.9243

MP2 TOTAL ENERGY:     -887.571188466 Eh
FINAL SINGLE POINT ENERGY      -887.571188465672

DIPOLE MOMENT
-------------
                                X             Y             Z
Electronic contribution:     -1.75522       2.20542      -1.67233
Nuclear contribution   :      2.12059      -2.88152       1.97370
                        -----------------------------------------
Total Dipole Moment    :      0.36538      -0.67609       0.30137
                        -----------------------------------------
Magnitude (a.u.)       :      0.82549
Magnitude (Debye)      :      2.09822

Rotational constants in cm-1:     0.311794     0.086115     0.077304
Rotational constants in MHz :  9347.342061  2581.670536  2317.516512

                             ****ORCA TERMINATED NORMALLY****
TOTAL RUN TIME: 0 days 0 hours 5 minutes 31 seconds 432 msec
