                         Program Version 5.0.4 -  RELEASE  -
|  1> ! ri-mp2 aug-cc-pvdz aug-cc-pvdz/c tightscf
|  2> %pal nprocs 16 end
|  3> %maxcore 3800
|  4> %base "DZ_B-B_25_A"
|  5> %scf
|  6> STABPerform true
|  7> STABRestartUHFifUnstable true
|  8> end
|  9>
| 10> *xyz 0 2
| 11> B        -1.487156   -0.361736   -0.145005
| 12> C        -0.048184    0.102714   -0.009208
| 13> O         0.298904    1.238720    0.016488
| 14> F         0.863676   -0.904454    0.015519
| 15> H        -2.439429   -0.577280    0.508702
| 16> *
| 17>
| 18> $new_job
| 19> ! ri-mp2 aug-cc-pvtz aug-cc-pvtz/c tightscf
| 20> %pal nprocs 16 end
| 21> %maxcore 3800
| 22> %base "TZ_B-B_25_A"
| 23>
| 24> *xyz 0 2
| 25> B        -1.487156   -0.361736   -0.145005
| 26> C        -0.048184    0.102714   -0.009208
| 27> O         0.298904    1.238720    0.016488
| 28> F         0.863676   -0.904454    0.015519
| 29> H        -2.439429   -0.577280    0.508702
| 30> *
| 31>
| 32> $new_job
| 33> ! ri-mp2 aug-cc-pvqz aug-cc-pvqz/c tightscf
| 34> %pal nprocs 16 end
| 35> %maxcore 3800
| 36> %base "QZ_B-B_25_A"
| 37>
| 38> *xyz 0 2
| 39> B        -1.487156   -0.361736   -0.145005
| 40> C        -0.048184    0.102714   -0.009208
| 41> O         0.298904    1.238720    0.016488
| 42> F         0.863676   -0.904454    0.015519
| 43> H        -2.439429   -0.577280    0.508702
| 44> *
| 45>
| 46>
| 47>
| 48>
| 49>                          ****END OF INPUT****
 Total Charge           Charge          ....    0
 Multiplicity           Mult            ....    2
 Number of Electrons    NEL             ....   29
MP2 TOTAL ENERGY:     -237.969413001 Eh
FINAL SINGLE POINT ENERGY      -237.969413000881
MP2 TOTAL ENERGY:     -238.162348282 Eh
FINAL SINGLE POINT ENERGY      -238.162348281693

CARTESIAN COORDINATES (ANGSTROEM)
---------------------------------
  B     -1.487156   -0.361736   -0.145005
  C     -0.048184    0.102714   -0.009208
  O      0.298904    1.238720    0.016488
  F      0.863676   -0.904454    0.015519
  H     -2.439429   -0.577280    0.508702

 Multiplicity           Mult            ....    2
 Number of Electrons    NEL             ....   29
 Basis Dimension        Dim             ....  366

ORBITAL ENERGIES
----------------
                 SPIN UP ORBITALS
  NO   OCC          E(Eh)            E(eV)
   0   1.0000     -26.330828      -716.4983
   1   1.0000     -20.598926      -560.5253
   2   1.0000     -11.410403      -310.4929
   3   1.0000      -7.690486      -209.2688
   4   1.0000      -1.653577       -44.9961
   5   1.0000      -1.449140       -39.4331
   6   1.0000      -0.919920       -25.0323
   7   1.0000      -0.799917       -21.7668
   8   1.0000      -0.727927       -19.8079
   9   1.0000      -0.722681       -19.6652
  10   1.0000      -0.674708       -18.3597
  11   1.0000      -0.612521       -16.6675
  12   1.0000      -0.590881       -16.0787
  13   1.0000      -0.504275       -13.7220
  14   1.0000      -0.385611       -10.4930
  15   0.0000       0.012674         0.3449
  16   0.0000       0.026629         0.7246
  17   0.0000       0.034620         0.9421
  18   0.0000       0.038931         1.0594
  19   0.0000       0.049374         1.3435

                 SPIN DOWN ORBITALS
  NO   OCC          E(Eh)            E(eV)
   0   1.0000     -26.331556      -716.5181
   1   1.0000     -20.587718      -560.2203
   2   1.0000     -11.415083      -310.6202
   3   1.0000      -7.672911      -208.7905
   4   1.0000      -1.655546       -45.0497
   5   1.0000      -1.425942       -38.8019
   6   1.0000      -0.904891       -24.6233
   7   1.0000      -0.788272       -21.4500
   8   1.0000      -0.722515       -19.6606
   9   1.0000      -0.719581       -19.5808
  10   1.0000      -0.652578       -17.7575
  11   1.0000      -0.606610       -16.5067
  12   1.0000      -0.525516       -14.3000
  13   1.0000      -0.490791       -13.3551
  14   0.0000       0.019609         0.5336
  15   0.0000       0.023352         0.6354
  16   0.0000       0.030241         0.8229
  17   0.0000       0.038950         1.0599
  18   0.0000       0.049199         1.3388

MULLIKEN ATOMIC CHARGES AND SPIN POPULATIONS
--------------------------------------------
   0 B :    0.538606    0.918152
   1 C :    0.780307   -0.141825
   2 O :   -0.601306    0.245490
   3 F :   -0.550725   -0.004550
   4 H :   -0.166883   -0.017267
Sum of atomic charges         :   -0.0000000

LOEWDIN ATOMIC CHARGES AND SPIN POPULATIONS
-------------------------------------------
   0 B :    0.261770    0.493431
   1 C :   -1.245499    0.176541
   2 O :    0.594527    0.171243
   3 F :    0.667169   -0.008774
   4 H :   -0.277967    0.167559

  Mayer bond orders larger than 0.100000
B(  0-B ,  1-C ) :   1.1150 B(  0-B ,  4-H ) :   0.9359 B(  1-C ,  2-O ) :   1.7091
B(  1-C ,  3-F ) :   0.6955

MP2 TOTAL ENERGY:     -238.227190943 Eh
FINAL SINGLE POINT ENERGY      -238.227190942609

DIPOLE MOMENT
-------------
                                X             Y             Z
Electronic contribution:      0.92528      -1.15294      -0.45703
Nuclear contribution   :     -1.93440       0.58048       0.56521
                        -----------------------------------------
Total Dipole Moment    :     -1.00912      -0.57246       0.10818
                        -----------------------------------------
Magnitude (a.u.)       :      1.16522
Magnitude (Debye)      :      2.96175

Rotational constants in cm-1:     0.404093     0.361446     0.192721
Rotational constants in MHz : 12114.407810 10835.876590  5777.630238

                             ****ORCA TERMINATED NORMALLY****
TOTAL RUN TIME: 0 days 0 hours 13 minutes 22 seconds 523 msec
