                         Program Version 5.0.4 -  RELEASE  -
|  1> ! ri-mp2 aug-cc-pvdz aug-cc-pvdz/c tightscf
|  2> %pal nprocs 16 end
|  3> %maxcore 3800
|  4> %base "DZ_P-N_7_AB"
|  5> %scf
|  6> STABPerform true
|  7> STABRestartUHFifUnstable true
|  8> end
|  9>
| 10> *xyz 0 1
| 11> P         0.398693    0.331015   -0.800474
| 12> N        -1.217743    0.248819   -0.211787
| 13> O        -1.369267    0.416657    1.170762
| 14> C         0.930887    1.824562    0.087259
| 15> H         0.764662    1.745453    1.157855
| 16> H         0.376500    2.673796   -0.314782
| 17> Cl        1.351739   -1.123264    0.380138
| 18> H         1.990136    1.975201   -0.116999
| 19> H        -2.196380    0.906737    1.258027
| 20> O        -1.830547   -0.942348   -0.590252
| 21> H        -1.357504   -1.654499   -0.124460
| 22> *
| 23>
| 24> $new_job
| 25> ! ri-mp2 aug-cc-pvtz aug-cc-pvtz/c tightscf
| 26> %pal nprocs 16 end
| 27> %maxcore 3800
| 28> %base "TZ_P-N_7_AB"
| 29>
| 30> *xyz 0 1
| 31> P         0.398693    0.331015   -0.800474
| 32> N        -1.217743    0.248819   -0.211787
| 33> O        -1.369267    0.416657    1.170762
| 34> C         0.930887    1.824562    0.087259
| 35> H         0.764662    1.745453    1.157855
| 36> H         0.376500    2.673796   -0.314782
| 37> Cl        1.351739   -1.123264    0.380138
| 38> H         1.990136    1.975201   -0.116999
| 39> H        -2.196380    0.906737    1.258027
| 40> O        -1.830547   -0.942348   -0.590252
| 41> H        -1.357504   -1.654499   -0.124460
| 42> *
| 43>
| 44> $new_job
| 45> ! ri-mp2 aug-cc-pvqz aug-cc-pvqz/c tightscf
| 46> %pal nprocs 16 end
| 47> %maxcore 3800
| 48> %base "QZ_P-N_7_AB"
| 49>
| 50> *xyz 0 1
| 51> P         0.398693    0.331015   -0.800474
| 52> N        -1.217743    0.248819   -0.211787
| 53> O        -1.369267    0.416657    1.170762
| 54> C         0.930887    1.824562    0.087259
| 55> H         0.764662    1.745453    1.157855
| 56> H         0.376500    2.673796   -0.314782
| 57> Cl        1.351739   -1.123264    0.380138
| 58> H         1.990136    1.975201   -0.116999
| 59> H        -2.196380    0.906737    1.258027
| 60> O        -1.830547   -0.942348   -0.590252
| 61> H        -1.357504   -1.654499   -0.124460
| 62> *
| 63>
| 64>
| 65>
| 66>
| 67>                          ****END OF INPUT****
 Total Charge           Charge          ....    0
 Multiplicity           Mult            ....    1
 Number of Electrons    NEL             ....   66
MP2 TOTAL ENERGY:    -1046.154370299 Eh
FINAL SINGLE POINT ENERGY     -1046.154370299317
MP2 TOTAL ENERGY:    -1046.476579334 Eh
FINAL SINGLE POINT ENERGY     -1046.476579334465

CARTESIAN COORDINATES (ANGSTROEM)
---------------------------------
  P      0.398693    0.331015   -0.800474
  N     -1.217743    0.248819   -0.211787
  O     -1.369267    0.416657    1.170762
  C      0.930887    1.824562    0.087259
  H      0.764662    1.745453    1.157855
  H      0.376500    2.673796   -0.314782
  Cl     1.351739   -1.123264    0.380138
  H      1.990136    1.975201   -0.116999
  H     -2.196380    0.906737    1.258027
  O     -1.830547   -0.942348   -0.590252
  H     -1.357504   -1.654499   -0.124460

 Multiplicity           Mult            ....    1
 Number of Electrons    NEL             ....   66
 Basis Dimension        Dim             ....  718

ORBITAL ENERGIES
----------------

  NO   OCC          E(Eh)            E(eV)
   0   2.0000    -104.829010     -2852.5424
   1   2.0000     -80.018149     -2177.4045
   2   2.0000     -20.618380      -561.0547
   3   2.0000     -20.614141      -560.9393
   4   2.0000     -15.682191      -426.7341
   5   2.0000     -11.241691      -305.9020
   6   2.0000     -10.555462      -287.2287
   7   2.0000      -8.022238      -218.2962
   8   2.0000      -8.020991      -218.2623
   9   2.0000      -8.020849      -218.2584
  10   2.0000      -7.553329      -205.5365
  11   2.0000      -5.446799      -148.2149
  12   2.0000      -5.445860      -148.1894
  13   2.0000      -5.444547      -148.1537
  14   2.0000      -1.493332       -40.6356
  15   2.0000      -1.368992       -37.2522
  16   2.0000      -1.119342       -30.4589
  17   2.0000      -1.053924       -28.6787
  18   2.0000      -0.983419       -26.7602
  19   2.0000      -0.797804       -21.7093
  20   2.0000      -0.767226       -20.8773
  21   2.0000      -0.675590       -18.3837
  22   2.0000      -0.659631       -17.9495
  23   2.0000      -0.647881       -17.6297
  24   2.0000      -0.600492       -16.3402
  25   2.0000      -0.582185       -15.8421
  26   2.0000      -0.538071       -14.6416
  27   2.0000      -0.515171       -14.0185
  28   2.0000      -0.504233       -13.7209
  29   2.0000      -0.483046       -13.1443
  30   2.0000      -0.462120       -12.5749
  31   2.0000      -0.422338       -11.4924
  32   2.0000      -0.379482       -10.3262
  33   0.0000       0.023398         0.6367
  34   0.0000       0.033446         0.9101
  35   0.0000       0.039354         1.0709
  36   0.0000       0.042380         1.1532
  37   0.0000       0.053084         1.4445

MULLIKEN ATOMIC CHARGES
-----------------------
   0 P :    1.078597
   1 N :    0.035719
   2 O :   -0.590585
   3 C :   -1.077672
   4 H :    0.309498
   5 H :    0.291725
   6 Cl:   -0.517873
   7 H :    0.366322
   8 H :    0.351041
   9 O :   -0.598623
  10 H :    0.351851
Sum of atomic charges:   -0.0000000

LOEWDIN ATOMIC CHARGES
----------------------
   0 P :    0.026977
   1 N :   -0.503805
   2 O :    1.004949
   3 C :    0.662358
   4 H :   -0.399740
   5 H :   -0.365913
   6 Cl:    0.731213
   7 H :   -0.385386
   8 H :   -0.829609
   9 O :    0.973918
  10 H :   -0.914962

  Mayer bond orders larger than 0.100000
B(  0-P ,  1-N ) :   0.7589 B(  0-P ,  3-C ) :   0.9582 B(  0-P ,  6-Cl) :   0.7530
B(  1-N ,  2-O ) :   0.7406 B(  1-N ,  9-O ) :   0.6535 B(  2-O ,  8-H ) :   0.9170
B(  3-C ,  4-H ) :   0.9022 B(  3-C ,  5-H ) :   0.8974 B(  3-C ,  7-H ) :   0.8948
B(  9-O , 10-H ) :   0.8472

MP2 TOTAL ENERGY:    -1046.581962654 Eh
FINAL SINGLE POINT ENERGY     -1046.581962653971

DIPOLE MOMENT
-------------
                                X             Y             Z
Electronic contribution:      2.57456      -5.76977      -1.66094
Nuclear contribution   :     -2.67443       6.63557       1.99696
                        -----------------------------------------
Total Dipole Moment    :     -0.09987       0.86580       0.33602
                        -----------------------------------------
Magnitude (a.u.)       :      0.93407
Magnitude (Debye)      :      2.37423

Rotational constants in cm-1:     0.094381     0.066647     0.052769
Rotational constants in MHz :  2829.468481  1998.038798  1581.980847

                             ****ORCA TERMINATED NORMALLY****
TOTAL RUN TIME: 0 days 0 hours 45 minutes 0 seconds 860 msec
