                         Program Version 5.0.4 -  RELEASE  -
|  1> ! ri-mp2 aug-cc-pvdz aug-cc-pvdz/c tightscf
|  2> %pal nprocs 16 end
|  3> %maxcore 3800
|  4> %base "DZ_P-N_44_AB"
|  5>
|  6> *xyz 0 1
|  7> P         0.089986   -1.118693    0.123881
|  8> N         1.378599    0.212992   -0.137632
|  9> N        -1.337811   -0.229797    0.231349
| 10> O         2.527057   -0.138759   -0.026680
| 11> O         1.006822    1.339251   -0.412546
| 12> O        -1.400348    0.917124    0.997885
| 13> O        -1.926865   -0.030421   -1.020656
| 14> H        -2.856018   -0.260872   -0.890630
| 15> H        -0.792949    1.547896    0.567881
| 16> H         0.360335   -1.086556    1.504493
| 17> *
| 18>
| 19> $new_job
| 20> ! ri-mp2 aug-cc-pvtz aug-cc-pvtz/c tightscf
| 21> %pal nprocs 16 end
| 22> %maxcore 3800
| 23> %base "TZ_P-N_44_AB"
| 24>
| 25> *xyz 0 1
| 26> P         0.089986   -1.118693    0.123881
| 27> N         1.378599    0.212992   -0.137632
| 28> N        -1.337811   -0.229797    0.231349
| 29> O         2.527057   -0.138759   -0.026680
| 30> O         1.006822    1.339251   -0.412546
| 31> O        -1.400348    0.917124    0.997885
| 32> O        -1.926865   -0.030421   -1.020656
| 33> H        -2.856018   -0.260872   -0.890630
| 34> H        -0.792949    1.547896    0.567881
| 35> H         0.360335   -1.086556    1.504493
| 36> *
| 37>
| 38> $new_job
| 39> ! ri-mp2 aug-cc-pvqz aug-cc-pvqz/c tightscf
| 40> %pal nprocs 16 end
| 41> %maxcore 3800
| 42> %base "QZ_P-N_44_AB"
| 43>
| 44> *xyz 0 1
| 45> P         0.089986   -1.118693    0.123881
| 46> N         1.378599    0.212992   -0.137632
| 47> N        -1.337811   -0.229797    0.231349
| 48> O         2.527057   -0.138759   -0.026680
| 49> O         1.006822    1.339251   -0.412546
| 50> O        -1.400348    0.917124    0.997885
| 51> O        -1.926865   -0.030421   -1.020656
| 52> H        -2.856018   -0.260872   -0.890630
| 53> H        -0.792949    1.547896    0.567881
| 54> H         0.360335   -1.086556    1.504493
| 55> *
| 56>
| 57>
| 58>
| 59>
| 60>                          ****END OF INPUT****
 Total Charge           Charge          ....    0
 Multiplicity           Mult            ....    1
 Number of Electrons    NEL             ....   64
MP2 TOTAL ENERGY:     -751.942488333 Eh
FINAL SINGLE POINT ENERGY      -751.942488333401
MP2 TOTAL ENERGY:     -752.327343553 Eh
FINAL SINGLE POINT ENERGY      -752.327343552515

CARTESIAN COORDINATES (ANGSTROEM)
---------------------------------
  P      0.089986   -1.118693    0.123881
  N      1.378599    0.212992   -0.137632
  N     -1.337811   -0.229797    0.231349
  O      2.527057   -0.138759   -0.026680
  O      1.006822    1.339251   -0.412546
  O     -1.400348    0.917124    0.997885
  O     -1.926865   -0.030421   -1.020656
  H     -2.856018   -0.260872   -0.890630
  H     -0.792949    1.547896    0.567881
  H      0.360335   -1.086556    1.504493

 Multiplicity           Mult            ....    1
 Number of Electrons    NEL             ....   64
 Basis Dimension        Dim             ....  702

ORBITAL ENERGIES
----------------

  NO   OCC          E(Eh)            E(eV)
   0   2.0000     -80.048816     -2178.2390
   1   2.0000     -20.636675      -561.5525
   2   2.0000     -20.627895      -561.3136
   3   2.0000     -20.619791      -561.0930
   4   2.0000     -20.614772      -560.9565
   5   2.0000     -15.842319      -431.0914
   6   2.0000     -15.705286      -427.3626
   7   2.0000      -7.585731      -206.4182
   8   2.0000      -5.479094      -149.0937
   9   2.0000      -5.478047      -149.0652
  10   2.0000      -5.477294      -149.0447
  11   2.0000      -1.621247       -44.1164
  12   2.0000      -1.512286       -41.1514
  13   2.0000      -1.420277       -38.6477
  14   2.0000      -1.387522       -37.7564
  15   2.0000      -1.105012       -30.0689
  16   2.0000      -0.980987       -26.6940
  17   2.0000      -0.852930       -23.2094
  18   2.0000      -0.794054       -21.6073
  19   2.0000      -0.771847       -21.0030
  20   2.0000      -0.741873       -20.1874
  21   2.0000      -0.729748       -19.8574
  22   2.0000      -0.687169       -18.6988
  23   2.0000      -0.670537       -18.2462
  24   2.0000      -0.653262       -17.7762
  25   2.0000      -0.545574       -14.8458
  26   2.0000      -0.532133       -14.4801
  27   2.0000      -0.517143       -14.0722
  28   2.0000      -0.509140       -13.8544
  29   2.0000      -0.474611       -12.9148
  30   2.0000      -0.442888       -12.0516
  31   2.0000      -0.433215       -11.7884
  32   0.0000       0.020547         0.5591
  33   0.0000       0.033952         0.9239
  34   0.0000       0.040727         1.1082
  35   0.0000       0.050371         1.3707
  36   0.0000       0.056772         1.5448

MULLIKEN ATOMIC CHARGES
-----------------------
   0 P :    0.924252
   1 N :    0.677919
   2 N :    0.068531
   3 O :   -0.573052
   4 O :   -0.592778
   5 O :   -0.602177
   6 O :   -0.575473
   7 H :    0.351947
   8 H :    0.371407
   9 H :   -0.050576
Sum of atomic charges:    0.0000000

LOEWDIN ATOMIC CHARGES
----------------------
   0 P :    0.932026
   1 N :   -1.044428
   2 N :   -0.520809
   3 O :    0.421788
   4 O :    0.477450
   5 O :    1.021435
   6 O :    1.002394
   7 H :   -0.833616
   8 H :   -1.005683
   9 H :   -0.450557

  Mayer bond orders larger than 0.100000
B(  0-P ,  1-N ) :   0.5472 B(  0-P ,  2-N ) :   0.7998 B(  0-P ,  9-H ) :   0.9610
B(  1-N ,  3-O ) :   1.3731 B(  1-N ,  4-O ) :   1.3116 B(  2-N ,  5-O ) :   0.6883
B(  2-N ,  6-O ) :   0.7125 B(  3-O ,  4-O ) :   0.1407 B(  5-O ,  8-H ) :   0.8307
B(  6-O ,  7-H ) :   0.9205

MP2 TOTAL ENERGY:     -752.456805754 Eh
FINAL SINGLE POINT ENERGY      -752.456805753508

DIPOLE MOMENT
-------------
                                X             Y             Z
Electronic contribution:      2.09352      -2.07334      -0.75474
Nuclear contribution   :     -3.21538       1.23879       1.00828
                        -----------------------------------------
Total Dipole Moment    :     -1.12186      -0.83455       0.25354
                        -----------------------------------------
Magnitude (a.u.)       :      1.42103
Magnitude (Debye)      :      3.61197

Rotational constants in cm-1:     0.133302     0.054341     0.047312
Rotational constants in MHz :  3996.286078  1629.091552  1418.380258

                             ****ORCA TERMINATED NORMALLY****
TOTAL RUN TIME: 0 days 0 hours 5 minutes 50 seconds 176 msec
