                         Program Version 5.0.4 -  RELEASE  -
|  1> ! ri-mp2 aug-cc-pvdz aug-cc-pvdz/c tightscf
|  2> %pal nprocs 16 end
|  3> %maxcore 3800
|  4> %base "DZ_B-S_11_A"
|  5> %scf
|  6> STABPerform true
|  7> STABRestartUHFifUnstable true
|  8> end
|  9>
| 10> *xyz 0 2
| 11> S        -2.233137   -0.000002   -0.526622
| 12> S        -1.033886   -0.000002    0.986199
| 13> C         0.690012    0.000000    0.300664
| 14> F         1.474550    0.000004    1.395513
| 15> Cl         1.025329    1.447287   -0.638731
| 16> Cl         1.025338   -1.447285   -0.638730
| 17> *
| 18>
| 19> $new_job
| 20> ! ri-mp2 aug-cc-pvtz aug-cc-pvtz/c tightscf
| 21> %pal nprocs 16 end
| 22> %maxcore 3800
| 23> %base "TZ_B-S_11_A"
| 24>
| 25> *xyz 0 2
| 26> S        -2.233137   -0.000002   -0.526622
| 27> S        -1.033886   -0.000002    0.986199
| 28> C         0.690012    0.000000    0.300664
| 29> F         1.474550    0.000004    1.395513
| 30> Cl         1.025329    1.447287   -0.638731
| 31> Cl         1.025338   -1.447285   -0.638730
| 32> *
| 33>
| 34> $new_job
| 35> ! ri-mp2 aug-cc-pvqz aug-cc-pvqz/c tightscf
| 36> %pal nprocs 16 end
| 37> %maxcore 3800
| 38> %base "QZ_B-S_11_A"
| 39>
| 40> *xyz 0 2
| 41> S        -2.233137   -0.000002   -0.526622
| 42> S        -1.033886   -0.000002    0.986199
| 43> C         0.690012    0.000000    0.300664
| 44> F         1.474550    0.000004    1.395513
| 45> Cl         1.025329    1.447287   -0.638731
| 46> Cl         1.025338   -1.447285   -0.638730
| 47> *
| 48>
| 49>
| 50>
| 51>
| 52>                          ****END OF INPUT****
 Total Charge           Charge          ....    0
 Multiplicity           Mult            ....    2
 Number of Electrons    NEL             ....   81
MP2 TOTAL ENERGY:    -1852.261781683 Eh
FINAL SINGLE POINT ENERGY     -1852.261781682991
MP2 TOTAL ENERGY:    -1852.598881119 Eh
FINAL SINGLE POINT ENERGY     -1852.598881119196

CARTESIAN COORDINATES (ANGSTROEM)
---------------------------------
  S     -2.233137   -0.000002   -0.526622
  S     -1.033886   -0.000002    0.986199
  C      0.690012    0.000000    0.300664
  F      1.474550    0.000004    1.395513
  Cl     1.025329    1.447287   -0.638731
  Cl     1.025338   -1.447285   -0.638730

 Multiplicity           Mult            ....    2
 Number of Electrons    NEL             ....   81
 Basis Dimension        Dim             ....  496

ORBITAL ENERGIES
----------------
                 SPIN UP ORBITALS
  NO   OCC          E(Eh)            E(eV)
   0   1.0000    -104.873427     -2853.7510
   1   1.0000    -104.873426     -2853.7510
   2   1.0000     -92.039323     -2504.5173
   3   1.0000     -92.010707     -2503.7386
   4   1.0000     -26.356335      -717.1923
   5   1.0000     -11.493322      -312.7492
   6   1.0000     -10.599451      -288.4257
   7   1.0000     -10.599441      -288.4254
   8   1.0000      -9.038986      -245.9633
   9   1.0000      -9.012200      -245.2344
  10   1.0000      -8.066583      -219.5029
  11   1.0000      -8.066581      -219.5028
  12   1.0000      -8.064449      -219.4448
  13   1.0000      -8.064448      -219.4448
  14   1.0000      -8.064382      -219.4430
  15   1.0000      -8.064381      -219.4430
  16   1.0000      -6.722550      -182.9299
  17   1.0000      -6.719161      -182.8377
  18   1.0000      -6.717667      -182.7970
  19   1.0000      -6.705423      -182.4638
  20   1.0000      -6.690180      -182.0490
  21   1.0000      -6.688341      -181.9990
  22   1.0000      -1.685093       -45.8537
  23   1.0000      -1.224179       -33.3116
  24   1.0000      -1.130149       -30.7529
  25   1.0000      -1.115341       -30.3500
  26   1.0000      -0.948907       -25.8211
  27   1.0000      -0.853412       -23.2225
  28   1.0000      -0.758957       -20.6523
  29   1.0000      -0.748758       -20.3748
  30   1.0000      -0.722955       -19.6726
  31   1.0000      -0.601507       -16.3678
  32   1.0000      -0.597841       -16.2681
  33   1.0000      -0.540433       -14.7059
  34   1.0000      -0.535420       -14.5695
  35   1.0000      -0.516374       -14.0512
  36   1.0000      -0.484939       -13.1958
  37   1.0000      -0.479301       -13.0424
  38   1.0000      -0.469303       -12.7704
  39   1.0000      -0.402194       -10.9443
  40   1.0000      -0.386448       -10.5158
  41   0.0000       0.040998         1.1156
  42   0.0000       0.047516         1.2930
  43   0.0000       0.053281         1.4498
  44   0.0000       0.055653         1.5144
  45   0.0000       0.071698         1.9510

                 SPIN DOWN ORBITALS
  NO   OCC          E(Eh)            E(eV)
   0   1.0000    -104.873343     -2853.7487
   1   1.0000    -104.873342     -2853.7487
   2   1.0000     -92.036783     -2504.4482
   3   1.0000     -92.002554     -2503.5168
   4   1.0000     -26.356451      -717.1955
   5   1.0000     -11.493980      -312.7671
   6   1.0000     -10.599367      -288.4234
   7   1.0000     -10.599357      -288.4232
   8   1.0000      -9.036138      -245.8858
   9   1.0000      -9.003237      -244.9905
  10   1.0000      -8.066232      -219.4933
  11   1.0000      -8.066229      -219.4933
  12   1.0000      -8.064399      -219.4435
  13   1.0000      -8.064397      -219.4434
  14   1.0000      -8.064323      -219.4414
  15   1.0000      -8.064322      -219.4414
  16   1.0000      -6.717790      -182.8004
  17   1.0000      -6.716900      -182.7761
  18   1.0000      -6.711000      -182.6156
  19   1.0000      -6.685969      -181.9345
  20   1.0000      -6.683443      -181.8657
  21   1.0000      -6.668921      -181.4706
  22   1.0000      -1.685384       -45.8616
  23   1.0000      -1.222338       -33.2615
  24   1.0000      -1.129391       -30.7323
  25   1.0000      -1.088977       -29.6326
  26   1.0000      -0.924401       -25.1542
  27   1.0000      -0.823178       -22.3998
  28   1.0000      -0.758117       -20.6294
  29   1.0000      -0.742898       -20.2153
  30   1.0000      -0.712588       -19.3905
  31   1.0000      -0.595263       -16.1979
  32   1.0000      -0.593871       -16.1600
  33   1.0000      -0.522419       -14.2157
  34   1.0000      -0.512173       -13.9369
  35   1.0000      -0.499444       -13.5906
  36   1.0000      -0.477099       -12.9825
  37   1.0000      -0.470606       -12.8058
  38   1.0000      -0.426467       -11.6048
  39   1.0000      -0.387121       -10.5341
  40   0.0000      -0.005762        -0.1568
  41   0.0000       0.041832         1.1383
  42   0.0000       0.048344         1.3155
  43   0.0000       0.053331         1.4512
  44   0.0000       0.056224         1.5299

MULLIKEN ATOMIC CHARGES AND SPIN POPULATIONS
--------------------------------------------
   0 S :   -0.072558    0.864332
   1 S :    0.101362    0.147615
   2 C :    0.715724   -0.025059
   3 F :   -0.523105   -0.001800
   4 Cl:   -0.110711    0.007456
   5 Cl:   -0.110711    0.007456
Sum of atomic charges         :    0.0000000

LOEWDIN ATOMIC CHARGES AND SPIN POPULATIONS
-------------------------------------------
   0 S :    0.330746    0.665192
   1 S :    0.163753    0.292263
   2 C :   -2.971953    0.030703
   3 F :    0.546609   -0.000223
   4 Cl:    0.965422    0.006032
   5 Cl:    0.965423    0.006032

  Mayer bond orders larger than 0.100000
B(  0-S ,  1-S ) :   1.4474 B(  1-S ,  2-C ) :   0.8239 B(  2-C ,  3-F ) :   0.5743
B(  2-C ,  4-Cl) :   0.9016 B(  2-C ,  5-Cl) :   0.9016

MP2 TOTAL ENERGY:    -1852.711607905 Eh
FINAL SINGLE POINT ENERGY     -1852.711607904705

DIPOLE MOMENT
-------------
                                X             Y             Z
Electronic contribution:      3.73126       0.00000      -0.50007
Nuclear contribution   :     -3.92987      -0.00001       0.39877
                        -----------------------------------------
Total Dipole Moment    :     -0.19861      -0.00000      -0.10131
                        -----------------------------------------
Magnitude (a.u.)       :      0.22296
Magnitude (Debye)      :      0.56671

Rotational constants in cm-1:     0.065952     0.039882     0.036321
Rotational constants in MHz :  1977.189292  1195.618109  1088.868539

                             ****ORCA TERMINATED NORMALLY****
TOTAL RUN TIME: 0 days 0 hours 29 minutes 17 seconds 567 msec
