                         Program Version 5.0.4 -  RELEASE  -
|  1> ! ri-mp2 aug-cc-pvdz aug-cc-pvdz/c tightscf
|  2> %pal nprocs 16 end
|  3> %maxcore 3800
|  4> %base "DZ_Si-S_24_AB"
|  5> %scf
|  6> STABPerform true
|  7> STABRestartUHFifUnstable true
|  8> end
|  9>
| 10> *xyz 0 1
| 11> C         1.898759    0.645423    0.761547
| 12> C         1.475755   -0.812693    0.664696
| 13> S         0.350280   -1.194218   -0.727998
| 14> H         1.007753   -1.145228    1.590837
| 15> H         2.349264   -1.445407    0.505508
| 16> Si        -1.555500   -0.873113    0.168665
| 17> C        -1.915812    0.907778    0.616389
| 18> C         2.694977    1.132168   -0.437475
| 19> H         2.499568    0.755540    1.669287
| 20> H         1.016415    1.272916    0.898737
| 21> H         3.604445    0.542307   -0.568106
| 22> H         2.988541    2.174732   -0.315371
| 23> H         2.111264    1.050668   -1.354114
| 24> C        -1.783636    1.894507   -0.541031
| 25> H        -1.263572    1.198866    1.443784
| 26> H        -2.932439    0.929391    1.022151
| 27> H        -0.771405    1.895241   -0.946247
| 28> H        -2.018749    2.912255   -0.227534
| 29> H        -2.457881    1.638134   -1.359753
| 30> H        -1.663299   -1.702937    1.392715
| 31> H        -2.517643   -1.348491   -0.849980
| 32> *
| 33>
| 34> $new_job
| 35> ! ri-mp2 aug-cc-pvtz aug-cc-pvtz/c tightscf
| 36> %pal nprocs 16 end
| 37> %maxcore 3800
| 38> %base "TZ_Si-S_24_AB"
| 39>
| 40> *xyz 0 1
| 41> C         1.898759    0.645423    0.761547
| 42> C         1.475755   -0.812693    0.664696
| 43> S         0.350280   -1.194218   -0.727998
| 44> H         1.007753   -1.145228    1.590837
| 45> H         2.349264   -1.445407    0.505508
| 46> Si        -1.555500   -0.873113    0.168665
| 47> C        -1.915812    0.907778    0.616389
| 48> C         2.694977    1.132168   -0.437475
| 49> H         2.499568    0.755540    1.669287
| 50> H         1.016415    1.272916    0.898737
| 51> H         3.604445    0.542307   -0.568106
| 52> H         2.988541    2.174732   -0.315371
| 53> H         2.111264    1.050668   -1.354114
| 54> C        -1.783636    1.894507   -0.541031
| 55> H        -1.263572    1.198866    1.443784
| 56> H        -2.932439    0.929391    1.022151
| 57> H        -0.771405    1.895241   -0.946247
| 58> H        -2.018749    2.912255   -0.227534
| 59> H        -2.457881    1.638134   -1.359753
| 60> H        -1.663299   -1.702937    1.392715
| 61> H        -2.517643   -1.348491   -0.849980
| 62> *
| 63>
| 64> $new_job
| 65> ! ri-mp2 aug-cc-pvqz aug-cc-pvqz/c tightscf
| 66> %pal nprocs 16 end
| 67> %maxcore 3800
| 68> %base "QZ_Si-S_24_AB"
| 69>
| 70> *xyz 0 1
| 71> C         1.898759    0.645423    0.761547
| 72> C         1.475755   -0.812693    0.664696
| 73> S         0.350280   -1.194218   -0.727998
| 74> H         1.007753   -1.145228    1.590837
| 75> H         2.349264   -1.445407    0.505508
| 76> Si        -1.555500   -0.873113    0.168665
| 77> C        -1.915812    0.907778    0.616389
| 78> C         2.694977    1.132168   -0.437475
| 79> H         2.499568    0.755540    1.669287
| 80> H         1.016415    1.272916    0.898737
| 81> H         3.604445    0.542307   -0.568106
| 82> H         2.988541    2.174732   -0.315371
| 83> H         2.111264    1.050668   -1.354114
| 84> C        -1.783636    1.894507   -0.541031
| 85> H        -1.263572    1.198866    1.443784
| 86> H        -2.932439    0.929391    1.022151
| 87> H        -0.771405    1.895241   -0.946247
| 88> H        -2.018749    2.912255   -0.227534
| 89> H        -2.457881    1.638134   -1.359753
| 90> H        -1.663299   -1.702937    1.392715
| 91> H        -2.517643   -1.348491   -0.849980
| 92> *
| 93>
| 94>
| 95>
| 96>
| 97>                          ****END OF INPUT****
 Total Charge           Charge          ....    0
 Multiplicity           Mult            ....    1
 Number of Electrons    NEL             ....   74
MP2 TOTAL ENERGY:     -885.016906876 Eh
FINAL SINGLE POINT ENERGY      -885.016906875999
MP2 TOTAL ENERGY:     -885.302724121 Eh
FINAL SINGLE POINT ENERGY      -885.302724120925

CARTESIAN COORDINATES (ANGSTROEM)
---------------------------------
  C      1.898759    0.645423    0.761547
  C      1.475755   -0.812693    0.664696
  S      0.350280   -1.194218   -0.727998
  H      1.007753   -1.145228    1.590837
  H      2.349264   -1.445407    0.505508
  Si    -1.555500   -0.873113    0.168665
  C     -1.915812    0.907778    0.616389
  C      2.694977    1.132168   -0.437475
  H      2.499568    0.755540    1.669287
  H      1.016415    1.272916    0.898737
  H      3.604445    0.542307   -0.568106
  H      2.988541    2.174732   -0.315371
  H      2.111264    1.050668   -1.354114
  C     -1.783636    1.894507   -0.541031
  H     -1.263572    1.198866    1.443784
  H     -2.932439    0.929391    1.022151
  H     -0.771405    1.895241   -0.946247
  H     -2.018749    2.912255   -0.227534
  H     -2.457881    1.638134   -1.359753
  H     -1.663299   -1.702937    1.392715
  H     -2.517643   -1.348491   -0.849980

 Multiplicity           Mult            ....    1
 Number of Electrons    NEL             ....   74
 Basis Dimension        Dim             .... 1212

ORBITAL ENERGIES
----------------

  NO   OCC          E(Eh)            E(eV)
   0   2.0000     -91.927505     -2501.4746
   1   2.0000     -68.777746     -1871.5376
   2   2.0000     -11.259245      -306.3796
   3   2.0000     -11.228299      -305.5376
   4   2.0000     -11.218457      -305.2697
   5   2.0000     -11.212741      -305.1142
   6   2.0000     -11.212025      -305.0947
   7   2.0000      -8.932079      -243.0542
   8   2.0000      -6.613560      -179.9641
   9   2.0000      -6.612816      -179.9439
  10   2.0000      -6.612182      -179.9266
  11   2.0000      -6.125602      -166.6861
  12   2.0000      -4.232274      -115.1660
  13   2.0000      -4.231852      -115.1545
  14   2.0000      -4.231186      -115.1364
  15   2.0000      -1.085822       -29.5467
  16   2.0000      -1.027135       -27.9498
  17   2.0000      -0.983164       -26.7532
  18   2.0000      -0.886166       -24.1138
  19   2.0000      -0.850349       -23.1392
  20   2.0000      -0.792925       -21.5766
  21   2.0000      -0.678999       -18.4765
  22   2.0000      -0.636204       -17.3120
  23   2.0000      -0.619352       -16.8534
  24   2.0000      -0.606089       -16.4925
  25   2.0000      -0.579364       -15.7653
  26   2.0000      -0.570502       -15.5242
  27   2.0000      -0.528617       -14.3844
  28   2.0000      -0.517354       -14.0779
  29   2.0000      -0.503970       -13.7137
  30   2.0000      -0.497971       -13.5505
  31   2.0000      -0.492885       -13.4121
  32   2.0000      -0.479989       -13.0612
  33   2.0000      -0.448562       -12.2060
  34   2.0000      -0.441582       -12.0161
  35   2.0000      -0.404549       -11.0084
  36   2.0000      -0.348872        -9.4933
  37   0.0000       0.022024         0.5993
  38   0.0000       0.029059         0.7907
  39   0.0000       0.031344         0.8529
  40   0.0000       0.032648         0.8884
  41   0.0000       0.042492         1.1563

MULLIKEN ATOMIC CHARGES
-----------------------
   0 C :   -0.530979
   1 C :   -0.466463
   2 S :   -0.501999
   3 H :    0.247813
   4 H :    0.348584
   5 Si:    1.164472
   6 C :   -0.494774
   7 C :   -0.936866
   8 H :    0.300844
   9 H :    0.392090
  10 H :    0.247084
  11 H :    0.300721
  12 H :    0.298919
  13 C :   -0.975966
  14 H :    0.211610
  15 H :    0.233254
  16 H :    0.324947
  17 H :    0.299860
  18 H :    0.252373
  19 H :   -0.330881
  20 H :   -0.384642
Sum of atomic charges:   -0.0000000

LOEWDIN ATOMIC CHARGES
----------------------
   0 C :    0.418283
   1 C :    0.098697
   2 S :    1.220823
   3 H :   -0.372359
   4 H :   -0.369147
   5 Si:    0.340968
   6 C :    0.468754
   7 C :    0.897010
   8 H :   -0.271693
   9 H :   -0.325254
  10 H :   -0.282026
  11 H :   -0.279168
  12 H :   -0.316148
  13 C :    0.844437
  14 H :   -0.355240
  15 H :   -0.340641
  16 H :   -0.313391
  17 H :   -0.280363
  18 H :   -0.293414
  19 H :   -0.236108
  20 H :   -0.254020

  Mayer bond orders larger than 0.100000
B(  0-C ,  1-C ) :   0.9149 B(  0-C ,  7-C ) :   0.9420 B(  0-C ,  8-H ) :   0.8535
B(  0-C ,  9-H ) :   0.7813 B(  1-C ,  2-S ) :   0.7941 B(  1-C ,  3-H ) :   0.9703
B(  1-C ,  4-H ) :   0.8249 B(  2-S ,  5-Si) :   0.8428 B(  5-Si,  6-C ) :   0.7664
B(  5-Si, 19-H ) :   0.7814 B(  5-Si, 20-H ) :   0.7408 B(  6-C , 13-C ) :   0.9155
B(  6-C , 14-H ) :   0.9245 B(  6-C , 15-H ) :   0.9496 B(  7-C , 10-H ) :   0.9669
B(  7-C , 11-H ) :   0.9484 B(  7-C , 12-H ) :   0.9188 B( 13-C , 16-H ) :   0.8595
B( 13-C , 17-H ) :   0.9446 B( 13-C , 18-H ) :   0.9676

MP2 TOTAL ENERGY:     -885.389887666 Eh
FINAL SINGLE POINT ENERGY      -885.389887665556

DIPOLE MOMENT
-------------
                                X             Y             Z
Electronic contribution:     -2.01218      -8.59715      -2.37512
Nuclear contribution   :      2.10659       9.12406       3.01534
                        -----------------------------------------
Total Dipole Moment    :      0.09441       0.52691       0.64022
                        -----------------------------------------
Magnitude (a.u.)       :      0.83452
Magnitude (Debye)      :      2.12119

Rotational constants in cm-1:     0.070417     0.038390     0.029914
Rotational constants in MHz :  2111.061000  1150.916739   896.786108

                             ****ORCA TERMINATED NORMALLY****
TOTAL RUN TIME: 0 days 3 hours 45 minutes 50 seconds 969 msec
