                         Program Version 5.0.4 -  RELEASE  -
|  1> ! ri-mp2 aug-cc-pvdz aug-cc-pvdz/c tightscf
|  2> %pal nprocs 16 end
|  3> %maxcore 3800
|  4> %base "DZ_B-Cl_34_A"
|  5> %scf
|  6> STABPerform true
|  7> STABRestartUHFifUnstable true
|  8> end
|  9>
| 10> *xyz 0 2
| 11> Cl        -2.697117   -0.209384   -0.000001
| 12> B        -1.239478    0.709608   -0.000020
| 13> N         0.046779    0.234014    0.000024
| 14> C         1.231138    0.083584    0.000008
| 15> S         2.770882   -0.133008   -0.000006
| 16> *
| 17>
| 18> $new_job
| 19> ! ri-mp2 aug-cc-pvtz aug-cc-pvtz/c tightscf
| 20> %pal nprocs 16 end
| 21> %maxcore 3800
| 22> %base "TZ_B-Cl_34_A"
| 23>
| 24> *xyz 0 2
| 25> Cl        -2.697117   -0.209384   -0.000001
| 26> B        -1.239478    0.709608   -0.000020
| 27> N         0.046779    0.234014    0.000024
| 28> C         1.231138    0.083584    0.000008
| 29> S         2.770882   -0.133008   -0.000006
| 30> *
| 31>
| 32> $new_job
| 33> ! ri-mp2 aug-cc-pvqz aug-cc-pvqz/c tightscf
| 34> %pal nprocs 16 end
| 35> %maxcore 3800
| 36> %base "QZ_B-Cl_34_A"
| 37>
| 38> *xyz 0 2
| 39> Cl        -2.697117   -0.209384   -0.000001
| 40> B        -1.239478    0.709608   -0.000020
| 41> N         0.046779    0.234014    0.000024
| 42> C         1.231138    0.083584    0.000008
| 43> S         2.770882   -0.133008   -0.000006
| 44> *
| 45>
| 46>
| 47>
| 48>
| 49>                          ****END OF INPUT****
 Total Charge           Charge          ....    0
 Multiplicity           Mult            ....    2
 Number of Electrons    NEL             ....   51
MP2 TOTAL ENERGY:     -974.694303046 Eh
FINAL SINGLE POINT ENERGY      -974.694303045586
MP2 TOTAL ENERGY:     -974.896924949 Eh
FINAL SINGLE POINT ENERGY      -974.896924949422

CARTESIAN COORDINATES (ANGSTROEM)
---------------------------------
  Cl    -2.697117   -0.209384   -0.000001
  B     -1.239478    0.709608   -0.000020
  N      0.046779    0.234014    0.000024
  C      1.231138    0.083584    0.000008
  S      2.770882   -0.133008   -0.000006

 Multiplicity           Mult            ....    2
 Number of Electrons    NEL             ....   51
 Basis Dimension        Dim             ....  408

ORBITAL ENERGIES
----------------
                 SPIN UP ORBITALS
  NO   OCC          E(Eh)            E(eV)
   0   1.0000    -104.857520     -2853.3182
   1   1.0000     -91.978747     -2502.8689
   2   1.0000     -15.618151      -424.9915
   3   1.0000     -11.405402      -310.3568
   4   1.0000     -10.584992      -288.0323
   5   1.0000      -8.983323      -244.4486
   6   1.0000      -8.052965      -219.1323
   7   1.0000      -8.050353      -219.0612
   8   1.0000      -8.050137      -219.0554
   9   1.0000      -7.722832      -210.1489
  10   1.0000      -6.664695      -181.3556
  11   1.0000      -6.664073      -181.3386
  12   1.0000      -6.662413      -181.2935
  13   1.0000      -1.304807       -35.5056
  14   1.0000      -1.141601       -31.0645
  15   1.0000      -1.071169       -29.1480
  16   1.0000      -0.891218       -24.2513
  17   1.0000      -0.640390       -17.4259
  18   1.0000      -0.626810       -17.0564
  19   1.0000      -0.613578       -16.6963
  20   1.0000      -0.603408       -16.4196
  21   1.0000      -0.515826       -14.0363
  22   1.0000      -0.503403       -13.6983
  23   1.0000      -0.421758       -11.4766
  24   1.0000      -0.397456       -10.8153
  25   1.0000      -0.334212        -9.0944
  26   0.0000       0.023947         0.6516
  27   0.0000       0.032180         0.8757
  28   0.0000       0.036764         1.0004
  29   0.0000       0.038220         1.0400
  30   0.0000       0.042638         1.1602

                 SPIN DOWN ORBITALS
  NO   OCC          E(Eh)            E(eV)
   0   1.0000    -104.856587     -2853.2928
   1   1.0000     -91.978045     -2502.8498
   2   1.0000     -15.622423      -425.1077
   3   1.0000     -11.401846      -310.2600
   4   1.0000     -10.583876      -288.0019
   5   1.0000      -8.982562      -244.4279
   6   1.0000      -8.050778      -219.0728
   7   1.0000      -8.050136      -219.0553
   8   1.0000      -8.048115      -219.0003
   9   1.0000      -7.701288      -209.5627
  10   1.0000      -6.664697      -181.3556
  11   1.0000      -6.662408      -181.2933
  12   1.0000      -6.660243      -181.2344
  13   1.0000      -1.306409       -35.5492
  14   1.0000      -1.131967       -30.8024
  15   1.0000      -1.070092       -29.1187
  16   1.0000      -0.877042       -23.8655
  17   1.0000      -0.627910       -17.0863
  18   1.0000      -0.620349       -16.8805
  19   1.0000      -0.605525       -16.4772
  20   1.0000      -0.588936       -16.0258
  21   1.0000      -0.502965       -13.6864
  22   1.0000      -0.492850       -13.4111
  23   1.0000      -0.401131       -10.9153
  24   1.0000      -0.396571       -10.7912
  25   0.0000       0.023556         0.6410
  26   0.0000       0.034581         0.9410
  27   0.0000       0.035898         0.9768
  28   0.0000       0.038787         1.0554
  29   0.0000       0.053170         1.4468

MULLIKEN ATOMIC CHARGES AND SPIN POPULATIONS
--------------------------------------------
   0 Cl:   -0.209761    0.023306
   1 B :    0.506081    0.928551
   2 N :   -0.657162   -0.125572
   3 C :    0.185522    0.097791
   4 S :    0.175320    0.075924
Sum of atomic charges         :   -0.0000000

LOEWDIN ATOMIC CHARGES AND SPIN POPULATIONS
-------------------------------------------
   0 Cl:    1.165435    0.165663
   1 B :   -1.348644    0.556571
   2 N :    0.250832    0.120850
   3 C :   -1.082308    0.077066
   4 S :    1.014685    0.079850

  Mayer bond orders larger than 0.100000
B(  0-Cl,  1-B ) :   1.1019 B(  1-B ,  2-N ) :   1.0707 B(  2-N ,  3-C ) :   2.0425
B(  3-C ,  4-S ) :   1.6526

MP2 TOTAL ENERGY:     -974.965011048 Eh
FINAL SINGLE POINT ENERGY      -974.965011048420

DIPOLE MOMENT
-------------
                                X             Y             Z
Electronic contribution:     -4.37649       0.27957      -0.00002
Nuclear contribution   :      4.38072      -0.24489       0.00002
                        -----------------------------------------
Total Dipole Moment    :      0.00423       0.03468      -0.00000
                        -----------------------------------------
Magnitude (a.u.)       :      0.03494
Magnitude (Debye)      :      0.08881

Rotational constants in cm-1:     2.003266     0.031294     0.030813
Rotational constants in MHz : 60056.404354   938.184362   923.753739

                             ****ORCA TERMINATED NORMALLY****
TOTAL RUN TIME: 0 days 0 hours 17 minutes 29 seconds 729 msec
