                         Program Version 5.0.4 -  RELEASE  -
|  1> ! ri-mp2 aug-cc-pvdz aug-cc-pvdz/c tightscf
|  2> %pal nprocs 16 end
|  3> %maxcore 3800
|  4> %base "DZ_P-S_7_AB"
|  5> %scf
|  6> STABPerform true
|  7> STABRestartUHFifUnstable true
|  8> end
|  9>
| 10> *xyz 0 1
| 11> F        -2.040876   -0.720707    0.068457
| 12> S        -1.275047    0.709199   -0.014535
| 13> P         0.699082    0.093071   -0.041026
| 14> O         1.479194    1.317849   -0.126867
| 15> O         0.810260   -0.972742   -1.194792
| 16> H         1.111851   -1.846030   -0.918918
| 17> O         0.964927   -0.850764    1.211968
| 18> H         1.135505   -0.365619    2.028282
| 19> *
| 20>
| 21> $new_job
| 22> ! ri-mp2 aug-cc-pvtz aug-cc-pvtz/c tightscf
| 23> %pal nprocs 16 end
| 24> %maxcore 3800
| 25> %base "TZ_P-S_7_AB"
| 26>
| 27> *xyz 0 1
| 28> F        -2.040876   -0.720707    0.068457
| 29> S        -1.275047    0.709199   -0.014535
| 30> P         0.699082    0.093071   -0.041026
| 31> O         1.479194    1.317849   -0.126867
| 32> O         0.810260   -0.972742   -1.194792
| 33> H         1.111851   -1.846030   -0.918918
| 34> O         0.964927   -0.850764    1.211968
| 35> H         1.135505   -0.365619    2.028282
| 36> *
| 37>
| 38> $new_job
| 39> ! ri-mp2 aug-cc-pvqz aug-cc-pvqz/c tightscf
| 40> %pal nprocs 16 end
| 41> %maxcore 3800
| 42> %base "QZ_P-S_7_AB"
| 43>
| 44> *xyz 0 1
| 45> F        -2.040876   -0.720707    0.068457
| 46> S        -1.275047    0.709199   -0.014535
| 47> P         0.699082    0.093071   -0.041026
| 48> O         1.479194    1.317849   -0.126867
| 49> O         0.810260   -0.972742   -1.194792
| 50> H         1.111851   -1.846030   -0.918918
| 51> O         0.964927   -0.850764    1.211968
| 52> H         1.135505   -0.365619    2.028282
| 53> *
| 54>
| 55>
| 56>
| 57>
| 58>                          ****END OF INPUT****
 Total Charge           Charge          ....    0
 Multiplicity           Mult            ....    1
 Number of Electrons    NEL             ....   66
MP2 TOTAL ENERGY:    -1064.613413614 Eh
FINAL SINGLE POINT ENERGY     -1064.613413614308
MP2 TOTAL ENERGY:    -1065.019511923 Eh
FINAL SINGLE POINT ENERGY     -1065.019511923322

CARTESIAN COORDINATES (ANGSTROEM)
---------------------------------
  F     -2.040876   -0.720707    0.068457
  S     -1.275047    0.709199   -0.014535
  P      0.699082    0.093071   -0.041026
  O      1.479194    1.317849   -0.126867
  O      0.810260   -0.972742   -1.194792
  H      1.111851   -1.846030   -0.918918
  O      0.964927   -0.850764    1.211968
  H      1.135505   -0.365619    2.028282

 Multiplicity           Mult            ....    1
 Number of Electrons    NEL             ....   66
 Basis Dimension        Dim             ....  580

ORBITAL ENERGIES
----------------

  NO   OCC          E(Eh)            E(eV)
   0   2.0000     -92.054420     -2504.9281
   1   2.0000     -80.112519     -2179.9725
   2   2.0000     -26.329949      -716.4743
   3   2.0000     -20.633009      -561.4527
   4   2.0000     -20.626889      -561.2862
   5   2.0000     -20.534449      -558.7708
   6   2.0000      -9.050010      -246.2633
   7   2.0000      -7.632865      -207.7008
   8   2.0000      -6.731400      -183.1707
   9   2.0000      -6.729405      -183.1164
  10   2.0000      -6.728252      -183.0851
  11   2.0000      -5.531373      -150.5163
  12   2.0000      -5.530871      -150.5027
  13   2.0000      -5.529705      -150.4709
  14   2.0000      -1.627755       -44.2935
  15   2.0000      -1.473080       -40.0845
  16   2.0000      -1.412572       -38.4380
  17   2.0000      -1.331830       -36.2409
  18   2.0000      -1.010808       -27.5055
  19   2.0000      -0.867022       -23.5929
  20   2.0000      -0.800309       -21.7775
  21   2.0000      -0.739812       -20.1313
  22   2.0000      -0.710345       -19.3295
  23   2.0000      -0.702426       -19.1140
  24   2.0000      -0.679201       -18.4820
  25   2.0000      -0.645935       -17.5768
  26   2.0000      -0.620010       -16.8713
  27   2.0000      -0.600975       -16.3534
  28   2.0000      -0.588034       -16.0012
  29   2.0000      -0.520316       -14.1585
  30   2.0000      -0.504003       -13.7146
  31   2.0000      -0.468253       -12.7418
  32   2.0000      -0.411600       -11.2002
  33   0.0000       0.018519         0.5039
  34   0.0000       0.032420         0.8822
  35   0.0000       0.045606         1.2410
  36   0.0000       0.055451         1.5089
  37   0.0000       0.068741         1.8705

MULLIKEN ATOMIC CHARGES
-----------------------
   0 F :   -0.595870
   1 S :    0.374794
   2 P :    2.244109
   3 O :   -1.070664
   4 O :   -0.872887
   5 H :    0.382664
   6 O :   -0.829832
   7 H :    0.367686
Sum of atomic charges:    0.0000000

LOEWDIN ATOMIC CHARGES
----------------------
   0 F :    0.027752
   1 S :    0.521451
   2 P :   -1.139897
   3 O :    0.217085
   4 O :    1.044394
   5 H :   -0.871312
   6 O :    1.059961
   7 H :   -0.859433

  Mayer bond orders larger than 0.100000
B(  0-F ,  1-S ) :   0.6265 B(  1-S ,  2-P ) :   0.9449 B(  2-P ,  3-O ) :   1.4480
B(  2-P ,  4-O ) :   0.6841 B(  2-P ,  6-O ) :   0.7070 B(  4-O ,  5-H ) :   0.8643
B(  6-O ,  7-H ) :   0.9011

MP2 TOTAL ENERGY:    -1065.153487154 Eh
FINAL SINGLE POINT ENERGY     -1065.153487153675

DIPOLE MOMENT
-------------
                                X             Y             Z
Electronic contribution:     -3.43048       0.54752      -0.26345
Nuclear contribution   :      3.46176      -1.51920       1.01339
                        -----------------------------------------
Total Dipole Moment    :      0.03128      -0.97168       0.74994
                        -----------------------------------------
Magnitude (a.u.)       :      1.22782
Magnitude (Debye)      :      3.12087

Rotational constants in cm-1:     0.124035     0.064571     0.057418
Rotational constants in MHz :  3718.485885  1935.785972  1721.339642

                             ****ORCA TERMINATED NORMALLY****
TOTAL RUN TIME: 0 days 0 hours 17 minutes 4 seconds 406 msec
