                         Program Version 5.0.4 -  RELEASE  -
|  1> ! ri-mp2 aug-cc-pvdz aug-cc-pvdz/c tightscf
|  2> %pal nprocs 16 end
|  3> %maxcore 3800
|  4> %base "DZ_Si-Si_118_AB"
|  5> %scf
|  6> STABPerform true
|  7> STABRestartUHFifUnstable true
|  8> end
|  9>
| 10> *xyz 0 1
| 11> Si        -2.499288   -0.786106   -0.085045
| 12> Si        -0.997059    0.854805    0.622452
| 13> S         0.662283    1.044745   -0.734781
| 14> H        -0.483270    0.571826    1.981933
| 15> H        -1.644285    2.187987    0.629154
| 16> S         1.524657   -0.807486   -0.430973
| 17> H        -3.613352   -0.891416    0.886027
| 18> H        -1.833470   -2.099976   -0.195649
| 19> C         2.653523   -0.472433    0.935256
| 20> H         3.164528   -1.412708    1.142579
| 21> H         2.110823   -0.156786    1.822999
| 22> H         3.384831    0.280836    0.653726
| 23> H        -3.049111   -0.403114   -1.403935
| 24> *
| 25>
| 26> $new_job
| 27> ! ri-mp2 aug-cc-pvtz aug-cc-pvtz/c tightscf
| 28> %pal nprocs 16 end
| 29> %maxcore 3800
| 30> %base "TZ_Si-Si_118_AB"
| 31>
| 32> *xyz 0 1
| 33> Si        -2.499288   -0.786106   -0.085045
| 34> Si        -0.997059    0.854805    0.622452
| 35> S         0.662283    1.044745   -0.734781
| 36> H        -0.483270    0.571826    1.981933
| 37> H        -1.644285    2.187987    0.629154
| 38> S         1.524657   -0.807486   -0.430973
| 39> H        -3.613352   -0.891416    0.886027
| 40> H        -1.833470   -2.099976   -0.195649
| 41> C         2.653523   -0.472433    0.935256
| 42> H         3.164528   -1.412708    1.142579
| 43> H         2.110823   -0.156786    1.822999
| 44> H         3.384831    0.280836    0.653726
| 45> H        -3.049111   -0.403114   -1.403935
| 46> *
| 47>
| 48> $new_job
| 49> ! ri-mp2 aug-cc-pvqz aug-cc-pvqz/c tightscf
| 50> %pal nprocs 16 end
| 51> %maxcore 3800
| 52> %base "QZ_Si-Si_118_AB"
| 53>
| 54> *xyz 0 1
| 55> Si        -2.499288   -0.786106   -0.085045
| 56> Si        -0.997059    0.854805    0.622452
| 57> S         0.662283    1.044745   -0.734781
| 58> H        -0.483270    0.571826    1.981933
| 59> H        -1.644285    2.187987    0.629154
| 60> S         1.524657   -0.807486   -0.430973
| 61> H        -3.613352   -0.891416    0.886027
| 62> H        -1.833470   -2.099976   -0.195649
| 63> C         2.653523   -0.472433    0.935256
| 64> H         3.164528   -1.412708    1.142579
| 65> H         2.110823   -0.156786    1.822999
| 66> H         3.384831    0.280836    0.653726
| 67> H        -3.049111   -0.403114   -1.403935
| 68> *
| 69>
| 70>
| 71>
| 72>
| 73>                          ****END OF INPUT****
 Total Charge           Charge          ....    0
 Multiplicity           Mult            ....    1
 Number of Electrons    NEL             ....   74
MP2 TOTAL ENERGY:    -1416.127369732 Eh
FINAL SINGLE POINT ENERGY     -1416.127369732470
MP2 TOTAL ENERGY:    -1416.348830694 Eh
FINAL SINGLE POINT ENERGY     -1416.348830694461

CARTESIAN COORDINATES (ANGSTROEM)
---------------------------------
  Si    -2.499288   -0.786106   -0.085045
  Si    -0.997059    0.854805    0.622452
  S      0.662283    1.044745   -0.734781
  H     -0.483270    0.571826    1.981933
  H     -1.644285    2.187987    0.629154
  S      1.524657   -0.807486   -0.430973
  H     -3.613352   -0.891416    0.886027
  H     -1.833470   -2.099976   -0.195649
  C      2.653523   -0.472433    0.935256
  H      3.164528   -1.412708    1.142579
  H      2.110823   -0.156786    1.822999
  H      3.384831    0.280836    0.653726
  H     -3.049111   -0.403114   -1.403935

 Multiplicity           Mult            ....    1
 Number of Electrons    NEL             ....   74
 Basis Dimension        Dim             ....  784

ORBITAL ENERGIES
----------------

  NO   OCC          E(Eh)            E(eV)
   0   2.0000     -91.979458     -2502.8883
   1   2.0000     -91.965476     -2502.5078
   2   2.0000     -68.794406     -1871.9910
   3   2.0000     -68.769361     -1871.3094
   4   2.0000     -11.260925      -306.4253
   5   2.0000      -8.979493      -244.3444
   6   2.0000      -8.967855      -244.0278
   7   2.0000      -6.660884      -181.2519
   8   2.0000      -6.659675      -181.2190
   9   2.0000      -6.658775      -181.1945
  10   2.0000      -6.649112      -180.9315
  11   2.0000      -6.648053      -180.9027
  12   2.0000      -6.647404      -180.8851
  13   2.0000      -6.142318      -167.1410
  14   2.0000      -6.120327      -166.5426
  15   2.0000      -4.248702      -115.6131
  16   2.0000      -4.248228      -115.6001
  17   2.0000      -4.247903      -115.5913
  18   2.0000      -4.226444      -115.0074
  19   2.0000      -4.226375      -115.0055
  20   2.0000      -4.226301      -115.0035
  21   2.0000      -1.076348       -29.2889
  22   2.0000      -0.962697       -26.1963
  23   2.0000      -0.822272       -22.3752
  24   2.0000      -0.745505       -20.2862
  25   2.0000      -0.668654       -18.1950
  26   2.0000      -0.604117       -16.4389
  27   2.0000      -0.600813       -16.3489
  28   2.0000      -0.531885       -14.4733
  29   2.0000      -0.510279       -13.8854
  30   2.0000      -0.501161       -13.6373
  31   2.0000      -0.482172       -13.1206
  32   2.0000      -0.475448       -12.9376
  33   2.0000      -0.447376       -12.1737
  34   2.0000      -0.424470       -11.5504
  35   2.0000      -0.360647        -9.8137
  36   2.0000      -0.349060        -9.4984
  37   0.0000       0.024019         0.6536
  38   0.0000       0.030200         0.8218
  39   0.0000       0.032783         0.8921
  40   0.0000       0.037247         1.0136
  41   0.0000       0.045323         1.2333

MULLIKEN ATOMIC CHARGES
-----------------------
   0 Si:    0.325174
   1 Si:    0.913002
   2 S :   -0.399939
   3 H :   -0.203084
   4 H :   -0.267781
   5 S :    0.026167
   6 H :   -0.145079
   7 H :   -0.111098
   8 C :   -0.970261
   9 H :    0.352736
  10 H :    0.307248
  11 H :    0.296629
  12 H :   -0.123715
Sum of atomic charges:    0.0000000

LOEWDIN ATOMIC CHARGES
----------------------
   0 Si:    0.966167
   1 Si:    0.101810
   2 S :    0.573312
   3 H :   -0.307287
   4 H :   -0.325107
   5 S :    0.690764
   6 H :   -0.321525
   7 H :   -0.319224
   8 C :    0.447172
   9 H :   -0.398106
  10 H :   -0.402353
  11 H :   -0.388278
  12 H :   -0.317346

  Mayer bond orders larger than 0.100000
B(  0-Si,  1-Si) :   0.7211 B(  0-Si,  6-H ) :   0.7817 B(  0-Si,  7-H ) :   0.7757
B(  0-Si, 12-H ) :   0.7717 B(  1-Si,  2-S ) :   0.7160 B(  1-Si,  3-H ) :   0.8375
B(  1-Si,  4-H ) :   0.8265 B(  2-S ,  5-S ) :   1.0862 B(  5-S ,  8-C ) :   1.0142
B(  8-C ,  9-H ) :   0.8398 B(  8-C , 10-H ) :   0.8857 B(  8-C , 11-H ) :   0.9057

MP2 TOTAL ENERGY:    -1416.420111977 Eh
FINAL SINGLE POINT ENERGY     -1416.420111977341

DIPOLE MOMENT
-------------
                                X             Y             Z
Electronic contribution:      1.95227       1.84260      -4.76036
Nuclear contribution   :     -1.80053      -1.91569       5.46553
                        -----------------------------------------
Total Dipole Moment    :      0.15174      -0.07308       0.70517
                        -----------------------------------------
Magnitude (a.u.)       :      0.72501
Magnitude (Debye)      :      1.84282

Rotational constants in cm-1:     0.101672     0.034515     0.031168
Rotational constants in MHz :  3048.050671  1034.746287   934.406788

                             ****ORCA TERMINATED NORMALLY****
TOTAL RUN TIME: 0 days 0 hours 53 minutes 52 seconds 977 msec
