                         Program Version 5.0.4 -  RELEASE  -
|  1> ! ri-mp2 aug-cc-pvdz aug-cc-pvdz/c tightscf
|  2> %pal nprocs 16 end
|  3> %maxcore 3800
|  4> %base "DZ_P-F_21_A"
|  5> %scf
|  6> STABPerform true
|  7> STABRestartUHFifUnstable true
|  8> end
|  9>
| 10> *xyz 0 2
| 11> F        -2.060253    0.713036    0.204230
| 12> S         0.699066   -0.108143    0.127853
| 13> O         1.417649   -1.252261   -0.372113
| 14> P        -1.372459   -0.636254   -0.288856
| 15> C         1.078065    1.293348   -0.889795
| 16> H         2.115548    1.545717   -0.672420
| 17> H         0.963075    1.020337   -1.935443
| 18> O         0.828792    0.303861    1.498117
| 19> H         0.425562    2.117829   -0.612286
| 20> *
| 21>
| 22> $new_job
| 23> ! ri-mp2 aug-cc-pvtz aug-cc-pvtz/c tightscf
| 24> %pal nprocs 16 end
| 25> %maxcore 3800
| 26> %base "TZ_P-F_21_A"
| 27>
| 28> *xyz 0 2
| 29> F        -2.060253    0.713036    0.204230
| 30> S         0.699066   -0.108143    0.127853
| 31> O         1.417649   -1.252261   -0.372113
| 32> P        -1.372459   -0.636254   -0.288856
| 33> C         1.078065    1.293348   -0.889795
| 34> H         2.115548    1.545717   -0.672420
| 35> H         0.963075    1.020337   -1.935443
| 36> O         0.828792    0.303861    1.498117
| 37> H         0.425562    2.117829   -0.612286
| 38> *
| 39>
| 40> $new_job
| 41> ! ri-mp2 aug-cc-pvqz aug-cc-pvqz/c tightscf
| 42> %pal nprocs 16 end
| 43> %maxcore 3800
| 44> %base "QZ_P-F_21_A"
| 45>
| 46> *xyz 0 2
| 47> F        -2.060253    0.713036    0.204230
| 48> S         0.699066   -0.108143    0.127853
| 49> O         1.417649   -1.252261   -0.372113
| 50> P        -1.372459   -0.636254   -0.288856
| 51> C         1.078065    1.293348   -0.889795
| 52> H         2.115548    1.545717   -0.672420
| 53> H         0.963075    1.020337   -1.935443
| 54> O         0.828792    0.303861    1.498117
| 55> H         0.425562    2.117829   -0.612286
| 56> *
| 57>
| 58>
| 59>
| 60>
| 61>                          ****END OF INPUT****
 Total Charge           Charge          ....    0
 Multiplicity           Mult            ....    2
 Number of Electrons    NEL             ....   65
MP2 TOTAL ENERGY:    -1027.999594195 Eh
FINAL SINGLE POINT ENERGY     -1027.999594195411
MP2 TOTAL ENERGY:    -1028.380644718 Eh
FINAL SINGLE POINT ENERGY     -1028.380644717595

CARTESIAN COORDINATES (ANGSTROEM)
---------------------------------
  F     -2.060253    0.713036    0.204230
  S      0.699066   -0.108143    0.127853
  O      1.417649   -1.252261   -0.372113
  P     -1.372459   -0.636254   -0.288856
  C      1.078065    1.293348   -0.889795
  H      2.115548    1.545717   -0.672420
  H      0.963075    1.020337   -1.935443
  O      0.828792    0.303861    1.498117
  H      0.425562    2.117829   -0.612286

 Multiplicity           Mult            ....    2
 Number of Electrons    NEL             ....   65
 Basis Dimension        Dim             ....  626

ORBITAL ENERGIES
----------------
                 SPIN UP ORBITALS
  NO   OCC          E(Eh)            E(eV)
   0   1.0000     -92.178102     -2508.2937
   1   1.0000     -80.066425     -2178.7182
   2   1.0000     -26.347475      -716.9513
   3   1.0000     -20.558011      -559.4119
   4   1.0000     -20.557313      -559.3929
   5   1.0000     -11.285947      -307.1062
   6   1.0000      -9.150327      -248.9931
   7   1.0000      -7.601248      -206.8405
   8   1.0000      -6.835279      -185.9974
   9   1.0000      -6.834731      -185.9825
  10   1.0000      -6.834529      -185.9770
  11   1.0000      -5.504850      -149.7946
  12   1.0000      -5.491080      -149.4199
  13   1.0000      -5.488711      -149.3554
  14   1.0000      -1.657829       -45.1118
  15   1.0000      -1.468234       -39.9527
  16   1.0000      -1.357316       -36.9344
  17   1.0000      -1.062598       -28.9148
  18   1.0000      -0.940994       -25.6058
  19   1.0000      -0.827093       -22.5064
  20   1.0000      -0.744304       -20.2535
  21   1.0000      -0.743461       -20.2306
  22   1.0000      -0.714243       -19.4355
  23   1.0000      -0.679437       -18.4884
  24   1.0000      -0.666762       -18.1435
  25   1.0000      -0.628198       -17.0941
  26   1.0000      -0.616514       -16.7762
  27   1.0000      -0.582381       -15.8474
  28   1.0000      -0.519650       -14.1404
  29   1.0000      -0.504827       -13.7370
  30   1.0000      -0.490403       -13.3446
  31   1.0000      -0.416344       -11.3293
  32   1.0000      -0.410430       -11.1684
  33   0.0000       0.020075         0.5463
  34   0.0000       0.036285         0.9874
  35   0.0000       0.037754         1.0273
  36   0.0000       0.042885         1.1670
  37   0.0000       0.055556         1.5118

                 SPIN DOWN ORBITALS
  NO   OCC          E(Eh)            E(eV)
   0   1.0000     -92.178310     -2508.2993
   1   1.0000     -80.059336     -2178.5253
   2   1.0000     -26.342960      -716.8284
   3   1.0000     -20.558131      -559.4152
   4   1.0000     -20.556763      -559.3780
   5   1.0000     -11.285878      -307.1044
   6   1.0000      -9.150574      -248.9998
   7   1.0000      -7.592473      -206.6017
   8   1.0000      -6.835868      -186.0134
   9   1.0000      -6.834996      -185.9897
  10   1.0000      -6.834680      -185.9811
  11   1.0000      -5.487329      -149.3178
  12   1.0000      -5.485837      -149.2772
  13   1.0000      -5.470210      -148.8520
  14   1.0000      -1.645904       -44.7873
  15   1.0000      -1.467499       -39.9327
  16   1.0000      -1.356590       -36.9147
  17   1.0000      -1.060501       -28.8577
  18   1.0000      -0.906053       -24.6549
  19   1.0000      -0.817666       -22.2498
  20   1.0000      -0.739515       -20.1232
  21   1.0000      -0.707314       -19.2470
  22   1.0000      -0.701827       -19.0977
  23   1.0000      -0.676153       -18.3991
  24   1.0000      -0.666319       -18.1314
  25   1.0000      -0.618543       -16.8314
  26   1.0000      -0.614407       -16.7189
  27   1.0000      -0.553683       -15.0665
  28   1.0000      -0.518400       -14.1064
  29   1.0000      -0.501417       -13.6443
  30   1.0000      -0.487841       -13.2748
  31   1.0000      -0.409862       -11.1529
  32   0.0000       0.000331         0.0090
  33   0.0000       0.021855         0.5947
  34   0.0000       0.036817         1.0019
  35   0.0000       0.038887         1.0582
  36   0.0000       0.044383         1.2077

MULLIKEN ATOMIC CHARGES AND SPIN POPULATIONS
--------------------------------------------
   0 F :   -0.658624    0.004381
   1 S :    2.137524   -0.044877
   2 O :   -1.195865   -0.004897
   3 P :    0.876415    1.039489
   4 C :   -1.026597   -0.000362
   5 H :    0.331628    0.004006
   6 H :    0.358631   -0.001822
   7 O :   -1.177103    0.005528
   8 H :    0.353990   -0.001446
Sum of atomic charges         :   -0.0000000

LOEWDIN ATOMIC CHARGES AND SPIN POPULATIONS
-------------------------------------------
   0 F :    0.114194    0.148906
   1 S :   -0.556998    0.152760
   2 O :    0.201301    0.003453
   3 P :    0.328094    0.651821
   4 C :    0.730077    0.018168
   5 H :   -0.337773    0.001613
   6 H :   -0.347253    0.007407
   7 O :    0.215422    0.014309
   8 H :   -0.347065    0.001562

  Mayer bond orders larger than 0.100000
B(  0-F ,  3-P ) :   0.5327 B(  1-S ,  2-O ) :   1.0767 B(  1-S ,  3-P ) :   0.8157
B(  1-S ,  4-C ) :   0.9164 B(  1-S ,  7-O ) :   1.0780 B(  4-C ,  5-H ) :   0.8549
B(  4-C ,  6-H ) :   0.8796 B(  4-C ,  8-H ) :   0.8827

MP2 TOTAL ENERGY:    -1028.505454386 Eh
FINAL SINGLE POINT ENERGY     -1028.505454385724

DIPOLE MOMENT
-------------
                                X             Y             Z
Electronic contribution:     -7.15646      -3.51563       1.71135
Nuclear contribution   :      6.48827       4.32630      -2.96326
                        -----------------------------------------
Total Dipole Moment    :     -0.66819       0.81067      -1.25191
                        -----------------------------------------
Magnitude (a.u.)       :      1.63430
Magnitude (Debye)      :      4.15406

Rotational constants in cm-1:     0.126949     0.061915     0.057102
Rotational constants in MHz :  3805.848131  1856.169190  1711.883344

                             ****ORCA TERMINATED NORMALLY****
TOTAL RUN TIME: 0 days 0 hours 42 minutes 24 seconds 302 msec
