                         Program Version 5.0.4 -  RELEASE  -
|  1> ! ri-mp2 aug-cc-pvdz aug-cc-pvdz/c tightscf
|  2> %pal nprocs 16 end
|  3> %maxcore 3800
|  4> %base "DZ_B-B_59_A"
|  5> %scf
|  6> STABPerform true
|  7> STABRestartUHFifUnstable true
|  8> end
|  9>
| 10> *xyz 0 2
| 11> B         0.592609    1.806825    0.242292
| 12> P         0.062352    0.208273   -0.301896
| 13> C         1.085779   -1.249521    0.132635
| 14> H         0.949243   -1.541035    1.173306
| 15> H         2.133222   -1.005994   -0.032569
| 16> H         0.822294   -2.091602   -0.506997
| 17> C        -1.649104   -0.243601    0.144748
| 18> H        -2.290513    0.620281   -0.014812
| 19> H        -1.726033   -0.553515    1.186323
| 20> H        -1.997361   -1.056922   -0.490958
| 21> H         1.590768    2.429298    0.338386
| 22> *
| 23>
| 24> $new_job
| 25> ! ri-mp2 aug-cc-pvtz aug-cc-pvtz/c tightscf
| 26> %pal nprocs 16 end
| 27> %maxcore 3800
| 28> %base "TZ_B-B_59_A"
| 29>
| 30> *xyz 0 2
| 31> B         0.592609    1.806825    0.242292
| 32> P         0.062352    0.208273   -0.301896
| 33> C         1.085779   -1.249521    0.132635
| 34> H         0.949243   -1.541035    1.173306
| 35> H         2.133222   -1.005994   -0.032569
| 36> H         0.822294   -2.091602   -0.506997
| 37> C        -1.649104   -0.243601    0.144748
| 38> H        -2.290513    0.620281   -0.014812
| 39> H        -1.726033   -0.553515    1.186323
| 40> H        -1.997361   -1.056922   -0.490958
| 41> H         1.590768    2.429298    0.338386
| 42> *
| 43>
| 44> $new_job
| 45> ! ri-mp2 aug-cc-pvqz aug-cc-pvqz/c tightscf
| 46> %pal nprocs 16 end
| 47> %maxcore 3800
| 48> %base "QZ_B-B_59_A"
| 49>
| 50> *xyz 0 2
| 51> B         0.592609    1.806825    0.242292
| 52> P         0.062352    0.208273   -0.301896
| 53> C         1.085779   -1.249521    0.132635
| 54> H         0.949243   -1.541035    1.173306
| 55> H         2.133222   -1.005994   -0.032569
| 56> H         0.822294   -2.091602   -0.506997
| 57> C        -1.649104   -0.243601    0.144748
| 58> H        -2.290513    0.620281   -0.014812
| 59> H        -1.726033   -0.553515    1.186323
| 60> H        -1.997361   -1.056922   -0.490958
| 61> H         1.590768    2.429298    0.338386
| 62> *
| 63>
| 64>
| 65>
| 66>
| 67>                          ****END OF INPUT****
 Total Charge           Charge          ....    0
 Multiplicity           Mult            ....    2
 Number of Electrons    NEL             ....   39
MP2 TOTAL ENERGY:     -445.667895143 Eh
FINAL SINGLE POINT ENERGY      -445.667895142536
MP2 TOTAL ENERGY:     -445.813491876 Eh
FINAL SINGLE POINT ENERGY      -445.813491875991

CARTESIAN COORDINATES (ANGSTROEM)
---------------------------------
  B      0.592609    1.806825    0.242292
  P      0.062352    0.208273   -0.301896
  C      1.085779   -1.249521    0.132635
  H      0.949243   -1.541035    1.173306
  H      2.133222   -1.005994   -0.032569
  H      0.822294   -2.091602   -0.506997
  C     -1.649104   -0.243601    0.144748
  H     -2.290513    0.620281   -0.014812
  H     -1.726033   -0.553515    1.186323
  H     -1.997361   -1.056922   -0.490958
  H      1.590768    2.429298    0.338386

 Multiplicity           Mult            ....    2
 Number of Electrons    NEL             ....   39
 Basis Dimension        Dim             ....  646

ORBITAL ENERGIES
----------------
                 SPIN UP ORBITALS
  NO   OCC          E(Eh)            E(eV)
   0   1.0000     -79.930231     -2175.0122
   1   1.0000     -11.235681      -305.7384
   2   1.0000     -11.233631      -305.6826
   3   1.0000      -7.609304      -207.0597
   4   1.0000      -7.475143      -203.4090
   5   1.0000      -5.370657      -146.1430
   6   1.0000      -5.369897      -146.1223
   7   1.0000      -5.368621      -146.0876
   8   1.0000      -1.014045       -27.5936
   9   1.0000      -0.952271       -25.9126
  10   1.0000      -0.792903       -21.5760
  11   1.0000      -0.633226       -17.2310
  12   1.0000      -0.593178       -16.1412
  13   1.0000      -0.586543       -15.9606
  14   1.0000      -0.574403       -15.6303
  15   1.0000      -0.565515       -15.3885
  16   1.0000      -0.494094       -13.4450
  17   1.0000      -0.479469       -13.0470
  18   1.0000      -0.323603        -8.8057
  19   1.0000      -0.305996        -8.3266
  20   0.0000       0.020113         0.5473
  21   0.0000       0.032464         0.8834
  22   0.0000       0.033889         0.9222
  23   0.0000       0.037282         1.0145
  24   0.0000       0.048128         1.3096

                 SPIN DOWN ORBITALS
  NO   OCC          E(Eh)            E(eV)
   0   1.0000     -79.931903     -2175.0577
   1   1.0000     -11.234223      -305.6988
   2   1.0000     -11.233367      -305.6755
   3   1.0000      -7.591803      -206.5834
   4   1.0000      -7.477279      -203.4671
   5   1.0000      -5.374603      -146.2504
   6   1.0000      -5.371906      -146.1770
   7   1.0000      -5.370880      -146.1491
   8   1.0000      -1.012881       -27.5619
   9   1.0000      -0.950020       -25.8514
  10   1.0000      -0.770790       -20.9743
  11   1.0000      -0.610633       -16.6162
  12   1.0000      -0.594922       -16.1886
  13   1.0000      -0.576755       -15.6943
  14   1.0000      -0.568480       -15.4691
  15   1.0000      -0.565685       -15.3931
  16   1.0000      -0.482018       -13.1164
  17   1.0000      -0.471559       -12.8318
  18   1.0000      -0.325091        -8.8462
  19   0.0000       0.021241         0.5780
  20   0.0000       0.030446         0.8285
  21   0.0000       0.033517         0.9120
  22   0.0000       0.037189         1.0120
  23   0.0000       0.048015         1.3065

MULLIKEN ATOMIC CHARGES AND SPIN POPULATIONS
--------------------------------------------
   0 B :   -0.008605    1.101037
   1 P :    0.562758   -0.087047
   2 C :   -1.073671    0.057325
   3 H :    0.285498   -0.013990
   4 H :    0.341712   -0.010573
   5 H :    0.278709    0.007990
   6 C :   -1.085106    0.009358
   7 H :    0.359731   -0.013948
   8 H :    0.277418   -0.008082
   9 H :    0.302916   -0.000064
  10 H :   -0.241359   -0.042007
Sum of atomic charges         :   -0.0000000

LOEWDIN ATOMIC CHARGES AND SPIN POPULATIONS
-------------------------------------------
   0 B :    0.076060    0.576584
   1 P :    0.896173    0.184107
   2 C :    0.769879    0.013514
   3 H :   -0.346734    0.001297
   4 H :   -0.365327    0.008362
   5 H :   -0.355847    0.003231
   6 C :    0.752023    0.006548
   7 H :   -0.371469    0.013867
   8 H :   -0.346127   -0.000373
   9 H :   -0.355253   -0.002990
  10 H :   -0.353377    0.195852

  Mayer bond orders larger than 0.100000
B(  0-B ,  1-P ) :   1.5728 B(  0-B , 10-H ) :   0.8750 B(  1-P ,  2-C ) :   0.9177
B(  1-P ,  6-C ) :   0.9187 B(  2-C ,  3-H ) :   0.9030 B(  2-C ,  4-H ) :   0.8928
B(  2-C ,  5-H ) :   0.9229 B(  6-C ,  7-H ) :   0.8855 B(  6-C ,  8-H ) :   0.9002
B(  6-C ,  9-H ) :   0.9123

MP2 TOTAL ENERGY:     -445.857480455 Eh
FINAL SINGLE POINT ENERGY      -445.857480454628

DIPOLE MOMENT
-------------
                                X             Y             Z
Electronic contribution:      0.92883       4.04238      -1.45702
Nuclear contribution   :     -1.06083      -4.87929       1.75413
                        -----------------------------------------
Total Dipole Moment    :     -0.13200      -0.83691       0.29710
                        -----------------------------------------
Magnitude (a.u.)       :      0.89784
Magnitude (Debye)      :      2.28212

Rotational constants in cm-1:     0.215505     0.211983     0.117766
Rotational constants in MHz :  6460.662823  6355.103881  3530.542605

                             ****ORCA TERMINATED NORMALLY****
TOTAL RUN TIME: 0 days 0 hours 59 minutes 26 seconds 976 msec
