                         Program Version 5.0.4 -  RELEASE  -
|  1> ! ri-mp2 aug-cc-pvdz aug-cc-pvdz/c tightscf
|  2> %pal nprocs 16 end
|  3> %maxcore 3800
|  4> %base "DZ_Si-S_2_AB"
|  5> %scf
|  6> STABPerform true
|  7> STABRestartUHFifUnstable true
|  8> end
|  9>
| 10> *xyz 0 1
| 11> S        -2.916468    1.123171   -0.201252
| 12> Si        -2.146832   -0.830259    0.236846
| 13> H        -2.080893    1.775266    0.618880
| 14> C        -0.401148   -1.075174   -0.375314
| 15> C         0.624185   -0.120834    0.232626
| 16> H        -0.400740   -0.981467   -1.464816
| 17> H        -0.121578   -2.111615   -0.156311
| 18> C         2.045066   -0.376958   -0.247889
| 19> H         0.598187   -0.196035    1.324692
| 20> H         0.350096    0.910509   -0.008240
| 21> C         3.065814    0.579348    0.349374
| 22> H         2.073203   -0.303137   -1.339805
| 23> H         2.327189   -1.406894   -0.006314
| 24> C         4.482268    0.315738   -0.136527
| 25> H         3.032604    0.505174    1.440327
| 26> H         2.780112    1.606977    0.106441
| 27> H         4.803996   -0.694948    0.121838
| 28> H         5.193770    1.013760    0.305453
| 29> H         4.549549    0.415005   -1.221559
| 30> H        -3.083911   -1.745411   -0.447290
| 31> H        -2.199556   -1.067008    1.697263
| 32> *
| 33>
| 34> $new_job
| 35> ! ri-mp2 aug-cc-pvtz aug-cc-pvtz/c tightscf
| 36> %pal nprocs 16 end
| 37> %maxcore 3800
| 38> %base "TZ_Si-S_2_AB"
| 39>
| 40> *xyz 0 1
| 41> S        -2.916468    1.123171   -0.201252
| 42> Si        -2.146832   -0.830259    0.236846
| 43> H        -2.080893    1.775266    0.618880
| 44> C        -0.401148   -1.075174   -0.375314
| 45> C         0.624185   -0.120834    0.232626
| 46> H        -0.400740   -0.981467   -1.464816
| 47> H        -0.121578   -2.111615   -0.156311
| 48> C         2.045066   -0.376958   -0.247889
| 49> H         0.598187   -0.196035    1.324692
| 50> H         0.350096    0.910509   -0.008240
| 51> C         3.065814    0.579348    0.349374
| 52> H         2.073203   -0.303137   -1.339805
| 53> H         2.327189   -1.406894   -0.006314
| 54> C         4.482268    0.315738   -0.136527
| 55> H         3.032604    0.505174    1.440327
| 56> H         2.780112    1.606977    0.106441
| 57> H         4.803996   -0.694948    0.121838
| 58> H         5.193770    1.013760    0.305453
| 59> H         4.549549    0.415005   -1.221559
| 60> H        -3.083911   -1.745411   -0.447290
| 61> H        -2.199556   -1.067008    1.697263
| 62> *
| 63>
| 64> $new_job
| 65> ! ri-mp2 aug-cc-pvqz aug-cc-pvqz/c tightscf
| 66> %pal nprocs 16 end
| 67> %maxcore 3800
| 68> %base "QZ_Si-S_2_AB"
| 69>
| 70> *xyz 0 1
| 71> S        -2.916468    1.123171   -0.201252
| 72> Si        -2.146832   -0.830259    0.236846
| 73> H        -2.080893    1.775266    0.618880
| 74> C        -0.401148   -1.075174   -0.375314
| 75> C         0.624185   -0.120834    0.232626
| 76> H        -0.400740   -0.981467   -1.464816
| 77> H        -0.121578   -2.111615   -0.156311
| 78> C         2.045066   -0.376958   -0.247889
| 79> H         0.598187   -0.196035    1.324692
| 80> H         0.350096    0.910509   -0.008240
| 81> C         3.065814    0.579348    0.349374
| 82> H         2.073203   -0.303137   -1.339805
| 83> H         2.327189   -1.406894   -0.006314
| 84> C         4.482268    0.315738   -0.136527
| 85> H         3.032604    0.505174    1.440327
| 86> H         2.780112    1.606977    0.106441
| 87> H         4.803996   -0.694948    0.121838
| 88> H         5.193770    1.013760    0.305453
| 89> H         4.549549    0.415005   -1.221559
| 90> H        -3.083911   -1.745411   -0.447290
| 91> H        -2.199556   -1.067008    1.697263
| 92> *
| 93>
| 94>
| 95>
| 96>
| 97>                          ****END OF INPUT****
 Total Charge           Charge          ....    0
 Multiplicity           Mult            ....    1
 Number of Electrons    NEL             ....   74
MP2 TOTAL ENERGY:     -885.021045442 Eh
FINAL SINGLE POINT ENERGY      -885.021045442038
MP2 TOTAL ENERGY:     -885.305530672 Eh
FINAL SINGLE POINT ENERGY      -885.305530671841

CARTESIAN COORDINATES (ANGSTROEM)
---------------------------------
  S     -2.916468    1.123171   -0.201252
  Si    -2.146832   -0.830259    0.236846
  H     -2.080893    1.775266    0.618880
  C     -0.401148   -1.075174   -0.375314
  C      0.624185   -0.120834    0.232626
  H     -0.400740   -0.981467   -1.464816
  H     -0.121578   -2.111615   -0.156311
  C      2.045066   -0.376958   -0.247889
  H      0.598187   -0.196035    1.324692
  H      0.350096    0.910509   -0.008240
  C      3.065814    0.579348    0.349374
  H      2.073203   -0.303137   -1.339805
  H      2.327189   -1.406894   -0.006314
  C      4.482268    0.315738   -0.136527
  H      3.032604    0.505174    1.440327
  H      2.780112    1.606977    0.106441
  H      4.803996   -0.694948    0.121838
  H      5.193770    1.013760    0.305453
  H      4.549549    0.415005   -1.221559
  H     -3.083911   -1.745411   -0.447290
  H     -2.199556   -1.067008    1.697263

 Multiplicity           Mult            ....    1
 Number of Electrons    NEL             ....   74
 Basis Dimension        Dim             .... 1212

ORBITAL ENERGIES
----------------

  NO   OCC          E(Eh)            E(eV)
   0   2.0000     -91.942548     -2501.8839
   1   2.0000     -68.785824     -1871.7574
   2   2.0000     -11.226940      -305.5006
   3   2.0000     -11.217885      -305.2542
   4   2.0000     -11.217120      -305.2333
   5   2.0000     -11.213193      -305.1265
   6   2.0000     -11.211286      -305.0746
   7   2.0000      -8.947216      -243.4661
   8   2.0000      -6.628745      -180.3773
   9   2.0000      -6.627952      -180.3557
  10   2.0000      -6.627140      -180.3336
  11   2.0000      -6.133461      -166.9000
  12   2.0000      -4.240257      -115.3833
  13   2.0000      -4.239635      -115.3663
  14   2.0000      -4.239017      -115.3495
  15   2.0000      -1.090289       -29.6683
  16   2.0000      -1.025367       -27.9017
  17   2.0000      -0.965345       -26.2684
  18   2.0000      -0.924953       -25.1692
  19   2.0000      -0.829966       -22.5845
  20   2.0000      -0.794124       -21.6092
  21   2.0000      -0.687242       -18.7008
  22   2.0000      -0.656922       -17.8758
  23   2.0000      -0.605284       -16.4706
  24   2.0000      -0.595382       -16.2012
  25   2.0000      -0.568384       -15.4665
  26   2.0000      -0.551809       -15.0155
  27   2.0000      -0.535940       -14.5837
  28   2.0000      -0.516957       -14.0671
  29   2.0000      -0.501357       -13.6426
  30   2.0000      -0.485798       -13.2192
  31   2.0000      -0.477359       -12.9896
  32   2.0000      -0.466881       -12.7045
  33   2.0000      -0.465106       -12.6562
  34   2.0000      -0.444339       -12.0911
  35   2.0000      -0.426355       -11.6017
  36   2.0000      -0.370234       -10.0746
  37   0.0000       0.022726         0.6184
  38   0.0000       0.028056         0.7635
  39   0.0000       0.030115         0.8195
  40   0.0000       0.032519         0.8849
  41   0.0000       0.041059         1.1173

MULLIKEN ATOMIC CHARGES
-----------------------
   0 S :   -0.506362
   1 Si:    1.038704
   2 H :    0.095616
   3 C :   -0.643980
   4 C :   -0.358211
   5 H :    0.221747
   6 H :    0.208770
   7 C :   -0.295046
   8 H :    0.266540
   9 H :    0.257438
  10 C :   -0.471865
  11 H :    0.233732
  12 H :    0.256971
  13 C :   -0.897905
  14 H :    0.228265
  15 H :    0.229670
  16 H :    0.224939
  17 H :    0.268111
  18 H :    0.227170
  19 H :   -0.351168
  20 H :   -0.233137
Sum of atomic charges:   -0.0000000

LOEWDIN ATOMIC CHARGES
----------------------
   0 S :    1.443351
   1 Si:    0.301797
   2 H :   -0.882555
   3 C :    0.471797
   4 C :    0.424773
   5 H :   -0.338689
   6 H :   -0.335103
   7 C :    0.503578
   8 H :   -0.279471
   9 H :   -0.299992
  10 C :    0.505056
  11 H :   -0.266043
  12 H :   -0.266634
  13 C :    0.926383
  14 H :   -0.270493
  15 H :   -0.270419
  16 H :   -0.283986
  17 H :   -0.282893
  18 H :   -0.283852
  19 H :   -0.269173
  20 H :   -0.247434

  Mayer bond orders larger than 0.100000
B(  0-S ,  1-Si) :   0.6340 B(  0-S ,  2-H ) :   1.0133 B(  1-Si,  3-C ) :   0.9878
B(  1-Si,  4-C ) :  -0.1325 B(  1-Si, 19-H ) :   0.7301 B(  1-Si, 20-H ) :   0.7807
B(  3-C ,  4-C ) :   0.9531 B(  3-C ,  5-H ) :   0.9010 B(  3-C ,  6-H ) :   0.9070
B(  4-C ,  7-C ) :   1.0404 B(  4-C ,  8-H ) :   0.8346 B(  4-C ,  9-H ) :   0.8388
B(  7-C , 10-C ) :   0.9486 B(  7-C , 11-H ) :   0.8593 B(  7-C , 12-H ) :   0.8305
B( 10-C , 13-C ) :   1.0224 B( 10-C , 14-H ) :   0.8782 B( 10-C , 15-H ) :   0.8763
B( 10-C , 17-H ) :  -0.1063 B( 13-C , 16-H ) :   0.9569 B( 13-C , 17-H ) :   1.0254
B( 13-C , 18-H ) :   0.9513

MP2 TOTAL ENERGY:     -885.392705138 Eh
FINAL SINGLE POINT ENERGY      -885.392705137627

DIPOLE MOMENT
-------------
                                X             Y             Z
Electronic contribution:    -17.96550       2.09196      -0.82754
Nuclear contribution   :     18.66892      -2.34271       0.99581
                        -----------------------------------------
Total Dipole Moment    :      0.70342      -0.25074       0.16828
                        -----------------------------------------
Magnitude (a.u.)       :      0.76550
Magnitude (Debye)      :      1.94576

Rotational constants in cm-1:     0.138625     0.017761     0.016372
Rotational constants in MHz :  4155.858671   532.472939   490.805791

                             ****ORCA TERMINATED NORMALLY****
TOTAL RUN TIME: 0 days 3 hours 39 minutes 43 seconds 116 msec
