                         Program Version 5.0.4 -  RELEASE  -
|  1> ! ri-mp2 aug-cc-pvdz aug-cc-pvdz/c tightscf
|  2> %pal nprocs 16 end
|  3> %maxcore 3800
|  4> %base "DZ_B-F_17_AB"
|  5> %scf
|  6> STABPerform true
|  7> STABRestartUHFifUnstable true
|  8> end
|  9>
| 10> *xyz 0 1
| 11> F        -1.520210    1.119507    0.057097
| 12> F        -1.520217   -1.119501    0.057083
| 13> B        -0.824486    0.000001   -0.061956
| 14> C         0.707579   -0.000003   -0.366273
| 15> C         1.409924    1.268293    0.120423
| 16> H         0.924697    2.168839   -0.254147
| 17> H         2.450567    1.283214   -0.206519
| 18> H         1.408671    1.322009    1.210890
| 19> C         1.409918   -1.268297    0.120435
| 20> H         0.753900   -0.000009   -1.465849
| 21> H         1.408666   -1.322002    1.210903
| 22> H         2.450561   -1.283226   -0.206507
| 23> H         0.924687   -2.168844   -0.254126
| 24> *
| 25>
| 26> $new_job
| 27> ! ri-mp2 aug-cc-pvtz aug-cc-pvtz/c tightscf
| 28> %pal nprocs 16 end
| 29> %maxcore 3800
| 30> %base "TZ_B-F_17_AB"
| 31>
| 32> *xyz 0 1
| 33> F        -1.520210    1.119507    0.057097
| 34> F        -1.520217   -1.119501    0.057083
| 35> B        -0.824486    0.000001   -0.061956
| 36> C         0.707579   -0.000003   -0.366273
| 37> C         1.409924    1.268293    0.120423
| 38> H         0.924697    2.168839   -0.254147
| 39> H         2.450567    1.283214   -0.206519
| 40> H         1.408671    1.322009    1.210890
| 41> C         1.409918   -1.268297    0.120435
| 42> H         0.753900   -0.000009   -1.465849
| 43> H         1.408666   -1.322002    1.210903
| 44> H         2.450561   -1.283226   -0.206507
| 45> H         0.924687   -2.168844   -0.254126
| 46> *
| 47>
| 48> $new_job
| 49> ! ri-mp2 aug-cc-pvqz aug-cc-pvqz/c tightscf
| 50> %pal nprocs 16 end
| 51> %maxcore 3800
| 52> %base "QZ_B-F_17_AB"
| 53>
| 54> *xyz 0 1
| 55> F        -1.520210    1.119507    0.057097
| 56> F        -1.520217   -1.119501    0.057083
| 57> B        -0.824486    0.000001   -0.061956
| 58> C         0.707579   -0.000003   -0.366273
| 59> C         1.409924    1.268293    0.120423
| 60> H         0.924697    2.168839   -0.254147
| 61> H         2.450567    1.283214   -0.206519
| 62> H         1.408671    1.322009    1.210890
| 63> C         1.409918   -1.268297    0.120435
| 64> H         0.753900   -0.000009   -1.465849
| 65> H         1.408666   -1.322002    1.210903
| 66> H         2.450561   -1.283226   -0.206507
| 67> H         0.924687   -2.168844   -0.254126
| 68> *
| 69>
| 70>
| 71>
| 72>
| 73>                          ****END OF INPUT****
 Total Charge           Charge          ....    0
 Multiplicity           Mult            ....    1
 Number of Electrons    NEL             ....   48
MP2 TOTAL ENERGY:     -342.347321152 Eh
FINAL SINGLE POINT ENERGY      -342.347321151577
MP2 TOTAL ENERGY:     -342.659029599 Eh
FINAL SINGLE POINT ENERGY      -342.659029598561

CARTESIAN COORDINATES (ANGSTROEM)
---------------------------------
  F     -1.520210    1.119507    0.057097
  F     -1.520217   -1.119501    0.057083
  B     -0.824486    0.000001   -0.061956
  C      0.707579   -0.000003   -0.366273
  C      1.409924    1.268293    0.120423
  H      0.924697    2.168839   -0.254147
  H      2.450567    1.283214   -0.206519
  H      1.408671    1.322009    1.210890
  C      1.409918   -1.268297    0.120435
  H      0.753900   -0.000009   -1.465849
  H      1.408666   -1.322002    1.210903
  H      2.450561   -1.283226   -0.206507
  H      0.924687   -2.168844   -0.254126

 Multiplicity           Mult            ....    1
 Number of Electrons    NEL             ....   48
 Basis Dimension        Dim             ....  802

ORBITAL ENERGIES
----------------

  NO   OCC          E(Eh)            E(eV)
   0   2.0000     -26.303858      -715.7644
   1   2.0000     -26.303841      -715.7639
   2   2.0000     -11.223586      -305.4093
   3   2.0000     -11.222152      -305.3703
   4   2.0000     -11.222014      -305.3665
   5   2.0000      -7.696011      -209.4191
   6   2.0000      -1.638416       -44.5836
   7   2.0000      -1.604669       -43.6653
   8   2.0000      -1.073391       -29.2085
   9   2.0000      -0.940118       -25.5819
  10   2.0000      -0.841631       -22.9019
  11   2.0000      -0.798445       -21.7268
  12   2.0000      -0.753159       -20.4945
  13   2.0000      -0.717669       -19.5288
  14   2.0000      -0.705576       -19.1997
  15   2.0000      -0.652958       -17.7679
  16   2.0000      -0.646265       -17.5858
  17   2.0000      -0.625239       -17.0136
  18   2.0000      -0.601019       -16.3546
  19   2.0000      -0.561083       -15.2678
  20   2.0000      -0.543571       -14.7913
  21   2.0000      -0.491948       -13.3866
  22   2.0000      -0.489726       -13.3261
  23   2.0000      -0.462599       -12.5880
  24   0.0000       0.023108         0.6288
  25   0.0000       0.031696         0.8625
  26   0.0000       0.033904         0.9226
  27   0.0000       0.034898         0.9496
  28   0.0000       0.050825         1.3830

MULLIKEN ATOMIC CHARGES
-----------------------
   0 F :   -0.892221
   1 F :   -0.892221
   2 B :    1.749445
   3 C :    0.038230
   4 C :   -0.877318
   5 H :    0.270235
   6 H :    0.253760
   7 H :    0.216519
   8 C :   -0.877316
   9 H :    0.270372
  10 H :    0.216519
  11 H :    0.253759
  12 H :    0.270236
Sum of atomic charges:    0.0000000

LOEWDIN ATOMIC CHARGES
----------------------
   0 F :    0.846413
   1 F :    0.846415
   2 B :   -1.720159
   3 C :    0.182858
   4 C :    0.899636
   5 H :   -0.283531
   6 H :   -0.274451
   7 H :   -0.273011
   8 C :    0.899635
   9 H :   -0.292814
  10 H :   -0.273010
  11 H :   -0.274451
  12 H :   -0.283532

  Mayer bond orders larger than 0.100000
B(  0-F ,  2-B ) :   0.2205 B(  0-F ,  3-C ) :  -0.1334 B(  1-F ,  2-B ) :   0.2205
B(  1-F ,  3-C ) :  -0.1334 B(  2-B ,  3-C ) :   0.9121 B(  3-C ,  4-C ) :   0.7986
B(  3-C ,  8-C ) :   0.7986 B(  3-C ,  9-H ) :   0.8633 B(  4-C ,  5-H ) :   0.9504
B(  4-C ,  6-H ) :   0.9831 B(  4-C ,  7-H ) :   0.9660 B(  8-C , 10-H ) :   0.9660
B(  8-C , 11-H ) :   0.9831 B(  8-C , 12-H ) :   0.9504

MP2 TOTAL ENERGY:     -342.755934115 Eh
FINAL SINGLE POINT ENERGY      -342.755934115398

DIPOLE MOMENT
-------------
                                X             Y             Z
Electronic contribution:    -13.02131       0.00002      -0.12422
Nuclear contribution   :     13.72280      -0.00003      -0.02766
                        -----------------------------------------
Total Dipole Moment    :      0.70149      -0.00000      -0.15188
                        -----------------------------------------
Magnitude (a.u.)       :      0.71774
Magnitude (Debye)      :      1.82435

Rotational constants in cm-1:     0.153189     0.097619     0.062944
Rotational constants in MHz :  4592.496017  2926.530427  1887.021755

                             ****ORCA TERMINATED NORMALLY****
TOTAL RUN TIME: 0 days 1 hours 5 minutes 24 seconds 282 msec
