                         Program Version 5.0.4 -  RELEASE  -
|  1> ! ri-mp2 aug-cc-pvdz aug-cc-pvdz/c tightscf
|  2> %pal nprocs 16 end
|  3> %maxcore 3800
|  4> %base "DZ_B-Si_75_AB"
|  5>
|  6> *xyz 0 1
|  7> C         2.408842   -1.097273    0.792916
|  8> C         1.373993   -0.275863    1.213992
|  9> C         3.030689   -0.866635   -0.421479
| 10> C         2.610297    0.193752   -1.208085
| 11> C         1.573572    1.007767   -0.789174
| 12> C         0.935019    0.787431    0.428801
| 13> H         0.901563   -0.458122    2.171799
| 14> B        -2.156399   -0.797293   -0.168087
| 15> O        -3.439884   -1.199964   -0.363447
| 16> O        -1.204633   -1.763640   -0.051216
| 17> H         2.731699   -1.916516    1.421808
| 18> H         3.091482    0.386485   -2.157928
| 19> H         3.838639   -1.505221   -0.751466
| 20> H         1.249154    1.828551   -1.416727
| 21> C        -0.228799    1.632165    0.852414
| 22> H        -0.304814   -1.446780    0.088433
| 23> H        -3.521994   -2.160713   -0.411284
| 24> Si        -1.804470    1.203349   -0.114035
| 25> H        -0.013002    2.691033    0.698745
| 26> H        -0.424832    1.499335    1.917458
| 27> H        -1.624672    1.699843   -1.502141
| 28> H        -2.944191    1.942450    0.479230
| 29> *
| 30>
| 31> $new_job
| 32> ! ri-mp2 aug-cc-pvtz aug-cc-pvtz/c tightscf
| 33> %pal nprocs 16 end
| 34> %maxcore 3800
| 35> %base "TZ_B-Si_75_AB"
| 36>
| 37> *xyz 0 1
| 38> C         2.408842   -1.097273    0.792916
| 39> C         1.373993   -0.275863    1.213992
| 40> C         3.030689   -0.866635   -0.421479
| 41> C         2.610297    0.193752   -1.208085
| 42> C         1.573572    1.007767   -0.789174
| 43> C         0.935019    0.787431    0.428801
| 44> H         0.901563   -0.458122    2.171799
| 45> B        -2.156399   -0.797293   -0.168087
| 46> O        -3.439884   -1.199964   -0.363447
| 47> O        -1.204633   -1.763640   -0.051216
| 48> H         2.731699   -1.916516    1.421808
| 49> H         3.091482    0.386485   -2.157928
| 50> H         3.838639   -1.505221   -0.751466
| 51> H         1.249154    1.828551   -1.416727
| 52> C        -0.228799    1.632165    0.852414
| 53> H        -0.304814   -1.446780    0.088433
| 54> H        -3.521994   -2.160713   -0.411284
| 55> Si        -1.804470    1.203349   -0.114035
| 56> H        -0.013002    2.691033    0.698745
| 57> H        -0.424832    1.499335    1.917458
| 58> H        -1.624672    1.699843   -1.502141
| 59> H        -2.944191    1.942450    0.479230
| 60> *
| 61>
| 62> $new_job
| 63> ! ri-mp2 aug-cc-pvqz aug-cc-pvqz/c tightscf
| 64> %pal nprocs 16 end
| 65> %maxcore 3800
| 66> %base "QZ_B-Si_75_AB"
| 67>
| 68> *xyz 0 1
| 69> C         2.408842   -1.097273    0.792916
| 70> C         1.373993   -0.275863    1.213992
| 71> C         3.030689   -0.866635   -0.421479
| 72> C         2.610297    0.193752   -1.208085
| 73> C         1.573572    1.007767   -0.789174
| 74> C         0.935019    0.787431    0.428801
| 75> H         0.901563   -0.458122    2.171799
| 76> B        -2.156399   -0.797293   -0.168087
| 77> O        -3.439884   -1.199964   -0.363447
| 78> O        -1.204633   -1.763640   -0.051216
| 79> H         2.731699   -1.916516    1.421808
| 80> H         3.091482    0.386485   -2.157928
| 81> H         3.838639   -1.505221   -0.751466
| 82> H         1.249154    1.828551   -1.416727
| 83> C        -0.228799    1.632165    0.852414
| 84> H        -0.304814   -1.446780    0.088433
| 85> H        -3.521994   -2.160713   -0.411284
| 86> Si        -1.804470    1.203349   -0.114035
| 87> H        -0.013002    2.691033    0.698745
| 88> H        -0.424832    1.499335    1.917458
| 89> H        -1.624672    1.699843   -1.502141
| 90> H        -2.944191    1.942450    0.479230
| 91> *
| 92>
| 93>
| 94>
| 95>
| 96>                          ****END OF INPUT****
 Total Charge           Charge          ....    0
 Multiplicity           Mult            ....    1
 Number of Electrons    NEL             ....   88
MP2 TOTAL ENERGY:     -736.541794823 Eh
FINAL SINGLE POINT ENERGY      -736.541794822667
MP2 TOTAL ENERGY:     -736.971099004 Eh
FINAL SINGLE POINT ENERGY      -736.971099004301

CARTESIAN COORDINATES (ANGSTROEM)
---------------------------------
  C      2.408842   -1.097273    0.792916
  C      1.373993   -0.275863    1.213992
  C      3.030689   -0.866635   -0.421479
  C      2.610297    0.193752   -1.208085
  C      1.573572    1.007767   -0.789174
  C      0.935019    0.787431    0.428801
  H      0.901563   -0.458122    2.171799
  B     -2.156399   -0.797293   -0.168087
  O     -3.439884   -1.199964   -0.363447
  O     -1.204633   -1.763640   -0.051216
  H      2.731699   -1.916516    1.421808
  H      3.091482    0.386485   -2.157928
  H      3.838639   -1.505221   -0.751466
  H      1.249154    1.828551   -1.416727
  C     -0.228799    1.632165    0.852414
  H     -0.304814   -1.446780    0.088433
  H     -3.521994   -2.160713   -0.411284
  Si    -1.804470    1.203349   -0.114035
  H     -0.013002    2.691033    0.698745
  H     -0.424832    1.499335    1.917458
  H     -1.624672    1.699843   -1.502141
  H     -2.944191    1.942450    0.479230

 Multiplicity           Mult            ....    1
 Number of Electrons    NEL             ....   88
 Basis Dimension        Dim             .... 1390

ORBITAL ENERGIES
----------------

  NO   OCC          E(Eh)            E(eV)
   0   2.0000     -68.750205     -1870.7882
   1   2.0000     -20.562522      -559.5347
   2   2.0000     -20.561403      -559.5042
   3   2.0000     -11.254220      -306.2429
   4   2.0000     -11.243613      -305.9543
   5   2.0000     -11.242372      -305.9205
   6   2.0000     -11.237149      -305.7784
   7   2.0000     -11.236080      -305.7493
   8   2.0000     -11.235713      -305.7393
   9   2.0000     -11.219891      -305.3087
  10   2.0000      -7.632417      -207.6886
  11   2.0000      -6.101670      -166.0349
  12   2.0000      -4.207929      -114.5036
  13   2.0000      -4.207751      -114.4987
  14   2.0000      -4.207426      -114.4899
  15   2.0000      -1.381365       -37.5889
  16   2.0000      -1.339952       -36.4619
  17   2.0000      -1.170571       -31.8529
  18   2.0000      -1.058371       -28.7997
  19   2.0000      -1.026979       -27.9455
  20   2.0000      -0.940368       -25.5887
  21   2.0000      -0.839252       -22.8372
  22   2.0000      -0.810848       -22.0643
  23   2.0000      -0.770807       -20.9747
  24   2.0000      -0.738015       -20.0824
  25   2.0000      -0.707761       -19.2592
  26   2.0000      -0.682992       -18.5851
  27   2.0000      -0.649226       -17.6663
  28   2.0000      -0.641984       -17.4693
  29   2.0000      -0.601961       -16.3802
  30   2.0000      -0.596185       -16.2230
  31   2.0000      -0.581683       -15.8284
  32   2.0000      -0.570199       -15.5159
  33   2.0000      -0.562943       -15.3185
  34   2.0000      -0.555879       -15.1262
  35   2.0000      -0.529417       -14.4062
  36   2.0000      -0.502007       -13.6603
  37   2.0000      -0.499561       -13.5937
  38   2.0000      -0.496819       -13.5191
  39   2.0000      -0.464520       -12.6402
  40   2.0000      -0.456242       -12.4150
  41   2.0000      -0.408879       -11.1262
  42   2.0000      -0.351366        -9.5612
  43   2.0000      -0.329320        -8.9613
  44   0.0000       0.020776         0.5654
  45   0.0000       0.026999         0.7347
  46   0.0000       0.027573         0.7503
  47   0.0000       0.032005         0.8709
  48   0.0000       0.039466         1.0739

MULLIKEN ATOMIC CHARGES
-----------------------
   0 C :   -0.301811
   1 C :   -0.367806
   2 C :   -0.335837
   3 C :   -0.340851
   4 C :   -0.554149
   5 C :    0.700155
   6 H :    0.219138
   7 B :    1.437701
   8 O :   -1.084252
   9 O :   -1.307649
  10 H :    0.197877
  11 H :    0.214120
  12 H :    0.359074
  13 H :    0.306103
  14 C :   -0.581461
  15 H :    0.466724
  16 H :    0.320006
  17 Si:    0.753175
  18 H :    0.305426
  19 H :    0.145523
  20 H :   -0.188577
  21 H :   -0.362627
Sum of atomic charges:    0.0000000

LOEWDIN ATOMIC CHARGES
----------------------
   0 C :    0.351148
   1 C :    0.314960
   2 C :    0.343382
   3 C :    0.351102
   4 C :    0.329378
   5 C :   -0.163742
   6 H :   -0.303873
   7 B :   -1.173121
   8 O :    1.276008
   9 O :    1.339834
  10 H :   -0.311039
  11 H :   -0.314504
  12 H :   -0.321144
  13 H :   -0.314112
  14 C :    0.489181
  15 H :   -0.901904
  16 H :   -0.808269
  17 Si:    0.944993
  18 H :   -0.333621
  19 H :   -0.349619
  20 H :   -0.217465
  21 H :   -0.227573

  Mayer bond orders larger than 0.100000
B(  0-C ,  1-C ) :   1.3592 B(  0-C ,  2-C ) :   1.1003 B(  0-C ,  4-C ) :   0.1216
B(  0-C ,  5-C ) :  -0.2475 B(  0-C , 10-H ) :   1.1998 B(  1-C ,  3-C ) :   0.1646
B(  1-C ,  5-C ) :   1.0061 B(  1-C ,  6-H ) :   1.0614 B(  1-C , 10-H ) :  -0.1136
B(  2-C ,  3-C ) :   1.1390 B(  2-C ,  4-C ) :   0.1096 B(  2-C , 10-H ) :  -0.1113
B(  2-C , 12-H ) :   0.9846 B(  3-C ,  4-C ) :   1.3292 B(  3-C ,  5-C ) :  -0.2774
B(  3-C , 11-H ) :   1.1649 B(  4-C ,  5-C ) :   1.0153 B(  4-C , 11-H ) :  -0.1314
B(  4-C , 13-H ) :   0.9589 B(  4-C , 14-C ) :  -0.1276 B(  5-C , 14-C ) :   0.5531
B(  5-C , 18-H ) :  -0.1394 B(  5-C , 19-H ) :  -0.1005 B(  7-B ,  8-O ) :   0.4884
B(  7-B ,  9-O ) :   0.3546 B(  7-B , 17-Si) :   0.7597 B(  8-O ,  9-O ) :  -0.1975
B(  8-O , 16-H ) :   0.9330 B(  8-O , 17-Si) :  -0.1940 B(  9-O , 15-H ) :   0.7763
B( 14-C , 17-Si) :   0.8043 B( 14-C , 18-H ) :   0.9580 B( 14-C , 19-H ) :   1.0877
B( 17-Si, 20-H ) :   0.7695 B( 17-Si, 21-H ) :   0.6048

MP2 TOTAL ENERGY:     -737.108491146 Eh
FINAL SINGLE POINT ENERGY      -737.108491146048

DIPOLE MOMENT
-------------
                                X             Y             Z
Electronic contribution:     -3.96915      -3.16796      -0.46911
Nuclear contribution   :      4.73042       3.06839       0.67056
                        -----------------------------------------
Total Dipole Moment    :      0.76127      -0.09956       0.20145
                        -----------------------------------------
Magnitude (a.u.)       :      0.79374
Magnitude (Debye)      :      2.01754

Rotational constants in cm-1:     0.053265     0.020424     0.017420
Rotational constants in MHz :  1596.857984   612.301508   522.225700

                             ****ORCA TERMINATED NORMALLY****
TOTAL RUN TIME: 0 days 1 hours 6 minutes 49 seconds 21 msec
