                         Program Version 5.0.4 -  RELEASE  -
|  1> ! ri-mp2 aug-cc-pvdz aug-cc-pvdz/c tightscf
|  2> %pal nprocs 16 end
|  3> %maxcore 3800
|  4> %base "DZ_P-O_26_AB"
|  5> %scf
|  6> STABPerform true
|  7> STABRestartUHFifUnstable true
|  8> end
|  9>
| 10> *xyz 0 1
| 11> O         0.771689    0.766131   -0.273746
| 12> P         2.220783    0.052590   -0.027872
| 13> O         3.103899    1.088019    0.469950
| 14> O         2.608843   -0.644426   -1.380573
| 15> O        -0.185391   -0.187772   -0.760734
| 16> C        -1.365005   -0.000411   -0.077126
| 17> Cl        -2.429121   -1.202239   -0.785572
| 18> Cl        -2.009509    1.627644   -0.298939
| 19> Cl        -1.176367   -0.309167    1.676628
| 20> H         3.219360   -0.115244   -1.907362
| 21> O         1.916067   -1.221089    0.832098
| 22> H         1.393039   -1.054080    1.626267
| 23> *
| 24>
| 25> $new_job
| 26> ! ri-mp2 aug-cc-pvtz aug-cc-pvtz/c tightscf
| 27> %pal nprocs 16 end
| 28> %maxcore 3800
| 29> %base "TZ_P-O_26_AB"
| 30>
| 31> *xyz 0 1
| 32> O         0.771689    0.766131   -0.273746
| 33> P         2.220783    0.052590   -0.027872
| 34> O         3.103899    1.088019    0.469950
| 35> O         2.608843   -0.644426   -1.380573
| 36> O        -0.185391   -0.187772   -0.760734
| 37> C        -1.365005   -0.000411   -0.077126
| 38> Cl        -2.429121   -1.202239   -0.785572
| 39> Cl        -2.009509    1.627644   -0.298939
| 40> Cl        -1.176367   -0.309167    1.676628
| 41> H         3.219360   -0.115244   -1.907362
| 42> O         1.916067   -1.221089    0.832098
| 43> H         1.393039   -1.054080    1.626267
| 44> *
| 45>
| 46> $new_job
| 47> ! ri-mp2 aug-cc-pvqz aug-cc-pvqz/c tightscf
| 48> %pal nprocs 16 end
| 49> %maxcore 3800
| 50> %base "QZ_P-O_26_AB"
| 51>
| 52> *xyz 0 1
| 53> O         0.771689    0.766131   -0.273746
| 54> P         2.220783    0.052590   -0.027872
| 55> O         3.103899    1.088019    0.469950
| 56> O         2.608843   -0.644426   -1.380573
| 57> O        -0.185391   -0.187772   -0.760734
| 58> C        -1.365005   -0.000411   -0.077126
| 59> Cl        -2.429121   -1.202239   -0.785572
| 60> Cl        -2.009509    1.627644   -0.298939
| 61> Cl        -1.176367   -0.309167    1.676628
| 62> H         3.219360   -0.115244   -1.907362
| 63> O         1.916067   -1.221089    0.832098
| 64> H         1.393039   -1.054080    1.626267
| 65> *
| 66>
| 67>
| 68>
| 69>
| 70>                          ****END OF INPUT****
 Total Charge           Charge          ....    0
 Multiplicity           Mult            ....    1
 Number of Electrons    NEL             ....  114
MP2 TOTAL ENERGY:    -2134.321124956 Eh
FINAL SINGLE POINT ENERGY     -2134.321124955854
MP2 TOTAL ENERGY:    -2134.933321319 Eh
FINAL SINGLE POINT ENERGY     -2134.933321318631

CARTESIAN COORDINATES (ANGSTROEM)
---------------------------------
  O      0.771689    0.766131   -0.273746
  P      2.220783    0.052590   -0.027872
  O      3.103899    1.088019    0.469950
  O      2.608843   -0.644426   -1.380573
  O     -0.185391   -0.187772   -0.760734
  C     -1.365005   -0.000411   -0.077126
  Cl    -2.429121   -1.202239   -0.785572
  Cl    -2.009509    1.627644   -0.298939
  Cl    -1.176367   -0.309167    1.676628
  H      3.219360   -0.115244   -1.907362
  O      1.916067   -1.221089    0.832098
  H      1.393039   -1.054080    1.626267

 Multiplicity           Mult            ....    1
 Number of Electrons    NEL             ....  114
 Basis Dimension        Dim             ....  908

ORBITAL ENERGIES
----------------

  NO   OCC          E(Eh)            E(eV)
   0   2.0000    -104.884907     -2854.0634
   1   2.0000    -104.884340     -2854.0480
   2   2.0000    -104.877193     -2853.8535
   3   2.0000     -80.120284     -2180.1838
   4   2.0000     -20.709050      -563.5219
   5   2.0000     -20.683137      -562.8168
   6   2.0000     -20.627177      -561.2940
   7   2.0000     -20.626554      -561.2771
   8   2.0000     -20.530493      -558.6631
   9   2.0000     -11.511605      -313.2467
  10   2.0000     -10.610774      -288.7338
  11   2.0000     -10.610349      -288.7223
  12   2.0000     -10.603096      -288.5249
  13   2.0000      -8.077797      -219.8080
  14   2.0000      -8.077293      -219.7943
  15   2.0000      -8.075670      -219.7502
  16   2.0000      -8.075636      -219.7492
  17   2.0000      -8.075405      -219.7429
  18   2.0000      -8.075347      -219.7414
  19   2.0000      -8.070099      -219.5985
  20   2.0000      -8.068014      -219.5418
  21   2.0000      -8.067999      -219.5414
  22   2.0000      -7.638915      -207.8654
  23   2.0000      -5.537890      -150.6936
  24   2.0000      -5.537446      -150.6816
  25   2.0000      -5.536196      -150.6476
  26   2.0000      -1.576100       -42.8879
  27   2.0000      -1.472198       -40.0606
  28   2.0000      -1.416500       -38.5449
  29   2.0000      -1.351162       -36.7670
  30   2.0000      -1.316020       -35.8107
  31   2.0000      -1.212974       -33.0067
  32   2.0000      -1.138789       -30.9880
  33   2.0000      -1.134152       -30.8618
  34   2.0000      -0.893125       -24.3032
  35   2.0000      -0.875935       -23.8354
  36   2.0000      -0.796650       -21.6779
  37   2.0000      -0.761338       -20.7170
  38   2.0000      -0.744305       -20.2536
  39   2.0000      -0.736791       -20.0491
  40   2.0000      -0.691869       -18.8267
  41   2.0000      -0.677591       -18.4382
  42   2.0000      -0.648302       -17.6412
  43   2.0000      -0.628274       -17.0962
  44   2.0000      -0.614872       -16.7315
  45   2.0000      -0.592302       -16.1174
  46   2.0000      -0.576947       -15.6995
  47   2.0000      -0.568296       -15.4641
  48   2.0000      -0.537134       -14.6162
  49   2.0000      -0.521914       -14.2020
  50   2.0000      -0.518647       -14.1131
  51   2.0000      -0.510282       -13.8855
  52   2.0000      -0.494036       -13.4434
  53   2.0000      -0.491229       -13.3670
  54   2.0000      -0.484006       -13.1705
  55   2.0000      -0.480234       -13.0678
  56   2.0000      -0.467366       -12.7177
  57   0.0000       0.024809         0.6751
  58   0.0000       0.032649         0.8884
  59   0.0000       0.044761         1.2180
  60   0.0000       0.051663         1.4058
  61   0.0000       0.064460         1.7540

MULLIKEN ATOMIC CHARGES
-----------------------
   0 O :   -0.541516
   1 P :    2.644474
   2 O :   -1.121795
   3 O :   -0.854854
   4 O :   -0.247100
   5 C :    0.718606
   6 Cl:   -0.160110
   7 Cl:   -0.147060
   8 Cl:   -0.184780
   9 H :    0.381368
  10 O :   -0.868304
  11 H :    0.381071
Sum of atomic charges:    0.0000000

LOEWDIN ATOMIC CHARGES
----------------------
   0 O :    0.249903
   1 P :   -1.047532
   2 O :    0.282388
   3 O :    1.095880
   4 O :    0.165615
   5 C :   -3.035381
   6 Cl:    1.001345
   7 Cl:    0.990772
   8 Cl:    1.006546
   9 H :   -0.850897
  10 O :    1.086998
  11 H :   -0.945637

  Mayer bond orders larger than 0.100000
B(  0-O ,  1-P ) :   0.5632 B(  0-O ,  2-O ) :  -0.1404 B(  0-O ,  4-O ) :   0.7397
B(  1-P ,  2-O ) :   1.3805 B(  1-P ,  3-O ) :   0.6828 B(  1-P , 10-O ) :   0.7139
B(  3-O ,  9-H ) :   0.9085 B(  4-O ,  5-C ) :   0.8472 B(  5-C ,  6-Cl) :   0.7371
B(  5-C ,  7-Cl) :   0.8456 B(  5-C ,  8-Cl) :   0.8466 B( 10-O , 11-H ) :   0.8711

MP2 TOTAL ENERGY:    -2135.135118920 Eh
FINAL SINGLE POINT ENERGY     -2135.135118919521

DIPOLE MOMENT
-------------
                                X             Y             Z
Electronic contribution:    -10.41890       0.73956       0.77369
Nuclear contribution   :      9.86498      -1.28526      -1.03574
                        -----------------------------------------
Total Dipole Moment    :     -0.55392      -0.54570      -0.26205
                        -----------------------------------------
Magnitude (a.u.)       :      0.82054
Magnitude (Debye)      :      2.08565

Rotational constants in cm-1:     0.042589     0.015229     0.014924
Rotational constants in MHz :  1276.795753   456.557094   447.400178

                             ****ORCA TERMINATED NORMALLY****
TOTAL RUN TIME: 0 days 1 hours 49 minutes 1 seconds 606 msec
