                         Program Version 5.0.4 -  RELEASE  -
|  1> ! ri-mp2 aug-cc-pvdz aug-cc-pvdz/c tightscf
|  2> %pal nprocs 16 end
|  3> %maxcore 3800
|  4> %base "DZ_P-Si_51_AB"
|  5>
|  6> *xyz 0 1
|  7> N         1.777361   -0.863193    0.680323
|  8> P         1.939638   -0.303774   -1.061182
|  9> Si         0.853106    1.672646   -0.801385
| 10> P        -1.939639   -0.303780    1.061182
| 11> N        -1.777357   -0.863201   -0.680322
| 12> O        -1.885421   -0.006188   -1.541800
| 13> O        -1.619024   -2.040227   -0.895004
| 14> O         1.885415   -0.006177    1.541798
| 15> O         1.619044   -2.040221    0.895007
| 16> Si        -0.853114    1.672643    0.801385
| 17> H         0.867744   -1.095606   -1.515427
| 18> H        -0.867743   -1.095609    1.515429
| 19> H         0.346403    1.988242   -2.152798
| 20> H         1.885377    2.660638   -0.427128
| 21> H        -1.885389    2.660631    0.427127
| 22> H        -0.346412    1.988241    2.152798
| 23> *
| 24>
| 25> $new_job
| 26> ! ri-mp2 aug-cc-pvtz aug-cc-pvtz/c tightscf
| 27> %pal nprocs 16 end
| 28> %maxcore 3800
| 29> %base "TZ_P-Si_51_AB"
| 30>
| 31> *xyz 0 1
| 32> N         1.777361   -0.863193    0.680323
| 33> P         1.939638   -0.303774   -1.061182
| 34> Si         0.853106    1.672646   -0.801385
| 35> P        -1.939639   -0.303780    1.061182
| 36> N        -1.777357   -0.863201   -0.680322
| 37> O        -1.885421   -0.006188   -1.541800
| 38> O        -1.619024   -2.040227   -0.895004
| 39> O         1.885415   -0.006177    1.541798
| 40> O         1.619044   -2.040221    0.895007
| 41> Si        -0.853114    1.672643    0.801385
| 42> H         0.867744   -1.095606   -1.515427
| 43> H        -0.867743   -1.095609    1.515429
| 44> H         0.346403    1.988242   -2.152798
| 45> H         1.885377    2.660638   -0.427128
| 46> H        -1.885389    2.660631    0.427127
| 47> H        -0.346412    1.988241    2.152798
| 48> *
| 49>
| 50> $new_job
| 51> ! ri-mp2 aug-cc-pvqz aug-cc-pvqz/c tightscf
| 52> %pal nprocs 16 end
| 53> %maxcore 3800
| 54> %base "QZ_P-Si_51_AB"
| 55>
| 56> *xyz 0 1
| 57> N         1.777361   -0.863193    0.680323
| 58> P         1.939638   -0.303774   -1.061182
| 59> Si         0.853106    1.672646   -0.801385
| 60> P        -1.939639   -0.303780    1.061182
| 61> N        -1.777357   -0.863201   -0.680322
| 62> O        -1.885421   -0.006188   -1.541800
| 63> O        -1.619024   -2.040227   -0.895004
| 64> O         1.885415   -0.006177    1.541798
| 65> O         1.619044   -2.040221    0.895007
| 66> Si        -0.853114    1.672643    0.801385
| 67> H         0.867744   -1.095606   -1.515427
| 68> H        -0.867743   -1.095609    1.515429
| 69> H         0.346403    1.988242   -2.152798
| 70> H         1.885377    2.660638   -0.427128
| 71> H        -1.885389    2.660631    0.427127
| 72> H        -0.346412    1.988241    2.152798
| 73> *
| 74>
| 75>
| 76>
| 77>
| 78>                          ****END OF INPUT****
 Total Charge           Charge          ....    0
 Multiplicity           Mult            ....    1
 Number of Electrons    NEL             ....  110
MP2 TOTAL ENERGY:    -1672.639962456 Eh
FINAL SINGLE POINT ENERGY     -1672.639962456130
MP2 TOTAL ENERGY:    -1673.122950230 Eh
FINAL SINGLE POINT ENERGY     -1673.122950229533

CARTESIAN COORDINATES (ANGSTROEM)
---------------------------------
  N      1.777361   -0.863193    0.680323
  P      1.939638   -0.303774   -1.061182
  Si     0.853106    1.672646   -0.801385
  P     -1.939639   -0.303780    1.061182
  N     -1.777357   -0.863201   -0.680322
  O     -1.885421   -0.006188   -1.541800
  O     -1.619024   -2.040227   -0.895004
  O      1.885415   -0.006177    1.541798
  O      1.619044   -2.040221    0.895007
  Si    -0.853114    1.672643    0.801385
  H      0.867744   -1.095606   -1.515427
  H     -0.867743   -1.095609    1.515429
  H      0.346403    1.988242   -2.152798
  H      1.885377    2.660638   -0.427128
  H     -1.885389    2.660631    0.427127
  H     -0.346412    1.988241    2.152798

 Multiplicity           Mult            ....    1
 Number of Electrons    NEL             ....  110
 Basis Dimension        Dim             .... 1092

ORBITAL ENERGIES
----------------

  NO   OCC          E(Eh)            E(eV)
   0   2.0000     -80.010733     -2177.2027
   1   2.0000     -80.010733     -2177.2027
   2   2.0000     -68.811329     -1872.4515
   3   2.0000     -68.811328     -1872.4514
   4   2.0000     -20.620786      -561.1201
   5   2.0000     -20.620786      -561.1201
   6   2.0000     -20.614938      -560.9610
   7   2.0000     -20.614938      -560.9610
   8   2.0000     -15.849805      -431.2951
   9   2.0000     -15.849805      -431.2951
  10   2.0000      -7.552518      -205.5145
  11   2.0000      -7.552518      -205.5145
  12   2.0000      -6.161157      -167.6536
  13   2.0000      -6.161011      -167.6496
  14   2.0000      -5.446249      -148.2000
  15   2.0000      -5.446249      -148.2000
  16   2.0000      -5.445008      -148.1662
  17   2.0000      -5.445008      -148.1662
  18   2.0000      -5.444476      -148.1517
  19   2.0000      -5.444475      -148.1517
  20   2.0000      -4.267467      -116.1237
  21   2.0000      -4.267298      -116.1191
  22   2.0000      -4.267024      -116.1116
  23   2.0000      -4.266766      -116.1046
  24   2.0000      -4.266712      -116.1031
  25   2.0000      -4.266408      -116.0949
  26   2.0000      -1.624337       -44.2005
  27   2.0000      -1.623917       -44.1890
  28   2.0000      -1.420776       -38.6613
  29   2.0000      -1.420483       -38.6533
  30   2.0000      -1.016955       -27.6727
  31   2.0000      -1.015267       -27.6268
  32   2.0000      -0.861520       -23.4431
  33   2.0000      -0.848306       -23.0836
  34   2.0000      -0.777880       -21.1672
  35   2.0000      -0.750796       -20.4302
  36   2.0000      -0.743909       -20.2428
  37   2.0000      -0.743242       -20.2246
  38   2.0000      -0.737142       -20.0586
  39   2.0000      -0.730310       -19.8727
  40   2.0000      -0.716343       -19.4927
  41   2.0000      -0.671869       -18.2825
  42   2.0000      -0.553412       -15.0591
  43   2.0000      -0.543227       -14.7820
  44   2.0000      -0.516588       -14.0571
  45   2.0000      -0.512009       -13.9325
  46   2.0000      -0.507679       -13.8146
  47   2.0000      -0.501201       -13.6384
  48   2.0000      -0.482156       -13.1201
  49   2.0000      -0.477621       -12.9967
  50   2.0000      -0.473049       -12.8723
  51   2.0000      -0.467492       -12.7211
  52   2.0000      -0.461835       -12.5672
  53   2.0000      -0.411974       -11.2104
  54   2.0000      -0.392614       -10.6836
  55   0.0000       0.021143         0.5753
  56   0.0000       0.023184         0.6309
  57   0.0000       0.031054         0.8450
  58   0.0000       0.037566         1.0222
  59   0.0000       0.042825         1.1653

MULLIKEN ATOMIC CHARGES
-----------------------
   0 N :    0.752574
   1 P :    0.357683
   2 Si:    0.922527
   3 P :    0.357682
   4 N :    0.752574
   5 O :   -0.661423
   6 O :   -0.615857
   7 O :   -0.661423
   8 O :   -0.615857
   9 Si:    0.922525
  10 H :   -0.034179
  11 H :   -0.034179
  12 H :   -0.299692
  13 H :   -0.421632
  14 H :   -0.421632
  15 H :   -0.299691
Sum of atomic charges:    0.0000000

LOEWDIN ATOMIC CHARGES
----------------------
   0 N :   -1.169214
   1 P :    0.993499
   2 Si:    0.453556
   3 P :    0.993499
   4 N :   -1.169214
   5 O :    0.420026
   6 O :    0.447037
   7 O :    0.420026
   8 O :    0.447037
   9 Si:    0.453556
  10 H :   -0.543073
  11 H :   -0.543072
  12 H :   -0.297862
  13 H :   -0.303970
  14 H :   -0.303970
  15 H :   -0.297862

  Mayer bond orders larger than 0.100000
B(  0-N ,  1-P ) :   0.5157 B(  0-N ,  7-O ) :   1.1803 B(  0-N ,  8-O ) :   1.2924
B(  1-P ,  2-Si) :   0.8288 B(  1-P , 10-H ) :   0.9428 B(  2-Si,  9-Si) :   0.8288
B(  2-Si, 12-H ) :   0.7602 B(  2-Si, 13-H ) :   0.6330 B(  3-P ,  4-N ) :   0.5157
B(  3-P ,  9-Si) :   0.8288 B(  3-P , 11-H ) :   0.9428 B(  4-N ,  5-O ) :   1.1803
B(  4-N ,  6-O ) :   1.2924 B(  5-O ,  6-O ) :   0.1378 B(  7-O ,  8-O ) :   0.1378
B(  9-Si, 14-H ) :   0.6330 B(  9-Si, 15-H ) :   0.7602

MP2 TOTAL ENERGY:    -1673.285686553 Eh
FINAL SINGLE POINT ENERGY     -1673.285686552699

DIPOLE MOMENT
-------------
                                X             Y             Z
Electronic contribution:      0.00001      -5.73764       0.00000
Nuclear contribution   :     -0.00002       7.07881       0.00000
                        -----------------------------------------
Total Dipole Moment    :     -0.00001       1.34117       0.00000
                        -----------------------------------------
Magnitude (a.u.)       :      1.34117
Magnitude (Debye)      :      3.40899

Rotational constants in cm-1:     0.029258     0.020972     0.018518
Rotational constants in MHz :   877.124636   628.719254   555.153328

                             ****ORCA TERMINATED NORMALLY****
TOTAL RUN TIME: 0 days 0 hours 30 minutes 57 seconds 644 msec
