                         Program Version 5.0.4 -  RELEASE  -
|  1> ! ri-mp2 aug-cc-pvdz aug-cc-pvdz/c tightscf
|  2> %pal nprocs 16 end
|  3> %maxcore 3800
|  4> %base "DZ_P-N_79_AB"
|  5> %scf
|  6> STABPerform true
|  7> STABRestartUHFifUnstable true
|  8> end
|  9>
| 10> *xyz 0 1
| 11> C         2.209297   -0.005537    0.003186
| 12> N         0.850111   -0.241119   -0.057472
| 13> C        -0.113074    0.742460    0.011706
| 14> N        -1.768361   -1.470247    0.186669
| 15> O         3.020203   -0.888754   -0.042257
| 16> H         2.454545    1.059031    0.095585
| 17> O         0.132262    1.914629    0.151516
| 18> H         0.539610   -1.200523   -0.146067
| 19> P        -1.867863    0.171339   -0.237839
| 20> H        -2.302519    0.776468    0.960972
| 21> H        -2.330304   -2.098930   -0.362652
| 22> H        -1.712696   -1.755111    1.151939
| 23> *
| 24>
| 25> $new_job
| 26> ! ri-mp2 aug-cc-pvtz aug-cc-pvtz/c tightscf
| 27> %pal nprocs 16 end
| 28> %maxcore 3800
| 29> %base "TZ_P-N_79_AB"
| 30>
| 31> *xyz 0 1
| 32> C         2.209297   -0.005537    0.003186
| 33> N         0.850111   -0.241119   -0.057472
| 34> C        -0.113074    0.742460    0.011706
| 35> N        -1.768361   -1.470247    0.186669
| 36> O         3.020203   -0.888754   -0.042257
| 37> H         2.454545    1.059031    0.095585
| 38> O         0.132262    1.914629    0.151516
| 39> H         0.539610   -1.200523   -0.146067
| 40> P        -1.867863    0.171339   -0.237839
| 41> H        -2.302519    0.776468    0.960972
| 42> H        -2.330304   -2.098930   -0.362652
| 43> H        -1.712696   -1.755111    1.151939
| 44> *
| 45>
| 46> $new_job
| 47> ! ri-mp2 aug-cc-pvqz aug-cc-pvqz/c tightscf
| 48> %pal nprocs 16 end
| 49> %maxcore 3800
| 50> %base "QZ_P-N_79_AB"
| 51>
| 52> *xyz 0 1
| 53> C         2.209297   -0.005537    0.003186
| 54> N         0.850111   -0.241119   -0.057472
| 55> C        -0.113074    0.742460    0.011706
| 56> N        -1.768361   -1.470247    0.186669
| 57> O         3.020203   -0.888754   -0.042257
| 58> H         2.454545    1.059031    0.095585
| 59> O         0.132262    1.914629    0.151516
| 60> H         0.539610   -1.200523   -0.146067
| 61> P        -1.867863    0.171339   -0.237839
| 62> H        -2.302519    0.776468    0.960972
| 63> H        -2.330304   -2.098930   -0.362652
| 64> H        -1.712696   -1.755111    1.151939
| 65> *
| 66>
| 67>
| 68>
| 69>
| 70>                          ****END OF INPUT****
 Total Charge           Charge          ....    0
 Multiplicity           Mult            ....    1
 Number of Electrons    NEL             ....   62
MP2 TOTAL ENERGY:     -679.209371582 Eh
FINAL SINGLE POINT ENERGY      -679.209371581646
MP2 TOTAL ENERGY:     -679.542798231 Eh
FINAL SINGLE POINT ENERGY      -679.542798231006

CARTESIAN COORDINATES (ANGSTROEM)
---------------------------------
  C      2.209297   -0.005537    0.003186
  N      0.850111   -0.241119   -0.057472
  C     -0.113074    0.742460    0.011706
  N     -1.768361   -1.470247    0.186669
  O      3.020203   -0.888754   -0.042257
  H      2.454545    1.059031    0.095585
  O      0.132262    1.914629    0.151516
  H      0.539610   -1.200523   -0.146067
  P     -1.867863    0.171339   -0.237839
  H     -2.302519    0.776468    0.960972
  H     -2.330304   -2.098930   -0.362652
  H     -1.712696   -1.755111    1.151939

 Multiplicity           Mult            ....    1
 Number of Electrons    NEL             ....   62
 Basis Dimension        Dim             ....  794

ORBITAL ENERGIES
----------------

  NO   OCC          E(Eh)            E(eV)
   0   2.0000     -79.992200     -2176.6984
   1   2.0000     -20.554448      -559.3150
   2   2.0000     -20.553039      -559.2766
   3   2.0000     -15.618563      -425.0027
   4   2.0000     -15.589062      -424.1999
   5   2.0000     -11.375677      -309.5479
   6   2.0000     -11.367718      -309.3313
   7   2.0000      -7.531455      -204.9413
   8   2.0000      -5.425543      -147.6365
   9   2.0000      -5.425091      -147.6242
  10   2.0000      -5.424570      -147.6101
  11   2.0000      -1.427857       -38.8540
  12   2.0000      -1.407035       -38.2874
  13   2.0000      -1.259730       -34.2790
  14   2.0000      -1.200976       -32.6802
  15   2.0000      -0.943487       -25.6736
  16   2.0000      -0.854142       -23.2424
  17   2.0000      -0.824028       -22.4230
  18   2.0000      -0.715115       -19.4593
  19   2.0000      -0.709786       -19.3143
  20   2.0000      -0.695144       -18.9158
  21   2.0000      -0.640397       -17.4261
  22   2.0000      -0.630676       -17.1616
  23   2.0000      -0.622239       -16.9320
  24   2.0000      -0.594742       -16.1838
  25   2.0000      -0.549941       -14.9646
  26   2.0000      -0.493854       -13.4384
  27   2.0000      -0.458049       -12.4641
  28   2.0000      -0.434998       -11.8369
  29   2.0000      -0.432083       -11.7576
  30   2.0000      -0.386139       -10.5074
  31   0.0000       0.013954         0.3797
  32   0.0000       0.031695         0.8625
  33   0.0000       0.036118         0.9828
  34   0.0000       0.038261         1.0411
  35   0.0000       0.050857         1.3839

MULLIKEN ATOMIC CHARGES
-----------------------
   0 C :    0.391626
   1 N :   -0.668333
   2 C :    0.673182
   3 N :   -0.804401
   4 O :   -0.761373
   5 H :    0.454066
   6 O :   -0.766048
   7 H :    0.355539
   8 P :    0.704500
   9 H :   -0.062799
  10 H :    0.239387
  11 H :    0.244653
Sum of atomic charges:    0.0000000

LOEWDIN ATOMIC CHARGES
----------------------
   0 C :   -0.431912
   1 N :    0.686880
   2 C :   -1.047985
   3 N :    1.000426
   4 O :    0.684627
   5 H :   -0.384327
   6 O :    0.612356
   7 H :   -0.609978
   8 P :    1.092991
   9 H :   -0.436053
  10 H :   -0.600050
  11 H :   -0.566976

  Mayer bond orders larger than 0.100000
B(  0-C ,  1-N ) :   1.1723 B(  0-C ,  4-O ) :   1.5728 B(  0-C ,  5-H ) :   0.8100
B(  1-N ,  2-C ) :   0.9861 B(  1-N ,  6-O ) :   0.1783 B(  1-N ,  7-H ) :   0.8845
B(  2-C ,  6-O ) :   1.3770 B(  2-C ,  8-P ) :   0.7968 B(  3-N ,  8-P ) :   0.8473
B(  3-N , 10-H ) :   1.0089 B(  3-N , 11-H ) :   0.9756 B(  8-P ,  9-H ) :   0.9427

MP2 TOTAL ENERGY:     -679.652936621 Eh
FINAL SINGLE POINT ENERGY      -679.652936620607

DIPOLE MOMENT
-------------
                                X             Y             Z
Electronic contribution:     -0.13855       2.29987      -1.49710
Nuclear contribution   :     -1.48223      -3.27466       1.87081
                        -----------------------------------------
Total Dipole Moment    :     -1.62078      -0.97480       0.37371
                        -----------------------------------------
Magnitude (a.u.)       :      1.92791
Magnitude (Debye)      :      4.90035

Rotational constants in cm-1:     0.134492     0.042955     0.033204
Rotational constants in MHz :  4031.954132  1287.749664   995.439115

                             ****ORCA TERMINATED NORMALLY****
TOTAL RUN TIME: 0 days 0 hours 54 minutes 11 seconds 567 msec
