                         Program Version 5.0.4 -  RELEASE  -
|  1> ! ri-mp2 aug-cc-pvdz aug-cc-pvdz/c tightscf
|  2> %pal nprocs 16 end
|  3> %maxcore 3800
|  4> %base "DZ_P-Cl_13_AB"
|  5>
|  6> *xyz 0 1
|  7> Cl        2.238744   -0.889387   -0.945737
|  8> P         1.373523   -0.284391    0.869233
|  9> C         1.331865    1.548437    0.592917
| 10> N         0.178545    1.830507   -0.238818
| 11> H        -0.106439    2.790050   -0.340784
| 12> C        -0.375329   -0.335140    0.432391
| 13> C        -1.257887   -1.395633    0.568532
| 14> H        -0.917984   -2.327303    1.002825
| 15> C        -2.983952   -0.056504   -0.413188
| 16> H        -4.009984    0.049678   -0.741042
| 17> C        -0.802552    0.872049   -0.133657
| 18> C        -2.566886   -1.259746    0.147243
| 19> H        -3.263291   -2.079425    0.253066
| 20> C        -2.120221    1.011093   -0.559894
| 21> H        -2.460310    1.938757   -1.001852
| 22> H         1.235489    1.999956    1.589172
| 23> H         2.260985    1.892855    0.143313
| 24> *
| 25>
| 26> $new_job
| 27> ! ri-mp2 aug-cc-pvtz aug-cc-pvtz/c tightscf
| 28> %pal nprocs 16 end
| 29> %maxcore 3800
| 30> %base "TZ_P-Cl_13_AB"
| 31>
| 32> *xyz 0 1
| 33> Cl        2.238744   -0.889387   -0.945737
| 34> P         1.373523   -0.284391    0.869233
| 35> C         1.331865    1.548437    0.592917
| 36> N         0.178545    1.830507   -0.238818
| 37> H        -0.106439    2.790050   -0.340784
| 38> C        -0.375329   -0.335140    0.432391
| 39> C        -1.257887   -1.395633    0.568532
| 40> H        -0.917984   -2.327303    1.002825
| 41> C        -2.983952   -0.056504   -0.413188
| 42> H        -4.009984    0.049678   -0.741042
| 43> C        -0.802552    0.872049   -0.133657
| 44> C        -2.566886   -1.259746    0.147243
| 45> H        -3.263291   -2.079425    0.253066
| 46> C        -2.120221    1.011093   -0.559894
| 47> H        -2.460310    1.938757   -1.001852
| 48> H         1.235489    1.999956    1.589172
| 49> H         2.260985    1.892855    0.143313
| 50> *
| 51>
| 52> $new_job
| 53> ! ri-mp2 aug-cc-pvqz aug-cc-pvqz/c tightscf
| 54> %pal nprocs 16 end
| 55> %maxcore 3800
| 56> %base "QZ_P-Cl_13_AB"
| 57>
| 58> *xyz 0 1
| 59> Cl        2.238744   -0.889387   -0.945737
| 60> P         1.373523   -0.284391    0.869233
| 61> C         1.331865    1.548437    0.592917
| 62> N         0.178545    1.830507   -0.238818
| 63> H        -0.106439    2.790050   -0.340784
| 64> C        -0.375329   -0.335140    0.432391
| 65> C        -1.257887   -1.395633    0.568532
| 66> H        -0.917984   -2.327303    1.002825
| 67> C        -2.983952   -0.056504   -0.413188
| 68> H        -4.009984    0.049678   -0.741042
| 69> C        -0.802552    0.872049   -0.133657
| 70> C        -2.566886   -1.259746    0.147243
| 71> H        -3.263291   -2.079425    0.253066
| 72> C        -2.120221    1.011093   -0.559894
| 73> H        -2.460310    1.938757   -1.001852
| 74> H         1.235489    1.999956    1.589172
| 75> H         2.260985    1.892855    0.143313
| 76> *
| 77>
| 78>
| 79>
| 80>
| 81>                          ****END OF INPUT****
 Total Charge           Charge          ....    0
 Multiplicity           Mult            ....    1
 Number of Electrons    NEL             ....   88
MP2 TOTAL ENERGY:    -1125.299081124 Eh
FINAL SINGLE POINT ENERGY     -1125.299081123774
MP2 TOTAL ENERGY:    -1125.687278495 Eh
FINAL SINGLE POINT ENERGY     -1125.687278494973

CARTESIAN COORDINATES (ANGSTROEM)
---------------------------------
  Cl     2.238744   -0.889387   -0.945737
  P      1.373523   -0.284391    0.869233
  C      1.331865    1.548437    0.592917
  N      0.178545    1.830507   -0.238818
  H     -0.106439    2.790050   -0.340784
  C     -0.375329   -0.335140    0.432391
  C     -1.257887   -1.395633    0.568532
  H     -0.917984   -2.327303    1.002825
  C     -2.983952   -0.056504   -0.413188
  H     -4.009984    0.049678   -0.741042
  C     -0.802552    0.872049   -0.133657
  C     -2.566886   -1.259746    0.147243
  H     -3.263291   -2.079425    0.253066
  C     -2.120221    1.011093   -0.559894
  H     -2.460310    1.938757   -1.001852
  H      1.235489    1.999956    1.589172
  H      2.260985    1.892855    0.143313

 Multiplicity           Mult            ....    1
 Number of Electrons    NEL             ....   88
 Basis Dimension        Dim             .... 1130

ORBITAL ENERGIES
----------------

  NO   OCC          E(Eh)            E(eV)
   0   2.0000    -104.812469     -2852.0923
   1   2.0000     -79.989504     -2176.6251
   2   2.0000     -15.581499      -423.9941
   3   2.0000     -11.291164      -307.2482
   4   2.0000     -11.276827      -306.8581
   5   2.0000     -11.250182      -306.1330
   6   2.0000     -11.249396      -306.1116
   7   2.0000     -11.233134      -305.6691
   8   2.0000     -11.230905      -305.6085
   9   2.0000     -11.226266      -305.4822
  10   2.0000     -10.538881      -286.7775
  11   2.0000      -8.005663      -217.8452
  12   2.0000      -8.004336      -217.8090
  13   2.0000      -8.004235      -217.8063
  14   2.0000      -7.526810      -204.8149
  15   2.0000      -5.420503      -147.4994
  16   2.0000      -5.419517      -147.4726
  17   2.0000      -5.418684      -147.4499
  18   2.0000      -1.274597       -34.6835
  19   2.0000      -1.149599       -31.2822
  20   2.0000      -1.092475       -29.7278
  21   2.0000      -1.033949       -28.1352
  22   2.0000      -1.012594       -27.5541
  23   2.0000      -0.957648       -26.0589
  24   2.0000      -0.855898       -23.2902
  25   2.0000      -0.816193       -22.2097
  26   2.0000      -0.769761       -20.9463
  27   2.0000      -0.717723       -19.5302
  28   2.0000      -0.671464       -18.2715
  29   2.0000      -0.650445       -17.6995
  30   2.0000      -0.644137       -17.5279
  31   2.0000      -0.610605       -16.6154
  32   2.0000      -0.602258       -16.3883
  33   2.0000      -0.555062       -15.1040
  34   2.0000      -0.535274       -14.5656
  35   2.0000      -0.521619       -14.1940
  36   2.0000      -0.512621       -13.9491
  37   2.0000      -0.491553       -13.3758
  38   2.0000      -0.471225       -12.8227
  39   2.0000      -0.445657       -12.1269
  40   2.0000      -0.430342       -11.7102
  41   2.0000      -0.372787       -10.1441
  42   2.0000      -0.347887        -9.4665
  43   2.0000      -0.301946        -8.2164
  44   0.0000       0.020142         0.5481
  45   0.0000       0.025825         0.7027
  46   0.0000       0.030084         0.8186
  47   0.0000       0.038830         1.0566
  48   0.0000       0.039454         1.0736

MULLIKEN ATOMIC CHARGES
-----------------------
   0 Cl:   -0.537090
   1 P :    0.798905
   2 C :   -0.559466
   3 N :   -0.649124
   4 H :    0.187852
   5 C :   -0.107091
   6 C :   -0.348257
   7 H :    0.341105
   8 C :   -0.358426
   9 H :    0.284106
  10 C :    0.734648
  11 C :   -0.407955
  12 H :    0.250901
  13 C :   -0.501701
  14 H :    0.256262
  15 H :    0.288934
  16 H :    0.326396
Sum of atomic charges:    0.0000000

LOEWDIN ATOMIC CHARGES
----------------------
   0 Cl:    0.725494
   1 P :    0.264020
   2 C :    0.150928
   3 N :    0.807108
   4 H :   -0.479449
   5 C :   -0.367933
   6 C :    0.252091
   7 H :   -0.328027
   8 C :    0.332809
   9 H :   -0.316324
  10 C :   -0.378408
  11 C :    0.336591
  12 H :   -0.330879
  13 C :    0.364624
  14 H :   -0.318430
  15 H :   -0.346526
  16 H :   -0.367690

  Mayer bond orders larger than 0.100000
B(  0-Cl,  1-P ) :   0.7189 B(  1-P ,  2-C ) :   0.8388 B(  1-P ,  5-C ) :   0.9938
B(  1-P ,  6-C ) :  -0.1246 B(  2-C ,  3-N ) :   0.9608 B(  2-C , 10-C ) :  -0.1550
B(  2-C , 15-H ) :   0.9302 B(  2-C , 16-H ) :   0.8905 B(  3-N ,  4-H ) :   1.0489
B(  3-N , 10-C ) :   0.5342 B(  5-C ,  6-C ) :   0.7742 B(  5-C ,  7-H ) :  -0.1278
B(  5-C , 10-C ) :   1.1729 B(  5-C , 11-C ) :  -0.3166 B(  5-C , 13-C ) :  -0.1921
B(  6-C ,  7-H ) :   0.9425 B(  6-C ,  8-C ) :   0.1051 B(  6-C , 10-C ) :  -0.1722
B(  6-C , 11-C ) :   1.3602 B(  6-C , 12-H ) :  -0.1276 B(  6-C , 13-C ) :   0.1515
B(  8-C ,  9-H ) :   1.0922 B(  8-C , 10-C ) :  -0.3313 B(  8-C , 11-C ) :   1.1714
B(  8-C , 13-C ) :   1.3839 B(  9-H , 11-C ) :  -0.1138 B(  9-H , 13-C ) :  -0.1433
B( 10-C , 13-C ) :   1.1136 B( 11-C , 12-H ) :   1.0990 B( 13-C , 14-H ) :   0.9820

MP2 TOTAL ENERGY:    -1125.812383008 Eh
FINAL SINGLE POINT ENERGY     -1125.812383008471

DIPOLE MOMENT
-------------
                                X             Y             Z
Electronic contribution:     10.55406      -4.54620      -0.95026
Nuclear contribution   :    -11.33945       5.60502       1.37606
                        -----------------------------------------
Total Dipole Moment    :     -0.78539       1.05882       0.42580
                        -----------------------------------------
Magnitude (a.u.)       :      1.38536
Magnitude (Debye)      :      3.52131

Rotational constants in cm-1:     0.060702     0.026158     0.021984
Rotational constants in MHz :  1819.803288   784.196231   659.052436

                             ****ORCA TERMINATED NORMALLY****
TOTAL RUN TIME: 0 days 0 hours 43 minutes 57 seconds 133 msec
