                         Program Version 5.0.4 -  RELEASE  -
|  1> ! ri-mp2 aug-cc-pvdz aug-cc-pvdz/c tightscf
|  2> %pal nprocs 16 end
|  3> %maxcore 3800
|  4> %base "DZ_P-C_4_AB"
|  5> %scf
|  6> STABPerform true
|  7> STABRestartUHFifUnstable true
|  8> end
|  9>
| 10> *xyz 0 1
| 11> C        -0.744825    0.632321   -0.134980
| 12> P         0.905178   -0.010032    0.091910
| 13> O         1.256169   -0.577345    1.396425
| 14> O         1.816481    1.229373   -0.334892
| 15> C        -1.833944   -0.404701    0.123280
| 16> C        -3.228145    0.185024   -0.018163
| 17> H        -3.387807    0.582993   -1.021887
| 18> H        -3.384038    1.000072    0.690711
| 19> H        -3.993811   -0.568273    0.167409
| 20> H        -0.812729    1.031915   -1.149393
| 21> H        -0.843343    1.477621    0.549632
| 22> H        -1.703722   -0.817532    1.125168
| 23> H        -1.711539   -1.235234   -0.574294
| 24> O         1.049351   -1.056894   -1.107568
| 25> H         1.515957   -1.853086   -0.828986
| 26> H         2.608844    1.295064    0.210444
| 27> *
| 28>
| 29> $new_job
| 30> ! ri-mp2 aug-cc-pvtz aug-cc-pvtz/c tightscf
| 31> %pal nprocs 16 end
| 32> %maxcore 3800
| 33> %base "TZ_P-C_4_AB"
| 34>
| 35> *xyz 0 1
| 36> C        -0.744825    0.632321   -0.134980
| 37> P         0.905178   -0.010032    0.091910
| 38> O         1.256169   -0.577345    1.396425
| 39> O         1.816481    1.229373   -0.334892
| 40> C        -1.833944   -0.404701    0.123280
| 41> C        -3.228145    0.185024   -0.018163
| 42> H        -3.387807    0.582993   -1.021887
| 43> H        -3.384038    1.000072    0.690711
| 44> H        -3.993811   -0.568273    0.167409
| 45> H        -0.812729    1.031915   -1.149393
| 46> H        -0.843343    1.477621    0.549632
| 47> H        -1.703722   -0.817532    1.125168
| 48> H        -1.711539   -1.235234   -0.574294
| 49> O         1.049351   -1.056894   -1.107568
| 50> H         1.515957   -1.853086   -0.828986
| 51> H         2.608844    1.295064    0.210444
| 52> *
| 53>
| 54> $new_job
| 55> ! ri-mp2 aug-cc-pvqz aug-cc-pvqz/c tightscf
| 56> %pal nprocs 16 end
| 57> %maxcore 3800
| 58> %base "QZ_P-C_4_AB"
| 59>
| 60> *xyz 0 1
| 61> C        -0.744825    0.632321   -0.134980
| 62> P         0.905178   -0.010032    0.091910
| 63> O         1.256169   -0.577345    1.396425
| 64> O         1.816481    1.229373   -0.334892
| 65> C        -1.833944   -0.404701    0.123280
| 66> C        -3.228145    0.185024   -0.018163
| 67> H        -3.387807    0.582993   -1.021887
| 68> H        -3.384038    1.000072    0.690711
| 69> H        -3.993811   -0.568273    0.167409
| 70> H        -0.812729    1.031915   -1.149393
| 71> H        -0.843343    1.477621    0.549632
| 72> H        -1.703722   -0.817532    1.125168
| 73> H        -1.711539   -1.235234   -0.574294
| 74> O         1.049351   -1.056894   -1.107568
| 75> H         1.515957   -1.853086   -0.828986
| 76> H         2.608844    1.295064    0.210444
| 77> *
| 78>
| 79>
| 80>
| 81>
| 82>                          ****END OF INPUT****
 Total Charge           Charge          ....    0
 Multiplicity           Mult            ....    1
 Number of Electrons    NEL             ....   66
MP2 TOTAL ENERGY:     -685.483169300 Eh
FINAL SINGLE POINT ENERGY      -685.483169300188
MP2 TOTAL ENERGY:     -685.868033593 Eh
FINAL SINGLE POINT ENERGY      -685.868033592641

CARTESIAN COORDINATES (ANGSTROEM)
---------------------------------
  C     -0.744825    0.632321   -0.134980
  P      0.905178   -0.010032    0.091910
  O      1.256169   -0.577345    1.396425
  O      1.816481    1.229373   -0.334892
  C     -1.833944   -0.404701    0.123280
  C     -3.228145    0.185024   -0.018163
  H     -3.387807    0.582993   -1.021887
  H     -3.384038    1.000072    0.690711
  H     -3.993811   -0.568273    0.167409
  H     -0.812729    1.031915   -1.149393
  H     -0.843343    1.477621    0.549632
  H     -1.703722   -0.817532    1.125168
  H     -1.711539   -1.235234   -0.574294
  O      1.049351   -1.056894   -1.107568
  H      1.515957   -1.853086   -0.828986
  H      2.608844    1.295064    0.210444

 Multiplicity           Mult            ....    1
 Number of Electrons    NEL             ....   66
 Basis Dimension        Dim             ....  978

ORBITAL ENERGIES
----------------

  NO   OCC          E(Eh)            E(eV)
   0   2.0000     -80.061837     -2178.5933
   1   2.0000     -20.594608      -560.4078
   2   2.0000     -20.593826      -560.3865
   3   2.0000     -20.501541      -557.8753
   4   2.0000     -11.237643      -305.7918
   5   2.0000     -11.233282      -305.6731
   6   2.0000     -11.219816      -305.3067
   7   2.0000      -7.585164      -206.4028
   8   2.0000      -5.483295      -149.2080
   9   2.0000      -5.482815      -149.1950
  10   2.0000      -5.481720      -149.1652
  11   2.0000      -1.432063       -38.9684
  12   2.0000      -1.382220       -37.6121
  13   2.0000      -1.293942       -35.2099
  14   2.0000      -1.081504       -29.4292
  15   2.0000      -0.966401       -26.2971
  16   2.0000      -0.850500       -23.1433
  17   2.0000      -0.805435       -21.9170
  18   2.0000      -0.738394       -20.0927
  19   2.0000      -0.677527       -18.4364
  20   2.0000      -0.653668       -17.7872
  21   2.0000      -0.644966       -17.5504
  22   2.0000      -0.630471       -17.1560
  23   2.0000      -0.586622       -15.9628
  24   2.0000      -0.566568       -15.4171
  25   2.0000      -0.561696       -15.2845
  26   2.0000      -0.547324       -14.8934
  27   2.0000      -0.530580       -14.4378
  28   2.0000      -0.497764       -13.5448
  29   2.0000      -0.493853       -13.4384
  30   2.0000      -0.487383       -13.2624
  31   2.0000      -0.462222       -12.5777
  32   2.0000      -0.447085       -12.1658
  33   0.0000       0.023977         0.6524
  34   0.0000       0.029916         0.8140
  35   0.0000       0.032636         0.8881
  36   0.0000       0.038202         1.0395
  37   0.0000       0.044245         1.2040

MULLIKEN ATOMIC CHARGES
-----------------------
   0 C :   -0.716032
   1 P :    2.503515
   2 O :   -1.212027
   3 O :   -0.988172
   4 C :   -0.333135
   5 C :   -0.856058
   6 H :    0.222071
   7 H :    0.224330
   8 H :    0.271725
   9 H :    0.288137
  10 H :    0.279575
  11 H :    0.255094
  12 H :    0.242916
  13 O :   -0.942659
  14 H :    0.385762
  15 H :    0.374960
Sum of atomic charges:   -0.0000000

LOEWDIN ATOMIC CHARGES
----------------------
   0 C :    0.460867
   1 P :   -0.619644
   2 O :    0.326956
   3 O :    1.110112
   4 C :    0.457747
   5 C :    0.928229
   6 H :   -0.282940
   7 H :   -0.283198
   8 H :   -0.280533
   9 H :   -0.316321
  10 H :   -0.321873
  11 H :   -0.282623
  12 H :   -0.284192
  13 O :    1.115737
  14 H :   -0.863240
  15 H :   -0.865083

  Mayer bond orders larger than 0.100000
B(  0-C ,  1-P ) :   1.0034 B(  0-C ,  3-O ) :  -0.1051 B(  0-C ,  4-C ) :   0.8386
B(  0-C ,  9-H ) :   0.8821 B(  0-C , 10-H ) :   0.8965 B(  0-C , 13-O ) :  -0.1009
B(  1-P ,  2-O ) :   1.2839 B(  1-P ,  3-O ) :   0.5356 B(  1-P , 13-O ) :   0.6094
B(  2-O , 14-H ) :  -0.1017 B(  3-O , 15-H ) :   0.9278 B(  4-C ,  5-C ) :   0.9708
B(  4-C , 11-H ) :   0.8682 B(  4-C , 12-H ) :   0.8774 B(  5-C ,  6-H ) :   0.9588
B(  5-C ,  7-H ) :   0.9535 B(  5-C ,  8-H ) :   0.9952 B( 13-O , 14-H ) :   0.9260

MP2 TOTAL ENERGY:     -685.990549414 Eh
FINAL SINGLE POINT ENERGY      -685.990549413755

DIPOLE MOMENT
-------------
                                X             Y             Z
Electronic contribution:     12.28481      -0.73858       0.33745
Nuclear contribution   :    -12.49686       0.91580      -0.91854
                        -----------------------------------------
Total Dipole Moment    :     -0.21205       0.17722      -0.58109
                        -----------------------------------------
Magnitude (a.u.)       :      0.64346
Magnitude (Debye)      :      1.63555

Rotational constants in cm-1:     0.134119     0.041492     0.040650
Rotational constants in MHz :  4020.780760  1243.889031  1218.670634

                             ****ORCA TERMINATED NORMALLY****
TOTAL RUN TIME: 0 days 2 hours 23 minutes 15 seconds 409 msec
