                         Program Version 5.0.4 -  RELEASE  -
|  1> ! ri-mp2 aug-cc-pvdz aug-cc-pvdz/c tightscf
|  2> %pal nprocs 16 end
|  3> %maxcore 3800
|  4> %base "DZ_Si-Cl_23_A"
|  5> %scf
|  6> STABPerform true
|  7> STABRestartUHFifUnstable true
|  8> end
|  9>
| 10> *xyz 0 2
| 11> Si         1.095589   -0.000001   -0.090401
| 12> C        -0.706675    0.000004    0.030193
| 13> C        -1.909861   -0.000001    0.012112
| 14> H        -2.974066   -0.000003    0.007273
| 15> H         1.667516   -1.225791    0.502254
| 16> H         1.667524    1.225786    0.502255
| 17> *
| 18>
| 19> $new_job
| 20> ! ri-mp2 aug-cc-pvtz aug-cc-pvtz/c tightscf
| 21> %pal nprocs 16 end
| 22> %maxcore 3800
| 23> %base "TZ_Si-Cl_23_A"
| 24>
| 25> *xyz 0 2
| 26> Si         1.095589   -0.000001   -0.090401
| 27> C        -0.706675    0.000004    0.030193
| 28> C        -1.909861   -0.000001    0.012112
| 29> H        -2.974066   -0.000003    0.007273
| 30> H         1.667516   -1.225791    0.502254
| 31> H         1.667524    1.225786    0.502255
| 32> *
| 33>
| 34> $new_job
| 35> ! ri-mp2 aug-cc-pvqz aug-cc-pvqz/c tightscf
| 36> %pal nprocs 16 end
| 37> %maxcore 3800
| 38> %base "QZ_Si-Cl_23_A"
| 39>
| 40> *xyz 0 2
| 41> Si         1.095589   -0.000001   -0.090401
| 42> C        -0.706675    0.000004    0.030193
| 43> C        -1.909861   -0.000001    0.012112
| 44> H        -2.974066   -0.000003    0.007273
| 45> H         1.667516   -1.225791    0.502254
| 46> H         1.667524    1.225786    0.502255
| 47> *
| 48>
| 49>
| 50>
| 51>
| 52>                          ****END OF INPUT****
 Total Charge           Charge          ....    0
 Multiplicity           Mult            ....    2
 Number of Electrons    NEL             ....   29
MP2 TOTAL ENERGY:     -366.659431256 Eh
FINAL SINGLE POINT ENERGY      -366.659431256345
MP2 TOTAL ENERGY:     -366.761201351 Eh
FINAL SINGLE POINT ENERGY      -366.761201350773

CARTESIAN COORDINATES (ANGSTROEM)
---------------------------------
  Si     1.095589   -0.000001   -0.090401
  C     -0.706675    0.000004    0.030193
  C     -1.909861   -0.000001    0.012112
  H     -2.974066   -0.000003    0.007273
  H      1.667516   -1.225791    0.502254
  H      1.667524    1.225786    0.502255

 Multiplicity           Mult            ....    2
 Number of Electrons    NEL             ....   29
 Basis Dimension        Dim             ....  382

ORBITAL ENERGIES
----------------
                 SPIN UP ORBITALS
  NO   OCC          E(Eh)            E(eV)
   0   1.0000     -68.795380     -1872.0175
   1   1.0000     -11.250506      -306.1418
   2   1.0000     -11.219096      -305.2871
   3   1.0000      -6.145227      -167.2201
   4   1.0000      -4.258116      -115.8692
   5   1.0000      -4.248759      -115.6146
   6   1.0000      -4.248013      -115.5943
   7   1.0000      -1.037667       -28.2364
   8   1.0000      -0.786080       -21.3903
   9   1.0000      -0.716214       -19.4892
  10   1.0000      -0.554024       -15.0758
  11   1.0000      -0.507215       -13.8020
  12   1.0000      -0.439759       -11.9664
  13   1.0000      -0.412429       -11.2228
  14   1.0000      -0.329940        -8.9781
  15   0.0000       0.023510         0.6398
  16   0.0000       0.033549         0.9129
  17   0.0000       0.039038         1.0623
  18   0.0000       0.041583         1.1315
  19   0.0000       0.047320         1.2876

                 SPIN DOWN ORBITALS
  NO   OCC          E(Eh)            E(eV)
   0   1.0000     -68.789366     -1871.8538
   1   1.0000     -11.239750      -305.8491
   2   1.0000     -11.227779      -305.5234
   3   1.0000      -6.135993      -166.9689
   4   1.0000      -4.244201      -115.4906
   5   1.0000      -4.243921      -115.4830
   6   1.0000      -4.235667      -115.2584
   7   1.0000      -1.030269       -28.0350
   8   1.0000      -0.765357       -20.8264
   9   1.0000      -0.696529       -18.9535
  10   1.0000      -0.552230       -15.0270
  11   1.0000      -0.502798       -13.6818
  12   1.0000      -0.417160       -11.3515
  13   1.0000      -0.407906       -11.0997
  14   0.0000       0.022563         0.6140
  15   0.0000       0.026297         0.7156
  16   0.0000       0.035385         0.9629
  17   0.0000       0.039072         1.0632
  18   0.0000       0.047331         1.2879

MULLIKEN ATOMIC CHARGES AND SPIN POPULATIONS
--------------------------------------------
   0 Si:    0.929936    0.937935
   1 C :   -0.692188   -0.473465
   2 C :   -0.374867    0.548613
   3 H :    0.522430   -0.027115
   4 H :   -0.192655    0.007016
   5 H :   -0.192656    0.007016
Sum of atomic charges         :   -0.0000000

LOEWDIN ATOMIC CHARGES AND SPIN POPULATIONS
-------------------------------------------
   0 Si:    0.938785    0.459804
   1 C :   -0.159059    0.062229
   2 C :    0.421770    0.147639
   3 H :   -0.458943    0.080460
   4 H :   -0.371277    0.124934
   5 H :   -0.371276    0.124934

  Mayer bond orders larger than 0.100000
B(  0-Si,  1-C ) :   0.9288 B(  0-Si,  2-C ) :  -0.1751 B(  0-Si,  4-H ) :   0.8785
B(  0-Si,  5-H ) :   0.8785 B(  1-C ,  2-C ) :   2.2485 B(  2-C ,  3-H ) :   0.7378

MP2 TOTAL ENERGY:     -366.793209854 Eh
FINAL SINGLE POINT ENERGY      -366.793209853947

DIPOLE MOMENT
-------------
                                X             Y             Z
Electronic contribution:     -0.51145       0.00000      -1.00104
Nuclear contribution   :      0.29090      -0.00001       1.00495
                        -----------------------------------------
Total Dipole Moment    :     -0.22056      -0.00000       0.00390
                        -----------------------------------------
Magnitude (a.u.)       :      0.22059
Magnitude (Debye)      :      0.56070

Rotational constants in cm-1:     4.515432     0.170670     0.166745
Rotational constants in MHz : 135369.246339  5116.549556  4998.883770

                             ****ORCA TERMINATED NORMALLY****
TOTAL RUN TIME: 0 days 0 hours 10 minutes 52 seconds 807 msec
