                         Program Version 5.0.4 -  RELEASE  -
|  1> ! ri-mp2 aug-cc-pvdz aug-cc-pvdz/c tightscf
|  2> %pal nprocs 16 end
|  3> %maxcore 3800
|  4> %base "DZ_B-Cl_61_AB"
|  5>
|  6> *xyz 0 1
|  7> Cl         2.692138   -1.105431    0.436660
|  8> Cl         1.890994    1.591100   -0.521911
|  9> B         1.390504   -0.006808   -0.018833
| 10> C        -0.067863   -0.509375   -0.017918
| 11> C        -1.196518    0.329387    0.080077
| 12> C        -2.479850   -0.198380   -0.001502
| 13> H        -3.343161    0.443493    0.075973
| 14> C        -2.658918   -1.558787   -0.176098
| 15> C        -0.300692   -1.879172   -0.169664
| 16> H         0.551026   -2.541764   -0.230672
| 17> C        -1.572342   -2.409245   -0.259417
| 18> H        -1.713342   -3.472858   -0.389709
| 19> H        -3.664686   -1.953507   -0.240196
| 20> O        -0.967205    1.639410    0.284642
| 21> C        -2.055429    2.533005    0.361235
| 22> H        -1.621151    3.519211    0.497480
| 23> H        -2.701749    2.301806    1.211188
| 24> H        -2.645380    2.521410   -0.558041
| 25> *
| 26>
| 27> $new_job
| 28> ! ri-mp2 aug-cc-pvtz aug-cc-pvtz/c tightscf
| 29> %pal nprocs 16 end
| 30> %maxcore 3800
| 31> %base "TZ_B-Cl_61_AB"
| 32>
| 33> *xyz 0 1
| 34> Cl         2.692138   -1.105431    0.436660
| 35> Cl         1.890994    1.591100   -0.521911
| 36> B         1.390504   -0.006808   -0.018833
| 37> C        -0.067863   -0.509375   -0.017918
| 38> C        -1.196518    0.329387    0.080077
| 39> C        -2.479850   -0.198380   -0.001502
| 40> H        -3.343161    0.443493    0.075973
| 41> C        -2.658918   -1.558787   -0.176098
| 42> C        -0.300692   -1.879172   -0.169664
| 43> H         0.551026   -2.541764   -0.230672
| 44> C        -1.572342   -2.409245   -0.259417
| 45> H        -1.713342   -3.472858   -0.389709
| 46> H        -3.664686   -1.953507   -0.240196
| 47> O        -0.967205    1.639410    0.284642
| 48> C        -2.055429    2.533005    0.361235
| 49> H        -1.621151    3.519211    0.497480
| 50> H        -2.701749    2.301806    1.211188
| 51> H        -2.645380    2.521410   -0.558041
| 52> *
| 53>
| 54> $new_job
| 55> ! ri-mp2 aug-cc-pvqz aug-cc-pvqz/c tightscf
| 56> %pal nprocs 16 end
| 57> %maxcore 3800
| 58> %base "QZ_B-Cl_61_AB"
| 59>
| 60> *xyz 0 1
| 61> Cl         2.692138   -1.105431    0.436660
| 62> Cl         1.890994    1.591100   -0.521911
| 63> B         1.390504   -0.006808   -0.018833
| 64> C        -0.067863   -0.509375   -0.017918
| 65> C        -1.196518    0.329387    0.080077
| 66> C        -2.479850   -0.198380   -0.001502
| 67> H        -3.343161    0.443493    0.075973
| 68> C        -2.658918   -1.558787   -0.176098
| 69> C        -0.300692   -1.879172   -0.169664
| 70> H         0.551026   -2.541764   -0.230672
| 71> C        -1.572342   -2.409245   -0.259417
| 72> H        -1.713342   -3.472858   -0.389709
| 73> H        -3.664686   -1.953507   -0.240196
| 74> O        -0.967205    1.639410    0.284642
| 75> C        -2.055429    2.533005    0.361235
| 76> H        -1.621151    3.519211    0.497480
| 77> H        -2.701749    2.301806    1.211188
| 78> H        -2.645380    2.521410   -0.558041
| 79> *
| 80>
| 81>
| 82>
| 83>
| 84>                          ****END OF INPUT****
 Total Charge           Charge          ....    0
 Multiplicity           Mult            ....    1
 Number of Electrons    NEL             ....   96
MP2 TOTAL ENERGY:    -1289.359198231 Eh
FINAL SINGLE POINT ENERGY     -1289.359198231193
MP2 TOTAL ENERGY:    -1289.800496611 Eh
FINAL SINGLE POINT ENERGY     -1289.800496611350

CARTESIAN COORDINATES (ANGSTROEM)
---------------------------------
  Cl     2.692138   -1.105431    0.436660
  Cl     1.890994    1.591100   -0.521911
  B      1.390504   -0.006808   -0.018833
  C     -0.067863   -0.509375   -0.017918
  C     -1.196518    0.329387    0.080077
  C     -2.479850   -0.198380   -0.001502
  H     -3.343161    0.443493    0.075973
  C     -2.658918   -1.558787   -0.176098
  C     -0.300692   -1.879172   -0.169664
  H      0.551026   -2.541764   -0.230672
  C     -1.572342   -2.409245   -0.259417
  H     -1.713342   -3.472858   -0.389709
  H     -3.664686   -1.953507   -0.240196
  O     -0.967205    1.639410    0.284642
  C     -2.055429    2.533005    0.361235
  H     -1.621151    3.519211    0.497480
  H     -2.701749    2.301806    1.211188
  H     -2.645380    2.521410   -0.558041

 Multiplicity           Mult            ....    1
 Number of Electrons    NEL             ....   96
 Basis Dimension        Dim             .... 1210

ORBITAL ENERGIES
----------------

  NO   OCC          E(Eh)            E(eV)
   0   2.0000    -104.827273     -2852.4951
   1   2.0000    -104.824037     -2852.4071
   2   2.0000     -20.593402      -560.3750
   3   2.0000     -11.320969      -308.0592
   4   2.0000     -11.291716      -307.2632
   5   2.0000     -11.256607      -306.3078
   6   2.0000     -11.252585      -306.1984
   7   2.0000     -11.236538      -305.7617
   8   2.0000     -11.230776      -305.6050
   9   2.0000     -11.225865      -305.4713
  10   2.0000     -10.555289      -287.2240
  11   2.0000     -10.552074      -287.1365
  12   2.0000      -8.022105      -218.2926
  13   2.0000      -8.021069      -218.2644
  14   2.0000      -8.020853      -218.2585
  15   2.0000      -8.018901      -218.2054
  16   2.0000      -8.017846      -218.1767
  17   2.0000      -8.017582      -218.1695
  18   2.0000      -7.699177      -209.5052
  19   2.0000      -1.431313       -38.9480
  20   2.0000      -1.166633       -31.7457
  21   2.0000      -1.130732       -30.7688
  22   2.0000      -1.084765       -29.5180
  23   2.0000      -1.038374       -28.2556
  24   2.0000      -1.030403       -28.0387
  25   2.0000      -0.956073       -26.0161
  26   2.0000      -0.853181       -23.2162
  27   2.0000      -0.822042       -22.3689
  28   2.0000      -0.743070       -20.2200
  29   2.0000      -0.694003       -18.8848
  30   2.0000      -0.682454       -18.5705
  31   2.0000      -0.670171       -18.2363
  32   2.0000      -0.650840       -17.7102
  33   2.0000      -0.627224       -17.0676
  34   2.0000      -0.601755       -16.3746
  35   2.0000      -0.584316       -15.9001
  36   2.0000      -0.557773       -15.1778
  37   2.0000      -0.541039       -14.7224
  38   2.0000      -0.535063       -14.5598
  39   2.0000      -0.524420       -14.2702
  40   2.0000      -0.506267       -13.7762
  41   2.0000      -0.499290       -13.5864
  42   2.0000      -0.481421       -13.1001
  43   2.0000      -0.452755       -12.3201
  44   2.0000      -0.451345       -12.2817
  45   2.0000      -0.432880       -11.7793
  46   2.0000      -0.357575        -9.7301
  47   2.0000      -0.326614        -8.8876
  48   0.0000       0.018742         0.5100
  49   0.0000       0.025868         0.7039
  50   0.0000       0.031219         0.8495
  51   0.0000       0.035521         0.9666
  52   0.0000       0.040654         1.1063

MULLIKEN ATOMIC CHARGES
-----------------------
   0 Cl:   -0.319944
   1 Cl:   -0.272883
   2 B :    0.808731
   3 C :   -0.092192
   4 C :    1.222560
   5 C :   -0.482049
   6 H :    0.262372
   7 C :   -0.408089
   8 C :   -0.671920
   9 H :    0.273449
  10 C :   -0.328952
  11 H :    0.241921
  12 H :    0.283828
  13 O :   -0.852795
  14 C :   -0.641042
  15 H :    0.425744
  16 H :    0.261931
  17 H :    0.289331
Sum of atomic charges:    0.0000000

LOEWDIN ATOMIC CHARGES
----------------------
   0 Cl:    1.290719
   1 Cl:    1.285872
   2 B :   -2.326974
   3 C :   -0.162264
   4 C :   -0.514640
   5 C :    0.334064
   6 H :   -0.367068
   7 C :    0.350982
   8 C :    0.245791
   9 H :   -0.388708
  10 C :    0.359491
  11 H :   -0.323598
  12 H :   -0.308080
  13 O :    0.855274
  14 C :    0.584911
  15 H :   -0.311601
  16 H :   -0.302259
  17 H :   -0.301912

  Mayer bond orders larger than 0.100000
B(  0-Cl,  2-B ) :   0.8381 B(  0-Cl,  3-C ) :   0.1697 B(  1-Cl,  2-B ) :   0.9506
B(  2-B ,  3-C ) :   1.1519 B(  3-C ,  4-C ) :   0.9016 B(  3-C ,  5-C ) :  -0.2993
B(  3-C ,  8-C ) :   0.9850 B(  3-C ,  9-H ) :  -0.1173 B(  3-C , 10-C ) :  -0.2849
B(  3-C , 13-O ) :   0.2214 B(  4-C ,  5-C ) :   1.3525 B(  4-C ,  7-C ) :  -0.1260
B(  4-C ,  8-C ) :  -0.1836 B(  4-C , 14-C ) :  -0.1539 B(  5-C ,  6-H ) :   1.0221
B(  5-C ,  7-C ) :   0.9882 B(  5-C ,  8-C ) :   0.1027 B(  5-C , 10-C ) :  -0.1285
B(  5-C , 12-H ) :  -0.1526 B(  5-C , 13-O ) :   0.1633 B(  7-C ,  8-C ) :   0.1698
B(  7-C , 10-C ) :   1.1799 B(  7-C , 11-H ) :  -0.1326 B(  7-C , 12-H ) :   1.0914
B(  8-C ,  9-H ) :   1.0612 B(  8-C , 10-C ) :   1.2258 B(  8-C , 11-H ) :  -0.1486
B( 10-C , 11-H ) :   1.1449 B( 13-O , 14-C ) :   0.9353 B( 14-C , 15-H ) :   0.8220
B( 14-C , 16-H ) :   0.9194 B( 14-C , 17-H ) :   0.8920

MP2 TOTAL ENERGY:    -1289.943980546 Eh
FINAL SINGLE POINT ENERGY     -1289.943980545940

DIPOLE MOMENT
-------------
                                X             Y             Z
Electronic contribution:     20.22913      -0.09127      -0.46453
Nuclear contribution   :    -21.79702       0.14731       0.48466
                        -----------------------------------------
Total Dipole Moment    :     -1.56789       0.05603       0.02013
                        -----------------------------------------
Magnitude (a.u.)       :      1.56902
Magnitude (Debye)      :      3.98812

Rotational constants in cm-1:     0.035926     0.022692     0.014458
Rotational constants in MHz :  1077.022115   680.297924   433.437161

                             ****ORCA TERMINATED NORMALLY****
TOTAL RUN TIME: 0 days 0 hours 55 minutes 30 seconds 17 msec
