                         Program Version 5.0.4 -  RELEASE  -
|  1> ! ri-mp2 aug-cc-pvdz aug-cc-pvdz/c tightscf
|  2> %pal nprocs 16 end
|  3> %maxcore 3800
|  4> %base "DZ_Si-Cl_88_AB"
|  5> %scf
|  6> STABPerform true
|  7> STABRestartUHFifUnstable true
|  8> end
|  9>
| 10> *xyz 0 1
| 11> Si         0.927234    0.000000   -0.633596
| 12> C        -0.863010    0.000000    0.018717
| 13> Cl         1.870782   -1.661436    0.044709
| 14> Cl         1.870782    1.661436    0.044709
| 15> Cl        -0.914321    0.000000    1.784471
| 16> Cl        -1.668899   -1.449969   -0.617721
| 17> Cl        -1.668899    1.449969   -0.617721
| 18> H         0.876218    0.000000   -2.095549
| 19> *
| 20>
| 21> $new_job
| 22> ! ri-mp2 aug-cc-pvtz aug-cc-pvtz/c tightscf
| 23> %pal nprocs 16 end
| 24> %maxcore 3800
| 25> %base "TZ_Si-Cl_88_AB"
| 26>
| 27> *xyz 0 1
| 28> Si         0.927234    0.000000   -0.633596
| 29> C        -0.863010    0.000000    0.018717
| 30> Cl         1.870782   -1.661436    0.044709
| 31> Cl         1.870782    1.661436    0.044709
| 32> Cl        -0.914321    0.000000    1.784471
| 33> Cl        -1.668899   -1.449969   -0.617721
| 34> Cl        -1.668899    1.449969   -0.617721
| 35> H         0.876218    0.000000   -2.095549
| 36> *
| 37>
| 38> $new_job
| 39> ! ri-mp2 aug-cc-pvqz aug-cc-pvqz/c tightscf
| 40> %pal nprocs 16 end
| 41> %maxcore 3800
| 42> %base "QZ_Si-Cl_88_AB"
| 43>
| 44> *xyz 0 1
| 45> Si         0.927234    0.000000   -0.633596
| 46> C        -0.863010    0.000000    0.018717
| 47> Cl         1.870782   -1.661436    0.044709
| 48> Cl         1.870782    1.661436    0.044709
| 49> Cl        -0.914321    0.000000    1.784471
| 50> Cl        -1.668899   -1.449969   -0.617721
| 51> Cl        -1.668899    1.449969   -0.617721
| 52> H         0.876218    0.000000   -2.095549
| 53> *
| 54>
| 55>
| 56>
| 57>
| 58>                          ****END OF INPUT****
 Total Charge           Charge          ....    0
 Multiplicity           Mult            ....    1
 Number of Electrons    NEL             ....  106
MP2 TOTAL ENERGY:    -2625.979922593 Eh
FINAL SINGLE POINT ENERGY     -2625.979922592826
MP2 TOTAL ENERGY:    -2626.354790410 Eh
FINAL SINGLE POINT ENERGY     -2626.354790409870

CARTESIAN COORDINATES (ANGSTROEM)
---------------------------------
  Si     0.927234    0.000000   -0.633596
  C     -0.863010    0.000000    0.018717
  Cl     1.870782   -1.661436    0.044709
  Cl     1.870782    1.661436    0.044709
  Cl    -0.914321    0.000000    1.784471
  Cl    -1.668899   -1.449969   -0.617721
  Cl    -1.668899    1.449969   -0.617721
  H      0.876218    0.000000   -2.095549

 Multiplicity           Mult            ....    1
 Number of Electrons    NEL             ....  106
 Basis Dimension        Dim             ....  630

ORBITAL ENERGIES
----------------

  NO   OCC          E(Eh)            E(eV)
   0   2.0000    -104.871887     -2853.7091
   1   2.0000    -104.871886     -2853.7091
   2   2.0000    -104.870500     -2853.6714
   3   2.0000    -104.854408     -2853.2335
   4   2.0000    -104.854407     -2853.2335
   5   2.0000     -68.885317     -1874.4648
   6   2.0000     -11.428145      -310.9756
   7   2.0000     -10.597552      -288.3740
   8   2.0000     -10.597543      -288.3738
   9   2.0000     -10.596150      -288.3359
  10   2.0000     -10.582020      -287.9514
  11   2.0000     -10.582015      -287.9513
  12   2.0000      -8.064507      -219.4464
  13   2.0000      -8.064505      -219.4463
  14   2.0000      -8.063143      -219.4093
  15   2.0000      -8.062555      -219.3933
  16   2.0000      -8.062554      -219.3933
  17   2.0000      -8.062528      -219.3926
  18   2.0000      -8.062528      -219.3925
  19   2.0000      -8.061156      -219.3552
  20   2.0000      -8.061117      -219.3542
  21   2.0000      -8.048806      -219.0192
  22   2.0000      -8.048805      -219.0191
  23   2.0000      -8.047597      -218.9863
  24   2.0000      -8.047597      -218.9862
  25   2.0000      -8.047575      -218.9856
  26   2.0000      -8.047574      -218.9856
  27   2.0000      -6.225652      -169.4086
  28   2.0000      -4.332914      -117.9046
  29   2.0000      -4.332151      -117.8838
  30   2.0000      -4.331426      -117.8641
  31   2.0000      -1.247171       -33.9373
  32   2.0000      -1.141686       -31.0669
  33   2.0000      -1.123289       -30.5662
  34   2.0000      -1.121460       -30.5165
  35   2.0000      -1.111058       -30.2334
  36   2.0000      -0.867277       -23.5998
  37   2.0000      -0.731624       -19.9085
  38   2.0000      -0.639441       -17.4001
  39   2.0000      -0.637115       -17.3368
  40   2.0000      -0.627706       -17.0807
  41   2.0000      -0.575351       -15.6561
  42   2.0000      -0.570547       -15.5254
  43   2.0000      -0.515894       -14.0382
  44   2.0000      -0.513949       -13.9853
  45   2.0000      -0.507529       -13.8106
  46   2.0000      -0.497540       -13.5387
  47   2.0000      -0.485352       -13.2071
  48   2.0000      -0.483366       -13.1531
  49   2.0000      -0.471799       -12.8383
  50   2.0000      -0.464627       -12.6432
  51   2.0000      -0.456965       -12.4346
  52   2.0000      -0.437482       -11.9045
  53   0.0000       0.030337         0.8255
  54   0.0000       0.038191         1.0392
  55   0.0000       0.040039         1.0895
  56   0.0000       0.042171         1.1475
  57   0.0000       0.063436         1.7262

MULLIKEN ATOMIC CHARGES
-----------------------
   0 Si:    1.735740
   1 C :    0.317120
   2 Cl:   -0.584454
   3 Cl:   -0.584454
   4 Cl:   -0.232397
   5 Cl:   -0.221696
   6 Cl:   -0.221696
   7 H :   -0.208164
Sum of atomic charges:   -0.0000000

LOEWDIN ATOMIC CHARGES
----------------------
   0 Si:   -1.753202
   1 C :   -2.659784
   2 Cl:    0.919450
   3 Cl:    0.919450
   4 Cl:    0.967355
   5 Cl:    0.969447
   6 Cl:    0.969447
   7 H :   -0.332161

  Mayer bond orders larger than 0.100000
B(  0-Si,  1-C ) :   0.6335 B(  0-Si,  2-Cl) :   0.5489 B(  0-Si,  3-Cl) :   0.5489
B(  0-Si,  7-H ) :   0.9563 B(  1-C ,  4-Cl) :   0.7437 B(  1-C ,  5-Cl) :   0.7826
B(  1-C ,  6-Cl) :   0.7826

MP2 TOTAL ENERGY:    -2626.482059557 Eh
FINAL SINGLE POINT ENERGY     -2626.482059557333

DIPOLE MOMENT
-------------
                                X             Y             Z
Electronic contribution:     -1.32126      -0.00000       2.36453
Nuclear contribution   :      1.41337       0.00000      -2.70802
                        -----------------------------------------
Total Dipole Moment    :      0.09211      -0.00000      -0.34349
                        -----------------------------------------
Magnitude (a.u.)       :      0.35563
Magnitude (Debye)      :      0.90393

Rotational constants in cm-1:     0.033679     0.025354     0.019741
Rotational constants in MHz :  1009.672100   760.083736   591.805562

                             ****ORCA TERMINATED NORMALLY****
TOTAL RUN TIME: 0 days 0 hours 32 minutes 35 seconds 630 msec
