                         Program Version 5.0.4 -  RELEASE  -
|  1> ! ri-mp2 aug-cc-pvdz aug-cc-pvdz/c tightscf
|  2> %pal nprocs 16 end
|  3> %maxcore 3800
|  4> %base "DZ_B-Cl_6_AB"
|  5> %scf
|  6> STABPerform true
|  7> STABRestartUHFifUnstable true
|  8> end
|  9>
| 10> *xyz 0 1
| 11> Cl         1.227512   -1.505003    0.000003
| 12> Cl         1.227511    1.505004   -0.000008
| 13> N        -1.091528   -0.000000    0.000001
| 14> B         0.292277   -0.000000   -0.000001
| 15> C        -1.902173   -1.205011    0.000009
| 16> H        -2.543872   -1.226113    0.884196
| 17> H        -1.277244   -2.090485    0.000006
| 18> H        -2.543886   -1.226116   -0.884168
| 19> C        -1.902173    1.205010    0.000000
| 20> H        -1.277244    2.090485   -0.000013
| 21> H        -2.543870    1.226121    0.884188
| 22> H        -2.543888    1.226107   -0.884176
| 23> *
| 24>
| 25> $new_job
| 26> ! ri-mp2 aug-cc-pvtz aug-cc-pvtz/c tightscf
| 27> %pal nprocs 16 end
| 28> %maxcore 3800
| 29> %base "TZ_B-Cl_6_AB"
| 30>
| 31> *xyz 0 1
| 32> Cl         1.227512   -1.505003    0.000003
| 33> Cl         1.227511    1.505004   -0.000008
| 34> N        -1.091528   -0.000000    0.000001
| 35> B         0.292277   -0.000000   -0.000001
| 36> C        -1.902173   -1.205011    0.000009
| 37> H        -2.543872   -1.226113    0.884196
| 38> H        -1.277244   -2.090485    0.000006
| 39> H        -2.543886   -1.226116   -0.884168
| 40> C        -1.902173    1.205010    0.000000
| 41> H        -1.277244    2.090485   -0.000013
| 42> H        -2.543870    1.226121    0.884188
| 43> H        -2.543888    1.226107   -0.884176
| 44> *
| 45>
| 46> $new_job
| 47> ! ri-mp2 aug-cc-pvqz aug-cc-pvqz/c tightscf
| 48> %pal nprocs 16 end
| 49> %maxcore 3800
| 50> %base "QZ_B-Cl_6_AB"
| 51>
| 52> *xyz 0 1
| 53> Cl         1.227512   -1.505003    0.000003
| 54> Cl         1.227511    1.505004   -0.000008
| 55> N        -1.091528   -0.000000    0.000001
| 56> B         0.292277   -0.000000   -0.000001
| 57> C        -1.902173   -1.205011    0.000009
| 58> H        -2.543872   -1.226113    0.884196
| 59> H        -1.277244   -2.090485    0.000006
| 60> H        -2.543886   -1.226116   -0.884168
| 61> C        -1.902173    1.205010    0.000000
| 62> H        -1.277244    2.090485   -0.000013
| 63> H        -2.543870    1.226121    0.884188
| 64> H        -2.543888    1.226107   -0.884176
| 65> *
| 66>
| 67>
| 68>
| 69>
| 70>                          ****END OF INPUT****
 Total Charge           Charge          ....    0
 Multiplicity           Mult            ....    1
 Number of Electrons    NEL             ....   64
MP2 TOTAL ENERGY:    -1078.373619933 Eh
FINAL SINGLE POINT ENERGY     -1078.373619932917
MP2 TOTAL ENERGY:    -1078.642070254 Eh
FINAL SINGLE POINT ENERGY     -1078.642070253649

CARTESIAN COORDINATES (ANGSTROEM)
---------------------------------
  Cl     1.227512   -1.505003    0.000003
  Cl     1.227511    1.505004   -0.000008
  N     -1.091528   -0.000000    0.000001
  B      0.292277   -0.000000   -0.000001
  C     -1.902173   -1.205011    0.000009
  H     -2.543872   -1.226113    0.884196
  H     -1.277244   -2.090485    0.000006
  H     -2.543886   -1.226116   -0.884168
  C     -1.902173    1.205010    0.000000
  H     -1.277244    2.090485   -0.000013
  H     -2.543870    1.226121    0.884188
  H     -2.543888    1.226107   -0.884176

 Multiplicity           Mult            ....    1
 Number of Electrons    NEL             ....   64
 Basis Dimension        Dim             ....  764

ORBITAL ENERGIES
----------------

  NO   OCC          E(Eh)            E(eV)
   0   2.0000    -104.825462     -2852.4458
   1   2.0000    -104.825462     -2852.4458
   2   2.0000     -15.582033      -424.0087
   3   2.0000     -11.263883      -306.5058
   4   2.0000     -11.263866      -306.5054
   5   2.0000     -10.553378      -287.1720
   6   2.0000     -10.553370      -287.1718
   7   2.0000      -8.020258      -218.2423
   8   2.0000      -8.020256      -218.2423
   9   2.0000      -8.019131      -218.2116
  10   2.0000      -8.019129      -218.2116
  11   2.0000      -8.019028      -218.2089
  12   2.0000      -8.019028      -218.2088
  13   2.0000      -7.696385      -209.4293
  14   2.0000      -1.247524       -33.9469
  15   2.0000      -1.120912       -30.5016
  16   2.0000      -1.086056       -29.5531
  17   2.0000      -0.975044       -26.5323
  18   2.0000      -0.902642       -24.5621
  19   2.0000      -0.713295       -19.4097
  20   2.0000      -0.652065       -17.7436
  21   2.0000      -0.643370       -17.5070
  22   2.0000      -0.630331       -17.1522
  23   2.0000      -0.562781       -15.3141
  24   2.0000      -0.549989       -14.9660
  25   2.0000      -0.544052       -14.8044
  26   2.0000      -0.531487       -14.4625
  27   2.0000      -0.510246       -13.8845
  28   2.0000      -0.475838       -12.9482
  29   2.0000      -0.457114       -12.4387
  30   2.0000      -0.437202       -11.8969
  31   2.0000      -0.393378       -10.7044
  32   0.0000       0.022360         0.6084
  33   0.0000       0.033992         0.9250
  34   0.0000       0.034218         0.9311
  35   0.0000       0.040182         1.0934
  36   0.0000       0.050809         1.3826

MULLIKEN ATOMIC CHARGES
-----------------------
   0 Cl:   -0.305505
   1 Cl:   -0.305505
   2 N :   -0.437984
   3 B :    0.846920
   4 C :   -0.855724
   5 H :    0.304739
   6 H :    0.347284
   7 H :    0.304738
   8 C :   -0.855723
   9 H :    0.347284
  10 H :    0.304739
  11 H :    0.304738
Sum of atomic charges:    0.0000000

LOEWDIN ATOMIC CHARGES
----------------------
   0 Cl:    1.281939
   1 Cl:    1.281939
   2 N :    0.360751
   3 B :   -2.452533
   4 C :    0.705454
   5 H :   -0.275018
   6 H :   -0.391464
   7 H :   -0.275018
   8 C :    0.705453
   9 H :   -0.391464
  10 H :   -0.275018
  11 H :   -0.275018

  Mayer bond orders larger than 0.100000
B(  0-Cl,  2-N ) :   0.1691 B(  0-Cl,  3-B ) :   0.8432 B(  1-Cl,  2-N ) :   0.1691
B(  1-Cl,  3-B ) :   0.8432 B(  2-N ,  3-B ) :   1.3149 B(  2-N ,  4-C ) :   0.9116
B(  2-N ,  8-C ) :   0.9116 B(  4-C ,  5-H ) :   0.9280 B(  4-C ,  6-H ) :   0.8939
B(  4-C ,  7-H ) :   0.9280 B(  8-C ,  9-H ) :   0.8939 B(  8-C , 10-H ) :   0.9280
B(  8-C , 11-H ) :   0.9280

MP2 TOTAL ENERGY:    -1078.729081545 Eh
FINAL SINGLE POINT ENERGY     -1078.729081544807

DIPOLE MOMENT
-------------
                                X             Y             Z
Electronic contribution:     14.51317       0.00000      -0.00004
Nuclear contribution   :    -15.75086      -0.00000       0.00004
                        -----------------------------------------
Total Dipole Moment    :     -1.23769      -0.00000       0.00000
                        -----------------------------------------
Magnitude (a.u.)       :      1.23769
Magnitude (Debye)      :      3.14596

Rotational constants in cm-1:     0.078955     0.069726     0.037547
Rotational constants in MHz :  2367.010576  2090.335623  1125.629740

                             ****ORCA TERMINATED NORMALLY****
TOTAL RUN TIME: 0 days 0 hours 42 minutes 34 seconds 965 msec
