                         Program Version 5.0.4 -  RELEASE  -
|  1> ! ri-mp2 aug-cc-pvdz aug-cc-pvdz/c tightscf
|  2> %pal nprocs 16 end
|  3> %maxcore 3800
|  4> %base "DZ_B-Cl_20_A"
|  5> %scf
|  6> STABPerform true
|  7> STABRestartUHFifUnstable true
|  8> end
|  9>
| 10> *xyz 0 2
| 11> Cl        -2.074634   -0.357729    0.000000
| 12> B        -0.989776    0.986655    0.000000
| 13> C         0.556004    0.940362   -0.000001
| 14> C         1.231408   -0.432879   -0.000001
| 15> H         0.890689    1.531937   -0.861761
| 16> C         2.748678   -0.338223    0.000001
| 17> H         0.896482   -0.999494   -0.871404
| 18> H         0.896481   -0.999495    0.871402
| 19> H         3.108829    0.197197   -0.880615
| 20> H         3.209119   -1.326720    0.000002
| 21> H         0.890687    1.531935    0.861762
| 22> H         3.108827    0.197199    0.880616
| 23> *
| 24>
| 25> $new_job
| 26> ! ri-mp2 aug-cc-pvtz aug-cc-pvtz/c tightscf
| 27> %pal nprocs 16 end
| 28> %maxcore 3800
| 29> %base "TZ_B-Cl_20_A"
| 30>
| 31> *xyz 0 2
| 32> Cl        -2.074634   -0.357729    0.000000
| 33> B        -0.989776    0.986655    0.000000
| 34> C         0.556004    0.940362   -0.000001
| 35> C         1.231408   -0.432879   -0.000001
| 36> H         0.890689    1.531937   -0.861761
| 37> C         2.748678   -0.338223    0.000001
| 38> H         0.896482   -0.999494   -0.871404
| 39> H         0.896481   -0.999495    0.871402
| 40> H         3.108829    0.197197   -0.880615
| 41> H         3.209119   -1.326720    0.000002
| 42> H         0.890687    1.531935    0.861762
| 43> H         3.108827    0.197199    0.880616
| 44> *
| 45>
| 46> $new_job
| 47> ! ri-mp2 aug-cc-pvqz aug-cc-pvqz/c tightscf
| 48> %pal nprocs 16 end
| 49> %maxcore 3800
| 50> %base "QZ_B-Cl_20_A"
| 51>
| 52> *xyz 0 2
| 53> Cl        -2.074634   -0.357729    0.000000
| 54> B        -0.989776    0.986655    0.000000
| 55> C         0.556004    0.940362   -0.000001
| 56> C         1.231408   -0.432879   -0.000001
| 57> H         0.890689    1.531937   -0.861761
| 58> C         2.748678   -0.338223    0.000001
| 59> H         0.896482   -0.999494   -0.871404
| 60> H         0.896481   -0.999495    0.871402
| 61> H         3.108829    0.197197   -0.880615
| 62> H         3.209119   -1.326720    0.000002
| 63> H         0.890687    1.531935    0.861762
| 64> H         3.108827    0.197199    0.880616
| 65> *
| 66>
| 67>
| 68>
| 69>
| 70>                          ****END OF INPUT****
 Total Charge           Charge          ....    0
 Multiplicity           Mult            ....    2
 Number of Electrons    NEL             ....   47
MP2 TOTAL ENERGY:     -602.527243987 Eh
FINAL SINGLE POINT ENERGY      -602.527243987249
MP2 TOTAL ENERGY:     -602.720961711 Eh
FINAL SINGLE POINT ENERGY      -602.720961711063

CARTESIAN COORDINATES (ANGSTROEM)
---------------------------------
  Cl    -2.074634   -0.357729    0.000000
  B     -0.989776    0.986655    0.000000
  C      0.556004    0.940362   -0.000001
  C      1.231408   -0.432879   -0.000001
  H      0.890689    1.531937   -0.861761
  C      2.748678   -0.338223    0.000001
  H      0.896482   -0.999494   -0.871404
  H      0.896481   -0.999495    0.871402
  H      3.108829    0.197197   -0.880615
  H      3.209119   -1.326720    0.000002
  H      0.890687    1.531935    0.861762
  H      3.108827    0.197199    0.880616

 Multiplicity           Mult            ....    2
 Number of Electrons    NEL             ....   47
 Basis Dimension        Dim             ....  726

ORBITAL ENERGIES
----------------
                 SPIN UP ORBITALS
  NO   OCC          E(Eh)            E(eV)
   0   1.0000    -104.838177     -2852.7918
   1   1.0000     -11.226691      -305.4938
   2   1.0000     -11.216951      -305.2288
   3   1.0000     -11.214943      -305.1741
   4   1.0000     -10.565914      -287.5131
   5   1.0000      -8.033656      -218.6069
   6   1.0000      -8.031476      -218.5476
   7   1.0000      -8.031205      -218.5402
   8   1.0000      -7.668394      -208.6676
   9   1.0000      -1.124026       -30.5863
  10   1.0000      -1.066302       -29.0155
  11   1.0000      -0.944607       -25.7041
  12   1.0000      -0.819043       -22.2873
  13   1.0000      -0.666053       -18.1242
  14   1.0000      -0.637423       -17.3452
  15   1.0000      -0.592811       -16.1312
  16   1.0000      -0.565879       -15.3984
  17   1.0000      -0.546832       -14.8801
  18   1.0000      -0.503221       -13.6933
  19   1.0000      -0.493622       -13.4321
  20   1.0000      -0.484364       -13.1802
  21   1.0000      -0.478434       -13.0188
  22   1.0000      -0.474956       -12.9242
  23   1.0000      -0.328473        -8.9382
  24   0.0000       0.024389         0.6637
  25   0.0000       0.031965         0.8698
  26   0.0000       0.032403         0.8817
  27   0.0000       0.033094         0.9005
  28   0.0000       0.048566         1.3215

                 SPIN DOWN ORBITALS
  NO   OCC          E(Eh)            E(eV)
   0   1.0000    -104.837373     -2852.7699
   1   1.0000     -11.225450      -305.4600
   2   1.0000     -11.215771      -305.1966
   3   1.0000     -11.214851      -305.1716
   4   1.0000     -10.564959      -287.4872
   5   1.0000      -8.031926      -218.5598
   6   1.0000      -8.031351      -218.5442
   7   1.0000      -8.029176      -218.4850
   8   1.0000      -7.648561      -208.1279
   9   1.0000      -1.114764       -30.3343
  10   1.0000      -1.062675       -28.9169
  11   1.0000      -0.939331       -25.5605
  12   1.0000      -0.814872       -22.1738
  13   1.0000      -0.639702       -17.4072
  14   1.0000      -0.636611       -17.3231
  15   1.0000      -0.586393       -15.9566
  16   1.0000      -0.547808       -14.9066
  17   1.0000      -0.545694       -14.8491
  18   1.0000      -0.488984       -13.3059
  19   1.0000      -0.484591       -13.1864
  20   1.0000      -0.481044       -13.0899
  21   1.0000      -0.478456       -13.0194
  22   1.0000      -0.460653       -12.5350
  23   0.0000       0.022722         0.6183
  24   0.0000       0.030888         0.8405
  25   0.0000       0.032727         0.8906
  26   0.0000       0.033146         0.9019
  27   0.0000       0.048584         1.3220

MULLIKEN ATOMIC CHARGES AND SPIN POPULATIONS
--------------------------------------------
   0 Cl:   -0.293878    0.017446
   1 B :    0.293243    0.997388
   2 C :   -0.501332   -0.039874
   3 C :   -0.439224    0.041644
   4 H :    0.261997   -0.005289
   5 C :   -0.826435    0.000445
   6 H :    0.262267   -0.004368
   7 H :    0.262274   -0.004369
   8 H :    0.222519   -0.000189
   9 H :    0.274052    0.002646
  10 H :    0.262001   -0.005290
  11 H :    0.222517   -0.000189
Sum of atomic charges         :   -0.0000000

LOEWDIN ATOMIC CHARGES AND SPIN POPULATIONS
-------------------------------------------
   0 Cl:    1.237206    0.173150
   1 B :   -0.946963    0.571246
   2 C :    0.465537    0.162218
   3 C :    0.421150    0.024129
   4 H :   -0.331616    0.027374
   5 C :    0.921354    0.004627
   6 H :   -0.291799    0.003706
   7 H :   -0.291799    0.003706
   8 H :   -0.284841    0.000429
   9 H :   -0.281774    0.001612
  10 H :   -0.331615    0.027374
  11 H :   -0.284841    0.000429

  Mayer bond orders larger than 0.100000
B(  0-Cl,  1-B ) :   1.0595 B(  1-B ,  2-C ) :   0.9588 B(  2-C ,  3-C ) :   0.9460
B(  2-C ,  4-H ) :   0.8973 B(  2-C , 10-H ) :   0.8973 B(  3-C ,  5-C ) :   0.9542
B(  3-C ,  6-H ) :   0.8700 B(  3-C ,  7-H ) :   0.8700 B(  5-C ,  8-H ) :   0.9545
B(  5-C ,  9-H ) :   0.9859 B(  5-C , 11-H ) :   0.9545

MP2 TOTAL ENERGY:     -602.782001963 Eh
FINAL SINGLE POINT ENERGY      -602.782001963144

DIPOLE MOMENT
-------------
                                X             Y             Z
Electronic contribution:    -15.97377       0.19319      -0.00000
Nuclear contribution   :     16.56362      -0.14888       0.00000
                        -----------------------------------------
Total Dipole Moment    :      0.58985       0.04431      -0.00000
                        -----------------------------------------
Magnitude (a.u.)       :      0.59151
Magnitude (Debye)      :      1.50350

Rotational constants in cm-1:     0.396895     0.054302     0.049042
Rotational constants in MHz : 11898.605487  1627.918380  1470.253260

                             ****ORCA TERMINATED NORMALLY****
TOTAL RUN TIME: 0 days 1 hours 17 minutes 17 seconds 526 msec
