                         Program Version 5.0.4 -  RELEASE  -
|  1> ! ri-mp2 aug-cc-pvdz aug-cc-pvdz/c tightscf
|  2> %pal nprocs 16 end
|  3> %maxcore 3800
|  4> %base "DZ_B-Cl_50_A"
|  5> %scf
|  6> STABPerform true
|  7> STABRestartUHFifUnstable true
|  8> end
|  9>
| 10> *xyz 0 2
| 11> B        -1.400733    0.512615   -0.000001
| 12> Cl        -2.975127   -0.207316    0.000004
| 13> O        -0.295776   -0.263584   -0.000003
| 14> C         0.968135    0.248483   -0.000004
| 15> O         1.244965    1.405594   -0.000005
| 16> O         1.804521   -0.769552    0.000001
| 17> C         3.191725   -0.414541    0.000002
| 18> H         3.430411    0.166791   -0.888081
| 19> H         3.731170   -1.355597   -0.000000
| 20> H         3.430410    0.166786    0.888087
| 21> *
| 22>
| 23> $new_job
| 24> ! ri-mp2 aug-cc-pvtz aug-cc-pvtz/c tightscf
| 25> %pal nprocs 16 end
| 26> %maxcore 3800
| 27> %base "TZ_B-Cl_50_A"
| 28>
| 29> *xyz 0 2
| 30> B        -1.400733    0.512615   -0.000001
| 31> Cl        -2.975127   -0.207316    0.000004
| 32> O        -0.295776   -0.263584   -0.000003
| 33> C         0.968135    0.248483   -0.000004
| 34> O         1.244965    1.405594   -0.000005
| 35> O         1.804521   -0.769552    0.000001
| 36> C         3.191725   -0.414541    0.000002
| 37> H         3.430411    0.166791   -0.888081
| 38> H         3.731170   -1.355597   -0.000000
| 39> H         3.430410    0.166786    0.888087
| 40> *
| 41>
| 42> $new_job
| 43> ! ri-mp2 aug-cc-pvqz aug-cc-pvqz/c tightscf
| 44> %pal nprocs 16 end
| 45> %maxcore 3800
| 46> %base "QZ_B-Cl_50_A"
| 47>
| 48> *xyz 0 2
| 49> B        -1.400733    0.512615   -0.000001
| 50> Cl        -2.975127   -0.207316    0.000004
| 51> O        -0.295776   -0.263584   -0.000003
| 52> C         0.968135    0.248483   -0.000004
| 53> O         1.244965    1.405594   -0.000005
| 54> O         1.804521   -0.769552    0.000001
| 55> C         3.191725   -0.414541    0.000002
| 56> H         3.430411    0.166791   -0.888081
| 57> H         3.731170   -1.355597   -0.000000
| 58> H         3.430410    0.166786    0.888087
| 59> *
| 60>
| 61>
| 62>
| 63>
| 64>                          ****END OF INPUT****
 Total Charge           Charge          ....    0
 Multiplicity           Mult            ....    2
 Number of Electrons    NEL             ....   61
MP2 TOTAL ENERGY:     -787.403527065 Eh
FINAL SINGLE POINT ENERGY      -787.403527064795
MP2 TOTAL ENERGY:     -787.742549510 Eh
FINAL SINGLE POINT ENERGY      -787.742549510369

CARTESIAN COORDINATES (ANGSTROEM)
---------------------------------
  B     -1.400733    0.512615   -0.000001
  Cl    -2.975127   -0.207316    0.000004
  O     -0.295776   -0.263584   -0.000003
  C      0.968135    0.248483   -0.000004
  O      1.244965    1.405594   -0.000005
  O      1.804521   -0.769552    0.000001
  C      3.191725   -0.414541    0.000002
  H      3.430411    0.166791   -0.888081
  H      3.731170   -1.355597   -0.000000
  H      3.430410    0.166786    0.888087

 Multiplicity           Mult            ....    2
 Number of Electrons    NEL             ....   61
 Basis Dimension        Dim             ....  702

ORBITAL ENERGIES
----------------
                 SPIN UP ORBITALS
  NO   OCC          E(Eh)            E(eV)
   0   1.0000    -104.847596     -2853.0481
   1   1.0000     -20.635725      -561.5266
   2   1.0000     -20.631346      -561.4075
   3   1.0000     -20.568033      -559.6846
   4   1.0000     -11.457117      -311.7640
   5   1.0000     -11.304657      -307.6154
   6   1.0000     -10.575349      -287.7699
   7   1.0000      -8.043647      -218.8788
   8   1.0000      -8.040658      -218.7974
   9   1.0000      -8.040450      -218.7918
  10   1.0000      -7.722703      -210.1454
  11   1.0000      -1.535919       -41.7945
  12   1.0000      -1.430404       -38.9233
  13   1.0000      -1.398464       -38.0541
  14   1.0000      -1.132552       -30.8183
  15   1.0000      -1.012166       -27.5424
  16   1.0000      -0.875177       -23.8148
  17   1.0000      -0.783840       -21.3294
  18   1.0000      -0.738592       -20.0981
  19   1.0000      -0.724039       -19.7021
  20   1.0000      -0.663818       -18.0634
  21   1.0000      -0.642544       -17.4845
  22   1.0000      -0.635614       -17.2959
  23   1.0000      -0.618131       -16.8202
  24   1.0000      -0.560539       -15.2530
  25   1.0000      -0.546993       -14.8844
  26   1.0000      -0.511424       -13.9165
  27   1.0000      -0.494290       -13.4503
  28   1.0000      -0.490119       -13.3368
  29   1.0000      -0.485658       -13.2154
  30   1.0000      -0.370180       -10.0731
  31   0.0000       0.022902         0.6232
  32   0.0000       0.034697         0.9442
  33   0.0000       0.037356         1.0165
  34   0.0000       0.040654         1.1063
  35   0.0000       0.047346         1.2883

                 SPIN DOWN ORBITALS
  NO   OCC          E(Eh)            E(eV)
   0   1.0000    -104.846444     -2853.0168
   1   1.0000     -20.634148      -561.4837
   2   1.0000     -20.631402      -561.4090
   3   1.0000     -20.567866      -559.6801
   4   1.0000     -11.456819      -311.7559
   5   1.0000     -11.304663      -307.6155
   6   1.0000     -10.573995      -287.7330
   7   1.0000      -8.040616      -218.7963
   8   1.0000      -8.040305      -218.7878
   9   1.0000      -8.038299      -218.7332
  10   1.0000      -7.699760      -209.5211
  11   1.0000      -1.533940       -41.7406
  12   1.0000      -1.426526       -38.8177
  13   1.0000      -1.397568       -38.0298
  14   1.0000      -1.121584       -30.5199
  15   1.0000      -1.010901       -27.5080
  16   1.0000      -0.870119       -23.6771
  17   1.0000      -0.782602       -21.2957
  18   1.0000      -0.729849       -19.8602
  19   1.0000      -0.724477       -19.7140
  20   1.0000      -0.642184       -17.4747
  21   1.0000      -0.636058       -17.3080
  22   1.0000      -0.633718       -17.2444
  23   1.0000      -0.596236       -16.2244
  24   1.0000      -0.559468       -15.2239
  25   1.0000      -0.546297       -14.8655
  26   1.0000      -0.501164       -13.6374
  27   1.0000      -0.494483       -13.4556
  28   1.0000      -0.486871       -13.2484
  29   1.0000      -0.479168       -13.0388
  30   0.0000       0.022052         0.6001
  31   0.0000       0.032934         0.8962
  32   0.0000       0.035268         0.9597
  33   0.0000       0.038805         1.0559
  34   0.0000       0.047294         1.2869

MULLIKEN ATOMIC CHARGES AND SPIN POPULATIONS
--------------------------------------------
   0 B :    0.532127    0.976935
   1 Cl:   -0.191302    0.040069
   2 O :   -0.753673    0.005083
   3 C :    1.322365   -0.010731
   4 O :   -0.666847   -0.004229
   5 O :   -0.594778   -0.003679
   6 C :   -0.660495   -0.002937
   7 H :    0.283722   -0.000163
   8 H :    0.445160   -0.000186
   9 H :    0.283722   -0.000163
Sum of atomic charges         :    0.0000000

LOEWDIN ATOMIC CHARGES AND SPIN POPULATIONS
-------------------------------------------
   0 B :   -1.444366    0.583972
   1 Cl:    1.153584    0.166889
   2 O :    0.692350    0.154335
   3 C :   -1.556449    0.062227
   4 O :    0.697794    0.026413
   5 O :    0.816798    0.002938
   6 C :    0.586692    0.001765
   7 H :   -0.313515    0.000588
   8 H :   -0.319372    0.000286
   9 H :   -0.313516    0.000588

  Mayer bond orders larger than 0.100000
B(  0-B ,  1-Cl) :   1.1586 B(  0-B ,  2-O ) :   0.7222 B(  2-O ,  3-C ) :   0.9021
B(  3-C ,  4-O ) :   1.6342 B(  3-C ,  5-O ) :   1.0699 B(  5-O ,  6-C ) :   0.8646
B(  6-C ,  7-H ) :   0.9238 B(  6-C ,  8-H ) :   0.8001 B(  6-C ,  9-H ) :   0.9238

MP2 TOTAL ENERGY:     -787.854167439 Eh
FINAL SINGLE POINT ENERGY      -787.854167439379

DIPOLE MOMENT
-------------
                                X             Y             Z
Electronic contribution:    -14.20605       0.60313      -0.00000
Nuclear contribution   :     15.12990      -1.06965       0.00000
                        -----------------------------------------
Total Dipole Moment    :      0.92384      -0.46652       0.00000
                        -----------------------------------------
Magnitude (a.u.)       :      1.03496
Magnitude (Debye)      :      2.63065

Rotational constants in cm-1:     0.319164     0.028855     0.026595
Rotational constants in MHz :  9568.299502   865.050304   797.307275

                             ****ORCA TERMINATED NORMALLY****
TOTAL RUN TIME: 0 days 1 hours 36 minutes 55 seconds 473 msec
