                         Program Version 5.0.4 -  RELEASE  -
|  1> ! ri-mp2 aug-cc-pvdz aug-cc-pvdz/c tightscf
|  2> %pal nprocs 16 end
|  3> %maxcore 3800
|  4> %base "DZ_B-F_28_AB"
|  5> %scf
|  6> STABPerform true
|  7> STABRestartUHFifUnstable true
|  8> end
|  9>
| 10> *xyz 0 1
| 11> F         1.333851    1.177232   -0.000120
| 12> F         1.508850   -1.077781    0.000117
| 13> B         0.775371   -0.001220   -0.000001
| 14> C        -0.822185   -0.155268   -0.000009
| 15> O        -1.431685   -1.162057   -0.000124
| 16> F        -1.452731    1.037678    0.000120
| 17> *
| 18>
| 19> $new_job
| 20> ! ri-mp2 aug-cc-pvtz aug-cc-pvtz/c tightscf
| 21> %pal nprocs 16 end
| 22> %maxcore 3800
| 23> %base "TZ_B-F_28_AB"
| 24>
| 25> *xyz 0 1
| 26> F         1.333851    1.177232   -0.000120
| 27> F         1.508850   -1.077781    0.000117
| 28> B         0.775371   -0.001220   -0.000001
| 29> C        -0.822185   -0.155268   -0.000009
| 30> O        -1.431685   -1.162057   -0.000124
| 31> F        -1.452731    1.037678    0.000120
| 32> *
| 33>
| 34> $new_job
| 35> ! ri-mp2 aug-cc-pvqz aug-cc-pvqz/c tightscf
| 36> %pal nprocs 16 end
| 37> %maxcore 3800
| 38> %base "QZ_B-F_28_AB"
| 39>
| 40> *xyz 0 1
| 41> F         1.333851    1.177232   -0.000120
| 42> F         1.508850   -1.077781    0.000117
| 43> B         0.775371   -0.001220   -0.000001
| 44> C        -0.822185   -0.155268   -0.000009
| 45> O        -1.431685   -1.162057   -0.000124
| 46> F        -1.452731    1.037678    0.000120
| 47> *
| 48>
| 49>
| 50>
| 51>
| 52>                          ****END OF INPUT****
 Total Charge           Charge          ....    0
 Multiplicity           Mult            ....    1
 Number of Electrons    NEL             ....   46
MP2 TOTAL ENERGY:     -436.907654526 Eh
FINAL SINGLE POINT ENERGY      -436.907654525582
MP2 TOTAL ENERGY:     -437.277244864 Eh
FINAL SINGLE POINT ENERGY      -437.277244863756

CARTESIAN COORDINATES (ANGSTROEM)
---------------------------------
  F      1.333851    1.177232   -0.000120
  F      1.508850   -1.077781    0.000117
  B      0.775371   -0.001220   -0.000001
  C     -0.822185   -0.155268   -0.000009
  O     -1.431685   -1.162057   -0.000124
  F     -1.452731    1.037678    0.000120

 Multiplicity           Mult            ....    1
 Number of Electrons    NEL             ....   46
 Basis Dimension        Dim             ....  480

ORBITAL ENERGIES
----------------

  NO   OCC          E(Eh)            E(eV)
   0   2.0000     -26.357287      -717.2183
   1   2.0000     -26.355188      -717.1611
   2   2.0000     -26.344898      -716.8811
   3   2.0000     -20.615174      -560.9674
   4   2.0000     -11.431676      -311.0717
   5   2.0000      -7.769143      -211.4091
   6   2.0000      -1.692121       -46.0450
   7   2.0000      -1.671988       -45.4971
   8   2.0000      -1.661156       -45.2024
   9   2.0000      -1.461677       -39.7742
  10   2.0000      -0.930613       -25.3233
  11   2.0000      -0.857843       -23.3431
  12   2.0000      -0.817489       -22.2450
  13   2.0000      -0.808789       -22.0083
  14   2.0000      -0.761335       -20.7170
  15   2.0000      -0.740797       -20.1581
  16   2.0000      -0.732391       -19.9294
  17   2.0000      -0.722479       -19.6597
  18   2.0000      -0.701066       -19.0770
  19   2.0000      -0.696337       -18.9483
  20   2.0000      -0.629100       -17.1187
  21   2.0000      -0.568980       -15.4827
  22   2.0000      -0.513060       -13.9611
  23   0.0000       0.028260         0.7690
  24   0.0000       0.030237         0.8228
  25   0.0000       0.037790         1.0283
  26   0.0000       0.039315         1.0698
  27   0.0000       0.047123         1.2823

MULLIKEN ATOMIC CHARGES
-----------------------
   0 F :   -0.720063
   1 F :   -0.705849
   2 B :    1.671203
   3 C :    0.843377
   4 O :   -0.548649
   5 F :   -0.540020
Sum of atomic charges:    0.0000000

LOEWDIN ATOMIC CHARGES
----------------------
   0 F :    0.820921
   1 F :    0.825532
   2 B :   -1.799283
   3 C :   -1.168385
   4 O :    0.627194
   5 F :    0.694021

  Mayer bond orders larger than 0.100000
B(  0-F ,  2-B ) :   0.4600 B(  1-F ,  2-B ) :   0.4848 B(  2-B ,  3-C ) :   0.8677
B(  3-C ,  4-O ) :   1.7822 B(  3-C ,  5-F ) :   0.7512

MP2 TOTAL ENERGY:     -437.398486636 Eh
FINAL SINGLE POINT ENERGY      -437.398486635898

DIPOLE MOMENT
-------------
                                X             Y             Z
Electronic contribution:      2.35289       1.28146       0.00014
Nuclear contribution   :     -1.82142      -1.02821      -0.00011
                        -----------------------------------------
Total Dipole Moment    :      0.53147       0.25326       0.00004
                        -----------------------------------------
Magnitude (a.u.)       :      0.58872
Magnitude (Debye)      :      1.49642

Rotational constants in cm-1:     0.185860     0.102447     0.066044
Rotational constants in MHz :  5571.955846  3071.291899  1979.938965

                             ****ORCA TERMINATED NORMALLY****
TOTAL RUN TIME: 0 days 0 hours 11 minutes 4 seconds 789 msec
