                         Program Version 5.0.4 -  RELEASE  -
|  1> ! ri-mp2 aug-cc-pvdz aug-cc-pvdz/c tightscf
|  2> %pal nprocs 16 end
|  3> %maxcore 3800
|  4> %base "DZ_P-Si_47_AB"
|  5> %scf
|  6> STABPerform true
|  7> STABRestartUHFifUnstable true
|  8> end
|  9>
| 10> *xyz 0 1
| 11> Si        -1.326195    0.750409   -0.086231
| 12> P         0.757578   -0.093121    0.096522
| 13> O         1.064742   -0.810022    1.341784
| 14> O         0.878104   -0.968366   -1.236365
| 15> C        -2.535421   -0.646969    0.124867
| 16> H        -2.418914   -1.378411   -0.674610
| 17> H        -3.561567   -0.279150    0.105419
| 18> H        -2.368161   -1.151683    1.076201
| 19> O         1.774001    1.123506   -0.167733
| 20> H         2.329520    1.282863    0.605176
| 21> H         1.577030   -1.634097   -1.195575
| 22> H        -1.446623    1.416402   -1.399287
| 23> H        -1.430466    1.756031    0.991382
| 24> *
| 25>
| 26> $new_job
| 27> ! ri-mp2 aug-cc-pvtz aug-cc-pvtz/c tightscf
| 28> %pal nprocs 16 end
| 29> %maxcore 3800
| 30> %base "TZ_P-Si_47_AB"
| 31>
| 32> *xyz 0 1
| 33> Si        -1.326195    0.750409   -0.086231
| 34> P         0.757578   -0.093121    0.096522
| 35> O         1.064742   -0.810022    1.341784
| 36> O         0.878104   -0.968366   -1.236365
| 37> C        -2.535421   -0.646969    0.124867
| 38> H        -2.418914   -1.378411   -0.674610
| 39> H        -3.561567   -0.279150    0.105419
| 40> H        -2.368161   -1.151683    1.076201
| 41> O         1.774001    1.123506   -0.167733
| 42> H         2.329520    1.282863    0.605176
| 43> H         1.577030   -1.634097   -1.195575
| 44> H        -1.446623    1.416402   -1.399287
| 45> H        -1.430466    1.756031    0.991382
| 46> *
| 47>
| 48> $new_job
| 49> ! ri-mp2 aug-cc-pvqz aug-cc-pvqz/c tightscf
| 50> %pal nprocs 16 end
| 51> %maxcore 3800
| 52> %base "QZ_P-Si_47_AB"
| 53>
| 54> *xyz 0 1
| 55> Si        -1.326195    0.750409   -0.086231
| 56> P         0.757578   -0.093121    0.096522
| 57> O         1.064742   -0.810022    1.341784
| 58> O         0.878104   -0.968366   -1.236365
| 59> C        -2.535421   -0.646969    0.124867
| 60> H        -2.418914   -1.378411   -0.674610
| 61> H        -3.561567   -0.279150    0.105419
| 62> H        -2.368161   -1.151683    1.076201
| 63> O         1.774001    1.123506   -0.167733
| 64> H         2.329520    1.282863    0.605176
| 65> H         1.577030   -1.634097   -1.195575
| 66> H        -1.446623    1.416402   -1.399287
| 67> H        -1.430466    1.756031    0.991382
| 68> *
| 69>
| 70>
| 71>
| 72>
| 73>                          ****END OF INPUT****
 Total Charge           Charge          ....    0
 Multiplicity           Mult            ....    1
 Number of Electrons    NEL             ....   66
MP2 TOTAL ENERGY:     -897.304348271 Eh
FINAL SINGLE POINT ENERGY      -897.304348271415
MP2 TOTAL ENERGY:     -897.650260286 Eh
FINAL SINGLE POINT ENERGY      -897.650260285657

CARTESIAN COORDINATES (ANGSTROEM)
---------------------------------
  Si    -1.326195    0.750409   -0.086231
  P      0.757578   -0.093121    0.096522
  O      1.064742   -0.810022    1.341784
  O      0.878104   -0.968366   -1.236365
  C     -2.535421   -0.646969    0.124867
  H     -2.418914   -1.378411   -0.674610
  H     -3.561567   -0.279150    0.105419
  H     -2.368161   -1.151683    1.076201
  O      1.774001    1.123506   -0.167733
  H      2.329520    1.282863    0.605176
  H      1.577030   -1.634097   -1.195575
  H     -1.446623    1.416402   -1.399287
  H     -1.430466    1.756031    0.991382

 Multiplicity           Mult            ....    1
 Number of Electrons    NEL             ....   66
 Basis Dimension        Dim             ....  810

ORBITAL ENERGIES
----------------

  NO   OCC          E(Eh)            E(eV)
   0   2.0000     -80.056921     -2178.4596
   1   2.0000     -68.784888     -1871.7319
   2   2.0000     -20.597627      -560.4899
   3   2.0000     -20.593936      -560.3895
   4   2.0000     -20.503069      -557.9169
   5   2.0000     -11.219633      -305.3017
   6   2.0000      -7.580921      -206.2873
   7   2.0000      -6.135349      -166.9513
   8   2.0000      -5.478748      -149.0843
   9   2.0000      -5.478078      -149.0661
  10   2.0000      -5.477026      -149.0375
  11   2.0000      -4.241856      -115.4268
  12   2.0000      -4.241441      -115.4155
  13   2.0000      -4.241054      -115.4049
  14   2.0000      -1.429766       -38.9059
  15   2.0000      -1.380334       -37.5608
  16   2.0000      -1.292555       -35.1722
  17   2.0000      -0.964889       -26.2560
  18   2.0000      -0.858915       -23.3723
  19   2.0000      -0.739759       -20.1299
  20   2.0000      -0.718137       -19.5415
  21   2.0000      -0.669296       -18.2125
  22   2.0000      -0.633090       -17.2273
  23   2.0000      -0.615824       -16.7574
  24   2.0000      -0.578694       -15.7471
  25   2.0000      -0.573302       -15.6003
  26   2.0000      -0.555923       -15.1274
  27   2.0000      -0.545672       -14.8485
  28   2.0000      -0.501652       -13.6506
  29   2.0000      -0.488339       -13.2884
  30   2.0000      -0.473527       -12.8853
  31   2.0000      -0.461661       -12.5624
  32   2.0000      -0.418273       -11.3818
  33   0.0000       0.022185         0.6037
  34   0.0000       0.030573         0.8319
  35   0.0000       0.032225         0.8769
  36   0.0000       0.040233         1.0948
  37   0.0000       0.047591         1.2950

MULLIKEN ATOMIC CHARGES
-----------------------
   0 Si:    0.795247
   1 P :    2.117751
   2 O :   -1.203934
   3 O :   -0.871716
   4 C :   -0.954178
   5 H :    0.240774
   6 H :    0.296640
   7 H :    0.241173
   8 O :   -0.936568
   9 H :    0.375491
  10 H :    0.361820
  11 H :   -0.212361
  12 H :   -0.250138
Sum of atomic charges:    0.0000000

LOEWDIN ATOMIC CHARGES
----------------------
   0 Si:    0.769167
   1 P :   -0.664285
   2 O :    0.243566
   3 O :    1.042248
   4 C :    0.882602
   5 H :   -0.356982
   6 H :   -0.356821
   7 H :   -0.356555
   8 O :    1.045677
   9 H :   -0.893263
  10 H :   -0.861213
  11 H :   -0.245564
  12 H :   -0.248577

  Mayer bond orders larger than 0.100000
B(  0-Si,  1-P ) :   0.8494 B(  0-Si,  4-C ) :   0.8669 B(  0-Si, 11-H ) :   0.7858
B(  0-Si, 12-H ) :   0.7750 B(  1-P ,  2-O ) :   1.3457 B(  1-P ,  3-O ) :   0.6051
B(  1-P ,  8-O ) :   0.5786 B(  3-O , 10-H ) :   0.9140 B(  4-C ,  5-H ) :   0.9487
B(  4-C ,  6-H ) :   0.9294 B(  4-C ,  7-H ) :   0.9522 B(  8-O ,  9-H ) :   0.9150

MP2 TOTAL ENERGY:     -897.761587839 Eh
FINAL SINGLE POINT ENERGY      -897.761587839053

DIPOLE MOMENT
-------------
                                X             Y             Z
Electronic contribution:      7.44393       0.20169       0.05805
Nuclear contribution   :     -7.76555       0.04399      -0.56900
                        -----------------------------------------
Total Dipole Moment    :     -0.32162       0.24568      -0.51095
                        -----------------------------------------
Magnitude (a.u.)       :      0.65182
Magnitude (Debye)      :      1.65679

Rotational constants in cm-1:     0.120098     0.052382     0.049426
Rotational constants in MHz :  3600.454598  1570.364523  1481.742328

                             ****ORCA TERMINATED NORMALLY****
TOTAL RUN TIME: 0 days 1 hours 20 minutes 59 seconds 578 msec
