                         Program Version 5.0.4 -  RELEASE  -
|  1> ! ri-mp2 aug-cc-pvdz aug-cc-pvdz/c tightscf
|  2> %pal nprocs 16 end
|  3> %maxcore 3800
|  4> %base "DZ_P-C_47_AB"
|  5> %scf
|  6> STABPerform true
|  7> STABRestartUHFifUnstable true
|  8> end
|  9>
| 10> *xyz 0 1
| 11> C         1.181850    0.000000    0.026109
| 12> P        -0.660788    0.000000   -0.123777
| 13> H         1.536418    0.000000    1.053948
| 14> H         1.575885    0.878510   -0.483751
| 15> H         1.575885   -0.878510   -0.483751
| 16> H        -0.933731    1.030111    0.806780
| 17> H        -0.933731   -1.030111    0.806780
| 18> *
| 19>
| 20> $new_job
| 21> ! ri-mp2 aug-cc-pvtz aug-cc-pvtz/c tightscf
| 22> %pal nprocs 16 end
| 23> %maxcore 3800
| 24> %base "TZ_P-C_47_AB"
| 25>
| 26> *xyz 0 1
| 27> C         1.181850    0.000000    0.026109
| 28> P        -0.660788    0.000000   -0.123777
| 29> H         1.536418    0.000000    1.053948
| 30> H         1.575885    0.878510   -0.483751
| 31> H         1.575885   -0.878510   -0.483751
| 32> H        -0.933731    1.030111    0.806780
| 33> H        -0.933731   -1.030111    0.806780
| 34> *
| 35>
| 36> $new_job
| 37> ! ri-mp2 aug-cc-pvqz aug-cc-pvqz/c tightscf
| 38> %pal nprocs 16 end
| 39> %maxcore 3800
| 40> %base "QZ_P-C_47_AB"
| 41>
| 42> *xyz 0 1
| 43> C         1.181850    0.000000    0.026109
| 44> P        -0.660788    0.000000   -0.123777
| 45> H         1.536418    0.000000    1.053948
| 46> H         1.575885    0.878510   -0.483751
| 47> H         1.575885   -0.878510   -0.483751
| 48> H        -0.933731    1.030111    0.806780
| 49> H        -0.933731   -1.030111    0.806780
| 50> *
| 51>
| 52>
| 53>
| 54>
| 55>                          ****END OF INPUT****
 Total Charge           Charge          ....    0
 Multiplicity           Mult            ....    1
 Number of Electrons    NEL             ....   26
MP2 TOTAL ENERGY:     -381.801550099 Eh
FINAL SINGLE POINT ENERGY      -381.801550098571
MP2 TOTAL ENERGY:     -381.889899483 Eh
FINAL SINGLE POINT ENERGY      -381.889899483039

CARTESIAN COORDINATES (ANGSTROEM)
---------------------------------
  C      1.181850    0.000000    0.026109
  P     -0.660788    0.000000   -0.123777
  H      1.536418    0.000000    1.053948
  H      1.575885    0.878510   -0.483751
  H      1.575885   -0.878510   -0.483751
  H     -0.933731    1.030111    0.806780
  H     -0.933731   -1.030111    0.806780

 Multiplicity           Mult            ....    1
 Number of Electrons    NEL             ....   26
 Basis Dimension        Dim             ....  394

ORBITAL ENERGIES
----------------

  NO   OCC          E(Eh)            E(eV)
   0   2.0000     -79.935230     -2175.1482
   1   2.0000     -11.227162      -305.5066
   2   2.0000      -7.477856      -203.4828
   3   2.0000      -5.371852      -146.1755
   4   2.0000      -5.371716      -146.1718
   5   2.0000      -5.370666      -146.1432
   6   2.0000      -0.981389       -26.7050
   7   2.0000      -0.794493       -21.6193
   8   2.0000      -0.584300       -15.8996
   9   2.0000      -0.579219       -15.7613
  10   2.0000      -0.494384       -13.4529
  11   2.0000      -0.485187       -13.2026
  12   2.0000      -0.361180        -9.8282
  13   0.0000       0.026033         0.7084
  14   0.0000       0.037561         1.0221
  15   0.0000       0.038906         1.0587
  16   0.0000       0.043149         1.1741
  17   0.0000       0.060839         1.6555

MULLIKEN ATOMIC CHARGES
-----------------------
   0 C :   -0.920991
   1 P :    0.301645
   2 H :    0.255402
   3 H :    0.255030
   4 H :    0.255030
   5 H :   -0.073059
   6 H :   -0.073059
Sum of atomic charges:    0.0000000

LOEWDIN ATOMIC CHARGES
----------------------
   0 C :    0.666624
   1 P :    1.462291
   2 H :   -0.367366
   3 H :   -0.385282
   4 H :   -0.385282
   5 H :   -0.495493
   6 H :   -0.495493

  Mayer bond orders larger than 0.100000
B(  0-C ,  1-P ) :   0.9051 B(  0-C ,  2-H ) :   0.9198 B(  0-C ,  3-H ) :   0.9269
B(  0-C ,  4-H ) :   0.9269 B(  1-P ,  5-H ) :   0.9080 B(  1-P ,  6-H ) :   0.9080

MP2 TOTAL ENERGY:     -381.916547469 Eh
FINAL SINGLE POINT ENERGY      -381.916547469003

DIPOLE MOMENT
-------------
                                X             Y             Z
Electronic contribution:     -3.10361       0.00000      -1.56593
Nuclear contribution   :      3.50786       0.00000       1.84835
                        -----------------------------------------
Total Dipole Moment    :      0.40426       0.00000       0.28242
                        -----------------------------------------
Magnitude (a.u.)       :      0.49314
Magnitude (Debye)      :      1.25346

Rotational constants in cm-1:     2.421126     0.396479     0.392531
Rotational constants in MHz : 72583.518366 11886.126937 11767.792465

                             ****ORCA TERMINATED NORMALLY****
TOTAL RUN TIME: 0 days 0 hours 3 minutes 57 seconds 297 msec
