                         Program Version 5.0.4 -  RELEASE  -
|  1> ! ri-mp2 aug-cc-pvdz aug-cc-pvdz/c tightscf
|  2> %pal nprocs 16 end
|  3> %maxcore 3800
|  4> %base "DZ_B-Cl_6_A"
|  5> %scf
|  6> STABPerform true
|  7> STABRestartUHFifUnstable true
|  8> end
|  9>
| 10> *xyz 0 2
| 11> Cl         1.948984   -0.075613   -0.000006
| 12> N        -0.844698   -0.088179    0.000002
| 13> B         0.342286   -0.777880   -0.000001
| 14> C        -2.120164   -0.782452    0.000007
| 15> H        -2.702507   -0.514317    0.885353
| 16> H        -1.954421   -1.856399    0.000006
| 17> H        -2.702514   -0.514316   -0.885334
| 18> C        -0.970812    1.360372    0.000004
| 19> H         0.011324    1.822910   -0.000007
| 20> H        -1.518636    1.693334    0.884920
| 21> H        -1.518656    1.693334   -0.884901
| 22> *
| 23>
| 24> $new_job
| 25> ! ri-mp2 aug-cc-pvtz aug-cc-pvtz/c tightscf
| 26> %pal nprocs 16 end
| 27> %maxcore 3800
| 28> %base "TZ_B-Cl_6_A"
| 29>
| 30> *xyz 0 2
| 31> Cl         1.948984   -0.075613   -0.000006
| 32> N        -0.844698   -0.088179    0.000002
| 33> B         0.342286   -0.777880   -0.000001
| 34> C        -2.120164   -0.782452    0.000007
| 35> H        -2.702507   -0.514317    0.885353
| 36> H        -1.954421   -1.856399    0.000006
| 37> H        -2.702514   -0.514316   -0.885334
| 38> C        -0.970812    1.360372    0.000004
| 39> H         0.011324    1.822910   -0.000007
| 40> H        -1.518636    1.693334    0.884920
| 41> H        -1.518656    1.693334   -0.884901
| 42> *
| 43>
| 44> $new_job
| 45> ! ri-mp2 aug-cc-pvqz aug-cc-pvqz/c tightscf
| 46> %pal nprocs 16 end
| 47> %maxcore 3800
| 48> %base "QZ_B-Cl_6_A"
| 49>
| 50> *xyz 0 2
| 51> Cl         1.948984   -0.075613   -0.000006
| 52> N        -0.844698   -0.088179    0.000002
| 53> B         0.342286   -0.777880   -0.000001
| 54> C        -2.120164   -0.782452    0.000007
| 55> H        -2.702507   -0.514317    0.885353
| 56> H        -1.954421   -1.856399    0.000006
| 57> H        -2.702514   -0.514316   -0.885334
| 58> C        -0.970812    1.360372    0.000004
| 59> H         0.011324    1.822910   -0.000007
| 60> H        -1.518636    1.693334    0.884920
| 61> H        -1.518656    1.693334   -0.884901
| 62> *
| 63>
| 64>
| 65>
| 66>
| 67>                          ****END OF INPUT****
 Total Charge           Charge          ....    0
 Multiplicity           Mult            ....    2
 Number of Electrons    NEL             ....   47
MP2 TOTAL ENERGY:     -618.588920224 Eh
FINAL SINGLE POINT ENERGY      -618.588920224370
MP2 TOTAL ENERGY:     -618.794951943 Eh
FINAL SINGLE POINT ENERGY      -618.794951942620

CARTESIAN COORDINATES (ANGSTROEM)
---------------------------------
  Cl     1.948984   -0.075613   -0.000006
  N     -0.844698   -0.088179    0.000002
  B      0.342286   -0.777880   -0.000001
  C     -2.120164   -0.782452    0.000007
  H     -2.702507   -0.514317    0.885353
  H     -1.954421   -1.856399    0.000006
  H     -2.702514   -0.514316   -0.885334
  C     -0.970812    1.360372    0.000004
  H      0.011324    1.822910   -0.000007
  H     -1.518636    1.693334    0.884920
  H     -1.518656    1.693334   -0.884901

 Multiplicity           Mult            ....    2
 Number of Electrons    NEL             ....   47
 Basis Dimension        Dim             ....  680

ORBITAL ENERGIES
----------------
                 SPIN UP ORBITALS
  NO   OCC          E(Eh)            E(eV)
   0   1.0000    -104.821130     -2852.3279
   1   1.0000     -15.574729      -423.8099
   2   1.0000     -11.263375      -306.4920
   3   1.0000     -11.261764      -306.4482
   4   1.0000     -10.548821      -287.0480
   5   1.0000      -8.016781      -218.1477
   6   1.0000      -8.014359      -218.0818
   7   1.0000      -8.014239      -218.0785
   8   1.0000      -7.655363      -208.3130
   9   1.0000      -1.237533       -33.6750
  10   1.0000      -1.100882       -29.9565
  11   1.0000      -0.975615       -26.5478
  12   1.0000      -0.898536       -24.4504
  13   1.0000      -0.708879       -19.2896
  14   1.0000      -0.643504       -17.5106
  15   1.0000      -0.637895       -17.3580
  16   1.0000      -0.601893       -16.3783
  17   1.0000      -0.561454       -15.2779
  18   1.0000      -0.544122       -14.8063
  19   1.0000      -0.535407       -14.5692
  20   1.0000      -0.482178       -13.1207
  21   1.0000      -0.477658       -12.9977
  22   1.0000      -0.387015       -10.5312
  23   1.0000      -0.333813        -9.0835
  24   0.0000       0.022965         0.6249
  25   0.0000       0.033510         0.9119
  26   0.0000       0.034695         0.9441
  27   0.0000       0.039580         1.0770
  28   0.0000       0.051847         1.4108

                 SPIN DOWN ORBITALS
  NO   OCC          E(Eh)            E(eV)
   0   1.0000    -104.820092     -2852.2997
   1   1.0000     -15.576546      -423.8594
   2   1.0000     -11.262623      -306.4716
   3   1.0000     -11.260625      -306.4172
   4   1.0000     -10.547596      -287.0147
   5   1.0000      -8.014496      -218.0855
   6   1.0000      -8.013738      -218.0649
   7   1.0000      -8.012169      -218.0222
   8   1.0000      -7.633772      -207.7255
   9   1.0000      -1.236936       -33.6587
  10   1.0000      -1.091311       -29.6961
  11   1.0000      -0.972426       -26.4610
  12   1.0000      -0.891610       -24.2619
  13   1.0000      -0.698142       -18.9974
  14   1.0000      -0.647432       -17.6175
  15   1.0000      -0.631342       -17.1797
  16   1.0000      -0.577435       -15.7128
  17   1.0000      -0.561497       -15.2791
  18   1.0000      -0.538280       -14.6473
  19   1.0000      -0.532070       -14.4784
  20   1.0000      -0.478077       -13.0091
  21   1.0000      -0.458107       -12.4657
  22   1.0000      -0.396550       -10.7907
  23   0.0000       0.021987         0.5983
  24   0.0000       0.033973         0.9245
  25   0.0000       0.033981         0.9247
  26   0.0000       0.038035         1.0350
  27   0.0000       0.052098         1.4177

MULLIKEN ATOMIC CHARGES AND SPIN POPULATIONS
--------------------------------------------
   0 Cl:   -0.320378    0.028085
   1 N :   -0.197030   -0.137560
   2 B :    0.293834    1.063439
   3 C :   -0.852830    0.034840
   4 H :    0.289963    0.000105
   5 H :    0.346555   -0.002535
   6 H :    0.289963    0.000105
   7 C :   -0.793796    0.022371
   8 H :    0.360268   -0.000499
   9 H :    0.291728   -0.004176
  10 H :    0.291724   -0.004176
Sum of atomic charges         :    0.0000000

LOEWDIN ATOMIC CHARGES AND SPIN POPULATIONS
-------------------------------------------
   0 Cl:    1.204440    0.168896
   1 N :    0.365566    0.140318
   2 B :   -1.191522    0.555421
   3 C :    0.718749    0.055624
   4 H :   -0.279199    0.002804
   5 H :   -0.319694    0.041102
   6 H :   -0.279199    0.002804
   7 C :    0.702445    0.020538
   8 H :   -0.365733    0.006664
   9 H :   -0.277927    0.002914
  10 H :   -0.277927    0.002914

  Mayer bond orders larger than 0.100000
B(  0-Cl,  2-B ) :   0.9826 B(  1-N ,  2-B ) :   1.1362 B(  1-N ,  3-C ) :   0.9337
B(  1-N ,  7-C ) :   0.8729 B(  3-C ,  4-H ) :   0.9190 B(  3-C ,  5-H ) :   0.9006
B(  3-C ,  6-H ) :   0.9190 B(  7-C ,  8-H ) :   0.8877 B(  7-C ,  9-H ) :   0.9282
B(  7-C , 10-H ) :   0.9282

MP2 TOTAL ENERGY:     -618.860764619 Eh
FINAL SINGLE POINT ENERGY      -618.860764619007

DIPOLE MOMENT
-------------
                                X             Y             Z
Electronic contribution:     12.05856      -2.63725      -0.00004
Nuclear contribution   :    -13.14613       2.98891       0.00004
                        -----------------------------------------
Total Dipole Moment    :     -1.08757       0.35166       0.00000
                        -----------------------------------------
Magnitude (a.u.)       :      1.14301
Magnitude (Debye)      :      2.90530

Rotational constants in cm-1:     0.320371     0.071536     0.059789
Rotational constants in MHz :  9604.466406  2144.590771  1792.414491

                             ****ORCA TERMINATED NORMALLY****
TOTAL RUN TIME: 0 days 1 hours 20 minutes 39 seconds 505 msec
