                         Program Version 5.0.4 -  RELEASE  -
|  1> ! ri-mp2 aug-cc-pvdz aug-cc-pvdz/c tightscf
|  2> %pal nprocs 16 end
|  3> %maxcore 3800
|  4> %base "DZ_Si-Si_150_A"
|  5> %scf
|  6> STABPerform true
|  7> STABRestartUHFifUnstable true
|  8> end
|  9>
| 10> *xyz 0 2
| 11> Si         1.633814   -1.136333   -0.070544
| 12> B        -0.107693   -0.142911    0.009640
| 13> H         2.837558   -0.482503    0.492489
| 14> H         1.595356   -2.563767    0.309314
| 15> O        -1.227909   -0.903585    0.008344
| 16> O        -0.237556    1.209182    0.006863
| 17> C        -2.518221   -0.309822    0.006305
| 18> H        -3.246587   -1.116927   -0.011621
| 19> H        -2.652463    0.323672   -0.870808
| 20> H        -2.667450    0.296786    0.899810
| 21> C         0.865245    2.094368   -0.002980
| 22> H         0.483036    3.097916   -0.175824
| 23> H         1.568241    1.842506   -0.799388
| 24> H         1.388956    2.073480    0.953831
| 25> *
| 26>
| 27> $new_job
| 28> ! ri-mp2 aug-cc-pvtz aug-cc-pvtz/c tightscf
| 29> %pal nprocs 16 end
| 30> %maxcore 3800
| 31> %base "TZ_Si-Si_150_A"
| 32>
| 33> *xyz 0 2
| 34> Si         1.633814   -1.136333   -0.070544
| 35> B        -0.107693   -0.142911    0.009640
| 36> H         2.837558   -0.482503    0.492489
| 37> H         1.595356   -2.563767    0.309314
| 38> O        -1.227909   -0.903585    0.008344
| 39> O        -0.237556    1.209182    0.006863
| 40> C        -2.518221   -0.309822    0.006305
| 41> H        -3.246587   -1.116927   -0.011621
| 42> H        -2.652463    0.323672   -0.870808
| 43> H        -2.667450    0.296786    0.899810
| 44> C         0.865245    2.094368   -0.002980
| 45> H         0.483036    3.097916   -0.175824
| 46> H         1.568241    1.842506   -0.799388
| 47> H         1.388956    2.073480    0.953831
| 48> *
| 49>
| 50> $new_job
| 51> ! ri-mp2 aug-cc-pvqz aug-cc-pvqz/c tightscf
| 52> %pal nprocs 16 end
| 53> %maxcore 3800
| 54> %base "QZ_Si-Si_150_A"
| 55>
| 56> *xyz 0 2
| 57> Si         1.633814   -1.136333   -0.070544
| 58> B        -0.107693   -0.142911    0.009640
| 59> H         2.837558   -0.482503    0.492489
| 60> H         1.595356   -2.563767    0.309314
| 61> O        -1.227909   -0.903585    0.008344
| 62> O        -0.237556    1.209182    0.006863
| 63> C        -2.518221   -0.309822    0.006305
| 64> H        -3.246587   -1.116927   -0.011621
| 65> H        -2.652463    0.323672   -0.870808
| 66> H        -2.667450    0.296786    0.899810
| 67> C         0.865245    2.094368   -0.002980
| 68> H         0.483036    3.097916   -0.175824
| 69> H         1.568241    1.842506   -0.799388
| 70> H         1.388956    2.073480    0.953831
| 71> *
| 72>
| 73>
| 74>
| 75>
| 76>                          ****END OF INPUT****
 Total Charge           Charge          ....    0
 Multiplicity           Mult            ....    2
 Number of Electrons    NEL             ....   55
MP2 TOTAL ENERGY:     -544.663144078 Eh
FINAL SINGLE POINT ENERGY      -544.663144077807
MP2 TOTAL ENERGY:     -544.927509902 Eh
FINAL SINGLE POINT ENERGY      -544.927509901530

CARTESIAN COORDINATES (ANGSTROEM)
---------------------------------
  Si     1.633814   -1.136333   -0.070544
  B     -0.107693   -0.142911    0.009640
  H      2.837558   -0.482503    0.492489
  H      1.595356   -2.563767    0.309314
  O     -1.227909   -0.903585    0.008344
  O     -0.237556    1.209182    0.006863
  C     -2.518221   -0.309822    0.006305
  H     -3.246587   -1.116927   -0.011621
  H     -2.652463    0.323672   -0.870808
  H     -2.667450    0.296786    0.899810
  C      0.865245    2.094368   -0.002980
  H      0.483036    3.097916   -0.175824
  H      1.568241    1.842506   -0.799388
  H      1.388956    2.073480    0.953831

 Multiplicity           Mult            ....    2
 Number of Electrons    NEL             ....   55
 Basis Dimension        Dim             ....  852

ORBITAL ENERGIES
----------------
                 SPIN UP ORBITALS
  NO   OCC          E(Eh)            E(eV)
   0   1.0000     -68.759494     -1871.0410
   1   1.0000     -20.565973      -559.6286
   2   1.0000     -20.558176      -559.4164
   3   1.0000     -11.284945      -307.0790
   4   1.0000     -11.272304      -306.7350
   5   1.0000      -7.638478      -207.8536
   6   1.0000      -6.112316      -166.3246
   7   1.0000      -4.225832      -114.9907
   8   1.0000      -4.215510      -114.7099
   9   1.0000      -4.214891      -114.6930
  10   1.0000      -1.394822       -37.9550
  11   1.0000      -1.356881       -36.9226
  12   1.0000      -0.952001       -25.9053
  13   1.0000      -0.937788       -25.5185
  14   1.0000      -0.749634       -20.3986
  15   1.0000      -0.705866       -19.2076
  16   1.0000      -0.683687       -18.6041
  17   1.0000      -0.654509       -17.8101
  18   1.0000      -0.635470       -17.2920
  19   1.0000      -0.623833       -16.9754
  20   1.0000      -0.599402       -16.3106
  21   1.0000      -0.520184       -14.1549
  22   1.0000      -0.496721       -13.5165
  23   1.0000      -0.496407       -13.5079
  24   1.0000      -0.477793       -13.0014
  25   1.0000      -0.455967       -12.4075
  26   1.0000      -0.424687       -11.5563
  27   1.0000      -0.306975        -8.3532
  28   0.0000       0.023788         0.6473
  29   0.0000       0.031144         0.8475
  30   0.0000       0.033936         0.9234
  31   0.0000       0.037531         1.0213
  32   0.0000       0.046899         1.2762

                 SPIN DOWN ORBITALS
  NO   OCC          E(Eh)            E(eV)
   0   1.0000     -68.754151     -1870.8956
   1   1.0000     -20.565672      -559.6204
   2   1.0000     -20.557367      -559.3944
   3   1.0000     -11.284928      -307.0785
   4   1.0000     -11.272356      -306.7364
   5   1.0000      -7.638856      -207.8638
   6   1.0000      -6.104531      -166.1127
   7   1.0000      -4.211673      -114.6054
   8   1.0000      -4.211320      -114.5958
   9   1.0000      -4.203209      -114.3751
  10   1.0000      -1.393695       -37.9244
  11   1.0000      -1.355356       -36.8811
  12   1.0000      -0.951873       -25.9018
  13   1.0000      -0.937456       -25.5095
  14   1.0000      -0.737837       -20.0776
  15   1.0000      -0.687590       -18.7103
  16   1.0000      -0.678450       -18.4616
  17   1.0000      -0.651985       -17.7414
  18   1.0000      -0.623391       -16.9633
  19   1.0000      -0.621906       -16.9229
  20   1.0000      -0.599114       -16.3027
  21   1.0000      -0.519770       -14.1437
  22   1.0000      -0.496228       -13.5030
  23   1.0000      -0.493557       -13.4304
  24   1.0000      -0.475455       -12.9378
  25   1.0000      -0.451756       -12.2929
  26   1.0000      -0.417581       -11.3630
  27   0.0000       0.023509         0.6397
  28   0.0000       0.026066         0.7093
  29   0.0000       0.031742         0.8637
  30   0.0000       0.034140         0.9290
  31   0.0000       0.044624         1.2143

MULLIKEN ATOMIC CHARGES AND SPIN POPULATIONS
--------------------------------------------
   0 Si:    0.490544    1.082663
   1 B :    1.434283   -0.044512
   2 H :   -0.263064   -0.022004
   3 H :   -0.231524   -0.025278
   4 O :   -1.139537    0.009768
   5 O :   -1.100885   -0.002671
   6 C :   -0.699693   -0.002001
   7 H :    0.510362   -0.000039
   8 H :    0.312183    0.001623
   9 H :    0.309532    0.000602
  10 C :   -0.652213   -0.000427
  11 H :    0.443065   -0.000335
  12 H :    0.285333    0.003694
  13 H :    0.301613   -0.001085
Sum of atomic charges         :    0.0000000

LOEWDIN ATOMIC CHARGES AND SPIN POPULATIONS
-------------------------------------------
   0 Si:    1.201254    0.486242
   1 B :   -1.472705    0.193108
   2 H :   -0.356833    0.130575
   3 H :   -0.363802    0.127446
   4 O :    0.857274    0.021834
   5 O :    0.899144    0.012998
   6 C :    0.570725    0.001608
   7 H :   -0.316032    0.000025
   8 H :   -0.307214    0.000411
   9 H :   -0.305903   -0.000146
  10 C :    0.539162    0.014944
  11 H :   -0.309003    0.000221
  12 H :   -0.328831    0.008055
  13 H :   -0.307236    0.002678

  Mayer bond orders larger than 0.100000
B(  0-Si,  1-B ) :   0.8312 B(  0-Si,  2-H ) :   0.8671 B(  0-Si,  3-H ) :   0.8755
B(  1-B ,  4-O ) :   0.2610 B(  1-B ,  5-O ) :   0.3732 B(  4-O ,  5-O ) :  -0.1283
B(  4-O ,  6-C ) :   0.9526 B(  5-O , 10-C ) :   0.9233 B(  6-C ,  7-H ) :   0.7322
B(  6-C ,  8-H ) :   0.8896 B(  6-C ,  9-H ) :   0.8924 B( 10-C , 11-H ) :   0.8117
B( 10-C , 12-H ) :   0.9062 B( 10-C , 13-H ) :   0.9010

MP2 TOTAL ENERGY:     -545.010462100 Eh
FINAL SINGLE POINT ENERGY      -545.010462099714

DIPOLE MOMENT
-------------
                                X             Y             Z
Electronic contribution:      0.61619      -2.95226      -0.73920
Nuclear contribution   :     -0.73108       3.67128       0.79698
                        -----------------------------------------
Total Dipole Moment    :     -0.11490       0.71902       0.05779
                        -----------------------------------------
Magnitude (a.u.)       :      0.73043
Magnitude (Debye)      :      1.85661

Rotational constants in cm-1:     0.108182     0.073501     0.044606
Rotational constants in MHz :  3243.219815  2203.507554  1337.265926

                             ****ORCA TERMINATED NORMALLY****
TOTAL RUN TIME: 0 days 2 hours 37 minutes 0 seconds 171 msec
