                         Program Version 5.0.4 -  RELEASE  -
|  1> ! ri-mp2 aug-cc-pvdz aug-cc-pvdz/c tightscf
|  2> %pal nprocs 16 end
|  3> %maxcore 3800
|  4> %base "DZ_B-Cl_28_AB"
|  5>
|  6> *xyz 0 1
|  7> Cl        -1.772833   -0.625551    0.000011
|  8> Cl         0.243664    1.599816   -0.000011
|  9> B        -0.096730   -0.119105   -0.000001
| 10> C         1.020124   -1.173071    0.000005
| 11> C         2.315230   -0.871677   -0.000001
| 12> H         0.730505   -2.218888    0.000011
| 13> H         2.654599    0.156942   -0.000015
| 14> H         3.082293   -1.636547   -0.000005
| 15> *
| 16>
| 17> $new_job
| 18> ! ri-mp2 aug-cc-pvtz aug-cc-pvtz/c tightscf
| 19> %pal nprocs 16 end
| 20> %maxcore 3800
| 21> %base "TZ_B-Cl_28_AB"
| 22>
| 23> *xyz 0 1
| 24> Cl        -1.772833   -0.625551    0.000011
| 25> Cl         0.243664    1.599816   -0.000011
| 26> B        -0.096730   -0.119105   -0.000001
| 27> C         1.020124   -1.173071    0.000005
| 28> C         2.315230   -0.871677   -0.000001
| 29> H         0.730505   -2.218888    0.000011
| 30> H         2.654599    0.156942   -0.000015
| 31> H         3.082293   -1.636547   -0.000005
| 32> *
| 33>
| 34> $new_job
| 35> ! ri-mp2 aug-cc-pvqz aug-cc-pvqz/c tightscf
| 36> %pal nprocs 16 end
| 37> %maxcore 3800
| 38> %base "QZ_B-Cl_28_AB"
| 39>
| 40> *xyz 0 1
| 41> Cl        -1.772833   -0.625551    0.000011
| 42> Cl         0.243664    1.599816   -0.000011
| 43> B        -0.096730   -0.119105   -0.000001
| 44> C         1.020124   -1.173071    0.000005
| 45> C         2.315230   -0.871677   -0.000001
| 46> H         0.730505   -2.218888    0.000011
| 47> H         2.654599    0.156942   -0.000015
| 48> H         3.082293   -1.636547   -0.000005
| 49> *
| 50>
| 51>
| 52>
| 53>
| 54>                          ****END OF INPUT****
 Total Charge           Charge          ....    0
 Multiplicity           Mult            ....    1
 Number of Electrons    NEL             ....   54
MP2 TOTAL ENERGY:    -1021.911198900 Eh
FINAL SINGLE POINT ENERGY     -1021.911198899744
MP2 TOTAL ENERGY:    -1022.121765523 Eh
FINAL SINGLE POINT ENERGY     -1022.121765523241

CARTESIAN COORDINATES (ANGSTROEM)
---------------------------------
  Cl    -1.772833   -0.625551    0.000011
  Cl     0.243664    1.599816   -0.000011
  B     -0.096730   -0.119105   -0.000001
  C      1.020124   -1.173071    0.000005
  C      2.315230   -0.871677   -0.000001
  H      0.730505   -2.218888    0.000011
  H      2.654599    0.156942   -0.000015
  H      3.082293   -1.636547   -0.000005

 Multiplicity           Mult            ....    1
 Number of Electrons    NEL             ....   54
 Basis Dimension        Dim             ....  546

ORBITAL ENERGIES
----------------

  NO   OCC          E(Eh)            E(eV)
   0   2.0000    -104.838084     -2852.7893
   1   2.0000    -104.837862     -2852.7832
   2   2.0000     -11.265976      -306.5628
   3   2.0000     -11.230465      -305.5965
   4   2.0000     -10.566004      -287.5156
   5   2.0000     -10.565733      -287.5082
   6   2.0000      -8.032848      -218.5849
   7   2.0000      -8.032553      -218.5769
   8   2.0000      -8.031780      -218.5558
   9   2.0000      -8.031561      -218.5499
  10   2.0000      -8.031519      -218.5487
  11   2.0000      -8.031254      -218.5415
  12   2.0000      -7.705828      -209.6862
  13   2.0000      -1.144518       -31.1439
  14   2.0000      -1.097555       -29.8660
  15   2.0000      -1.059273       -28.8243
  16   2.0000      -0.823192       -22.4002
  17   2.0000      -0.693548       -18.8724
  18   2.0000      -0.648856       -17.6563
  19   2.0000      -0.611597       -16.6424
  20   2.0000      -0.554897       -15.0995
  21   2.0000      -0.524643       -14.2763
  22   2.0000      -0.520530       -14.1643
  23   2.0000      -0.465394       -12.6640
  24   2.0000      -0.463318       -12.6075
  25   2.0000      -0.451848       -12.2954
  26   2.0000      -0.402367       -10.9490
  27   0.0000       0.023360         0.6357
  28   0.0000       0.032667         0.8889
  29   0.0000       0.036621         0.9965
  30   0.0000       0.039219         1.0672
  31   0.0000       0.049519         1.3475

MULLIKEN ATOMIC CHARGES
-----------------------
   0 Cl:   -0.213731
   1 Cl:   -0.231035
   2 B :    0.705013
   3 C :   -0.774938
   4 C :   -0.752741
   5 H :    0.454933
   6 H :    0.480575
   7 H :    0.331924
Sum of atomic charges:    0.0000000

LOEWDIN ATOMIC CHARGES
----------------------
   0 Cl:    1.245984
   1 Cl:    1.266263
   2 B :   -2.361906
   3 C :    0.245518
   4 C :    0.727266
   5 H :   -0.407651
   6 H :   -0.387820
   7 H :   -0.327653

  Mayer bond orders larger than 0.100000
B(  0-Cl,  2-B ) :   0.9686 B(  0-Cl,  3-C ) :   0.1894 B(  1-Cl,  2-B ) :   1.0433
B(  2-B ,  3-C ) :   1.0906 B(  3-C ,  4-C ) :   1.7555 B(  3-C ,  5-H ) :   0.7707
B(  4-C ,  6-H ) :   0.7603 B(  4-C ,  7-H ) :   0.9513

MP2 TOTAL ENERGY:    -1022.191834789 Eh
FINAL SINGLE POINT ENERGY     -1022.191834789139

DIPOLE MOMENT
-------------
                                X             Y             Z
Electronic contribution:     -7.36900       4.23791       0.00000
Nuclear contribution   :      8.14320      -4.65889      -0.00001
                        -----------------------------------------
Total Dipole Moment    :      0.77421      -0.42098      -0.00001
                        -----------------------------------------
Magnitude (a.u.)       :      0.88126
Magnitude (Debye)      :      2.23999

Rotational constants in cm-1:     0.123236     0.080996     0.048874
Rotational constants in MHz :  3694.522568  2428.209086  1465.207652

                             ****ORCA TERMINATED NORMALLY****
TOTAL RUN TIME: 0 days 0 hours 4 minutes 2 seconds 229 msec
