                         Program Version 5.0.4 -  RELEASE  -
|  1> ! ri-mp2 aug-cc-pvdz aug-cc-pvdz/c tightscf
|  2> %pal nprocs 16 end
|  3> %maxcore 3800
|  4> %base "DZ_B-S_46_AB"
|  5> %scf
|  6> STABPerform true
|  7> STABRestartUHFifUnstable true
|  8> end
|  9>
| 10> *xyz 0 1
| 11> S         0.257237   -1.041400   -0.000021
| 12> B        -1.230511   -0.042306    0.000090
| 13> S        -2.789862   -0.970833    0.000230
| 14> C         1.816885   -0.045146   -0.000135
| 15> C         2.914029   -1.108482   -0.000191
| 16> H         2.850079   -1.743107   -0.883729
| 17> H         2.850196   -1.743079    0.883376
| 18> C         1.936699    0.793489    1.265640
| 19> H         2.898527    1.311036    1.268967
| 20> H         1.886380    0.161620    2.151356
| 21> H         1.153684    1.542670    1.351893
| 22> C         1.936536    0.793453   -1.265950
| 23> H         1.886100    0.161559   -2.151641
| 24> H         2.898364    1.311000   -1.269416
| 25> H         1.153510    1.542632   -1.352121
| 26> H         3.889782   -0.619781   -0.000263
| 27> S        -1.495806    1.745222    0.000089
| 28> H        -0.228163    2.159027   -0.000051
| 29> H        -2.255904   -2.199755    0.000232
| 30> *
| 31>
| 32> $new_job
| 33> ! ri-mp2 aug-cc-pvtz aug-cc-pvtz/c tightscf
| 34> %pal nprocs 16 end
| 35> %maxcore 3800
| 36> %base "TZ_B-S_46_AB"
| 37>
| 38> *xyz 0 1
| 39> S         0.257237   -1.041400   -0.000021
| 40> B        -1.230511   -0.042306    0.000090
| 41> S        -2.789862   -0.970833    0.000230
| 42> C         1.816885   -0.045146   -0.000135
| 43> C         2.914029   -1.108482   -0.000191
| 44> H         2.850079   -1.743107   -0.883729
| 45> H         2.850196   -1.743079    0.883376
| 46> C         1.936699    0.793489    1.265640
| 47> H         2.898527    1.311036    1.268967
| 48> H         1.886380    0.161620    2.151356
| 49> H         1.153684    1.542670    1.351893
| 50> C         1.936536    0.793453   -1.265950
| 51> H         1.886100    0.161559   -2.151641
| 52> H         2.898364    1.311000   -1.269416
| 53> H         1.153510    1.542632   -1.352121
| 54> H         3.889782   -0.619781   -0.000263
| 55> S        -1.495806    1.745222    0.000089
| 56> H        -0.228163    2.159027   -0.000051
| 57> H        -2.255904   -2.199755    0.000232
| 58> *
| 59>
| 60> $new_job
| 61> ! ri-mp2 aug-cc-pvqz aug-cc-pvqz/c tightscf
| 62> %pal nprocs 16 end
| 63> %maxcore 3800
| 64> %base "QZ_B-S_46_AB"
| 65>
| 66> *xyz 0 1
| 67> S         0.257237   -1.041400   -0.000021
| 68> B        -1.230511   -0.042306    0.000090
| 69> S        -2.789862   -0.970833    0.000230
| 70> C         1.816885   -0.045146   -0.000135
| 71> C         2.914029   -1.108482   -0.000191
| 72> H         2.850079   -1.743107   -0.883729
| 73> H         2.850196   -1.743079    0.883376
| 74> C         1.936699    0.793489    1.265640
| 75> H         2.898527    1.311036    1.268967
| 76> H         1.886380    0.161620    2.151356
| 77> H         1.153684    1.542670    1.351893
| 78> C         1.936536    0.793453   -1.265950
| 79> H         1.886100    0.161559   -2.151641
| 80> H         2.898364    1.311000   -1.269416
| 81> H         1.153510    1.542632   -1.352121
| 82> H         3.889782   -0.619781   -0.000263
| 83> S        -1.495806    1.745222    0.000089
| 84> H        -0.228163    2.159027   -0.000051
| 85> H        -2.255904   -2.199755    0.000232
| 86> *
| 87>
| 88>
| 89>
| 90>
| 91>                          ****END OF INPUT****
 Total Charge           Charge          ....    0
 Multiplicity           Mult            ....    1
 Number of Electrons    NEL             ....   88
MP2 TOTAL ENERGY:    -1376.400062670 Eh
FINAL SINGLE POINT ENERGY     -1376.400062669547
MP2 TOTAL ENERGY:    -1376.725536139 Eh
FINAL SINGLE POINT ENERGY     -1376.725536139448

CARTESIAN COORDINATES (ANGSTROEM)
---------------------------------
  S      0.257237   -1.041400   -0.000021
  B     -1.230511   -0.042306    0.000090
  S     -2.789862   -0.970833    0.000230
  C      1.816885   -0.045146   -0.000135
  C      2.914029   -1.108482   -0.000191
  H      2.850079   -1.743107   -0.883729
  H      2.850196   -1.743079    0.883376
  C      1.936699    0.793489    1.265640
  H      2.898527    1.311036    1.268967
  H      1.886380    0.161620    2.151356
  H      1.153684    1.542670    1.351893
  C      1.936536    0.793453   -1.265950
  H      1.886100    0.161559   -2.151641
  H      2.898364    1.311000   -1.269416
  H      1.153510    1.542632   -1.352121
  H      3.889782   -0.619781   -0.000263
  S     -1.495806    1.745222    0.000089
  H     -0.228163    2.159027   -0.000051
  H     -2.255904   -2.199755    0.000232

 Multiplicity           Mult            ....    1
 Number of Electrons    NEL             ....   88
 Basis Dimension        Dim             .... 1158

ORBITAL ENERGIES
----------------

  NO   OCC          E(Eh)            E(eV)
   0   2.0000     -91.959137     -2502.3353
   1   2.0000     -91.950852     -2502.1099
   2   2.0000     -91.947413     -2502.0163
   3   2.0000     -11.286004      -307.1078
   4   2.0000     -11.230219      -305.5898
   5   2.0000     -11.230204      -305.5894
   6   2.0000     -11.229978      -305.5832
   7   2.0000      -8.964243      -243.9295
   8   2.0000      -8.955864      -243.7015
   9   2.0000      -8.952476      -243.6092
  10   2.0000      -7.673811      -208.8150
  11   2.0000      -6.645858      -180.8430
  12   2.0000      -6.644825      -180.8149
  13   2.0000      -6.644321      -180.8012
  14   2.0000      -6.637430      -180.6137
  15   2.0000      -6.636505      -180.5885
  16   2.0000      -6.635934      -180.5729
  17   2.0000      -6.633960      -180.5192
  18   2.0000      -6.632937      -180.4914
  19   2.0000      -6.632651      -180.4836
  20   2.0000      -1.132168       -30.8079
  21   2.0000      -1.022301       -27.8182
  22   2.0000      -0.968307       -26.3490
  23   2.0000      -0.957418       -26.0527
  24   2.0000      -0.951800       -25.8998
  25   2.0000      -0.941756       -25.6265
  26   2.0000      -0.759398       -20.6643
  27   2.0000      -0.668590       -18.1933
  28   2.0000      -0.637734       -17.3536
  29   2.0000      -0.626053       -17.0358
  30   2.0000      -0.620675       -16.8894
  31   2.0000      -0.567908       -15.4536
  32   2.0000      -0.564587       -15.3632
  33   2.0000      -0.534119       -14.5341
  34   2.0000      -0.533874       -14.5275
  35   2.0000      -0.528799       -14.3894
  36   2.0000      -0.499034       -13.5794
  37   2.0000      -0.494908       -13.4671
  38   2.0000      -0.489426       -13.3180
  39   2.0000      -0.448338       -12.1999
  40   2.0000      -0.433944       -11.8082
  41   2.0000      -0.413162       -11.2427
  42   2.0000      -0.371401       -10.1063
  43   2.0000      -0.356749        -9.7076
  44   0.0000       0.021088         0.5738
  45   0.0000       0.029391         0.7998
  46   0.0000       0.031471         0.8564
  47   0.0000       0.033935         0.9234
  48   0.0000       0.044410         1.2085

MULLIKEN ATOMIC CHARGES
-----------------------
   0 S :   -0.160419
   1 B :    0.154835
   2 S :   -0.167400
   3 C :    1.089148
   4 C :   -1.089543
   5 H :    0.273595
   6 H :    0.273594
   7 C :   -1.152335
   8 H :    0.274977
   9 H :    0.278046
  10 H :    0.297223
  11 C :   -1.152332
  12 H :    0.278048
  13 H :    0.274975
  14 H :    0.297220
  15 H :    0.312534
  16 S :   -0.007232
  17 H :   -0.105595
  18 H :    0.030661
Sum of atomic charges:   -0.0000000

LOEWDIN ATOMIC CHARGES
----------------------
   0 S :    1.398043
   1 B :   -2.103890
   2 S :    1.532133
   3 C :   -0.632649
   4 C :    0.801131
   5 H :   -0.290504
   6 H :   -0.290504
   7 C :    0.837137
   8 H :   -0.267573
   9 H :   -0.281738
  10 H :   -0.346636
  11 C :    0.837138
  12 H :   -0.281738
  13 H :   -0.267572
  14 H :   -0.346634
  15 H :   -0.272971
  16 S :    1.660640
  17 H :   -0.854060
  18 H :   -0.829752

  Mayer bond orders larger than 0.100000
B(  0-S ,  1-B ) :   1.3227 B(  0-S ,  3-C ) :   0.7059 B(  0-S ,  4-C ) :   0.1012
B(  1-B ,  2-S ) :   1.0543 B(  1-B , 16-S ) :   1.0286 B(  1-B , 17-H ) :  -0.1133
B(  1-B , 18-H ) :  -0.1213 B(  2-S , 18-H ) :   1.0630 B(  3-C ,  4-C ) :   0.3822
B(  3-C ,  5-H ) :  -0.1155 B(  3-C ,  6-H ) :  -0.1155 B(  3-C ,  7-C ) :   0.5479
B(  3-C , 11-C ) :   0.5479 B(  4-C ,  5-H ) :   1.0154 B(  4-C ,  6-H ) :   1.0154
B(  4-C , 15-H ) :   0.9593 B(  7-C ,  8-H ) :   0.9596 B(  7-C ,  9-H ) :   1.0240
B(  7-C , 10-H ) :   0.9726 B( 11-C , 12-H ) :   1.0240 B( 11-C , 13-H ) :   0.9596
B( 11-C , 14-H ) :   0.9726 B( 16-S , 17-H ) :   1.1572

MP2 TOTAL ENERGY:    -1376.828419413 Eh
FINAL SINGLE POINT ENERGY     -1376.828419413430

DIPOLE MOMENT
-------------
                                X             Y             Z
Electronic contribution:    -18.63684      -1.74049       0.00137
Nuclear contribution   :     19.99538       1.91628      -0.00147
                        -----------------------------------------
Total Dipole Moment    :      1.35854       0.17579      -0.00010
                        -----------------------------------------
Magnitude (a.u.)       :      1.36986
Magnitude (Debye)      :      3.48191

Rotational constants in cm-1:     0.061697     0.024465     0.019841
Rotational constants in MHz :  1849.642031   733.435050   594.819739

                             ****ORCA TERMINATED NORMALLY****
TOTAL RUN TIME: 0 days 5 hours 20 minutes 38 seconds 213 msec
