                         Program Version 5.0.4 -  RELEASE  -
|  1> ! ri-mp2 aug-cc-pvdz aug-cc-pvdz/c tightscf
|  2> %pal nprocs 16 end
|  3> %maxcore 3800
|  4> %base "DZ_Si-Si_80_AB"
|  5> %scf
|  6> STABPerform true
|  7> STABRestartUHFifUnstable true
|  8> end
|  9>
| 10> *xyz 0 1
| 11> Si         1.876282   -0.400470   -0.048519
| 12> Si        -0.117389    0.821586    0.000564
| 13> C        -1.565361   -0.298637    0.472981
| 14> H        -0.423850    1.391224   -1.332879
| 15> H        -0.002925    1.917113    0.991359
| 16> H         2.111783   -1.026880    1.271613
| 17> H         3.015935    0.488378   -0.365819
| 18> N        -2.527154   -0.639575   -0.276891
| 19> H         1.793253   -1.463364   -1.074073
| 20> H        -2.453159   -0.216429   -1.203860
| 21> H        -1.583300   -0.716816    1.485375
| 22> *
| 23>
| 24> $new_job
| 25> ! ri-mp2 aug-cc-pvtz aug-cc-pvtz/c tightscf
| 26> %pal nprocs 16 end
| 27> %maxcore 3800
| 28> %base "TZ_Si-Si_80_AB"
| 29>
| 30> *xyz 0 1
| 31> Si         1.876282   -0.400470   -0.048519
| 32> Si        -0.117389    0.821586    0.000564
| 33> C        -1.565361   -0.298637    0.472981
| 34> H        -0.423850    1.391224   -1.332879
| 35> H        -0.002925    1.917113    0.991359
| 36> H         2.111783   -1.026880    1.271613
| 37> H         3.015935    0.488378   -0.365819
| 38> N        -2.527154   -0.639575   -0.276891
| 39> H         1.793253   -1.463364   -1.074073
| 40> H        -2.453159   -0.216429   -1.203860
| 41> H        -1.583300   -0.716816    1.485375
| 42> *
| 43>
| 44> $new_job
| 45> ! ri-mp2 aug-cc-pvqz aug-cc-pvqz/c tightscf
| 46> %pal nprocs 16 end
| 47> %maxcore 3800
| 48> %base "QZ_Si-Si_80_AB"
| 49>
| 50> *xyz 0 1
| 51> Si         1.876282   -0.400470   -0.048519
| 52> Si        -0.117389    0.821586    0.000564
| 53> C        -1.565361   -0.298637    0.472981
| 54> H        -0.423850    1.391224   -1.332879
| 55> H        -0.002925    1.917113    0.991359
| 56> H         2.111783   -1.026880    1.271613
| 57> H         3.015935    0.488378   -0.365819
| 58> N        -2.527154   -0.639575   -0.276891
| 59> H         1.793253   -1.463364   -1.074073
| 60> H        -2.453159   -0.216429   -1.203860
| 61> H        -1.583300   -0.716816    1.485375
| 62> *
| 63>
| 64>
| 65>
| 66>
| 67>                          ****END OF INPUT****
 Total Charge           Charge          ....    0
 Multiplicity           Mult            ....    1
 Number of Electrons    NEL             ....   48
MP2 TOTAL ENERGY:     -674.756004339 Eh
FINAL SINGLE POINT ENERGY      -674.756004339334
MP2 TOTAL ENERGY:     -674.911528763 Eh
FINAL SINGLE POINT ENERGY      -674.911528762516

CARTESIAN COORDINATES (ANGSTROEM)
---------------------------------
  Si     1.876282   -0.400470   -0.048519
  Si    -0.117389    0.821586    0.000564
  C     -1.565361   -0.298637    0.472981
  H     -0.423850    1.391224   -1.332879
  H     -0.002925    1.917113    0.991359
  H      2.111783   -1.026880    1.271613
  H      3.015935    0.488378   -0.365819
  N     -2.527154   -0.639575   -0.276891
  H      1.793253   -1.463364   -1.074073
  H     -2.453159   -0.216429   -1.203860
  H     -1.583300   -0.716816    1.485375

 Multiplicity           Mult            ....    1
 Number of Electrons    NEL             ....   48
 Basis Dimension        Dim             ....  650

ORBITAL ENERGIES
----------------

  NO   OCC          E(Eh)            E(eV)
   0   2.0000     -68.780363     -1871.6088
   1   2.0000     -68.776137     -1871.4938
   2   2.0000     -15.567457      -423.6120
   3   2.0000     -11.272018      -306.7272
   4   2.0000      -6.131428      -166.8446
   5   2.0000      -6.127102      -166.7269
   6   2.0000      -4.237576      -115.3103
   7   2.0000      -4.237466      -115.3073
   8   2.0000      -4.237319      -115.3033
   9   2.0000      -4.233200      -115.1912
  10   2.0000      -4.233152      -115.1899
  11   2.0000      -4.233127      -115.1892
  12   2.0000      -1.211904       -32.9776
  13   2.0000      -0.843597       -22.9554
  14   2.0000      -0.760722       -20.7003
  15   2.0000      -0.698508       -19.0074
  16   2.0000      -0.616074       -16.7642
  17   2.0000      -0.574451       -15.6316
  18   2.0000      -0.509659       -13.8685
  19   2.0000      -0.495821       -13.4920
  20   2.0000      -0.483761       -13.1638
  21   2.0000      -0.465977       -12.6799
  22   2.0000      -0.415678       -11.3112
  23   2.0000      -0.388008       -10.5582
  24   0.0000       0.023391         0.6365
  25   0.0000       0.028896         0.7863
  26   0.0000       0.034387         0.9357
  27   0.0000       0.037953         1.0327
  28   0.0000       0.047769         1.2999

MULLIKEN ATOMIC CHARGES
-----------------------
   0 Si:    0.368021
   1 Si:    0.770999
   2 C :   -0.396817
   3 H :   -0.208441
   4 H :   -0.196212
   5 H :   -0.132412
   6 H :   -0.148929
   7 N :   -0.718734
   8 H :   -0.133497
   9 H :    0.318792
  10 H :    0.477231
Sum of atomic charges:   -0.0000000

LOEWDIN ATOMIC CHARGES
----------------------
   0 Si:    1.044376
   1 Si:    0.688759
   2 C :    0.015299
   3 H :   -0.267425
   4 H :   -0.278158
   5 H :   -0.315881
   6 H :   -0.319925
   7 N :    0.899017
   8 H :   -0.314737
   9 H :   -0.712820
  10 H :   -0.438504

  Mayer bond orders larger than 0.100000
B(  0-Si,  1-Si) :   0.7587 B(  0-Si,  5-H ) :   0.7826 B(  0-Si,  6-H ) :   0.7916
B(  0-Si,  8-H ) :   0.7658 B(  1-Si,  2-C ) :   0.7149 B(  1-Si,  3-H ) :   0.8202
B(  1-Si,  4-H ) :   0.8154 B(  2-C ,  7-N ) :   1.7111 B(  2-C , 10-H ) :   0.7455
B(  7-N ,  9-H ) :   0.8006

MP2 TOTAL ENERGY:     -674.962284767 Eh
FINAL SINGLE POINT ENERGY      -674.962284766754

DIPOLE MOMENT
-------------
                                X             Y             Z
Electronic contribution:     -1.65612       0.08195       0.20945
Nuclear contribution   :      2.35972       0.34738      -0.22929
                        -----------------------------------------
Total Dipole Moment    :      0.70361       0.42933      -0.01984
                        -----------------------------------------
Magnitude (a.u.)       :      0.82449
Magnitude (Debye)      :      2.09567

Rotational constants in cm-1:     0.317235     0.065595     0.059414
Rotational constants in MHz :  9510.457148  1966.499655  1781.180726

                             ****ORCA TERMINATED NORMALLY****
TOTAL RUN TIME: 0 days 0 hours 39 minutes 3 seconds 937 msec
