                         Program Version 5.0.4 -  RELEASE  -
|  1> ! ri-mp2 aug-cc-pvdz aug-cc-pvdz/c tightscf
|  2> %pal nprocs 16 end
|  3> %maxcore 3800
|  4> %base "DZ_B-Cl_12_A"
|  5> %scf
|  6> STABPerform true
|  7> STABRestartUHFifUnstable true
|  8> end
|  9>
| 10> *xyz 0 2
| 11> Cl         1.623815   -0.090707    0.000201
| 12> B         0.086786    0.665726    0.051637
| 13> P        -1.613936   -0.089969   -0.117379
| 14> H        -2.322205    0.763374    0.748342
| 15> H        -1.507538   -1.200456    0.750751
| 16> *
| 17>
| 18> $new_job
| 19> ! ri-mp2 aug-cc-pvtz aug-cc-pvtz/c tightscf
| 20> %pal nprocs 16 end
| 21> %maxcore 3800
| 22> %base "TZ_B-Cl_12_A"
| 23>
| 24> *xyz 0 2
| 25> Cl         1.623815   -0.090707    0.000201
| 26> B         0.086786    0.665726    0.051637
| 27> P        -1.613936   -0.089969   -0.117379
| 28> H        -2.322205    0.763374    0.748342
| 29> H        -1.507538   -1.200456    0.750751
| 30> *
| 31>
| 32> $new_job
| 33> ! ri-mp2 aug-cc-pvqz aug-cc-pvqz/c tightscf
| 34> %pal nprocs 16 end
| 35> %maxcore 3800
| 36> %base "QZ_B-Cl_12_A"
| 37>
| 38> *xyz 0 2
| 39> Cl         1.623815   -0.090707    0.000201
| 40> B         0.086786    0.665726    0.051637
| 41> P        -1.613936   -0.089969   -0.117379
| 42> H        -2.322205    0.763374    0.748342
| 43> H        -1.507538   -1.200456    0.750751
| 44> *
| 45>
| 46>
| 47>
| 48>
| 49>                          ****END OF INPUT****
 Total Charge           Charge          ....    0
 Multiplicity           Mult            ....    2
 Number of Electrons    NEL             ....   39
MP2 TOTAL ENERGY:     -826.408817609 Eh
FINAL SINGLE POINT ENERGY      -826.408817608688
MP2 TOTAL ENERGY:     -826.529343462 Eh
FINAL SINGLE POINT ENERGY      -826.529343462133

CARTESIAN COORDINATES (ANGSTROEM)
---------------------------------
  Cl     1.623815   -0.090707    0.000201
  B      0.086786    0.665726    0.051637
  P     -1.613936   -0.089969   -0.117379
  H     -2.322205    0.763374    0.748342
  H     -1.507538   -1.200456    0.750751

 Multiplicity           Mult            ....    2
 Number of Electrons    NEL             ....   39
 Basis Dimension        Dim             ....  340

ORBITAL ENERGIES
----------------
                 SPIN UP ORBITALS
  NO   OCC          E(Eh)            E(eV)
   0   1.0000    -104.853495     -2853.2086
   1   1.0000     -79.946788     -2175.4627
   2   1.0000     -10.580908      -287.9211
   3   1.0000      -8.048430      -219.0089
   4   1.0000      -8.046632      -218.9600
   5   1.0000      -8.046214      -218.9486
   6   1.0000      -7.689907      -209.2530
   7   1.0000      -7.492448      -203.8799
   8   1.0000      -5.386980      -146.5872
   9   1.0000      -5.386213      -146.5663
  10   1.0000      -5.385740      -146.5534
  11   1.0000      -1.136498       -30.9257
  12   1.0000      -0.880471       -23.9588
  13   1.0000      -0.665379       -18.1059
  14   1.0000      -0.561781       -15.2868
  15   1.0000      -0.542753       -14.7691
  16   1.0000      -0.505714       -13.7612
  17   1.0000      -0.498198       -13.5567
  18   1.0000      -0.394004       -10.7214
  19   1.0000      -0.330384        -8.9902
  20   0.0000       0.026179         0.7124
  21   0.0000       0.036056         0.9811
  22   0.0000       0.038939         1.0596
  23   0.0000       0.039661         1.0792
  24   0.0000       0.051608         1.4043

                 SPIN DOWN ORBITALS
  NO   OCC          E(Eh)            E(eV)
   0   1.0000    -104.852808     -2853.1900
   1   1.0000     -79.946549     -2175.4562
   2   1.0000     -10.580116      -287.8996
   3   1.0000      -8.047345      -218.9794
   4   1.0000      -8.046397      -218.9536
   5   1.0000      -8.044108      -218.8913
   6   1.0000      -7.670486      -208.7245
   7   1.0000      -7.492052      -203.8691
   8   1.0000      -5.386491      -146.5739
   9   1.0000      -5.385849      -146.5564
  10   1.0000      -5.385306      -146.5416
  11   1.0000      -1.128322       -30.7032
  12   1.0000      -0.868519       -23.6336
  13   1.0000      -0.634021       -17.2526
  14   1.0000      -0.543917       -14.8007
  15   1.0000      -0.524915       -14.2837
  16   1.0000      -0.501794       -13.6545
  17   1.0000      -0.475494       -12.9389
  18   1.0000      -0.384541       -10.4639
  19   0.0000       0.021797         0.5931
  20   0.0000       0.036386         0.9901
  21   0.0000       0.039133         1.0649
  22   0.0000       0.040710         1.1078
  23   0.0000       0.056528         1.5382

MULLIKEN ATOMIC CHARGES AND SPIN POPULATIONS
--------------------------------------------
   0 Cl:   -0.188242    0.028014
   1 B :    0.086330    0.956748
   2 P :    0.168677   -0.011042
   3 H :   -0.029953   -0.005193
   4 H :   -0.036812    0.031474
Sum of atomic charges         :   -0.0000000

LOEWDIN ATOMIC CHARGES AND SPIN POPULATIONS
-------------------------------------------
   0 Cl:    1.109985    0.186769
   1 B :   -1.401425    0.601263
   2 P :    1.378013    0.166906
   3 H :   -0.553994    0.015748
   4 H :   -0.532578    0.029314

  Mayer bond orders larger than 0.100000
B(  0-Cl,  1-B ) :   1.1982 B(  1-B ,  2-P ) :   1.1070 B(  2-P ,  3-H ) :   0.8917
B(  2-P ,  4-H ) :   0.8974

MP2 TOTAL ENERGY:     -826.569996125 Eh
FINAL SINGLE POINT ENERGY      -826.569996124886

DIPOLE MOMENT
-------------
                                X             Y             Z
Electronic contribution:      4.08789       0.61309      -1.16426
Nuclear contribution   :     -4.33050      -0.70060       1.45004
                        -----------------------------------------
Total Dipole Moment    :     -0.24261      -0.08752       0.28578
                        -----------------------------------------
Magnitude (a.u.)       :      0.38495
Magnitude (Debye)      :      0.97847

Rotational constants in cm-1:     1.900654     0.092003     0.089127
Rotational constants in MHz : 56980.187196  2758.176702  2671.958269

                             ****ORCA TERMINATED NORMALLY****
TOTAL RUN TIME: 0 days 0 hours 9 minutes 8 seconds 964 msec
