                         Program Version 5.0.4 -  RELEASE  -
|  1> ! ri-mp2 aug-cc-pvdz aug-cc-pvdz/c tightscf
|  2> %pal nprocs 16 end
|  3> %maxcore 3800
|  4> %base "DZ_P-C_35_A"
|  5> %scf
|  6> STABPerform true
|  7> STABRestartUHFifUnstable true
|  8> end
|  9>
| 10> *xyz 0 2
| 11> C         0.000007    0.000000    0.323383
| 12> F        -0.596243   -1.102514   -0.071865
| 13> F        -0.656695    1.067612   -0.071863
| 14> F         1.252933    0.034902   -0.071861
| 15> *
| 16>
| 17> $new_job
| 18> ! ri-mp2 aug-cc-pvtz aug-cc-pvtz/c tightscf
| 19> %pal nprocs 16 end
| 20> %maxcore 3800
| 21> %base "TZ_P-C_35_A"
| 22>
| 23> *xyz 0 2
| 24> C         0.000007    0.000000    0.323383
| 25> F        -0.596243   -1.102514   -0.071865
| 26> F        -0.656695    1.067612   -0.071863
| 27> F         1.252933    0.034902   -0.071861
| 28> *
| 29>
| 30> $new_job
| 31> ! ri-mp2 aug-cc-pvqz aug-cc-pvqz/c tightscf
| 32> %pal nprocs 16 end
| 33> %maxcore 3800
| 34> %base "QZ_P-C_35_A"
| 35>
| 36> *xyz 0 2
| 37> C         0.000007    0.000000    0.323383
| 38> F        -0.596243   -1.102514   -0.071865
| 39> F        -0.656695    1.067612   -0.071863
| 40> F         1.252933    0.034902   -0.071861
| 41> *
| 42>
| 43>
| 44>
| 45>
| 46>                          ****END OF INPUT****
 Total Charge           Charge          ....    0
 Multiplicity           Mult            ....    2
 Number of Electrons    NEL             ....   33
MP2 TOTAL ENERGY:     -336.887466648 Eh
FINAL SINGLE POINT ENERGY      -336.887466647723
MP2 TOTAL ENERGY:     -337.168252257 Eh
FINAL SINGLE POINT ENERGY      -337.168252257362

CARTESIAN COORDINATES (ANGSTROEM)
---------------------------------
  C      0.000007    0.000000    0.323383
  F     -0.596243   -1.102514   -0.071865
  F     -0.656695    1.067612   -0.071863
  F      1.252933    0.034902   -0.071861

 Multiplicity           Mult            ....    2
 Number of Electrons    NEL             ....   33
 Basis Dimension        Dim             ....  320

ORBITAL ENERGIES
----------------
                 SPIN UP ORBITALS
  NO   OCC          E(Eh)            E(eV)
   0   1.0000     -26.367619      -717.4994
   1   1.0000     -26.367616      -717.4993
   2   1.0000     -26.367589      -717.4986
   3   1.0000     -11.523924      -313.5819
   4   1.0000      -1.765810       -48.0501
   5   1.0000      -1.672331       -45.5065
   6   1.0000      -1.672327       -45.5063
   7   1.0000      -0.998903       -27.1815
   8   1.0000      -0.857351       -23.3297
   9   1.0000      -0.857349       -23.3296
  10   1.0000      -0.849941       -23.1281
  11   1.0000      -0.742656       -20.2087
  12   1.0000      -0.742654       -20.2086
  13   1.0000      -0.697430       -18.9780
  14   1.0000      -0.697427       -18.9780
  15   1.0000      -0.678059       -18.4509
  16   1.0000      -0.481698       -13.1077
  17   0.0000       0.057594         1.5672
  18   0.0000       0.067190         1.8283
  19   0.0000       0.067190         1.8283
  20   0.0000       0.068132         1.8540
  21   0.0000       0.155436         4.2296

                 SPIN DOWN ORBITALS
  NO   OCC          E(Eh)            E(eV)
   0   1.0000     -26.362651      -717.3642
   1   1.0000     -26.362649      -717.3642
   2   1.0000     -26.362612      -717.3632
   3   1.0000     -11.493207      -312.7461
   4   1.0000      -1.747770       -47.5592
   5   1.0000      -1.658240       -45.1230
   6   1.0000      -1.658236       -45.1229
   7   1.0000      -0.959759       -26.1164
   8   1.0000      -0.843968       -22.9655
   9   1.0000      -0.843966       -22.9655
  10   1.0000      -0.776499       -21.1296
  11   1.0000      -0.716311       -19.4918
  12   1.0000      -0.716309       -19.4918
  13   1.0000      -0.687478       -18.7072
  14   1.0000      -0.687476       -18.7072
  15   1.0000      -0.674217       -18.3464
  16   0.0000       0.041021         1.1162
  17   0.0000       0.067645         1.8407
  18   0.0000       0.067645         1.8407
  19   0.0000       0.068421         1.8618
  20   0.0000       0.118918         3.2359

MULLIKEN ATOMIC CHARGES AND SPIN POPULATIONS
--------------------------------------------
   0 C :    1.314106    0.890598
   1 F :   -0.438036    0.036467
   2 F :   -0.438036    0.036467
   3 F :   -0.438034    0.036468
Sum of atomic charges         :   -0.0000000

LOEWDIN ATOMIC CHARGES AND SPIN POPULATIONS
-------------------------------------------
   0 C :   -1.889533    0.571891
   1 F :    0.629842    0.142702
   2 F :    0.629842    0.142702
   3 F :    0.629849    0.142705

  Mayer bond orders larger than 0.100000
B(  0-C ,  1-F ) :   0.8074 B(  0-C ,  2-F ) :   0.8074 B(  0-C ,  3-F ) :   0.8074

MP2 TOTAL ENERGY:     -337.260959096 Eh
FINAL SINGLE POINT ENERGY      -337.260959096412

DIPOLE MOMENT
-------------
                                X             Y             Z
Electronic contribution:      0.00002       0.00000       0.04370
Nuclear contribution   :      0.00000      -0.00000       0.19123
                        -----------------------------------------
Total Dipole Moment    :      0.00002       0.00000       0.23493
                        -----------------------------------------
Magnitude (a.u.)       :      0.23493
Magnitude (Debye)      :      0.59714

Rotational constants in cm-1:     0.363943     0.363936     0.188269
Rotational constants in MHz : 10910.727618 10910.528447  5644.153891

                             ****ORCA TERMINATED NORMALLY****
TOTAL RUN TIME: 0 days 0 hours 5 minutes 17 seconds 689 msec
