                         Program Version 5.0.4 -  RELEASE  -
|  1> ! ri-mp2 aug-cc-pvdz aug-cc-pvdz/c tightscf
|  2> %pal nprocs 16 end
|  3> %maxcore 3800
|  4> %base "DZ_Si-Cl_72_A"
|  5> %scf
|  6> STABPerform true
|  7> STABRestartUHFifUnstable true
|  8> end
|  9>
| 10> *xyz 0 2
| 11> Si        -0.981933    0.000000   -0.483252
| 12> C         0.904314    0.000000   -0.003134
| 13> F        -1.602987    1.282941    0.206066
| 14> F        -1.602987   -1.282941    0.206066
| 15> F         1.526982    1.082345   -0.492302
| 16> F         1.526982   -1.082345   -0.492301
| 17> F         1.076585    0.000000    1.326285
| 18> *
| 19>
| 20> $new_job
| 21> ! ri-mp2 aug-cc-pvtz aug-cc-pvtz/c tightscf
| 22> %pal nprocs 16 end
| 23> %maxcore 3800
| 24> %base "TZ_Si-Cl_72_A"
| 25>
| 26> *xyz 0 2
| 27> Si        -0.981933    0.000000   -0.483252
| 28> C         0.904314    0.000000   -0.003134
| 29> F        -1.602987    1.282941    0.206066
| 30> F        -1.602987   -1.282941    0.206066
| 31> F         1.526982    1.082345   -0.492302
| 32> F         1.526982   -1.082345   -0.492301
| 33> F         1.076585    0.000000    1.326285
| 34> *
| 35>
| 36> $new_job
| 37> ! ri-mp2 aug-cc-pvqz aug-cc-pvqz/c tightscf
| 38> %pal nprocs 16 end
| 39> %maxcore 3800
| 40> %base "QZ_Si-Cl_72_A"
| 41>
| 42> *xyz 0 2
| 43> Si        -0.981933    0.000000   -0.483252
| 44> C         0.904314    0.000000   -0.003134
| 45> F        -1.602987    1.282941    0.206066
| 46> F        -1.602987   -1.282941    0.206066
| 47> F         1.526982    1.082345   -0.492302
| 48> F         1.526982   -1.082345   -0.492301
| 49> F         1.076585    0.000000    1.326285
| 50> *
| 51>
| 52>
| 53>
| 54>
| 55>                          ****END OF INPUT****
 Total Charge           Charge          ....    0
 Multiplicity           Mult            ....    2
 Number of Electrons    NEL             ....   65
MP2 TOTAL ENERGY:     -825.360140536 Eh
FINAL SINGLE POINT ENERGY      -825.360140535994
MP2 TOTAL ENERGY:     -825.848282596 Eh
FINAL SINGLE POINT ENERGY      -825.848282595653

CARTESIAN COORDINATES (ANGSTROEM)
---------------------------------
  Si    -0.981933    0.000000   -0.483252
  C      0.904314    0.000000   -0.003134
  F     -1.602987    1.282941    0.206066
  F     -1.602987   -1.282941    0.206066
  F      1.526982    1.082345   -0.492302
  F      1.526982   -1.082345   -0.492301
  F      1.076585    0.000000    1.326285

 Multiplicity           Mult            ....    2
 Number of Electrons    NEL             ....   65
 Basis Dimension        Dim             ....  564

ORBITAL ENERGIES
----------------
                 SPIN UP ORBITALS
  NO   OCC          E(Eh)            E(eV)
   0   1.0000     -68.904854     -1874.9964
   1   1.0000     -26.350743      -717.0402
   2   1.0000     -26.350724      -717.0396
   3   1.0000     -26.349950      -717.0186
   4   1.0000     -26.332341      -716.5394
   5   1.0000     -26.332333      -716.5392
   6   1.0000     -11.509389      -313.1864
   7   1.0000      -6.244374      -169.9180
   8   1.0000      -4.355325      -118.5144
   9   1.0000      -4.348213      -118.3209
  10   1.0000      -4.346858      -118.2840
  11   1.0000      -1.742026       -47.4029
  12   1.0000      -1.648624       -44.8613
  13   1.0000      -1.647943       -44.8428
  14   1.0000      -1.647160       -44.8215
  15   1.0000      -1.629554       -44.3424
  16   1.0000      -0.992183       -26.9987
  17   1.0000      -0.867121       -23.5956
  18   1.0000      -0.834565       -22.7097
  19   1.0000      -0.834489       -22.7076
  20   1.0000      -0.807666       -21.9777
  21   1.0000      -0.760009       -20.6809
  22   1.0000      -0.736128       -20.0311
  23   1.0000      -0.722841       -19.6695
  24   1.0000      -0.721193       -19.6247
  25   1.0000      -0.719503       -19.5787
  26   1.0000      -0.703034       -19.1305
  27   1.0000      -0.684277       -18.6201
  28   1.0000      -0.677955       -18.4481
  29   1.0000      -0.675777       -18.3888
  30   1.0000      -0.662837       -18.0367
  31   1.0000      -0.569159       -15.4876
  32   1.0000      -0.420532       -11.4433
  33   0.0000       0.035404         0.9634
  34   0.0000       0.037739         1.0269
  35   0.0000       0.038221         1.0401
  36   0.0000       0.044406         1.2084
  37   0.0000       0.082788         2.2528

                 SPIN DOWN ORBITALS
  NO   OCC          E(Eh)            E(eV)
   0   1.0000     -68.898604     -1874.8263
   1   1.0000     -26.350919      -717.0449
   2   1.0000     -26.350898      -717.0444
   3   1.0000     -26.348718      -716.9851
   4   1.0000     -26.329274      -716.4560
   5   1.0000     -26.329264      -716.4557
   6   1.0000     -11.504319      -313.0484
   7   1.0000      -6.233631      -169.6257
   8   1.0000      -4.344106      -118.2091
   9   1.0000      -4.343431      -118.1908
  10   1.0000      -4.335168      -117.9659
  11   1.0000      -1.740432       -47.3596
  12   1.0000      -1.648292       -44.8523
  13   1.0000      -1.645667       -44.7809
  14   1.0000      -1.638953       -44.5982
  15   1.0000      -1.620716       -44.1019
  16   1.0000      -0.982638       -26.7389
  17   1.0000      -0.853253       -23.2182
  18   1.0000      -0.833302       -22.6753
  19   1.0000      -0.832135       -22.6435
  20   1.0000      -0.794328       -21.6148
  21   1.0000      -0.747905       -20.3515
  22   1.0000      -0.723431       -19.6856
  23   1.0000      -0.722902       -19.6712
  24   1.0000      -0.718704       -19.5569
  25   1.0000      -0.708141       -19.2695
  26   1.0000      -0.691026       -18.8038
  27   1.0000      -0.681401       -18.5419
  28   1.0000      -0.677214       -18.4279
  29   1.0000      -0.675281       -18.3753
  30   1.0000      -0.662419       -18.0253
  31   1.0000      -0.535829       -14.5807
  32   0.0000      -0.003742        -0.1018
  33   0.0000       0.039212         1.0670
  34   0.0000       0.039481         1.0743
  35   0.0000       0.043603         1.1865
  36   0.0000       0.052119         1.4182

MULLIKEN ATOMIC CHARGES AND SPIN POPULATIONS
--------------------------------------------
   0 Si:    1.724958    0.890279
   1 C :    1.431480    0.099167
   2 F :   -0.694290    0.000272
   3 F :   -0.694291    0.000272
   4 F :   -0.589768   -0.001873
   5 F :   -0.589768   -0.001873
   6 F :   -0.588321    0.013757
Sum of atomic charges         :    0.0000000

LOEWDIN ATOMIC CHARGES AND SPIN POPULATIONS
-------------------------------------------
   0 Si:   -0.497900    0.595151
   1 C :   -2.199856    0.152311
   2 F :    0.345953    0.103939
   3 F :    0.345953    0.103939
   4 F :    0.664768    0.009706
   5 F :    0.664768    0.009706
   6 F :    0.676314    0.025249

  Mayer bond orders larger than 0.100000
B(  0-Si,  1-C ) :   0.7679 B(  0-Si,  2-F ) :   0.4400 B(  0-Si,  3-F ) :   0.4400
B(  1-C ,  4-F ) :   0.5832 B(  1-C ,  5-F ) :   0.5832 B(  1-C ,  6-F ) :   0.5572

MP2 TOTAL ENERGY:     -826.010660541 Eh
FINAL SINGLE POINT ENERGY      -826.010660540874

DIPOLE MOMENT
-------------
                                X             Y             Z
Electronic contribution:      0.35749      -0.00000      -0.00736
Nuclear contribution   :     -0.77128       0.00000      -0.64624
                        -----------------------------------------
Total Dipole Moment    :     -0.41379      -0.00000      -0.65360
                        -----------------------------------------
Magnitude (a.u.)       :      0.77358
Magnitude (Debye)      :      1.96628

Rotational constants in cm-1:     0.106800     0.056963     0.047864
Rotational constants in MHz :  3201.778361  1707.709647  1434.933848

                             ****ORCA TERMINATED NORMALLY****
TOTAL RUN TIME: 0 days 0 hours 28 minutes 38 seconds 222 msec
