                         Program Version 5.0.4 -  RELEASE  -
|  1> ! ri-mp2 aug-cc-pvdz aug-cc-pvdz/c tightscf
|  2> %pal nprocs 16 end
|  3> %maxcore 3800
|  4> %base "DZ_B-P_22_AB"
|  5> %scf
|  6> STABPerform true
|  7> STABRestartUHFifUnstable true
|  8> end
|  9>
| 10> *xyz 0 1
| 11> B         0.469383    0.082181    0.008697
| 12> N         1.026215    1.358219    0.010240
| 13> P        -1.450147   -0.120516   -0.117298
| 14> C         1.388755   -1.192847    0.002338
| 15> H         2.449302   -0.956824   -0.108299
| 16> H         1.113374   -1.883076   -0.798054
| 17> H         1.269314   -1.749709    0.935361
| 18> H         0.489320    2.207952    0.032075
| 19> H         2.021148    1.510787   -0.009271
| 20> H        -1.846693    0.988881    0.664244
| 21> H        -1.606513   -1.071634    0.914230
| 22> *
| 23>
| 24> $new_job
| 25> ! ri-mp2 aug-cc-pvtz aug-cc-pvtz/c tightscf
| 26> %pal nprocs 16 end
| 27> %maxcore 3800
| 28> %base "TZ_B-P_22_AB"
| 29>
| 30> *xyz 0 1
| 31> B         0.469383    0.082181    0.008697
| 32> N         1.026215    1.358219    0.010240
| 33> P        -1.450147   -0.120516   -0.117298
| 34> C         1.388755   -1.192847    0.002338
| 35> H         2.449302   -0.956824   -0.108299
| 36> H         1.113374   -1.883076   -0.798054
| 37> H         1.269314   -1.749709    0.935361
| 38> H         0.489320    2.207952    0.032075
| 39> H         2.021148    1.510787   -0.009271
| 40> H        -1.846693    0.988881    0.664244
| 41> H        -1.606513   -1.071634    0.914230
| 42> *
| 43>
| 44> $new_job
| 45> ! ri-mp2 aug-cc-pvqz aug-cc-pvqz/c tightscf
| 46> %pal nprocs 16 end
| 47> %maxcore 3800
| 48> %base "QZ_B-P_22_AB"
| 49>
| 50> *xyz 0 1
| 51> B         0.469383    0.082181    0.008697
| 52> N         1.026215    1.358219    0.010240
| 53> P        -1.450147   -0.120516   -0.117298
| 54> C         1.388755   -1.192847    0.002338
| 55> H         2.449302   -0.956824   -0.108299
| 56> H         1.113374   -1.883076   -0.798054
| 57> H         1.269314   -1.749709    0.935361
| 58> H         0.489320    2.207952    0.032075
| 59> H         2.021148    1.510787   -0.009271
| 60> H        -1.846693    0.988881    0.664244
| 61> H        -1.606513   -1.071634    0.914230
| 62> *
| 63>
| 64>
| 65>
| 66>
| 67>                          ****END OF INPUT****
 Total Charge           Charge          ....    0
 Multiplicity           Mult            ....    1
 Number of Electrons    NEL             ....   40
MP2 TOTAL ENERGY:     -462.440208660 Eh
FINAL SINGLE POINT ENERGY      -462.440208660136
MP2 TOTAL ENERGY:     -462.597406495 Eh
FINAL SINGLE POINT ENERGY      -462.597406494567

CARTESIAN COORDINATES (ANGSTROEM)
---------------------------------
  B      0.469383    0.082181    0.008697
  N      1.026215    1.358219    0.010240
  P     -1.450147   -0.120516   -0.117298
  C      1.388755   -1.192847    0.002338
  H      2.449302   -0.956824   -0.108299
  H      1.113374   -1.883076   -0.798054
  H      1.269314   -1.749709    0.935361
  H      0.489320    2.207952    0.032075
  H      2.021148    1.510787   -0.009271
  H     -1.846693    0.988881    0.664244
  H     -1.606513   -1.071634    0.914230

 Multiplicity           Mult            ....    1
 Number of Electrons    NEL             ....   40
 Basis Dimension        Dim             ....  646

ORBITAL ENERGIES
----------------

  NO   OCC          E(Eh)            E(eV)
   0   2.0000     -79.909998     -2174.4616
   1   2.0000     -15.555109      -423.2760
   2   2.0000     -11.192428      -304.5614
   3   2.0000      -7.597198      -206.7303
   4   2.0000      -7.455840      -202.8837
   5   2.0000      -5.350122      -145.5842
   6   2.0000      -5.349638      -145.5710
   7   2.0000      -5.349087      -145.5561
   8   2.0000      -1.166335       -31.7376
   9   2.0000      -0.946421       -25.7534
  10   2.0000      -0.836124       -22.7521
  11   2.0000      -0.693780       -18.8787
  12   2.0000      -0.680620       -18.5206
  13   2.0000      -0.565368       -15.3844
  14   2.0000      -0.550662       -14.9843
  15   2.0000      -0.515459       -14.0263
  16   2.0000      -0.497428       -13.5357
  17   2.0000      -0.451823       -12.2947
  18   2.0000      -0.425620       -11.5817
  19   2.0000      -0.347772        -9.4634
  20   0.0000       0.019730         0.5369
  21   0.0000       0.034470         0.9380
  22   0.0000       0.035614         0.9691
  23   0.0000       0.037385         1.0173
  24   0.0000       0.050917         1.3855

MULLIKEN ATOMIC CHARGES
-----------------------
   0 B :    0.459013
   1 N :   -0.711983
   2 P :    0.121566
   3 C :   -1.023329
   4 H :    0.296256
   5 H :    0.295051
   6 H :    0.280173
   7 H :    0.230622
   8 H :    0.231618
   9 H :   -0.092788
  10 H :   -0.086200
Sum of atomic charges:   -0.0000000

LOEWDIN ATOMIC CHARGES
----------------------
   0 B :   -0.936082
   1 N :    1.319852
   2 P :    1.609599
   3 C :    0.969131
   4 H :   -0.313954
   5 H :   -0.316518
   6 H :   -0.312905
   7 H :   -0.517322
   8 H :   -0.500585
   9 H :   -0.501977
  10 H :   -0.499239

  Mayer bond orders larger than 0.100000
B(  0-B ,  1-N ) :   1.2245 B(  0-B ,  2-P ) :   0.9572 B(  0-B ,  3-C ) :   0.8976
B(  1-N ,  7-H ) :   0.9700 B(  1-N ,  8-H ) :   0.9611 B(  2-P ,  9-H ) :   0.9280
B(  2-P , 10-H ) :   0.9266 B(  3-C ,  4-H ) :   0.8829 B(  3-C ,  5-H ) :   0.9221
B(  3-C ,  6-H ) :   0.9212

MP2 TOTAL ENERGY:     -462.646713744 Eh
FINAL SINGLE POINT ENERGY      -462.646713743683

DIPOLE MOMENT
-------------
                                X             Y             Z
Electronic contribution:     -4.23144       1.39348      -1.46647
Nuclear contribution   :      4.91546      -0.90027       1.74119
                        -----------------------------------------
Total Dipole Moment    :      0.68402       0.49321       0.27472
                        -----------------------------------------
Magnitude (a.u.)       :      0.88691
Magnitude (Debye)      :      2.25435

Rotational constants in cm-1:     0.265860     0.131932     0.091181
Rotational constants in MHz :  7970.282102  3955.211976  2733.546505

                             ****ORCA TERMINATED NORMALLY****
TOTAL RUN TIME: 0 days 0 hours 23 minutes 32 seconds 977 msec
