                         Program Version 5.0.4 -  RELEASE  -
|  1> ! ri-mp2 aug-cc-pvdz aug-cc-pvdz/c tightscf
|  2> %pal nprocs 16 end
|  3> %maxcore 3800
|  4> %base "DZ_S-Cl_28_A"
|  5> %scf
|  6> STABPerform true
|  7> STABRestartUHFifUnstable true
|  8> end
|  9>
| 10> *xyz 0 2
| 11> S        -1.644837   -0.058689   -0.095585
| 12> S         0.373525    0.112763    0.092274
| 13> O         0.772598    1.401816   -0.336194
| 14> O         0.657027   -0.401736    1.392656
| 15> O         0.989342   -0.884894   -0.972514
| 16> H         0.989255   -1.786675   -0.618623
| 17> *
| 18>
| 19> $new_job
| 20> ! ri-mp2 aug-cc-pvtz aug-cc-pvtz/c tightscf
| 21> %pal nprocs 16 end
| 22> %maxcore 3800
| 23> %base "TZ_S-Cl_28_A"
| 24>
| 25> *xyz 0 2
| 26> S        -1.644837   -0.058689   -0.095585
| 27> S         0.373525    0.112763    0.092274
| 28> O         0.772598    1.401816   -0.336194
| 29> O         0.657027   -0.401736    1.392656
| 30> O         0.989342   -0.884894   -0.972514
| 31> H         0.989255   -1.786675   -0.618623
| 32> *
| 33>
| 34> $new_job
| 35> ! ri-mp2 aug-cc-pvqz aug-cc-pvqz/c tightscf
| 36> %pal nprocs 16 end
| 37> %maxcore 3800
| 38> %base "QZ_S-Cl_28_A"
| 39>
| 40> *xyz 0 2
| 41> S        -1.644837   -0.058689   -0.095585
| 42> S         0.373525    0.112763    0.092274
| 43> O         0.772598    1.401816   -0.336194
| 44> O         0.657027   -0.401736    1.392656
| 45> O         0.989342   -0.884894   -0.972514
| 46> H         0.989255   -1.786675   -0.618623
| 47> *
| 48>
| 49>
| 50>
| 51>
| 52>                          ****END OF INPUT****
 Total Charge           Charge          ....    0
 Multiplicity           Mult            ....    2
 Number of Electrons    NEL             ....   57
MP2 TOTAL ENERGY:    -1021.010997234 Eh
FINAL SINGLE POINT ENERGY     -1021.010997233633
MP2 TOTAL ENERGY:    -1021.349519024 Eh
FINAL SINGLE POINT ENERGY     -1021.349519024320

CARTESIAN COORDINATES (ANGSTROEM)
---------------------------------
  S     -1.644837   -0.058689   -0.095585
  S      0.373525    0.112763    0.092274
  O      0.772598    1.401816   -0.336194
  O      0.657027   -0.401736    1.392656
  O      0.989342   -0.884894   -0.972514
  H      0.989255   -1.786675   -0.618623

 Multiplicity           Mult            ....    2
 Number of Electrons    NEL             ....   57
 Basis Dimension        Dim             ....  454

ORBITAL ENERGIES
----------------
                 SPIN UP ORBITALS
  NO   OCC          E(Eh)            E(eV)
   0   1.0000     -92.248558     -2510.2109
   1   1.0000     -92.044868     -2504.6682
   2   1.0000     -20.655773      -562.0722
   3   1.0000     -20.588423      -560.2395
   4   1.0000     -20.584561      -560.1344
   5   1.0000      -9.211175      -250.6488
   6   1.0000      -9.046795      -246.1758
   7   1.0000      -6.897492      -187.6903
   8   1.0000      -6.896629      -187.6668
   9   1.0000      -6.895737      -187.6425
  10   1.0000      -6.742328      -183.4681
  11   1.0000      -6.723808      -182.9641
  12   1.0000      -6.721946      -182.9134
  13   1.0000      -1.546789       -42.0903
  14   1.0000      -1.423630       -38.7389
  15   1.0000      -1.397374       -38.0245
  16   1.0000      -1.077688       -29.3254
  17   1.0000      -0.894771       -24.3480
  18   1.0000      -0.774933       -21.0870
  19   1.0000      -0.721711       -19.6388
  20   1.0000      -0.717084       -19.5129
  21   1.0000      -0.660173       -17.9642
  22   1.0000      -0.603456       -16.4209
  23   1.0000      -0.571743       -15.5579
  24   1.0000      -0.563623       -15.3370
  25   1.0000      -0.522361       -14.2142
  26   1.0000      -0.503605       -13.7038
  27   1.0000      -0.491211       -13.3665
  28   1.0000      -0.447606       -12.1800
  29   0.0000       0.020109         0.5472
  30   0.0000       0.040945         1.1142
  31   0.0000       0.066379         1.8063
  32   0.0000       0.067222         1.8292
  33   0.0000       0.077508         2.1091

                 SPIN DOWN ORBITALS
  NO   OCC          E(Eh)            E(eV)
   0   1.0000     -92.248855     -2510.2190
   1   1.0000     -92.035587     -2504.4156
   2   1.0000     -20.656033      -562.0792
   3   1.0000     -20.586103      -560.1763
   4   1.0000     -20.583424      -560.1035
   5   1.0000      -9.211608      -250.6606
   6   1.0000      -9.036588      -245.8981
   7   1.0000      -6.897859      -187.7003
   8   1.0000      -6.897408      -187.6880
   9   1.0000      -6.896186      -187.6548
  10   1.0000      -6.718926      -182.8313
  11   1.0000      -6.716642      -182.7691
  12   1.0000      -6.700136      -182.3200
  13   1.0000      -1.545533       -42.0561
  14   1.0000      -1.422674       -38.7129
  15   1.0000      -1.392882       -37.9023
  16   1.0000      -1.014932       -27.6177
  17   1.0000      -0.878121       -23.8949
  18   1.0000      -0.763708       -20.7816
  19   1.0000      -0.716857       -19.5067
  20   1.0000      -0.703126       -19.1330
  21   1.0000      -0.655396       -17.8342
  22   1.0000      -0.599473       -16.3125
  23   1.0000      -0.562128       -15.2963
  24   1.0000      -0.540564       -14.7095
  25   1.0000      -0.515160       -14.0182
  26   1.0000      -0.488607       -13.2957
  27   1.0000      -0.428682       -11.6650
  28   0.0000      -0.039412        -1.0725
  29   0.0000       0.020694         0.5631
  30   0.0000       0.042329         1.1518
  31   0.0000       0.067262         1.8303
  32   0.0000       0.073448         1.9986

MULLIKEN ATOMIC CHARGES AND SPIN POPULATIONS
--------------------------------------------
   0 S :    0.100313    1.044684
   1 S :    2.336341   -0.087685
   2 O :   -1.053500    0.013909
   3 O :   -1.030715    0.033541
   4 O :   -0.690839   -0.005152
   5 H :    0.338400    0.000703
Sum of atomic charges         :    0.0000000

LOEWDIN ATOMIC CHARGES AND SPIN POPULATIONS
-------------------------------------------
   0 S :    0.766074    0.774551
   1 S :   -1.238390    0.168781
   2 O :    0.196657    0.020099
   3 O :    0.208223    0.040223
   4 O :    0.959822   -0.002688
   5 H :   -0.892386   -0.000966

  Mayer bond orders larger than 0.100000
B(  0-S ,  1-S ) :   1.0018 B(  1-S ,  2-O ) :   1.2938 B(  1-S ,  3-O ) :   1.3303
B(  1-S ,  4-O ) :   0.7096 B(  4-O ,  5-H ) :   0.8921

MP2 TOTAL ENERGY:    -1021.461628178 Eh
FINAL SINGLE POINT ENERGY     -1021.461628177745

DIPOLE MOMENT
-------------
                                X             Y             Z
Electronic contribution:     -1.77743       0.52741       0.14085
Nuclear contribution   :      1.00934      -1.69059      -0.58405
                        -----------------------------------------
Total Dipole Moment    :     -0.76809      -1.16318      -0.44320
                        -----------------------------------------
Magnitude (a.u.)       :      1.46266
Magnitude (Debye)      :      3.71779

Rotational constants in cm-1:     0.170059     0.097657     0.096214
Rotational constants in MHz :  5098.249541  2927.694342  2884.419641

                             ****ORCA TERMINATED NORMALLY****
TOTAL RUN TIME: 0 days 0 hours 20 minutes 59 seconds 975 msec
