                         Program Version 5.0.4 -  RELEASE  -
|  1> ! ri-mp2 aug-cc-pvdz aug-cc-pvdz/c tightscf
|  2> %pal nprocs 16 end
|  3> %maxcore 3800
|  4> %base "DZ_P-Cl_1_AB"
|  5>
|  6> *xyz 0 1
|  7> Cl        -1.707123   -1.547698   -0.729119
|  8> N        -0.307395    1.287521    0.528536
|  9> N        -2.342309    1.629414   -0.880360
| 10> P        -2.422641   -0.430368    0.858829
| 11> C        -1.770758    1.254003    0.372143
| 12> Cl         1.707107   -1.547704    0.729121
| 13> N         0.307410    1.287535   -0.528531
| 14> N         2.342334    1.629397    0.880359
| 15> P         2.422631   -0.430385   -0.858833
| 16> C         1.770773    1.253995   -0.372142
| 17> H         2.134454    2.593321    1.105600
| 18> H         1.979774    1.052038    1.628010
| 19> H        -1.979755    1.052050   -1.628010
| 20> H        -2.134415    2.593335   -1.105600
| 21> H         1.360996   -0.727727   -1.744251
| 22> H         2.154975    1.906387   -1.161331
| 23> H        -1.361017   -0.727723    1.744256
| 24> H        -2.154953    1.906399    1.161331
| 25> *
| 26>
| 27> $new_job
| 28> ! ri-mp2 aug-cc-pvtz aug-cc-pvtz/c tightscf
| 29> %pal nprocs 16 end
| 30> %maxcore 3800
| 31> %base "TZ_P-Cl_1_AB"
| 32>
| 33> *xyz 0 1
| 34> Cl        -1.707123   -1.547698   -0.729119
| 35> N        -0.307395    1.287521    0.528536
| 36> N        -2.342309    1.629414   -0.880360
| 37> P        -2.422641   -0.430368    0.858829
| 38> C        -1.770758    1.254003    0.372143
| 39> Cl         1.707107   -1.547704    0.729121
| 40> N         0.307410    1.287535   -0.528531
| 41> N         2.342334    1.629397    0.880359
| 42> P         2.422631   -0.430385   -0.858833
| 43> C         1.770773    1.253995   -0.372142
| 44> H         2.134454    2.593321    1.105600
| 45> H         1.979774    1.052038    1.628010
| 46> H        -1.979755    1.052050   -1.628010
| 47> H        -2.134415    2.593335   -1.105600
| 48> H         1.360996   -0.727727   -1.744251
| 49> H         2.154975    1.906387   -1.161331
| 50> H        -1.361017   -0.727723    1.744256
| 51> H        -2.154953    1.906399    1.161331
| 52> *
| 53>
| 54> $new_job
| 55> ! ri-mp2 aug-cc-pvqz aug-cc-pvqz/c tightscf
| 56> %pal nprocs 16 end
| 57> %maxcore 3800
| 58> %base "QZ_P-Cl_1_AB"
| 59>
| 60> *xyz 0 1
| 61> Cl        -1.707123   -1.547698   -0.729119
| 62> N        -0.307395    1.287521    0.528536
| 63> N        -2.342309    1.629414   -0.880360
| 64> P        -2.422641   -0.430368    0.858829
| 65> C        -1.770758    1.254003    0.372143
| 66> Cl         1.707107   -1.547704    0.729121
| 67> N         0.307410    1.287535   -0.528531
| 68> N         2.342334    1.629397    0.880359
| 69> P         2.422631   -0.430385   -0.858833
| 70> C         1.770773    1.253995   -0.372142
| 71> H         2.134454    2.593321    1.105600
| 72> H         1.979774    1.052038    1.628010
| 73> H        -1.979755    1.052050   -1.628010
| 74> H        -2.134415    2.593335   -1.105600
| 75> H         1.360996   -0.727727   -1.744251
| 76> H         2.154975    1.906387   -1.161331
| 77> H        -1.361017   -0.727723    1.744256
| 78> H        -2.154953    1.906399    1.161331
| 79> *
| 80>
| 81>
| 82>
| 83>
| 84>                          ****END OF INPUT****
 Total Charge           Charge          ....    0
 Multiplicity           Mult            ....    1
 Number of Electrons    NEL             ....  112
MP2 TOTAL ENERGY:    -1900.237169754 Eh
FINAL SINGLE POINT ENERGY     -1900.237169754259
MP2 TOTAL ENERGY:    -1900.703607698 Eh
FINAL SINGLE POINT ENERGY     -1900.703607697576

CARTESIAN COORDINATES (ANGSTROEM)
---------------------------------
  Cl    -1.707123   -1.547698   -0.729119
  N     -0.307395    1.287521    0.528536
  N     -2.342309    1.629414   -0.880360
  P     -2.422641   -0.430368    0.858829
  C     -1.770758    1.254003    0.372143
  Cl     1.707107   -1.547704    0.729121
  N      0.307410    1.287535   -0.528531
  N      2.342334    1.629397    0.880359
  P      2.422631   -0.430385   -0.858833
  C      1.770773    1.253995   -0.372142
  H      2.134454    2.593321    1.105600
  H      1.979774    1.052038    1.628010
  H     -1.979755    1.052050   -1.628010
  H     -2.134415    2.593335   -1.105600
  H      1.360996   -0.727727   -1.744251
  H      2.154975    1.906387   -1.161331
  H     -1.361017   -0.727723    1.744256
  H     -2.154953    1.906399    1.161331

 Multiplicity           Mult            ....    1
 Number of Electrons    NEL             ....  112
 Basis Dimension        Dim             .... 1184

ORBITAL ENERGIES
----------------

  NO   OCC          E(Eh)            E(eV)
   0   2.0000    -104.832383     -2852.6342
   1   2.0000    -104.832383     -2852.6342
   2   2.0000     -79.997782     -2176.8503
   3   2.0000     -79.997782     -2176.8503
   4   2.0000     -15.633776      -425.4167
   5   2.0000     -15.632241      -425.3749
   6   2.0000     -15.560685      -423.4278
   7   2.0000     -15.560684      -423.4277
   8   2.0000     -11.311073      -307.7900
   9   2.0000     -11.311067      -307.7898
  10   2.0000     -10.558852      -287.3210
  11   2.0000     -10.558850      -287.3209
  12   2.0000      -8.025726      -218.3911
  13   2.0000      -8.025726      -218.3911
  14   2.0000      -8.024331      -218.3531
  15   2.0000      -8.024330      -218.3531
  16   2.0000      -8.024207      -218.3498
  17   2.0000      -8.024207      -218.3498
  18   2.0000      -7.535953      -205.0637
  19   2.0000      -7.535953      -205.0637
  20   2.0000      -5.429447      -147.7428
  21   2.0000      -5.429446      -147.7427
  22   2.0000      -5.428496      -147.7169
  23   2.0000      -5.428496      -147.7169
  24   2.0000      -5.427470      -147.6890
  25   2.0000      -5.427470      -147.6890
  26   2.0000      -1.396748       -38.0074
  27   2.0000      -1.226959       -33.3872
  28   2.0000      -1.198474       -32.6121
  29   2.0000      -1.110691       -30.2234
  30   2.0000      -1.107489       -30.1363
  31   2.0000      -1.040336       -28.3090
  32   2.0000      -0.947861       -25.7926
  33   2.0000      -0.842701       -22.9311
  34   2.0000      -0.794758       -21.6265
  35   2.0000      -0.760155       -20.6849
  36   2.0000      -0.712451       -19.3868
  37   2.0000      -0.701532       -19.0897
  38   2.0000      -0.689526       -18.7629
  39   2.0000      -0.661022       -17.9873
  40   2.0000      -0.595062       -16.1925
  41   2.0000      -0.590085       -16.0570
  42   2.0000      -0.581743       -15.8300
  43   2.0000      -0.554636       -15.0924
  44   2.0000      -0.542593       -14.7647
  45   2.0000      -0.524889       -14.2830
  46   2.0000      -0.493688       -13.4339
  47   2.0000      -0.481387       -13.0992
  48   2.0000      -0.481013       -13.0890
  49   2.0000      -0.457702       -12.4547
  50   2.0000      -0.453262       -12.3339
  51   2.0000      -0.443525       -12.0689
  52   2.0000      -0.421317       -11.4646
  53   2.0000      -0.393598       -10.7103
  54   2.0000      -0.387139       -10.5346
  55   2.0000      -0.357773        -9.7355
  56   0.0000       0.018393         0.5005
  57   0.0000       0.025009         0.6805
  58   0.0000       0.034692         0.9440
  59   0.0000       0.038266         1.0413
  60   0.0000       0.042037         1.1439

MULLIKEN ATOMIC CHARGES
-----------------------
   0 Cl:   -0.525992
   1 N :   -0.364068
   2 N :   -0.873445
   3 P :    0.548473
   4 C :    0.292165
   5 Cl:   -0.525992
   6 N :   -0.364072
   7 N :   -0.873443
   8 P :    0.548473
   9 C :    0.292172
  10 H :    0.240711
  11 H :    0.309126
  12 H :    0.309128
  13 H :    0.240712
  14 H :   -0.088796
  15 H :    0.461821
  16 H :   -0.088796
  17 H :    0.461823
Sum of atomic charges:    0.0000000

LOEWDIN ATOMIC CHARGES
----------------------
   0 Cl:    0.742010
   1 N :    0.278874
   2 N :    1.159206
   3 P :    0.480983
   4 C :   -0.577347
   5 Cl:    0.742010
   6 N :    0.278875
   7 N :    1.159207
   8 P :    0.480985
   9 C :   -0.577346
  10 H :   -0.502549
  11 H :   -0.610920
  12 H :   -0.610919
  13 H :   -0.502549
  14 H :   -0.542202
  15 H :   -0.428059
  16 H :   -0.542201
  17 H :   -0.428059

  Mayer bond orders larger than 0.100000
B(  0-Cl,  3-P ) :   0.8005 B(  0-Cl,  4-C ) :  -0.1220 B(  1-N ,  4-C ) :   0.6990
B(  1-N ,  6-N ) :   1.5303 B(  1-N ,  9-C ) :  -0.1572 B(  2-N ,  4-C ) :   0.8535
B(  2-N , 12-H ) :   0.8429 B(  2-N , 13-H ) :   0.9296 B(  3-P ,  4-C ) :   0.6559
B(  3-P , 16-H ) :   0.9607 B(  4-C ,  6-N ) :  -0.1572 B(  4-C , 17-H ) :   0.8214
B(  5-Cl,  8-P ) :   0.8005 B(  5-Cl,  9-C ) :  -0.1220 B(  6-N ,  9-C ) :   0.6989
B(  7-N ,  9-C ) :   0.8535 B(  7-N , 10-H ) :   0.9296 B(  7-N , 11-H ) :   0.8429
B(  8-P ,  9-C ) :   0.6559 B(  8-P , 14-H ) :   0.9607 B(  9-C , 15-H ) :   0.8215

MP2 TOTAL ENERGY:    -1900.856440622 Eh
FINAL SINGLE POINT ENERGY     -1900.856440622175

DIPOLE MOMENT
-------------
                                X             Y             Z
Electronic contribution:     -0.00008     -12.92342      -0.00000
Nuclear contribution   :      0.00009      14.21269       0.00001
                        -----------------------------------------
Total Dipole Moment    :      0.00001       1.28927       0.00000
                        -----------------------------------------
Magnitude (a.u.)       :      1.28927
Magnitude (Debye)      :      3.27707

Rotational constants in cm-1:     0.033987     0.017469     0.014105
Rotational constants in MHz :  1018.898558   523.718621   422.849566

                             ****ORCA TERMINATED NORMALLY****
TOTAL RUN TIME: 0 days 0 hours 52 minutes 27 seconds 476 msec
