                         Program Version 5.0.4 -  RELEASE  -
|  1> ! ri-mp2 aug-cc-pvdz aug-cc-pvdz/c tightscf
|  2> %pal nprocs 16 end
|  3> %maxcore 3800
|  4> %base "DZ_Si-Cl_87_AB"
|  5> %scf
|  6> STABPerform true
|  7> STABRestartUHFifUnstable true
|  8> end
|  9>
| 10> *xyz 0 1
| 11> C         0.871437    0.492813    0.000002
| 12> O         1.657172    1.405227    0.000002
| 13> Si        -0.995452    0.882641    0.000000
| 14> O         1.222239   -0.791619   -0.000001
| 15> Cl        -2.145534   -0.810164   -0.000001
| 16> C         2.630310   -1.060350   -0.000001
| 17> H         2.722411   -2.141312   -0.000001
| 18> H         3.095357   -0.633321    0.886321
| 19> H         3.095357   -0.633320   -0.886322
| 20> H        -1.274249    1.660069   -1.215945
| 21> H        -1.274249    1.660068    1.215945
| 22> *
| 23>
| 24> $new_job
| 25> ! ri-mp2 aug-cc-pvtz aug-cc-pvtz/c tightscf
| 26> %pal nprocs 16 end
| 27> %maxcore 3800
| 28> %base "TZ_Si-Cl_87_AB"
| 29>
| 30> *xyz 0 1
| 31> C         0.871437    0.492813    0.000002
| 32> O         1.657172    1.405227    0.000002
| 33> Si        -0.995452    0.882641    0.000000
| 34> O         1.222239   -0.791619   -0.000001
| 35> Cl        -2.145534   -0.810164   -0.000001
| 36> C         2.630310   -1.060350   -0.000001
| 37> H         2.722411   -2.141312   -0.000001
| 38> H         3.095357   -0.633321    0.886321
| 39> H         3.095357   -0.633320   -0.886322
| 40> H        -1.274249    1.660069   -1.215945
| 41> H        -1.274249    1.660068    1.215945
| 42> *
| 43>
| 44> $new_job
| 45> ! ri-mp2 aug-cc-pvqz aug-cc-pvqz/c tightscf
| 46> %pal nprocs 16 end
| 47> %maxcore 3800
| 48> %base "QZ_Si-Cl_87_AB"
| 49>
| 50> *xyz 0 1
| 51> C         0.871437    0.492813    0.000002
| 52> O         1.657172    1.405227    0.000002
| 53> Si        -0.995452    0.882641    0.000000
| 54> O         1.222239   -0.791619   -0.000001
| 55> Cl        -2.145534   -0.810164   -0.000001
| 56> C         2.630310   -1.060350   -0.000001
| 57> H         2.722411   -2.141312   -0.000001
| 58> H         3.095357   -0.633321    0.886321
| 59> H         3.095357   -0.633320   -0.886322
| 60> H        -1.274249    1.660069   -1.215945
| 61> H        -1.274249    1.660068    1.215945
| 62> *
| 63>
| 64>
| 65>
| 66>
| 67>                          ****END OF INPUT****
 Total Charge           Charge          ....    0
 Multiplicity           Mult            ....    1
 Number of Electrons    NEL             ....   64
MP2 TOTAL ENERGY:     -977.806376620 Eh
FINAL SINGLE POINT ENERGY      -977.806376619631
MP2 TOTAL ENERGY:     -978.103238875 Eh
FINAL SINGLE POINT ENERGY      -978.103238875250

CARTESIAN COORDINATES (ANGSTROEM)
---------------------------------
  C      0.871437    0.492813    0.000002
  O      1.657172    1.405227    0.000002
  Si    -0.995452    0.882641    0.000000
  O      1.222239   -0.791619   -0.000001
  Cl    -2.145534   -0.810164   -0.000001
  C      2.630310   -1.060350   -0.000001
  H      2.722411   -2.141312   -0.000001
  H      3.095357   -0.633321    0.886321
  H      3.095357   -0.633320   -0.886322
  H     -1.274249    1.660069   -1.215945
  H     -1.274249    1.660068    1.215945

 Multiplicity           Mult            ....    1
 Number of Electrons    NEL             ....   64
 Basis Dimension        Dim             ....  718

ORBITAL ENERGIES
----------------

  NO   OCC          E(Eh)            E(eV)
   0   2.0000    -104.837543     -2852.7746
   1   2.0000     -68.832981     -1873.0406
   2   2.0000     -20.614353      -560.9451
   3   2.0000     -20.560071      -559.4680
   4   2.0000     -11.374318      -309.5109
   5   2.0000     -11.291869      -307.2674
   6   2.0000     -10.564955      -287.4870
   7   2.0000      -8.031769      -218.5555
   8   2.0000      -8.030614      -218.5241
   9   2.0000      -8.030601      -218.5238
  10   2.0000      -6.178555      -168.1270
  11   2.0000      -4.285538      -116.6154
  12   2.0000      -4.284589      -116.5896
  13   2.0000      -4.284354      -116.5832
  14   2.0000      -1.474871       -40.1333
  15   2.0000      -1.374212       -37.3942
  16   2.0000      -1.108593       -30.1663
  17   2.0000      -0.990861       -26.9627
  18   2.0000      -0.819010       -22.2864
  19   2.0000      -0.760843       -20.7036
  20   2.0000      -0.688102       -18.7242
  21   2.0000      -0.682381       -18.5685
  22   2.0000      -0.668307       -18.1856
  23   2.0000      -0.579678       -15.7738
  24   2.0000      -0.568532       -15.4705
  25   2.0000      -0.541289       -14.7292
  26   2.0000      -0.533181       -14.5086
  27   2.0000      -0.528084       -14.3699
  28   2.0000      -0.489005       -13.3065
  29   2.0000      -0.476057       -12.9542
  30   2.0000      -0.458909       -12.4876
  31   2.0000      -0.430021       -11.7015
  32   0.0000       0.024562         0.6684
  33   0.0000       0.032898         0.8952
  34   0.0000       0.035424         0.9639
  35   0.0000       0.038624         1.0510
  36   0.0000       0.047040         1.2800

MULLIKEN ATOMIC CHARGES
-----------------------
   0 C :    0.663112
   1 O :   -0.781204
   2 Si:    1.295926
   3 O :   -0.686484
   4 Cl:   -0.580097
   5 C :   -0.631108
   6 H :    0.426772
   7 H :    0.294249
   8 H :    0.294249
   9 H :   -0.147707
  10 H :   -0.147708
Sum of atomic charges:    0.0000000

LOEWDIN ATOMIC CHARGES
----------------------
   0 C :   -1.187286
   1 O :    0.613786
   2 Si:   -0.058717
   3 O :    0.740258
   4 Cl:    0.887515
   5 C :    0.562378
   6 H :   -0.323450
   7 H :   -0.318646
   8 H :   -0.318646
   9 H :   -0.298596
  10 H :   -0.298596

  Mayer bond orders larger than 0.100000
B(  0-C ,  1-O ) :   1.5315 B(  0-C ,  2-Si) :   0.7213 B(  0-C ,  3-O ) :   1.0638
B(  1-O ,  3-O ) :   0.1011 B(  2-Si,  4-Cl) :   0.5217 B(  2-Si,  9-H ) :   0.8633
B(  2-Si, 10-H ) :   0.8633 B(  3-O ,  5-C ) :   0.8326 B(  5-C ,  6-H ) :   0.8203
B(  5-C ,  7-H ) :   0.9156 B(  5-C ,  8-H ) :   0.9156

MP2 TOTAL ENERGY:     -978.201346326 Eh
FINAL SINGLE POINT ENERGY      -978.201346325631

DIPOLE MOMENT
-------------
                                X             Y             Z
Electronic contribution:     -9.02160      -1.34837      -0.00000
Nuclear contribution   :      9.20290       0.99104      -0.00000
                        -----------------------------------------
Total Dipole Moment    :      0.18130      -0.35733      -0.00000
                        -----------------------------------------
Magnitude (a.u.)       :      0.40069
Magnitude (Debye)      :      1.01849

Rotational constants in cm-1:     0.143166     0.043675     0.034084
Rotational constants in MHz :  4291.994758  1309.354815  1021.801612

                             ****ORCA TERMINATED NORMALLY****
TOTAL RUN TIME: 0 days 0 hours 38 minutes 48 seconds 723 msec
