                         Program Version 5.0.4 -  RELEASE  -
|  1> ! ri-mp2 aug-cc-pvdz aug-cc-pvdz/c tightscf
|  2> %pal nprocs 16 end
|  3> %maxcore 3800
|  4> %base "DZ_B-P_56_B"
|  5> %scf
|  6> STABPerform true
|  7> STABRestartUHFifUnstable true
|  8> end
|  9>
| 10> *xyz 0 2
| 11> B         0.000000   -0.561892   -0.037100
| 12> C         1.395850    0.097367   -0.009562
| 13> H         2.200222   -0.522429   -0.404174
| 14> H         1.629238    0.264440    1.050883
| 15> H         1.423237    1.078516   -0.496587
| 16> C        -1.395850    0.097367   -0.009562
| 17> H        -2.200223   -0.522429   -0.404173
| 18> H        -1.423237    1.078515   -0.496588
| 19> H        -1.629237    0.264441    1.050883
| 20> *
| 21>
| 22> $new_job
| 23> ! ri-mp2 aug-cc-pvtz aug-cc-pvtz/c tightscf
| 24> %pal nprocs 16 end
| 25> %maxcore 3800
| 26> %base "TZ_B-P_56_B"
| 27>
| 28> *xyz 0 2
| 29> B         0.000000   -0.561892   -0.037100
| 30> C         1.395850    0.097367   -0.009562
| 31> H         2.200222   -0.522429   -0.404174
| 32> H         1.629238    0.264440    1.050883
| 33> H         1.423237    1.078516   -0.496587
| 34> C        -1.395850    0.097367   -0.009562
| 35> H        -2.200223   -0.522429   -0.404173
| 36> H        -1.423237    1.078515   -0.496588
| 37> H        -1.629237    0.264441    1.050883
| 38> *
| 39>
| 40> $new_job
| 41> ! ri-mp2 aug-cc-pvqz aug-cc-pvqz/c tightscf
| 42> %pal nprocs 16 end
| 43> %maxcore 3800
| 44> %base "QZ_B-P_56_B"
| 45>
| 46> *xyz 0 2
| 47> B         0.000000   -0.561892   -0.037100
| 48> C         1.395850    0.097367   -0.009562
| 49> H         2.200222   -0.522429   -0.404174
| 50> H         1.629238    0.264440    1.050883
| 51> H         1.423237    1.078516   -0.496587
| 52> C        -1.395850    0.097367   -0.009562
| 53> H        -2.200223   -0.522429   -0.404173
| 54> H        -1.423237    1.078515   -0.496588
| 55> H        -1.629237    0.264441    1.050883
| 56> *
| 57>
| 58>
| 59>
| 60>
| 61>                          ****END OF INPUT****
 Total Charge           Charge          ....    0
 Multiplicity           Mult            ....    2
 Number of Electrons    NEL             ....   23
MP2 TOTAL ENERGY:     -104.233294718 Eh
FINAL SINGLE POINT ENERGY      -104.233294718210
MP2 TOTAL ENERGY:     -104.333742808 Eh
FINAL SINGLE POINT ENERGY      -104.333742807900

CARTESIAN COORDINATES (ANGSTROEM)
---------------------------------
  B      0.000000   -0.561892   -0.037100
  C      1.395850    0.097367   -0.009562
  H      2.200222   -0.522429   -0.404174
  H      1.629238    0.264440    1.050883
  H      1.423237    1.078516   -0.496587
  C     -1.395850    0.097367   -0.009562
  H     -2.200223   -0.522429   -0.404173
  H     -1.423237    1.078515   -0.496588
  H     -1.629237    0.264441    1.050883

 Multiplicity           Mult            ....    2
 Number of Electrons    NEL             ....   23
 Basis Dimension        Dim             ....  516

ORBITAL ENERGIES
----------------
                 SPIN UP ORBITALS
  NO   OCC          E(Eh)            E(eV)
   0   1.0000     -11.198413      -304.7243
   1   1.0000     -11.198403      -304.7240
   2   1.0000      -7.607010      -206.9973
   3   1.0000      -0.975297       -26.5392
   4   1.0000      -0.934379       -25.4258
   5   1.0000      -0.618459       -16.8291
   6   1.0000      -0.579836       -15.7781
   7   1.0000      -0.560747       -15.2587
   8   1.0000      -0.548421       -14.9233
   9   1.0000      -0.537454       -14.6249
  10   1.0000      -0.477231       -12.9861
  11   1.0000      -0.298575        -8.1246
  12   0.0000       0.024119         0.6563
  13   0.0000       0.034890         0.9494
  14   0.0000       0.036026         0.9803
  15   0.0000       0.036371         0.9897
  16   0.0000       0.053202         1.4477

                 SPIN DOWN ORBITALS
  NO   OCC          E(Eh)            E(eV)
   0   1.0000     -11.198092      -304.7156
   1   1.0000     -11.198078      -304.7152
   2   1.0000      -7.589989      -206.5341
   3   1.0000      -0.964172       -26.2364
   4   1.0000      -0.931145       -25.3377
   5   1.0000      -0.588354       -16.0099
   6   1.0000      -0.563037       -15.3210
   7   1.0000      -0.548667       -14.9300
   8   1.0000      -0.539916       -14.6919
   9   1.0000      -0.536699       -14.6043
  10   1.0000      -0.467768       -12.7286
  11   0.0000       0.021517         0.5855
  12   0.0000       0.035378         0.9627
  13   0.0000       0.036416         0.9909
  14   0.0000       0.036598         0.9959
  15   0.0000       0.053292         1.4501

MULLIKEN ATOMIC CHARGES AND SPIN POPULATIONS
--------------------------------------------
   0 B :    0.265136    1.051834
   1 C :   -0.982110   -0.058696
   2 H :    0.333186   -0.004024
   3 H :    0.262097   -0.003720
   4 H :    0.254258    0.040524
   5 C :   -0.982110   -0.058696
   6 H :    0.333186   -0.004024
   7 H :    0.254258    0.040524
   8 H :    0.262097   -0.003720
Sum of atomic charges         :   -0.0000000

LOEWDIN ATOMIC CHARGES AND SPIN POPULATIONS
-------------------------------------------
   0 B :    0.022226    0.524791
   1 C :    0.993579    0.165423
   2 H :   -0.345817    0.029871
   3 H :   -0.333898    0.020233
   4 H :   -0.324977    0.022078
   5 C :    0.993579    0.165423
   6 H :   -0.345817    0.029871
   7 H :   -0.324977    0.022078
   8 H :   -0.333898    0.020233

  Mayer bond orders larger than 0.100000
B(  0-B ,  1-C ) :   0.9891 B(  0-B ,  5-C ) :   0.9891 B(  1-C ,  2-H ) :   0.8998
B(  1-C ,  3-H ) :   0.9071 B(  1-C ,  4-H ) :   0.9123 B(  5-C ,  6-H ) :   0.8998
B(  5-C ,  7-H ) :   0.9123 B(  5-C ,  8-H ) :   0.9071

MP2 TOTAL ENERGY:     -104.363616502 Eh
FINAL SINGLE POINT ENERGY      -104.363616501724

DIPOLE MOMENT
-------------
                                X             Y             Z
Electronic contribution:      0.00000      -1.84757      -0.31560
Nuclear contribution   :      0.00000       2.21243       0.34884
                        -----------------------------------------
Total Dipole Moment    :      0.00000       0.36486       0.03324
                        -----------------------------------------
Magnitude (a.u.)       :      0.36637
Magnitude (Debye)      :      0.93124

Rotational constants in cm-1:     1.749031     0.244089     0.232288
Rotational constants in MHz : 52434.642530  7317.597323  6963.821166

                             ****ORCA TERMINATED NORMALLY****
TOTAL RUN TIME: 0 days 0 hours 13 minutes 20 seconds 544 msec
