                         Program Version 5.0.4 -  RELEASE  -
|  1> ! ri-mp2 aug-cc-pvdz aug-cc-pvdz/c tightscf
|  2> %pal nprocs 16 end
|  3> %maxcore 3800
|  4> %base "DZ_P-Cl_2_AB"
|  5>
|  6> *xyz 0 1
|  7> C        -1.490535    2.005912   -1.171725
|  8> H        -2.446076    2.475479   -1.397923
|  9> H        -0.952101    1.861109   -2.109533
| 10> H        -0.904665    2.696563   -0.565148
| 11> Cl         1.991011   -1.587096   -0.833088
| 12> O         1.066027    2.056363    1.030348
| 13> P         1.000088    0.232872   -0.851666
| 14> C         2.823209    0.510282    1.463755
| 15> H         3.073798    1.192025    2.273081
| 16> H         3.672476    0.388645    0.790460
| 17> H         2.594324   -0.479727    1.859954
| 18> C        -0.661776   -0.205125   -0.218812
| 19> C         1.641852    1.046825    0.718716
| 20> C        -1.701974    0.705308   -0.450180
| 21> C        -0.912050   -1.388331    0.465473
| 22> H        -0.109768   -2.093491    0.628477
| 23> C        -3.211467   -0.789658    0.709478
| 24> H        -4.209463   -1.009835    1.064702
| 25> C        -2.967414    0.387343    0.027022
| 26> H        -3.778764    1.082545   -0.147624
| 27> C        -2.179594   -1.683683    0.929514
| 28> H        -2.357987   -2.609910    1.458812
| 29> *
| 30>
| 31> $new_job
| 32> ! ri-mp2 aug-cc-pvtz aug-cc-pvtz/c tightscf
| 33> %pal nprocs 16 end
| 34> %maxcore 3800
| 35> %base "TZ_P-Cl_2_AB"
| 36>
| 37> *xyz 0 1
| 38> C        -1.490535    2.005912   -1.171725
| 39> H        -2.446076    2.475479   -1.397923
| 40> H        -0.952101    1.861109   -2.109533
| 41> H        -0.904665    2.696563   -0.565148
| 42> Cl         1.991011   -1.587096   -0.833088
| 43> O         1.066027    2.056363    1.030348
| 44> P         1.000088    0.232872   -0.851666
| 45> C         2.823209    0.510282    1.463755
| 46> H         3.073798    1.192025    2.273081
| 47> H         3.672476    0.388645    0.790460
| 48> H         2.594324   -0.479727    1.859954
| 49> C        -0.661776   -0.205125   -0.218812
| 50> C         1.641852    1.046825    0.718716
| 51> C        -1.701974    0.705308   -0.450180
| 52> C        -0.912050   -1.388331    0.465473
| 53> H        -0.109768   -2.093491    0.628477
| 54> C        -3.211467   -0.789658    0.709478
| 55> H        -4.209463   -1.009835    1.064702
| 56> C        -2.967414    0.387343    0.027022
| 57> H        -3.778764    1.082545   -0.147624
| 58> C        -2.179594   -1.683683    0.929514
| 59> H        -2.357987   -2.609910    1.458812
| 60> *
| 61>
| 62> $new_job
| 63> ! ri-mp2 aug-cc-pvqz aug-cc-pvqz/c tightscf
| 64> %pal nprocs 16 end
| 65> %maxcore 3800
| 66> %base "QZ_P-Cl_2_AB"
| 67>
| 68> *xyz 0 1
| 69> C        -1.490535    2.005912   -1.171725
| 70> H        -2.446076    2.475479   -1.397923
| 71> H        -0.952101    1.861109   -2.109533
| 72> H        -0.904665    2.696563   -0.565148
| 73> Cl         1.991011   -1.587096   -0.833088
| 74> O         1.066027    2.056363    1.030348
| 75> P         1.000088    0.232872   -0.851666
| 76> C         2.823209    0.510282    1.463755
| 77> H         3.073798    1.192025    2.273081
| 78> H         3.672476    0.388645    0.790460
| 79> H         2.594324   -0.479727    1.859954
| 80> C        -0.661776   -0.205125   -0.218812
| 81> C         1.641852    1.046825    0.718716
| 82> C        -1.701974    0.705308   -0.450180
| 83> C        -0.912050   -1.388331    0.465473
| 84> H        -0.109768   -2.093491    0.628477
| 85> C        -3.211467   -0.789658    0.709478
| 86> H        -4.209463   -1.009835    1.064702
| 87> C        -2.967414    0.387343    0.027022
| 88> H        -3.778764    1.082545   -0.147624
| 89> C        -2.179594   -1.683683    0.929514
| 90> H        -2.357987   -2.609910    1.458812
| 91> *
| 92>
| 93>
| 94>
| 95>
| 96>                          ****END OF INPUT****
 Total Charge           Charge          ....    0
 Multiplicity           Mult            ....    1
 Number of Electrons    NEL             ....  104
MP2 TOTAL ENERGY:    -1223.518081313 Eh
FINAL SINGLE POINT ENERGY     -1223.518081313010
MP2 TOTAL ENERGY:    -1223.991886323 Eh
FINAL SINGLE POINT ENERGY     -1223.991886323292

CARTESIAN COORDINATES (ANGSTROEM)
---------------------------------
  C     -1.490535    2.005912   -1.171725
  H     -2.446076    2.475479   -1.397923
  H     -0.952101    1.861109   -2.109533
  H     -0.904665    2.696563   -0.565148
  Cl     1.991011   -1.587096   -0.833088
  O      1.066027    2.056363    1.030348
  P      1.000088    0.232872   -0.851666
  C      2.823209    0.510282    1.463755
  H      3.073798    1.192025    2.273081
  H      3.672476    0.388645    0.790460
  H      2.594324   -0.479727    1.859954
  C     -0.661776   -0.205125   -0.218812
  C      1.641852    1.046825    0.718716
  C     -1.701974    0.705308   -0.450180
  C     -0.912050   -1.388331    0.465473
  H     -0.109768   -2.093491    0.628477
  C     -3.211467   -0.789658    0.709478
  H     -4.209463   -1.009835    1.064702
  C     -2.967414    0.387343    0.027022
  H     -3.778764    1.082545   -0.147624
  C     -2.179594   -1.683683    0.929514
  H     -2.357987   -2.609910    1.458812

 Multiplicity           Mult            ....    1
 Number of Electrons    NEL             ....  104
 Basis Dimension        Dim             .... 1428

ORBITAL ENERGIES
----------------

  NO   OCC          E(Eh)            E(eV)
   0   2.0000    -104.838285     -2852.7948
   1   2.0000     -80.000711     -2176.9300
   2   2.0000     -20.564637      -559.5922
   3   2.0000     -11.346193      -308.7456
   4   2.0000     -11.255720      -306.2837
   5   2.0000     -11.250297      -306.1361
   6   2.0000     -11.244902      -305.9893
   7   2.0000     -11.242788      -305.9318
   8   2.0000     -11.241483      -305.8963
   9   2.0000     -11.235598      -305.7362
  10   2.0000     -11.234138      -305.6964
  11   2.0000     -11.221752      -305.3594
  12   2.0000     -10.564949      -287.4869
  13   2.0000      -8.031780      -218.5559
  14   2.0000      -8.030429      -218.5191
  15   2.0000      -8.030324      -218.5162
  16   2.0000      -7.538811      -205.1415
  17   2.0000      -5.432700      -147.8313
  18   2.0000      -5.431271      -147.7924
  19   2.0000      -5.430529      -147.7722
  20   2.0000      -1.411630       -38.4124
  21   2.0000      -1.173353       -31.9286
  22   2.0000      -1.119837       -30.4723
  23   2.0000      -1.059617       -28.8337
  24   2.0000      -1.030551       -28.0427
  25   2.0000      -1.024021       -27.8650
  26   2.0000      -0.943591       -25.6764
  27   2.0000      -0.883648       -24.0453
  28   2.0000      -0.825132       -22.4530
  29   2.0000      -0.803278       -21.8583
  30   2.0000      -0.732024       -19.9194
  31   2.0000      -0.693416       -18.8688
  32   2.0000      -0.656330       -17.8597
  33   2.0000      -0.650303       -17.6956
  34   2.0000      -0.637902       -17.3582
  35   2.0000      -0.621495       -16.9117
  36   2.0000      -0.615678       -16.7535
  37   2.0000      -0.585133       -15.9223
  38   2.0000      -0.582836       -15.8598
  39   2.0000      -0.567500       -15.4425
  40   2.0000      -0.555130       -15.1059
  41   2.0000      -0.544304       -14.8113
  42   2.0000      -0.522652       -14.2221
  43   2.0000      -0.505692       -13.7606
  44   2.0000      -0.502178       -13.6650
  45   2.0000      -0.494749       -13.4628
  46   2.0000      -0.487391       -13.2626
  47   2.0000      -0.479905       -13.0589
  48   2.0000      -0.415544       -11.3075
  49   2.0000      -0.378970       -10.3123
  50   2.0000      -0.340534        -9.2664
  51   2.0000      -0.331216        -9.0128
  52   0.0000       0.022878         0.6225
  53   0.0000       0.026646         0.7251
  54   0.0000       0.028999         0.7891
  55   0.0000       0.035807         0.9744
  56   0.0000       0.040907         1.1131

MULLIKEN ATOMIC CHARGES
-----------------------
   0 C :   -0.852965
   1 H :    0.340410
   2 H :    0.200090
   3 H :    0.264885
   4 Cl:   -0.648227
   5 O :   -0.898714
   6 P :    0.942843
   7 C :   -0.942126
   8 H :    0.354939
   9 H :    0.294830
  10 H :    0.279531
  11 C :   -0.181674
  12 C :    0.612037
  13 C :    0.765223
  14 C :   -0.497837
  15 H :    0.390275
  16 C :   -0.287560
  17 H :    0.310201
  18 C :   -0.548533
  19 H :    0.215442
  20 C :   -0.350698
  21 H :    0.237629
Sum of atomic charges:    0.0000000

LOEWDIN ATOMIC CHARGES
----------------------
   0 C :    0.868736
   1 H :   -0.302327
   2 H :   -0.317277
   3 H :   -0.308765
   4 Cl:    0.849291
   5 O :    0.672697
   6 P :    0.188025
   7 C :    0.788189
   8 H :   -0.321208
   9 H :   -0.327879
  10 H :   -0.333392
  11 C :   -0.317354
  12 C :   -0.854080
  13 C :   -0.161974
  14 C :    0.215723
  15 H :   -0.429249
  16 C :    0.353053
  17 H :   -0.314146
  18 C :    0.346347
  19 H :   -0.321569
  20 C :    0.347170
  21 H :   -0.320010

  Mayer bond orders larger than 0.100000
B(  0-C ,  1-H ) :   0.9551 B(  0-C ,  2-H ) :   1.0801 B(  0-C ,  3-H ) :   0.9994
B(  0-C , 13-C ) :   0.5292 B(  0-C , 18-C ) :  -0.1318 B(  1-H , 13-C ) :  -0.1104
B(  2-H , 13-C ) :  -0.1104 B(  4-Cl,  6-P ) :   0.7083 B(  4-Cl, 15-H ) :  -0.1110
B(  5-O ,  6-P ) :   0.1272 B(  5-O , 12-C ) :   1.1638 B(  6-P , 11-C ) :   0.8213
B(  6-P , 12-C ) :   0.7110 B(  6-P , 13-C ) :  -0.2129 B(  7-C ,  8-H ) :   0.9276
B(  7-C ,  9-H ) :   0.9397 B(  7-C , 10-H ) :   0.9316 B(  7-C , 12-C ) :   0.9122
B( 11-C , 13-C ) :   0.9759 B( 11-C , 14-C ) :   0.8145 B( 11-C , 18-C ) :  -0.2549
B( 11-C , 20-C ) :  -0.3007 B( 13-C , 16-C ) :  -0.2771 B( 13-C , 18-C ) :   1.0197
B( 13-C , 20-C ) :   0.1429 B( 14-C , 15-H ) :   0.9194 B( 14-C , 18-C ) :   0.1248
B( 14-C , 20-C ) :   1.2197 B( 14-C , 21-H ) :  -0.1755 B( 16-C , 17-H ) :   1.0777
B( 16-C , 18-C ) :   1.1978 B( 16-C , 20-C ) :   1.1716 B( 17-H , 18-C ) :  -0.1880
B( 17-H , 20-C ) :  -0.1159 B( 18-C , 19-H ) :   1.0704 B( 20-C , 21-H ) :   1.1487

MP2 TOTAL ENERGY:    -1224.144228593 Eh
FINAL SINGLE POINT ENERGY     -1224.144228593170

DIPOLE MOMENT
-------------
                                X             Y             Z
Electronic contribution:      8.79519      -5.83395      -5.46625
Nuclear contribution   :     -8.95987       5.43749       5.71969
                        -----------------------------------------
Total Dipole Moment    :     -0.16469      -0.39646       0.25344
                        -----------------------------------------
Magnitude (a.u.)       :      0.49853
Magnitude (Debye)      :      1.26717

Rotational constants in cm-1:     0.034969     0.018537     0.015518
Rotational constants in MHz :  1048.346421   555.728534   465.203994

                             ****ORCA TERMINATED NORMALLY****
TOTAL RUN TIME: 0 days 1 hours 31 minutes 1 seconds 434 msec
