                         Program Version 5.0.4 -  RELEASE  -
|  1> ! ri-mp2 aug-cc-pvdz aug-cc-pvdz/c tightscf
|  2> %pal nprocs 16 end
|  3> %maxcore 3800
|  4> %base "DZ_B-Cl_46_AB"
|  5> %scf
|  6> STABPerform true
|  7> STABRestartUHFifUnstable true
|  8> end
|  9>
| 10> *xyz 0 1
| 11> Cl        -1.921973    1.562199   -0.462876
| 12> B        -1.340235    0.006068    0.016343
| 13> Cl        -2.328019   -1.410013   -0.081405
| 14> C         0.127479   -0.109961    0.608409
| 15> O         0.368198   -0.122084    1.773590
| 16> O         1.074558   -0.239560   -0.376041
| 17> C         2.411713    0.102003   -0.150904
| 18> O         2.721635    1.004464    0.548075
| 19> C         3.308129   -0.781349   -0.950615
| 20> H         3.236794   -1.800648   -0.569742
| 21> H         4.331046   -0.426607   -0.875151
| 22> H         2.984155   -0.796978   -1.990382
| 23> *
| 24>
| 25> $new_job
| 26> ! ri-mp2 aug-cc-pvtz aug-cc-pvtz/c tightscf
| 27> %pal nprocs 16 end
| 28> %maxcore 3800
| 29> %base "TZ_B-Cl_46_AB"
| 30>
| 31> *xyz 0 1
| 32> Cl        -1.921973    1.562199   -0.462876
| 33> B        -1.340235    0.006068    0.016343
| 34> Cl        -2.328019   -1.410013   -0.081405
| 35> C         0.127479   -0.109961    0.608409
| 36> O         0.368198   -0.122084    1.773590
| 37> O         1.074558   -0.239560   -0.376041
| 38> C         2.411713    0.102003   -0.150904
| 39> O         2.721635    1.004464    0.548075
| 40> C         3.308129   -0.781349   -0.950615
| 41> H         3.236794   -1.800648   -0.569742
| 42> H         4.331046   -0.426607   -0.875151
| 43> H         2.984155   -0.796978   -1.990382
| 44> *
| 45>
| 46> $new_job
| 47> ! ri-mp2 aug-cc-pvqz aug-cc-pvqz/c tightscf
| 48> %pal nprocs 16 end
| 49> %maxcore 3800
| 50> %base "QZ_B-Cl_46_AB"
| 51>
| 52> *xyz 0 1
| 53> Cl        -1.921973    1.562199   -0.462876
| 54> B        -1.340235    0.006068    0.016343
| 55> Cl        -2.328019   -1.410013   -0.081405
| 56> C         0.127479   -0.109961    0.608409
| 57> O         0.368198   -0.122084    1.773590
| 58> O         1.074558   -0.239560   -0.376041
| 59> C         2.411713    0.102003   -0.150904
| 60> O         2.721635    1.004464    0.548075
| 61> C         3.308129   -0.781349   -0.950615
| 62> H         3.236794   -1.800648   -0.569742
| 63> H         4.331046   -0.426607   -0.875151
| 64> H         2.984155   -0.796978   -1.990382
| 65> *
| 66>
| 67>
| 68>
| 69>
| 70>                          ****END OF INPUT****
 Total Charge           Charge          ....    0
 Multiplicity           Mult            ....    1
 Number of Electrons    NEL             ....   84
MP2 TOTAL ENERGY:    -1285.136579183 Eh
FINAL SINGLE POINT ENERGY     -1285.136579182617
MP2 TOTAL ENERGY:    -1285.562426311 Eh
FINAL SINGLE POINT ENERGY     -1285.562426310710

CARTESIAN COORDINATES (ANGSTROEM)
---------------------------------
  Cl    -1.921973    1.562199   -0.462876
  B     -1.340235    0.006068    0.016343
  Cl    -2.328019   -1.410013   -0.081405
  C      0.127479   -0.109961    0.608409
  O      0.368198   -0.122084    1.773590
  O      1.074558   -0.239560   -0.376041
  C      2.411713    0.102003   -0.150904
  O      2.721635    1.004464    0.548075
  C      3.308129   -0.781349   -0.950615
  H      3.236794   -1.800648   -0.569742
  H      4.331046   -0.426607   -0.875151
  H      2.984155   -0.796978   -1.990382

 Multiplicity           Mult            ....    1
 Number of Electrons    NEL             ....   84
 Basis Dimension        Dim             ....  866

ORBITAL ENERGIES
----------------

  NO   OCC          E(Eh)            E(eV)
   0   2.0000    -104.868852     -2853.6265
   1   2.0000    -104.868120     -2853.6066
   2   2.0000     -20.636553      -561.5492
   3   2.0000     -20.579831      -560.0057
   4   2.0000     -20.573369      -559.8298
   5   2.0000     -11.407685      -310.4189
   6   2.0000     -11.397701      -310.1472
   7   2.0000     -11.259195      -306.3783
   8   2.0000     -10.596521      -288.3460
   9   2.0000     -10.595783      -288.3259
  10   2.0000      -8.063347      -219.4148
  11   2.0000      -8.062606      -219.3947
  12   2.0000      -8.062217      -219.3841
  13   2.0000      -8.061923      -219.3761
  14   2.0000      -8.061471      -219.3638
  15   2.0000      -8.061179      -219.3558
  16   2.0000      -7.745490      -210.7655
  17   2.0000      -1.509847       -41.0850
  18   2.0000      -1.433629       -39.0110
  19   2.0000      -1.387447       -37.7543
  20   2.0000      -1.173061       -31.9206
  21   2.0000      -1.129369       -30.7317
  22   2.0000      -1.054985       -28.7076
  23   2.0000      -0.931057       -25.3353
  24   2.0000      -0.790969       -21.5234
  25   2.0000      -0.748002       -20.3542
  26   2.0000      -0.714642       -19.4464
  27   2.0000      -0.700306       -19.0563
  28   2.0000      -0.678558       -18.4645
  29   2.0000      -0.641233       -17.4488
  30   2.0000      -0.629662       -17.1340
  31   2.0000      -0.603581       -16.4243
  32   2.0000      -0.597873       -16.2690
  33   2.0000      -0.582042       -15.8382
  34   2.0000      -0.546007       -14.8576
  35   2.0000      -0.540799       -14.7159
  36   2.0000      -0.522688       -14.2231
  37   2.0000      -0.500911       -13.6305
  38   2.0000      -0.489954       -13.3323
  39   2.0000      -0.487693       -13.2708
  40   2.0000      -0.481136       -13.0924
  41   2.0000      -0.442153       -12.0316
  42   0.0000       0.020173         0.5489
  43   0.0000       0.031548         0.8585
  44   0.0000       0.033789         0.9195
  45   0.0000       0.038331         1.0430
  46   0.0000       0.046500         1.2653

MULLIKEN ATOMIC CHARGES
-----------------------
   0 Cl:   -0.194120
   1 B :    0.650660
   2 Cl:   -0.191857
   3 C :    0.907556
   4 O :   -0.763117
   5 O :   -0.739740
   6 C :    0.886596
   7 O :   -0.686834
   8 C :   -0.770611
   9 H :    0.284335
  10 H :    0.316951
  11 H :    0.300180
Sum of atomic charges:   -0.0000000

LOEWDIN ATOMIC CHARGES
----------------------
   0 Cl:    1.291091
   1 B :   -2.453712
   2 Cl:    1.285712
   3 C :   -1.189181
   4 O :    0.677791
   5 O :    0.757175
   6 C :   -1.054429
   7 O :    0.723170
   8 C :    0.874611
   9 H :   -0.295346
  10 H :   -0.314962
  11 H :   -0.301921

  Mayer bond orders larger than 0.100000
B(  0-Cl,  1-B ) :   1.0858 B(  1-B ,  2-Cl) :   1.0590 B(  1-B ,  3-C ) :   0.8992
B(  3-C ,  4-O ) :   1.4542 B(  3-C ,  5-O ) :   0.9031 B(  5-O ,  6-C ) :   0.9124
B(  6-C ,  7-O ) :   1.5003 B(  6-C ,  8-C ) :   0.9550 B(  8-C ,  9-H ) :   0.9015
B(  8-C , 10-H ) :   0.9546 B(  8-C , 11-H ) :   0.9082

MP2 TOTAL ENERGY:    -1285.704971684 Eh
FINAL SINGLE POINT ENERGY     -1285.704971683642

DIPOLE MOMENT
-------------
                                X             Y             Z
Electronic contribution:    -16.55740       2.24098       1.14054
Nuclear contribution   :     16.61791      -3.02553      -2.46690
                        -----------------------------------------
Total Dipole Moment    :      0.06051      -0.78455      -1.32636
                        -----------------------------------------
Magnitude (a.u.)       :      1.54221
Magnitude (Debye)      :      3.91998

Rotational constants in cm-1:     0.062135     0.020924     0.018603
Rotational constants in MHz :  1862.762988   627.280553   557.717047

                             ****ORCA TERMINATED NORMALLY****
TOTAL RUN TIME: 0 days 1 hours 3 minutes 23 seconds 392 msec
