                         Program Version 5.0.4 -  RELEASE  -
|  1> ! ri-mp2 aug-cc-pvdz aug-cc-pvdz/c tightscf
|  2> %pal nprocs 16 end
|  3> %maxcore 3800
|  4> %base "DZ_Si-Si_70_AB"
|  5> %scf
|  6> STABPerform true
|  7> STABRestartUHFifUnstable true
|  8> end
|  9>
| 10> *xyz 0 1
| 11> Si        -1.060167   -1.134812   -0.432311
| 12> Si         1.056456   -1.110840    0.566614
| 13> C         1.964194    0.477259   -0.026768
| 14> H         1.880649   -2.297235    0.226164
| 15> H         0.977865   -1.000921    2.038743
| 16> O         1.368493    1.547575    0.002781
| 17> N         3.235519    0.395409   -0.463340
| 18> H         3.729962   -0.477665   -0.488268
| 19> H         3.702821    1.235899   -0.768663
| 20> C        -2.135931    0.401476   -0.004301
| 21> H        -1.798788   -2.329433    0.017102
| 22> H        -0.875037   -1.188061   -1.899580
| 23> O        -3.344900    0.251694   -0.017542
| 24> N        -1.532678    1.572123    0.268044
| 25> H        -2.119838    2.374116    0.439097
| 26> H        -0.523887    1.683134    0.226732
| 27> *
| 28>
| 29> $new_job
| 30> ! ri-mp2 aug-cc-pvtz aug-cc-pvtz/c tightscf
| 31> %pal nprocs 16 end
| 32> %maxcore 3800
| 33> %base "TZ_Si-Si_70_AB"
| 34>
| 35> *xyz 0 1
| 36> Si        -1.060167   -1.134812   -0.432311
| 37> Si         1.056456   -1.110840    0.566614
| 38> C         1.964194    0.477259   -0.026768
| 39> H         1.880649   -2.297235    0.226164
| 40> H         0.977865   -1.000921    2.038743
| 41> O         1.368493    1.547575    0.002781
| 42> N         3.235519    0.395409   -0.463340
| 43> H         3.729962   -0.477665   -0.488268
| 44> H         3.702821    1.235899   -0.768663
| 45> C        -2.135931    0.401476   -0.004301
| 46> H        -1.798788   -2.329433    0.017102
| 47> H        -0.875037   -1.188061   -1.899580
| 48> O        -3.344900    0.251694   -0.017542
| 49> N        -1.532678    1.572123    0.268044
| 50> H        -2.119838    2.374116    0.439097
| 51> H        -0.523887    1.683134    0.226732
| 52> *
| 53>
| 54> $new_job
| 55> ! ri-mp2 aug-cc-pvqz aug-cc-pvqz/c tightscf
| 56> %pal nprocs 16 end
| 57> %maxcore 3800
| 58> %base "QZ_Si-Si_70_AB"
| 59>
| 60> *xyz 0 1
| 61> Si        -1.060167   -1.134812   -0.432311
| 62> Si         1.056456   -1.110840    0.566614
| 63> C         1.964194    0.477259   -0.026768
| 64> H         1.880649   -2.297235    0.226164
| 65> H         0.977865   -1.000921    2.038743
| 66> O         1.368493    1.547575    0.002781
| 67> N         3.235519    0.395409   -0.463340
| 68> H         3.729962   -0.477665   -0.488268
| 69> H         3.702821    1.235899   -0.768663
| 70> C        -2.135931    0.401476   -0.004301
| 71> H        -1.798788   -2.329433    0.017102
| 72> H        -0.875037   -1.188061   -1.899580
| 73> O        -3.344900    0.251694   -0.017542
| 74> N        -1.532678    1.572123    0.268044
| 75> H        -2.119838    2.374116    0.439097
| 76> H        -0.523887    1.683134    0.226732
| 77> *
| 78>
| 79>
| 80>
| 81>
| 82>                          ****END OF INPUT****
 Total Charge           Charge          ....    0
 Multiplicity           Mult            ....    1
 Number of Electrons    NEL             ....   78
MP2 TOTAL ENERGY:     -918.179289185 Eh
FINAL SINGLE POINT ENERGY      -918.179289185406
MP2 TOTAL ENERGY:     -918.537481465 Eh
FINAL SINGLE POINT ENERGY      -918.537481465081

CARTESIAN COORDINATES (ANGSTROEM)
---------------------------------
  Si    -1.060167   -1.134812   -0.432311
  Si     1.056456   -1.110840    0.566614
  C      1.964194    0.477259   -0.026768
  H      1.880649   -2.297235    0.226164
  H      0.977865   -1.000921    2.038743
  O      1.368493    1.547575    0.002781
  N      3.235519    0.395409   -0.463340
  H      3.729962   -0.477665   -0.488268
  H      3.702821    1.235899   -0.768663
  C     -2.135931    0.401476   -0.004301
  H     -1.798788   -2.329433    0.017102
  H     -0.875037   -1.188061   -1.899580
  O     -3.344900    0.251694   -0.017542
  N     -1.532678    1.572123    0.268044
  H     -2.119838    2.374116    0.439097
  H     -0.523887    1.683134    0.226732

 Multiplicity           Mult            ....    1
 Number of Electrons    NEL             ....   78
 Basis Dimension        Dim             .... 1016

ORBITAL ENERGIES
----------------

  NO   OCC          E(Eh)            E(eV)
   0   2.0000     -68.793537     -1871.9673
   1   2.0000     -68.783052     -1871.6820
   2   2.0000     -20.546358      -559.0948
   3   2.0000     -20.511736      -558.1527
   4   2.0000     -15.609697      -424.7614
   5   2.0000     -15.565969      -423.5715
   6   2.0000     -11.360537      -309.1359
   7   2.0000     -11.328697      -308.2695
   8   2.0000      -6.144741      -167.2069
   9   2.0000      -6.133876      -166.9113
  10   2.0000      -4.250855      -115.6716
  11   2.0000      -4.250699      -115.6674
  12   2.0000      -4.250529      -115.6628
  13   2.0000      -4.240161      -115.3807
  14   2.0000      -4.239815      -115.3712
  15   2.0000      -4.239624      -115.3660
  16   2.0000      -1.405389       -38.2426
  17   2.0000      -1.370049       -37.2809
  18   2.0000      -1.236502       -33.6469
  19   2.0000      -1.197428       -32.5837
  20   2.0000      -0.862463       -23.4688
  21   2.0000      -0.824296       -22.4302
  22   2.0000      -0.788082       -21.4448
  23   2.0000      -0.743479       -20.2311
  24   2.0000      -0.719980       -19.5916
  25   2.0000      -0.684671       -18.6308
  26   2.0000      -0.662307       -18.0223
  27   2.0000      -0.630301       -17.1514
  28   2.0000      -0.598782       -16.2937
  29   2.0000      -0.577509       -15.7148
  30   2.0000      -0.563749       -15.3404
  31   2.0000      -0.543409       -14.7869
  32   2.0000      -0.509290       -13.8585
  33   2.0000      -0.491298       -13.3689
  34   2.0000      -0.443465       -12.0673
  35   2.0000      -0.436544       -11.8790
  36   2.0000      -0.422922       -11.5083
  37   2.0000      -0.400412       -10.8958
  38   2.0000      -0.380597       -10.3566
  39   0.0000       0.012719         0.3461
  40   0.0000       0.027985         0.7615
  41   0.0000       0.029915         0.8140
  42   0.0000       0.033611         0.9146
  43   0.0000       0.043116         1.1733

MULLIKEN ATOMIC CHARGES
-----------------------
   0 Si:    0.805263
   1 Si:    0.909559
   2 C :    0.727067
   3 H :   -0.293915
   4 H :   -0.205452
   5 O :   -0.885456
   6 N :   -0.820462
   7 H :    0.307000
   8 H :    0.263646
   9 C :    0.600314
  10 H :   -0.197482
  11 H :   -0.193867
  12 O :   -0.853918
  13 N :   -0.763371
  14 H :    0.129802
  15 H :    0.471273
Sum of atomic charges:    0.0000000

LOEWDIN ATOMIC CHARGES
----------------------
   0 Si:    0.737769
   1 Si:    0.746353
   2 C :   -0.845424
   3 H :   -0.264554
   4 H :   -0.262633
   5 O :    0.701206
   6 N :    1.172533
   7 H :   -0.524358
   8 H :   -0.496095
   9 C :   -0.905916
  10 H :   -0.270381
  11 H :   -0.263782
  12 O :    0.583118
  13 N :    1.153462
  14 H :   -0.495244
  15 H :   -0.766053

  Mayer bond orders larger than 0.100000
B(  0-Si,  1-Si) :   0.8570 B(  0-Si,  9-C ) :   0.8115 B(  0-Si, 10-H ) :   0.8501
B(  0-Si, 11-H ) :   0.8050 B(  1-Si,  2-C ) :   0.6848 B(  1-Si,  3-H ) :   0.7906
B(  1-Si,  4-H ) :   0.8000 B(  2-C ,  5-O ) :   1.3415 B(  2-C ,  6-N ) :   1.0699
B(  5-O ,  6-N ) :   0.1188 B(  6-N ,  7-H ) :   0.8995 B(  6-N ,  8-H ) :   0.9769
B(  9-C , 12-O ) :   1.3318 B(  9-C , 13-N ) :   1.1101 B( 12-O , 13-N ) :   0.1308
B( 13-N , 14-H ) :   1.1485 B( 13-N , 15-H ) :   0.7369

MP2 TOTAL ENERGY:     -918.656522456 Eh
FINAL SINGLE POINT ENERGY      -918.656522456269

DIPOLE MOMENT
-------------
                                X             Y             Z
Electronic contribution:     -2.23291       1.24202       0.07176
Nuclear contribution   :      4.89334      -1.80202      -0.21558
                        -----------------------------------------
Total Dipole Moment    :      2.66043      -0.56000      -0.14383
                        -----------------------------------------
Magnitude (a.u.)       :      2.72254
Magnitude (Debye)      :      6.92014

Rotational constants in cm-1:     0.083302     0.027151     0.021929
Rotational constants in MHz :  2497.320877   813.973288   657.401679

                             ****ORCA TERMINATED NORMALLY****
TOTAL RUN TIME: 0 days 2 hours 54 minutes 7 seconds 730 msec
