                         Program Version 5.0.4 -  RELEASE  -
|  1> ! ri-mp2 aug-cc-pvdz aug-cc-pvdz/c tightscf
|  2> %pal nprocs 16 end
|  3> %maxcore 3800
|  4> %base "DZ_B-Cl_8_A"
|  5> %scf
|  6> STABPerform true
|  7> STABRestartUHFifUnstable true
|  8> end
|  9>
| 10> *xyz 0 2
| 11> Cl        -2.171549   -0.136134   -0.188129
| 12> B        -0.866256   -0.413108    0.869368
| 13> C         0.618352    0.036433    0.684300
| 14> Cl         1.298196   -1.345317   -0.239250
| 15> Cl         0.839967    1.584267   -0.164105
| 16> H         1.188716    0.099065    1.602586
| 17> *
| 18>
| 19> $new_job
| 20> ! ri-mp2 aug-cc-pvtz aug-cc-pvtz/c tightscf
| 21> %pal nprocs 16 end
| 22> %maxcore 3800
| 23> %base "TZ_B-Cl_8_A"
| 24>
| 25> *xyz 0 2
| 26> Cl        -2.171549   -0.136134   -0.188129
| 27> B        -0.866256   -0.413108    0.869368
| 28> C         0.618352    0.036433    0.684300
| 29> Cl         1.298196   -1.345317   -0.239250
| 30> Cl         0.839967    1.584267   -0.164105
| 31> H         1.188716    0.099065    1.602586
| 32> *
| 33>
| 34> $new_job
| 35> ! ri-mp2 aug-cc-pvqz aug-cc-pvqz/c tightscf
| 36> %pal nprocs 16 end
| 37> %maxcore 3800
| 38> %base "QZ_B-Cl_8_A"
| 39>
| 40> *xyz 0 2
| 41> Cl        -2.171549   -0.136134   -0.188129
| 42> B        -0.866256   -0.413108    0.869368
| 43> C         0.618352    0.036433    0.684300
| 44> Cl         1.298196   -1.345317   -0.239250
| 45> Cl         0.839967    1.584267   -0.164105
| 46> H         1.188716    0.099065    1.602586
| 47> *
| 48>
| 49>
| 50>
| 51>
| 52>                          ****END OF INPUT****
 Total Charge           Charge          ....    0
 Multiplicity           Mult            ....    2
 Number of Electrons    NEL             ....   63
MP2 TOTAL ENERGY:    -1442.270132881 Eh
FINAL SINGLE POINT ENERGY     -1442.270132880764
MP2 TOTAL ENERGY:    -1442.503008187 Eh
FINAL SINGLE POINT ENERGY     -1442.503008187067

CARTESIAN COORDINATES (ANGSTROEM)
---------------------------------
  Cl    -2.171549   -0.136134   -0.188129
  B     -0.866256   -0.413108    0.869368
  C      0.618352    0.036433    0.684300
  Cl     1.298196   -1.345317   -0.239250
  Cl     0.839967    1.584267   -0.164105
  H      1.188716    0.099065    1.602586

 Multiplicity           Mult            ....    2
 Number of Electrons    NEL             ....   63
 Basis Dimension        Dim             ....  458

ORBITAL ENERGIES
----------------
                 SPIN UP ORBITALS
  NO   OCC          E(Eh)            E(eV)
   0   1.0000    -104.862004     -2853.4402
   1   1.0000    -104.861326     -2853.4218
   2   1.0000    -104.853949     -2853.2210
   3   1.0000     -11.363612      -309.2196
   4   1.0000     -10.589688      -288.1601
   5   1.0000     -10.586614      -288.0764
   6   1.0000     -10.579438      -287.8811
   7   1.0000      -8.057417      -219.2535
   8   1.0000      -8.055244      -219.1943
   9   1.0000      -8.054846      -219.1835
  10   1.0000      -8.053732      -219.1532
  11   1.0000      -8.051736      -219.0989
  12   1.0000      -8.051629      -219.0960
  13   1.0000      -8.047397      -218.9808
  14   1.0000      -8.044488      -218.9016
  15   1.0000      -8.044413      -218.8996
  16   1.0000      -7.707878      -209.7420
  17   1.0000      -1.202624       -32.7251
  18   1.0000      -1.144975       -31.1564
  19   1.0000      -1.106013       -30.0961
  20   1.0000      -0.909861       -24.7586
  21   1.0000      -0.720836       -19.6149
  22   1.0000      -0.642302       -17.4779
  23   1.0000      -0.609228       -16.5779
  24   1.0000      -0.596345       -16.2274
  25   1.0000      -0.524211       -14.2645
  26   1.0000      -0.513280       -13.9671
  27   1.0000      -0.481207       -13.0943
  28   1.0000      -0.476226       -12.9588
  29   1.0000      -0.457503       -12.4493
  30   1.0000      -0.451832       -12.2950
  31   1.0000      -0.361218        -9.8292
  32   0.0000       0.024300         0.6612
  33   0.0000       0.033021         0.8985
  34   0.0000       0.037215         1.0127
  35   0.0000       0.041020         1.1162
  36   0.0000       0.051804         1.4096

                 SPIN DOWN ORBITALS
  NO   OCC          E(Eh)            E(eV)
   0   1.0000    -104.861292     -2853.4208
   1   1.0000    -104.861261     -2853.4200
   2   1.0000    -104.853351     -2853.2047
   3   1.0000     -11.362375      -309.1860
   4   1.0000     -10.588814      -288.1363
   5   1.0000     -10.586584      -288.0756
   6   1.0000     -10.578812      -287.8641
   7   1.0000      -8.055852      -219.2109
   8   1.0000      -8.055153      -219.1919
   9   1.0000      -8.053471      -219.1461
  10   1.0000      -8.052887      -219.1302
  11   1.0000      -8.051785      -219.1002
  12   1.0000      -8.051646      -219.0964
  13   1.0000      -8.045058      -218.9172
  14   1.0000      -8.044155      -218.8926
  15   1.0000      -8.043940      -218.8867
  16   1.0000      -7.687186      -209.1790
  17   1.0000      -1.198746       -32.6195
  18   1.0000      -1.137260       -30.9464
  19   1.0000      -1.103320       -30.0229
  20   1.0000      -0.900373       -24.5004
  21   1.0000      -0.702278       -19.1100
  22   1.0000      -0.622999       -16.9527
  23   1.0000      -0.602120       -16.3845
  24   1.0000      -0.587481       -15.9862
  25   1.0000      -0.514929       -14.0119
  26   1.0000      -0.497472       -13.5369
  27   1.0000      -0.477874       -13.0036
  28   1.0000      -0.473244       -12.8776
  29   1.0000      -0.456009       -12.4086
  30   1.0000      -0.446299       -12.1444
  31   0.0000       0.020435         0.5561
  32   0.0000       0.036149         0.9837
  33   0.0000       0.036836         1.0023
  34   0.0000       0.040525         1.1027
  35   0.0000       0.052761         1.4357

MULLIKEN ATOMIC CHARGES AND SPIN POPULATIONS
--------------------------------------------
   0 Cl:   -0.189471    0.019679
   1 B :    0.370787    0.984685
   2 C :   -0.124839   -0.054324
   3 Cl:   -0.232082    0.009278
   4 Cl:   -0.253280    0.049062
   5 H :    0.428885   -0.008379
Sum of atomic charges         :   -0.0000000

LOEWDIN ATOMIC CHARGES AND SPIN POPULATIONS
-------------------------------------------
   0 Cl:    1.221523    0.167816
   1 B :   -1.471545    0.574208
   2 C :   -1.299626    0.162615
   3 Cl:    1.092754    0.024427
   4 Cl:    1.060344    0.042402
   5 H :   -0.603449    0.028532

  Mayer bond orders larger than 0.100000
B(  0-Cl,  1-B ) :   1.2045 B(  1-B ,  2-C ) :   0.8930 B(  2-C ,  3-Cl) :   0.8256
B(  2-C ,  4-Cl) :   0.8242 B(  2-C ,  5-H ) :   0.7637

MP2 TOTAL ENERGY:    -1442.581112144 Eh
FINAL SINGLE POINT ENERGY     -1442.581112143600

DIPOLE MOMENT
-------------
                                X             Y             Z
Electronic contribution:     -1.75316      -0.25554      -1.06788
Nuclear contribution   :      1.75814       0.25888       1.58887
                        -----------------------------------------
Total Dipole Moment    :      0.00498       0.00335       0.52098
                        -----------------------------------------
Magnitude (a.u.)       :      0.52102
Magnitude (Debye)      :      1.32433

Rotational constants in cm-1:     0.095647     0.058810     0.039971
Rotational constants in MHz :  2867.430463  1763.086688  1198.290159

                             ****ORCA TERMINATED NORMALLY****
TOTAL RUN TIME: 0 days 0 hours 24 minutes 3 seconds 97 msec
