                         Program Version 5.0.4 -  RELEASE  -
|  1> ! ri-mp2 aug-cc-pvdz aug-cc-pvdz/c tightscf
|  2> %pal nprocs 16 end
|  3> %maxcore 3800
|  4> %base "DZ_B-P_39_B"
|  5> %scf
|  6> STABPerform true
|  7> STABRestartUHFifUnstable true
|  8> end
|  9>
| 10> *xyz 0 2
| 11> P         0.000000    0.000000    0.563253
| 12> F        -0.000000    1.201015   -0.469377
| 13> F        -0.000000   -1.201015   -0.469377
| 14> *
| 15>
| 16> $new_job
| 17> ! ri-mp2 aug-cc-pvtz aug-cc-pvtz/c tightscf
| 18> %pal nprocs 16 end
| 19> %maxcore 3800
| 20> %base "TZ_B-P_39_B"
| 21>
| 22> *xyz 0 2
| 23> P         0.000000    0.000000    0.563253
| 24> F        -0.000000    1.201015   -0.469377
| 25> F        -0.000000   -1.201015   -0.469377
| 26> *
| 27>
| 28> $new_job
| 29> ! ri-mp2 aug-cc-pvqz aug-cc-pvqz/c tightscf
| 30> %pal nprocs 16 end
| 31> %maxcore 3800
| 32> %base "QZ_B-P_39_B"
| 33>
| 34> *xyz 0 2
| 35> P         0.000000    0.000000    0.563253
| 36> F        -0.000000    1.201015   -0.469377
| 37> F        -0.000000   -1.201015   -0.469377
| 38> *
| 39>
| 40>
| 41>
| 42>
| 43>                          ****END OF INPUT****
 Total Charge           Charge          ....    0
 Multiplicity           Mult            ....    2
 Number of Electrons    NEL             ....   33
MP2 TOTAL ENERGY:     -540.178196240 Eh
FINAL SINGLE POINT ENERGY      -540.178196239773
MP2 TOTAL ENERGY:     -540.391291544 Eh
FINAL SINGLE POINT ENERGY      -540.391291544419

CARTESIAN COORDINATES (ANGSTROEM)
---------------------------------
  P      0.000000    0.000000    0.563253
  F     -0.000000    1.201015   -0.469377
  F     -0.000000   -1.201015   -0.469377

 Multiplicity           Mult            ....    2
 Number of Electrons    NEL             ....   33
 Basis Dimension        Dim             ....  244

ORBITAL ENERGIES
----------------
                 SPIN UP ORBITALS
  NO   OCC          E(Eh)            E(eV)
   0   1.0000     -80.074579     -2178.9401
   1   1.0000     -26.330750      -716.4961
   2   1.0000     -26.330740      -716.4959
   3   1.0000      -7.603602      -206.9045
   4   1.0000      -5.507406      -149.8641
   5   1.0000      -5.494120      -149.5026
   6   1.0000      -5.491043      -149.4189
   7   1.0000      -1.660500       -45.1845
   8   1.0000      -1.626984       -44.2725
   9   1.0000      -0.899669       -24.4812
  10   1.0000      -0.763146       -20.7663
  11   1.0000      -0.747192       -20.3321
  12   1.0000      -0.735886       -20.0245
  13   1.0000      -0.705784       -19.2054
  14   1.0000      -0.666484       -18.1360
  15   1.0000      -0.547199       -14.8900
  16   1.0000      -0.369689       -10.0597
  17   0.0000       0.050266         1.3678
  18   0.0000       0.051086         1.3901
  19   0.0000       0.061100         1.6626
  20   0.0000       0.063421         1.7258
  21   0.0000       0.124962         3.4004

                 SPIN DOWN ORBITALS
  NO   OCC          E(Eh)            E(eV)
   0   1.0000     -80.067541     -2178.7485
   1   1.0000     -26.326336      -716.3760
   2   1.0000     -26.326322      -716.3756
   3   1.0000      -7.594732      -206.6632
   4   1.0000      -5.490181      -149.3954
   5   1.0000      -5.489968      -149.3896
   6   1.0000      -5.472213      -148.9065
   7   1.0000      -1.648308       -44.8527
   8   1.0000      -1.615733       -43.9663
   9   1.0000      -0.863605       -23.4999
  10   1.0000      -0.755809       -20.5666
  11   1.0000      -0.731372       -19.9017
  12   1.0000      -0.704367       -19.1668
  13   1.0000      -0.670489       -18.2449
  14   1.0000      -0.663973       -18.0676
  15   1.0000      -0.494332       -13.4515
  16   0.0000       0.035344         0.9618
  17   0.0000       0.051641         1.4052
  18   0.0000       0.053710         1.4615
  19   0.0000       0.062557         1.7023
  20   0.0000       0.092329         2.5124

MULLIKEN ATOMIC CHARGES AND SPIN POPULATIONS
--------------------------------------------
   0 P :    1.277186    0.989792
   1 F :   -0.638593    0.005104
   2 F :   -0.638593    0.005104
Sum of atomic charges         :   -0.0000000

LOEWDIN ATOMIC CHARGES AND SPIN POPULATIONS
-------------------------------------------
   0 P :   -0.149172    0.689382
   1 F :    0.074586    0.155309
   2 F :    0.074586    0.155309

  Mayer bond orders larger than 0.100000
B(  0-P ,  1-F ) :   0.5395 B(  0-P ,  2-F ) :   0.5395

MP2 TOTAL ENERGY:     -540.461783835 Eh
FINAL SINGLE POINT ENERGY      -540.461783835403

DIPOLE MOMENT
-------------
                                X             Y             Z
Electronic contribution:     -0.00000       0.00000       0.13326
Nuclear contribution   :      0.00000       0.00000       0.35106
                        -----------------------------------------
Total Dipole Moment    :     -0.00000       0.00000       0.48433
                        -----------------------------------------
Magnitude (a.u.)       :      0.48433
Magnitude (Debye)      :      1.23106

Rotational constants in cm-1:     0.926472     0.307583     0.230919
Rotational constants in MHz : 27774.943288  9221.102761  6922.783205

                             ****ORCA TERMINATED NORMALLY****
TOTAL RUN TIME: 0 days 0 hours 4 minutes 2 seconds 482 msec
