                         Program Version 5.0.4 -  RELEASE  -
|  1> ! ri-mp2 aug-cc-pvdz aug-cc-pvdz/c tightscf
|  2> %pal nprocs 16 end
|  3> %maxcore 3800
|  4> %base "DZ_P-Cl_26_AB"
|  5> %scf
|  6> STABPerform true
|  7> STABRestartUHFifUnstable true
|  8> end
|  9>
| 10> *xyz 0 1
| 11> Cl         2.898322   -0.119120   -0.651990
| 12> Cl        -1.322996    1.808825   -1.127389
| 13> O         1.101654    2.033430    1.170537
| 14> O         0.212817   -1.714085   -1.498477
| 15> P         1.465388   -0.636146    0.685895
| 16> P        -1.322671    0.875083    0.707651
| 17> C         0.569032    0.997399    0.926832
| 18> C         0.060773   -1.205038   -0.430967
| 19> C        -1.292846   -0.929880    0.214956
| 20> C        -1.399852   -1.707536    1.540914
| 21> H        -0.672009   -1.394832    2.291524
| 22> H        -1.245801   -2.771732    1.359582
| 23> H        -2.393382   -1.573211    1.966204
| 24> C        -2.432546   -1.304726   -0.717829
| 25> H        -2.341490   -0.804207   -1.677995
| 26> H        -2.419256   -2.378941   -0.900465
| 27> H        -3.392497   -1.042188   -0.272503
| 28> *
| 29>
| 30> $new_job
| 31> ! ri-mp2 aug-cc-pvtz aug-cc-pvtz/c tightscf
| 32> %pal nprocs 16 end
| 33> %maxcore 3800
| 34> %base "TZ_P-Cl_26_AB"
| 35>
| 36> *xyz 0 1
| 37> Cl         2.898322   -0.119120   -0.651990
| 38> Cl        -1.322996    1.808825   -1.127389
| 39> O         1.101654    2.033430    1.170537
| 40> O         0.212817   -1.714085   -1.498477
| 41> P         1.465388   -0.636146    0.685895
| 42> P        -1.322671    0.875083    0.707651
| 43> C         0.569032    0.997399    0.926832
| 44> C         0.060773   -1.205038   -0.430967
| 45> C        -1.292846   -0.929880    0.214956
| 46> C        -1.399852   -1.707536    1.540914
| 47> H        -0.672009   -1.394832    2.291524
| 48> H        -1.245801   -2.771732    1.359582
| 49> H        -2.393382   -1.573211    1.966204
| 50> C        -2.432546   -1.304726   -0.717829
| 51> H        -2.341490   -0.804207   -1.677995
| 52> H        -2.419256   -2.378941   -0.900465
| 53> H        -3.392497   -1.042188   -0.272503
| 54> *
| 55>
| 56> $new_job
| 57> ! ri-mp2 aug-cc-pvqz aug-cc-pvqz/c tightscf
| 58> %pal nprocs 16 end
| 59> %maxcore 3800
| 60> %base "QZ_P-Cl_26_AB"
| 61>
| 62> *xyz 0 1
| 63> Cl         2.898322   -0.119120   -0.651990
| 64> Cl        -1.322996    1.808825   -1.127389
| 65> O         1.101654    2.033430    1.170537
| 66> O         0.212817   -1.714085   -1.498477
| 67> P         1.465388   -0.636146    0.685895
| 68> P        -1.322671    0.875083    0.707651
| 69> C         0.569032    0.997399    0.926832
| 70> C         0.060773   -1.205038   -0.430967
| 71> C        -1.292846   -0.929880    0.214956
| 72> C        -1.399852   -1.707536    1.540914
| 73> H        -0.672009   -1.394832    2.291524
| 74> H        -1.245801   -2.771732    1.359582
| 75> H        -2.393382   -1.573211    1.966204
| 76> C        -2.432546   -1.304726   -0.717829
| 77> H        -2.341490   -0.804207   -1.677995
| 78> H        -2.419256   -2.378941   -0.900465
| 79> H        -3.392497   -1.042188   -0.272503
| 80> *
| 81>
| 82>
| 83>
| 84>
| 85>                          ****END OF INPUT****
 Total Charge           Charge          ....    0
 Multiplicity           Mult            ....    1
 Number of Electrons    NEL             ....  116
MP2 TOTAL ENERGY:    -1944.737841224 Eh
FINAL SINGLE POINT ENERGY     -1944.737841224205
MP2 TOTAL ENERGY:    -1945.236072015 Eh
FINAL SINGLE POINT ENERGY     -1945.236072014724

CARTESIAN COORDINATES (ANGSTROEM)
---------------------------------
  Cl     2.898322   -0.119120   -0.651990
  Cl    -1.322996    1.808825   -1.127389
  O      1.101654    2.033430    1.170537
  O      0.212817   -1.714085   -1.498477
  P      1.465388   -0.636146    0.685895
  P     -1.322671    0.875083    0.707651
  C      0.569032    0.997399    0.926832
  C      0.060773   -1.205038   -0.430967
  C     -1.292846   -0.929880    0.214956
  C     -1.399852   -1.707536    1.540914
  H     -0.672009   -1.394832    2.291524
  H     -1.245801   -2.771732    1.359582
  H     -2.393382   -1.573211    1.966204
  C     -2.432546   -1.304726   -0.717829
  H     -2.341490   -0.804207   -1.677995
  H     -2.419256   -2.378941   -0.900465
  H     -3.392497   -1.042188   -0.272503

 Multiplicity           Mult            ....    1
 Number of Electrons    NEL             ....  116
 Basis Dimension        Dim             .... 1172

ORBITAL ENERGIES
----------------

  NO   OCC          E(Eh)            E(eV)
   0   2.0000    -104.856641     -2853.2943
   1   2.0000    -104.854042     -2853.2235
   2   2.0000     -80.025778     -2177.6121
   3   2.0000     -80.023584     -2177.5524
   4   2.0000     -20.601277      -560.5892
   5   2.0000     -20.589344      -560.2645
   6   2.0000     -11.372682      -309.4664
   7   2.0000     -11.366285      -309.2923
   8   2.0000     -11.292120      -307.2742
   9   2.0000     -11.268464      -306.6305
  10   2.0000     -11.244788      -305.9862
  11   2.0000     -10.582601      -287.9672
  12   2.0000     -10.580315      -287.9050
  13   2.0000      -8.049509      -219.0383
  14   2.0000      -8.047866      -218.9936
  15   2.0000      -8.047753      -218.9905
  16   2.0000      -8.047159      -218.9743
  17   2.0000      -8.045646      -218.9332
  18   2.0000      -8.045555      -218.9307
  19   2.0000      -7.563635      -205.8170
  20   2.0000      -7.562727      -205.7923
  21   2.0000      -5.456881      -148.4893
  22   2.0000      -5.456351      -148.4748
  23   2.0000      -5.455937      -148.4636
  24   2.0000      -5.455364      -148.4480
  25   2.0000      -5.455103      -148.4409
  26   2.0000      -5.454826      -148.4334
  27   2.0000      -1.444773       -39.3143
  28   2.0000      -1.437058       -39.1043
  29   2.0000      -1.159947       -31.5638
  30   2.0000      -1.137041       -30.9405
  31   2.0000      -1.115702       -30.3598
  32   2.0000      -0.987406       -26.8687
  33   2.0000      -0.970764       -26.4158
  34   2.0000      -0.874975       -23.8093
  35   2.0000      -0.868643       -23.6370
  36   2.0000      -0.749397       -20.3921
  37   2.0000      -0.736952       -20.0535
  38   2.0000      -0.689065       -18.7504
  39   2.0000      -0.671641       -18.2763
  40   2.0000      -0.649659       -17.6781
  41   2.0000      -0.633026       -17.2255
  42   2.0000      -0.619666       -16.8620
  43   2.0000      -0.615234       -16.7414
  44   2.0000      -0.588317       -16.0089
  45   2.0000      -0.579025       -15.7561
  46   2.0000      -0.567317       -15.4375
  47   2.0000      -0.558682       -15.2025
  48   2.0000      -0.536437       -14.5972
  49   2.0000      -0.514898       -14.0111
  50   2.0000      -0.505259       -13.7488
  51   2.0000      -0.500150       -13.6098
  52   2.0000      -0.494829       -13.4650
  53   2.0000      -0.490040       -13.3347
  54   2.0000      -0.464831       -12.6487
  55   2.0000      -0.424426       -11.5492
  56   2.0000      -0.386069       -10.5055
  57   2.0000      -0.361392        -9.8340
  58   0.0000       0.017703         0.4817
  59   0.0000       0.024430         0.6648
  60   0.0000       0.029563         0.8044
  61   0.0000       0.033719         0.9175
  62   0.0000       0.041559         1.1309

MULLIKEN ATOMIC CHARGES
-----------------------
   0 Cl:   -0.493442
   1 Cl:   -0.560132
   2 O :   -0.805903
   3 O :   -0.961379
   4 P :    0.803322
   5 P :    0.783596
   6 C :    0.261757
   7 C :    0.714869
   8 C :    0.789307
   9 C :   -1.153764
  10 H :    0.271818
  11 H :    0.311870
  12 H :    0.326875
  13 C :   -1.108719
  14 H :    0.255360
  15 H :    0.274121
  16 H :    0.290443
Sum of atomic charges:    0.0000000

LOEWDIN ATOMIC CHARGES
----------------------
   0 Cl:    0.800320
   1 Cl:    0.852928
   2 O :    0.528276
   3 O :    0.675467
   4 P :    0.038733
   5 P :    0.143337
   6 C :   -1.161254
   7 C :   -1.031332
   8 C :   -0.661495
   9 C :    0.790783
  10 H :   -0.325079
  11 H :   -0.260839
  12 H :   -0.280693
  13 C :    0.785319
  14 H :   -0.334625
  15 H :   -0.276511
  16 H :   -0.283334

  Mayer bond orders larger than 0.100000
B(  0-Cl,  4-P ) :   0.8653 B(  1-Cl,  5-P ) :   0.8493 B(  1-Cl,  8-C ) :  -0.2087
B(  2-O ,  6-C ) :   1.2510 B(  3-O ,  7-C ) :   0.8625 B(  3-O ,  8-C ) :   0.2882
B(  4-P ,  6-C ) :   0.9204 B(  4-P ,  7-C ) :   0.8989 B(  4-P ,  8-C ) :  -0.1194
B(  5-P ,  6-C ) :   0.9592 B(  5-P ,  8-C ) :   0.5387 B(  5-P ,  9-C ) :   0.1334
B(  7-C ,  8-C ) :   0.8747 B(  8-C ,  9-C ) :   0.6439 B(  8-C , 13-C ) :   0.2225
B(  8-C , 14-H ) :  -0.1568 B(  8-C , 15-H ) :  -0.1586 B(  8-C , 16-H ) :  -0.1218
B(  9-C , 10-H ) :   0.9959 B(  9-C , 11-H ) :   0.9599 B(  9-C , 12-H ) :   0.9197
B(  9-C , 13-C ) :   0.1428 B( 13-C , 14-H ) :   1.0680 B( 13-C , 15-H ) :   1.0529
B( 13-C , 16-H ) :   0.9859

MP2 TOTAL ENERGY:    -1945.399994231 Eh
FINAL SINGLE POINT ENERGY     -1945.399994230906

DIPOLE MOMENT
-------------
                                X             Y             Z
Electronic contribution:     12.84671      10.85269      -2.84234
Nuclear contribution   :    -13.99211     -11.89013       3.75397
                        -----------------------------------------
Total Dipole Moment    :     -1.14540      -1.03744       0.91163
                        -----------------------------------------
Magnitude (a.u.)       :      1.79424
Magnitude (Debye)      :      4.56060

Rotational constants in cm-1:     0.028658     0.019552     0.016376
Rotational constants in MHz :   859.134742   586.163308   490.934683

                             ****ORCA TERMINATED NORMALLY****
TOTAL RUN TIME: 0 days 4 hours 37 minutes 16 seconds 624 msec
