                         Program Version 5.0.4 -  RELEASE  -
|  1> ! ri-mp2 aug-cc-pvdz aug-cc-pvdz/c tightscf
|  2> %pal nprocs 16 end
|  3> %maxcore 3800
|  4> %base "DZ_B-Cl_50_AB"
|  5> %scf
|  6> STABPerform true
|  7> STABRestartUHFifUnstable true
|  8> end
|  9>
| 10> *xyz 0 1
| 11> Cl         1.224468    1.632221   -0.288123
| 12> B         1.116940   -0.088618   -0.025853
| 13> Cl         2.558415   -1.066928    0.037903
| 14> O        -0.067753   -0.733137    0.083050
| 15> C        -1.281157   -0.165562    0.312845
| 16> O        -1.501526    0.629279    1.169533
| 17> O        -2.147615   -0.688400   -0.531734
| 18> C        -3.497988   -0.237777   -0.372102
| 19> H        -3.554416    0.838160   -0.522414
| 20> H        -3.859515   -0.484222    0.623954
| 21> H        -4.069756   -0.762729   -1.129771
| 22> *
| 23>
| 24> $new_job
| 25> ! ri-mp2 aug-cc-pvtz aug-cc-pvtz/c tightscf
| 26> %pal nprocs 16 end
| 27> %maxcore 3800
| 28> %base "TZ_B-Cl_50_AB"
| 29>
| 30> *xyz 0 1
| 31> Cl         1.224468    1.632221   -0.288123
| 32> B         1.116940   -0.088618   -0.025853
| 33> Cl         2.558415   -1.066928    0.037903
| 34> O        -0.067753   -0.733137    0.083050
| 35> C        -1.281157   -0.165562    0.312845
| 36> O        -1.501526    0.629279    1.169533
| 37> O        -2.147615   -0.688400   -0.531734
| 38> C        -3.497988   -0.237777   -0.372102
| 39> H        -3.554416    0.838160   -0.522414
| 40> H        -3.859515   -0.484222    0.623954
| 41> H        -4.069756   -0.762729   -1.129771
| 42> *
| 43>
| 44> $new_job
| 45> ! ri-mp2 aug-cc-pvqz aug-cc-pvqz/c tightscf
| 46> %pal nprocs 16 end
| 47> %maxcore 3800
| 48> %base "QZ_B-Cl_50_AB"
| 49>
| 50> *xyz 0 1
| 51> Cl         1.224468    1.632221   -0.288123
| 52> B         1.116940   -0.088618   -0.025853
| 53> Cl         2.558415   -1.066928    0.037903
| 54> O        -0.067753   -0.733137    0.083050
| 55> C        -1.281157   -0.165562    0.312845
| 56> O        -1.501526    0.629279    1.169533
| 57> O        -2.147615   -0.688400   -0.531734
| 58> C        -3.497988   -0.237777   -0.372102
| 59> H        -3.554416    0.838160   -0.522414
| 60> H        -3.859515   -0.484222    0.623954
| 61> H        -4.069756   -0.762729   -1.129771
| 62> *
| 63>
| 64>
| 65>
| 66>
| 67>                          ****END OF INPUT****
 Total Charge           Charge          ....    0
 Multiplicity           Mult            ....    1
 Number of Electrons    NEL             ....   78
MP2 TOTAL ENERGY:    -1247.186368136 Eh
FINAL SINGLE POINT ENERGY     -1247.186368136447
MP2 TOTAL ENERGY:    -1247.587871856 Eh
FINAL SINGLE POINT ENERGY     -1247.587871855911

CARTESIAN COORDINATES (ANGSTROEM)
---------------------------------
  Cl     1.224468    1.632221   -0.288123
  B      1.116940   -0.088618   -0.025853
  Cl     2.558415   -1.066928    0.037903
  O     -0.067753   -0.733137    0.083050
  C     -1.281157   -0.165562    0.312845
  O     -1.501526    0.629279    1.169533
  O     -2.147615   -0.688400   -0.531734
  C     -3.497988   -0.237777   -0.372102
  H     -3.554416    0.838160   -0.522414
  H     -3.859515   -0.484222    0.623954
  H     -4.069756   -0.762729   -1.129771

 Multiplicity           Mult            ....    1
 Number of Electrons    NEL             ....   78
 Basis Dimension        Dim             ....  786

ORBITAL ENERGIES
----------------

  NO   OCC          E(Eh)            E(eV)
   0   2.0000    -104.850922     -2853.1386
   1   2.0000    -104.848325     -2853.0680
   2   2.0000     -20.633975      -561.4790
   3   2.0000     -20.632903      -561.4498
   4   2.0000     -20.569411      -559.7221
   5   2.0000     -11.458520      -311.8022
   6   2.0000     -11.305332      -307.6337
   7   2.0000     -10.578812      -287.8641
   8   2.0000     -10.576176      -287.7924
   9   2.0000      -8.045694      -218.9345
  10   2.0000      -8.044492      -218.9018
  11   2.0000      -8.044305      -218.8967
  12   2.0000      -8.043071      -218.8631
  13   2.0000      -8.041879      -218.8307
  14   2.0000      -8.041677      -218.8252
  15   2.0000      -7.757303      -211.0870
  16   2.0000      -1.537170       -41.8285
  17   2.0000      -1.431964       -38.9657
  18   2.0000      -1.399722       -38.0884
  19   2.0000      -1.151027       -31.3210
  20   2.0000      -1.112636       -30.2764
  21   2.0000      -1.011994       -27.5377
  22   2.0000      -0.881589       -23.9892
  23   2.0000      -0.788357       -21.4523
  24   2.0000      -0.739932       -20.1346
  25   2.0000      -0.724982       -19.7278
  26   2.0000      -0.675680       -18.3862
  27   2.0000      -0.648416       -17.6443
  28   2.0000      -0.641139       -17.4463
  29   2.0000      -0.618177       -16.8214
  30   2.0000      -0.574991       -15.6463
  31   2.0000      -0.561131       -15.2692
  32   2.0000      -0.541950       -14.7472
  33   2.0000      -0.509684       -13.8692
  34   2.0000      -0.505217       -13.7477
  35   2.0000      -0.493934       -13.4406
  36   2.0000      -0.490281       -13.3412
  37   2.0000      -0.475412       -12.9366
  38   2.0000      -0.462284       -12.5794
  39   0.0000       0.022656         0.6165
  40   0.0000       0.035495         0.9659
  41   0.0000       0.037957         1.0329
  42   0.0000       0.038548         1.0489
  43   0.0000       0.048638         1.3235

MULLIKEN ATOMIC CHARGES
-----------------------
   0 Cl:   -0.214983
   1 B :    0.983288
   2 Cl:   -0.145865
   3 O :   -0.990200
   4 C :    1.391993
   5 O :   -0.704581
   6 O :   -0.654495
   7 C :   -0.676131
   8 H :    0.292048
   9 H :    0.294432
  10 H :    0.424494
Sum of atomic charges:    0.0000000

LOEWDIN ATOMIC CHARGES
----------------------
   0 Cl:    1.267118
   1 B :   -2.770208
   2 Cl:    1.224038
   3 O :    0.702134
   4 C :   -1.587584
   5 O :    0.695149
   6 O :    0.824265
   7 C :    0.589249
   8 H :   -0.312440
   9 H :   -0.312948
  10 H :   -0.318771

  Mayer bond orders larger than 0.100000
B(  0-Cl,  1-B ) :   1.0415 B(  1-B ,  2-Cl) :   1.0603 B(  1-B ,  3-O ) :   0.5019
B(  3-O ,  4-C ) :   0.9070 B(  4-C ,  5-O ) :   1.5489 B(  4-C ,  6-O ) :   0.9776
B(  5-O ,  6-O ) :   0.1072 B(  6-O ,  7-C ) :   0.8692 B(  7-C ,  8-H ) :   0.9187
B(  7-C ,  9-H ) :   0.9118 B(  7-C , 10-H ) :   0.8341

MP2 TOTAL ENERGY:    -1247.720842891 Eh
FINAL SINGLE POINT ENERGY     -1247.720842891091

DIPOLE MOMENT
-------------
                                X             Y             Z
Electronic contribution:     15.76517       0.89142       0.11010
Nuclear contribution   :    -16.68468      -1.08271      -0.59626
                        -----------------------------------------
Total Dipole Moment    :     -0.91951      -0.19129      -0.48615
                        -----------------------------------------
Magnitude (a.u.)       :      1.05756
Magnitude (Debye)      :      2.68810

Rotational constants in cm-1:     0.086809     0.025852     0.021675
Rotational constants in MHz :  2602.454209   775.030543   649.810515

                             ****ORCA TERMINATED NORMALLY****
TOTAL RUN TIME: 0 days 1 hours 10 minutes 30 seconds 737 msec
