                         Program Version 5.0.4 -  RELEASE  -
|  1> ! ri-mp2 aug-cc-pvdz aug-cc-pvdz/c tightscf
|  2> %pal nprocs 16 end
|  3> %maxcore 3800
|  4> %base "DZ_P-Cl_19_A"
|  5> %scf
|  6> STABPerform true
|  7> STABRestartUHFifUnstable true
|  8> end
|  9>
| 10> *xyz 0 2
| 11> F         0.000000   -1.288502    1.146258
| 12> P         1.497421   -0.311097   -0.916918
| 13> C         0.000000   -1.156944   -0.218420
| 14> Cl        2.967992   -1.302784    0.112846
| 15> P        -1.497421   -0.311097   -0.916918
| 16> C         1.429082    1.282550    0.018386
| 17> C        -1.429082    1.282550    0.018386
| 18> Cl       -2.967992   -1.302784    0.112846
| 19> F         1.419474    1.160460    1.389776
| 20> P         0.000000    2.292489   -0.626959
| 21> F        -1.419474    1.160460    1.389776
| 22> H        -2.334554    1.831037   -0.257965
| 23> H         2.334554    1.831037   -0.257965
| 24> H         0.000000   -2.162537   -0.651309
| 25> *
| 26>
| 27> $new_job
| 28> ! ri-mp2 aug-cc-pvtz aug-cc-pvtz/c tightscf
| 29> %pal nprocs 16 end
| 30> %maxcore 3800
| 31> %base "TZ_P-Cl_19_A"
| 32>
| 33> *xyz 0 2
| 34> F         0.000000   -1.288502    1.146258
| 35> P         1.497421   -0.311097   -0.916918
| 36> C         0.000000   -1.156944   -0.218420
| 37> Cl        2.967992   -1.302784    0.112846
| 38> P        -1.497421   -0.311097   -0.916918
| 39> C         1.429082    1.282550    0.018386
| 40> C        -1.429082    1.282550    0.018386
| 41> Cl       -2.967992   -1.302784    0.112846
| 42> F         1.419474    1.160460    1.389776
| 43> P         0.000000    2.292489   -0.626959
| 44> F        -1.419474    1.160460    1.389776
| 45> H        -2.334554    1.831037   -0.257965
| 46> H         2.334554    1.831037   -0.257965
| 47> H         0.000000   -2.162537   -0.651309
| 48> *
| 49>
| 50> $new_job
| 51> ! ri-mp2 aug-cc-pvqz aug-cc-pvqz/c tightscf
| 52> %pal nprocs 16 end
| 53> %maxcore 3800
| 54> %base "QZ_P-Cl_19_A"
| 55>
| 56> *xyz 0 2
| 57> F         0.000000   -1.288502    1.146258
| 58> P         1.497421   -0.311097   -0.916918
| 59> C         0.000000   -1.156944   -0.218420
| 60> Cl        2.967992   -1.302784    0.112846
| 61> P        -1.497421   -0.311097   -0.916918
| 62> C         1.429082    1.282550    0.018386
| 63> C        -1.429082    1.282550    0.018386
| 64> Cl       -2.967992   -1.302784    0.112846
| 65> F         1.419474    1.160460    1.389776
| 66> P         0.000000    2.292489   -0.626959
| 67> F        -1.419474    1.160460    1.389776
| 68> H        -2.334554    1.831037   -0.257965
| 69> H         2.334554    1.831037   -0.257965
| 70> H         0.000000   -2.162537   -0.651309
| 71> *
| 72>
| 73>
| 74>
| 75>
| 76>                          ****END OF INPUT****
 Total Charge           Charge          ....    0
 Multiplicity           Mult            ....    2
 Number of Electrons    NEL             ....  127
MP2 TOTAL ENERGY:    -2356.584819030 Eh
FINAL SINGLE POINT ENERGY     -2356.584819029811
MP2 TOTAL ENERGY:    -2357.177164292 Eh
FINAL SINGLE POINT ENERGY     -2357.177164291612

CARTESIAN COORDINATES (ANGSTROEM)
---------------------------------
  F      0.000000   -1.288502    1.146258
  P      1.497421   -0.311097   -0.916918
  C      0.000000   -1.156944   -0.218420
  Cl     2.967992   -1.302784    0.112846
  P     -1.497421   -0.311097   -0.916918
  C      1.429082    1.282550    0.018386
  C     -1.429082    1.282550    0.018386
  Cl    -2.967992   -1.302784    0.112846
  F      1.419474    1.160460    1.389776
  P      0.000000    2.292489   -0.626959
  F     -1.419474    1.160460    1.389776
  H     -2.334554    1.831037   -0.257965
  H      2.334554    1.831037   -0.257965
  H      0.000000   -2.162537   -0.651309

 Multiplicity           Mult            ....    2
 Number of Electrons    NEL             ....  127
 Basis Dimension        Dim             .... 1038

ORBITAL ENERGIES
----------------
                 SPIN UP ORBITALS
  NO   OCC          E(Eh)            E(eV)
   0   1.0000    -104.851316     -2853.1494
   1   1.0000    -104.851316     -2853.1494
   2   1.0000     -80.025322     -2177.5997
   3   1.0000     -80.025322     -2177.5997
   4   1.0000     -79.998096     -2176.8589
   5   1.0000     -26.307401      -715.8608
   6   1.0000     -26.307399      -715.8607
   7   1.0000     -26.305764      -715.8162
   8   1.0000     -11.354727      -308.9778
   9   1.0000     -11.354719      -308.9776
  10   1.0000     -11.354549      -308.9730
  11   1.0000     -10.577542      -287.8296
  12   1.0000     -10.577542      -287.8295
  13   1.0000      -8.044828      -218.9109
  14   1.0000      -8.044828      -218.9109
  15   1.0000      -8.042842      -218.8569
  16   1.0000      -8.042842      -218.8569
  17   1.0000      -8.042699      -218.8530
  18   1.0000      -8.042699      -218.8530
  19   1.0000      -7.563507      -205.8135
  20   1.0000      -7.563507      -205.8135
  21   1.0000      -7.541184      -205.2061
  22   1.0000      -5.456866      -148.4889
  23   1.0000      -5.456854      -148.4885
  24   1.0000      -5.456433      -148.4771
  25   1.0000      -5.456429      -148.4770
  26   1.0000      -5.455328      -148.4470
  27   1.0000      -5.455325      -148.4469
  28   1.0000      -5.445806      -148.1879
  29   1.0000      -5.431634      -147.8023
  30   1.0000      -5.429732      -147.7505
  31   1.0000      -1.626203       -44.2512
  32   1.0000      -1.620031       -44.0833
  33   1.0000      -1.619564       -44.0706
  34   1.0000      -1.144030       -31.1306
  35   1.0000      -1.134381       -30.8681
  36   1.0000      -1.063636       -28.9430
  37   1.0000      -0.999096       -27.1868
  38   1.0000      -0.992137       -26.9974
  39   1.0000      -0.835826       -22.7440
  40   1.0000      -0.821282       -22.3482
  41   1.0000      -0.800408       -21.7802
  42   1.0000      -0.749459       -20.3938
  43   1.0000      -0.727746       -19.8030
  44   1.0000      -0.727692       -19.8015
  45   1.0000      -0.704606       -19.1733
  46   1.0000      -0.696100       -18.9418
  47   1.0000      -0.694972       -18.9112
  48   1.0000      -0.670580       -18.2474
  49   1.0000      -0.667813       -18.1721
  50   1.0000      -0.628387       -17.0993
  51   1.0000      -0.598608       -16.2889
  52   1.0000      -0.549002       -14.9391
  53   1.0000      -0.535633       -14.5753
  54   1.0000      -0.519146       -14.1267
  55   1.0000      -0.512611       -13.9489
  56   1.0000      -0.504903       -13.7391
  57   1.0000      -0.494133       -13.4460
  58   1.0000      -0.484796       -13.1920
  59   1.0000      -0.452655       -12.3174
  60   1.0000      -0.447860       -12.1869
  61   1.0000      -0.398425       -10.8417
  62   1.0000      -0.389812       -10.6073
  63   1.0000      -0.384629       -10.4663
  64   0.0000       0.022977         0.6252
  65   0.0000       0.028417         0.7733
  66   0.0000       0.029916         0.8141
  67   0.0000       0.044542         1.2121
  68   0.0000       0.047369         1.2890

                 SPIN DOWN ORBITALS
  NO   OCC          E(Eh)            E(eV)
   0   1.0000    -104.851026     -2853.1415
   1   1.0000    -104.851026     -2853.1415
   2   1.0000     -80.025056     -2177.5925
   3   1.0000     -80.025056     -2177.5925
   4   1.0000     -79.991052     -2176.6672
   5   1.0000     -26.306520      -715.8368
   6   1.0000     -26.306518      -715.8367
   7   1.0000     -26.305858      -715.8188
   8   1.0000     -11.355838      -309.0080
   9   1.0000     -11.355828      -309.0078
  10   1.0000     -11.354697      -308.9770
  11   1.0000     -10.577236      -287.8212
  12   1.0000     -10.577236      -287.8212
  13   1.0000      -8.043703      -218.8803
  14   1.0000      -8.043703      -218.8803
  15   1.0000      -8.042631      -218.8511
  16   1.0000      -8.042631      -218.8511
  17   1.0000      -8.042517      -218.8480
  18   1.0000      -8.042517      -218.8480
  19   1.0000      -7.562975      -205.7990
  20   1.0000      -7.562975      -205.7990
  21   1.0000      -7.532466      -204.9688
  22   1.0000      -5.457062      -148.4942
  23   1.0000      -5.457052      -148.4939
  24   1.0000      -5.455844      -148.4611
  25   1.0000      -5.455840      -148.4610
  26   1.0000      -5.455018      -148.4386
  27   1.0000      -5.455014      -148.4385
  28   1.0000      -5.426862      -147.6724
  29   1.0000      -5.426677      -147.6674
  30   1.0000      -5.412507      -147.2818
  31   1.0000      -1.624675       -44.2096
  32   1.0000      -1.618633       -44.0452
  33   1.0000      -1.617357       -44.0105
  34   1.0000      -1.141399       -31.0590
  35   1.0000      -1.132098       -30.8059
  36   1.0000      -1.052142       -28.6302
  37   1.0000      -0.992217       -26.9996
  38   1.0000      -0.990998       -26.9664
  39   1.0000      -0.819575       -22.3018
  40   1.0000      -0.809118       -22.0172
  41   1.0000      -0.790407       -21.5081
  42   1.0000      -0.745604       -20.2889
  43   1.0000      -0.724331       -19.7101
  44   1.0000      -0.724265       -19.7082
  45   1.0000      -0.703406       -19.1407
  46   1.0000      -0.694622       -18.9016
  47   1.0000      -0.693769       -18.8784
  48   1.0000      -0.668962       -18.2034
  49   1.0000      -0.660250       -17.9663
  50   1.0000      -0.619736       -16.8639
  51   1.0000      -0.589958       -16.0536
  52   1.0000      -0.546832       -14.8801
  53   1.0000      -0.533618       -14.5205
  54   1.0000      -0.514863       -14.0101
  55   1.0000      -0.510717       -13.8973
  56   1.0000      -0.504055       -13.7160
  57   1.0000      -0.488625       -13.2962
  58   1.0000      -0.481235       -13.0951
  59   1.0000      -0.451744       -12.2926
  60   1.0000      -0.431866       -11.7517
  61   1.0000      -0.393396       -10.7049
  62   1.0000      -0.382682       -10.4133
  63   0.0000      -0.013740        -0.3739
  64   0.0000       0.023379         0.6362
  65   0.0000       0.028505         0.7757
  66   0.0000       0.030168         0.8209
  67   0.0000       0.048346         1.3156

MULLIKEN ATOMIC CHARGES AND SPIN POPULATIONS
--------------------------------------------
   0 F :   -0.731260   -0.001439
   1 P :    0.801809   -0.007656
   2 C :    0.059500   -0.002678
   3 Cl:   -0.526779    0.018685
   4 P :    0.801804   -0.007656
   5 C :   -0.029508   -0.070469
   6 C :   -0.029481   -0.070467
   7 Cl:   -0.526782    0.018685
   8 F :   -0.717087    0.008892
   9 P :    0.322869    1.115221
  10 F :   -0.717081    0.008892
  11 H :    0.427831   -0.005144
  12 H :    0.427839   -0.005144
  13 H :    0.436325    0.000277
Sum of atomic charges         :   -0.0000000

LOEWDIN ATOMIC CHARGES AND SPIN POPULATIONS
-------------------------------------------
   0 F :    0.699076   -0.001612
   1 P :   -0.031296    0.038870
   2 C :   -0.976116    0.000600
   3 Cl:    0.801511    0.017521
   4 P :   -0.031296    0.038870
   5 C :   -0.967485    0.145427
   6 C :   -0.967485    0.145428
   7 Cl:    0.801511    0.017521
   8 F :    0.686751    0.016644
   9 P :    0.928545    0.544875
  10 F :    0.686751    0.016644
  11 H :   -0.548050    0.009928
  12 H :   -0.548050    0.009928
  13 H :   -0.534365   -0.000644

  Mayer bond orders larger than 0.100000
B(  0-F ,  2-C ) :   0.4870 B(  1-P ,  2-C ) :   0.8272 B(  1-P ,  3-Cl) :   0.8232
B(  1-P ,  5-C ) :   0.8496 B(  2-C ,  4-P ) :   0.8272 B(  2-C , 13-H ) :   0.8561
B(  4-P ,  6-C ) :   0.8496 B(  4-P ,  7-Cl) :   0.8232 B(  5-C ,  8-F ) :   0.5071
B(  5-C ,  9-P ) :   0.8268 B(  5-C , 12-H ) :   0.8436 B(  6-C ,  9-P ) :   0.8268
B(  6-C , 10-F ) :   0.5071 B(  6-C , 11-H ) :   0.8436

MP2 TOTAL ENERGY:    -2357.371690674 Eh
FINAL SINGLE POINT ENERGY     -2357.371690674311

DIPOLE MOMENT
-------------
                                X             Y             Z
Electronic contribution:     -0.00000      -1.84191       1.55586
Nuclear contribution   :     -0.00000       2.40174      -2.77506
                        -----------------------------------------
Total Dipole Moment    :     -0.00000       0.55983      -1.21920
                        -----------------------------------------
Magnitude (a.u.)       :      1.34159
Magnitude (Debye)      :      3.41004

Rotational constants in cm-1:     0.027934     0.015833     0.012590
Rotational constants in MHz :   837.427441   474.651861   377.433084

                             ****ORCA TERMINATED NORMALLY****
TOTAL RUN TIME: 0 days 7 hours 42 minutes 26 seconds 200 msec
