                         Program Version 5.0.4 -  RELEASE  -
|  1> ! ri-mp2 aug-cc-pvdz aug-cc-pvdz/c tightscf
|  2> %pal nprocs 16 end
|  3> %maxcore 3800
|  4> %base "DZ_P-N_45_AB"
|  5> %scf
|  6> STABPerform true
|  7> STABRestartUHFifUnstable true
|  8> end
|  9>
| 10> *xyz 0 1
| 11> P        -0.799861   -0.630406    0.102937
| 12> C         0.980734   -0.540104   -0.388287
| 13> N        -1.306714    0.974356   -0.076243
| 14> N         1.650046    0.620886    0.184653
| 15> H         1.006656   -0.452486   -1.476097
| 16> H         1.441244   -1.504364   -0.133609
| 17> H         2.568051    0.763886   -0.214946
| 18> H         1.756999    0.520654    1.185873
| 19> H        -0.523825   -0.627716    1.496580
| 20> H        -1.947177    1.144529   -0.832770
| 21> H        -0.591762    1.685507    0.001766
| 22> *
| 23>
| 24> $new_job
| 25> ! ri-mp2 aug-cc-pvtz aug-cc-pvtz/c tightscf
| 26> %pal nprocs 16 end
| 27> %maxcore 3800
| 28> %base "TZ_P-N_45_AB"
| 29>
| 30> *xyz 0 1
| 31> P        -0.799861   -0.630406    0.102937
| 32> C         0.980734   -0.540104   -0.388287
| 33> N        -1.306714    0.974356   -0.076243
| 34> N         1.650046    0.620886    0.184653
| 35> H         1.006656   -0.452486   -1.476097
| 36> H         1.441244   -1.504364   -0.133609
| 37> H         2.568051    0.763886   -0.214946
| 38> H         1.756999    0.520654    1.185873
| 39> H        -0.523825   -0.627716    1.496580
| 40> H        -1.947177    1.144529   -0.832770
| 41> H        -0.591762    1.685507    0.001766
| 42> *
| 43>
| 44> $new_job
| 45> ! ri-mp2 aug-cc-pvqz aug-cc-pvqz/c tightscf
| 46> %pal nprocs 16 end
| 47> %maxcore 3800
| 48> %base "QZ_P-N_45_AB"
| 49>
| 50> *xyz 0 1
| 51> P        -0.799861   -0.630406    0.102937
| 52> C         0.980734   -0.540104   -0.388287
| 53> N        -1.306714    0.974356   -0.076243
| 54> N         1.650046    0.620886    0.184653
| 55> H         1.006656   -0.452486   -1.476097
| 56> H         1.441244   -1.504364   -0.133609
| 57> H         2.568051    0.763886   -0.214946
| 58> H         1.756999    0.520654    1.185873
| 59> H        -0.523825   -0.627716    1.496580
| 60> H        -1.947177    1.144529   -0.832770
| 61> H        -0.591762    1.685507    0.001766
| 62> *
| 63>
| 64>
| 65>
| 66>
| 67>                          ****END OF INPUT****
 Total Charge           Charge          ....    0
 Multiplicity           Mult            ....    1
 Number of Electrons    NEL             ....   42
MP2 TOTAL ENERGY:     -492.241956625 Eh
FINAL SINGLE POINT ENERGY      -492.241956624625
MP2 TOTAL ENERGY:     -492.431466227 Eh
FINAL SINGLE POINT ENERGY      -492.431466226653

CARTESIAN COORDINATES (ANGSTROEM)
---------------------------------
  P     -0.799861   -0.630406    0.102937
  C      0.980734   -0.540104   -0.388287
  N     -1.306714    0.974356   -0.076243
  N      1.650046    0.620886    0.184653
  H      1.006656   -0.452486   -1.476097
  H      1.441244   -1.504364   -0.133609
  H      2.568051    0.763886   -0.214946
  H      1.756999    0.520654    1.185873
  H     -0.523825   -0.627716    1.496580
  H     -1.947177    1.144529   -0.832770
  H     -0.591762    1.685507    0.001766

 Multiplicity           Mult            ....    1
 Number of Electrons    NEL             ....   42
 Basis Dimension        Dim             ....  646

ORBITAL ENERGIES
----------------

  NO   OCC          E(Eh)            E(eV)
   0   2.0000     -79.943490     -2175.3729
   1   2.0000     -15.549853      -423.1330
   2   2.0000     -15.536618      -422.7729
   3   2.0000     -11.251410      -306.1664
   4   2.0000      -7.482447      -203.6077
   5   2.0000      -5.376687      -146.3071
   6   2.0000      -5.376375      -146.2986
   7   2.0000      -5.375755      -146.2817
   8   2.0000      -1.188997       -32.3542
   9   2.0000      -1.147955       -31.2374
  10   2.0000      -0.923469       -25.1289
  11   2.0000      -0.773444       -21.0465
  12   2.0000      -0.675032       -18.3686
  13   2.0000      -0.660369       -17.9696
  14   2.0000      -0.618758       -16.8373
  15   2.0000      -0.573943       -15.6178
  16   2.0000      -0.552376       -15.0309
  17   2.0000      -0.495435       -13.4815
  18   2.0000      -0.414913       -11.2903
  19   2.0000      -0.383763       -10.4427
  20   2.0000      -0.349773        -9.5178
  21   0.0000       0.023593         0.6420
  22   0.0000       0.033539         0.9126
  23   0.0000       0.037441         1.0188
  24   0.0000       0.038649         1.0517
  25   0.0000       0.055055         1.4981

MULLIKEN ATOMIC CHARGES
-----------------------
   0 P :    0.634798
   1 C :   -0.528723
   2 N :   -0.898061
   3 N :   -0.661705
   4 H :    0.256632
   5 H :    0.316288
   6 H :    0.224281
   7 H :    0.259606
   8 H :   -0.119243
   9 H :    0.229144
  10 H :    0.286982
Sum of atomic charges:    0.0000000

LOEWDIN ATOMIC CHARGES
----------------------
   0 P :    1.078946
   1 C :    0.164188
   2 N :    1.003419
   3 N :    1.201356
   4 H :   -0.380296
   5 H :   -0.358700
   6 H :   -0.506707
   7 H :   -0.527474
   8 H :   -0.426593
   9 H :   -0.617641
  10 H :   -0.630498

  Mayer bond orders larger than 0.100000
B(  0-P ,  1-C ) :   0.8504 B(  0-P ,  2-N ) :   0.7998 B(  0-P ,  8-H ) :   0.9417
B(  1-C ,  3-N ) :   0.9629 B(  1-C ,  4-H ) :   0.9282 B(  1-C ,  5-H ) :   0.8689
B(  2-N ,  9-H ) :   0.9983 B(  2-N , 10-H ) :   0.9284 B(  3-N ,  6-H ) :   0.9660
B(  3-N ,  7-H ) :   0.9124

MP2 TOTAL ENERGY:     -492.490970984 Eh
FINAL SINGLE POINT ENERGY      -492.490970984450

DIPOLE MOMENT
-------------
                                X             Y             Z
Electronic contribution:     -3.66894      -2.00510      -0.12968
Nuclear contribution   :      4.52120       2.16235      -0.07135
                        -----------------------------------------
Total Dipole Moment    :      0.85226       0.15725      -0.20103
                        -----------------------------------------
Magnitude (a.u.)       :      0.88965
Magnitude (Debye)      :      2.26132

Rotational constants in cm-1:     0.326824     0.140539     0.110258
Rotational constants in MHz :  9797.936411  4213.249185  3305.461576

                             ****ORCA TERMINATED NORMALLY****
TOTAL RUN TIME: 0 days 0 hours 18 minutes 8 seconds 181 msec
