                         Program Version 5.0.4 -  RELEASE  -
|  1> ! ri-mp2 aug-cc-pvdz aug-cc-pvdz/c tightscf
|  2> %pal nprocs 16 end
|  3> %maxcore 3800
|  4> %base "DZ_B-S_32_A"
|  5> %scf
|  6> STABPerform true
|  7> STABRestartUHFifUnstable true
|  8> end
|  9>
| 10> *xyz 0 2
| 11> S        -1.632727   -0.000002    0.043397
| 12> S         0.374813    0.000000   -0.136874
| 13> O         0.781877    1.246564   -0.668433
| 14> O         0.781884   -1.246557   -0.668441
| 15> F         0.846282   -0.000004    1.354515
| 16> *
| 17>
| 18> $new_job
| 19> ! ri-mp2 aug-cc-pvtz aug-cc-pvtz/c tightscf
| 20> %pal nprocs 16 end
| 21> %maxcore 3800
| 22> %base "TZ_B-S_32_A"
| 23>
| 24> *xyz 0 2
| 25> S        -1.632727   -0.000002    0.043397
| 26> S         0.374813    0.000000   -0.136874
| 27> O         0.781877    1.246564   -0.668433
| 28> O         0.781884   -1.246557   -0.668441
| 29> F         0.846282   -0.000004    1.354515
| 30> *
| 31>
| 32> $new_job
| 33> ! ri-mp2 aug-cc-pvqz aug-cc-pvqz/c tightscf
| 34> %pal nprocs 16 end
| 35> %maxcore 3800
| 36> %base "QZ_B-S_32_A"
| 37>
| 38> *xyz 0 2
| 39> S        -1.632727   -0.000002    0.043397
| 40> S         0.374813    0.000000   -0.136874
| 41> O         0.781877    1.246564   -0.668433
| 42> O         0.781884   -1.246557   -0.668441
| 43> F         0.846282   -0.000004    1.354515
| 44> *
| 45>
| 46>
| 47>
| 48>
| 49>                          ****END OF INPUT****
 Total Charge           Charge          ....    0
 Multiplicity           Mult            ....    2
 Number of Electrons    NEL             ....   57
MP2 TOTAL ENERGY:    -1045.001620453 Eh
FINAL SINGLE POINT ENERGY     -1045.001620452785
MP2 TOTAL ENERGY:    -1045.357949757 Eh
FINAL SINGLE POINT ENERGY     -1045.357949756810

CARTESIAN COORDINATES (ANGSTROEM)
---------------------------------
  S     -1.632727   -0.000002    0.043397
  S      0.374813    0.000000   -0.136874
  O      0.781877    1.246564   -0.668433
  O      0.781884   -1.246557   -0.668441
  F      0.846282   -0.000004    1.354515

 Multiplicity           Mult            ....    2
 Number of Electrons    NEL             ....   57
 Basis Dimension        Dim             ....  408

ORBITAL ENERGIES
----------------
                 SPIN UP ORBITALS
  NO   OCC          E(Eh)            E(eV)
   0   1.0000     -92.275405     -2510.9414
   1   1.0000     -92.065407     -2505.2271
   2   1.0000     -26.377669      -717.7729
   3   1.0000     -20.606351      -560.7273
   4   1.0000     -20.606327      -560.7267
   5   1.0000      -9.236768      -251.3452
   6   1.0000      -9.067107      -246.7285
   7   1.0000      -6.923657      -188.4023
   8   1.0000      -6.921887      -188.3541
   9   1.0000      -6.920925      -188.3279
  10   1.0000      -6.762589      -184.0194
  11   1.0000      -6.744044      -183.5148
  12   1.0000      -6.742125      -183.4625
  13   1.0000      -1.710296       -46.5395
  14   1.0000      -1.508899       -41.0592
  15   1.0000      -1.417662       -38.5766
  16   1.0000      -1.103794       -30.0358
  17   1.0000      -0.915153       -24.9026
  18   1.0000      -0.785883       -21.3850
  19   1.0000      -0.773075       -21.0365
  20   1.0000      -0.772611       -21.0238
  21   1.0000      -0.683432       -18.5971
  22   1.0000      -0.682279       -18.5657
  23   1.0000      -0.600671       -16.3451
  24   1.0000      -0.587913       -15.9979
  25   1.0000      -0.540344       -14.7035
  26   1.0000      -0.531085       -14.4516
  27   1.0000      -0.509030       -13.8514
  28   1.0000      -0.468508       -12.7487
  29   0.0000       0.031851         0.8667
  30   0.0000       0.060944         1.6584
  31   0.0000       0.064893         1.7658
  32   0.0000       0.068819         1.8727
  33   0.0000       0.073422         1.9979

                 SPIN DOWN ORBITALS
  NO   OCC          E(Eh)            E(eV)
   0   1.0000     -92.275710     -2510.9497
   1   1.0000     -92.056104     -2504.9739
   2   1.0000     -26.377942      -717.7803
   3   1.0000     -20.604578      -560.6791
   4   1.0000     -20.604555      -560.6784
   5   1.0000      -9.237217      -251.3575
   6   1.0000      -9.056864      -246.4498
   7   1.0000      -6.923943      -188.4101
   8   1.0000      -6.922736      -188.3772
   9   1.0000      -6.921412      -188.3412
  10   1.0000      -6.739330      -183.3865
  11   1.0000      -6.736805      -183.3178
  12   1.0000      -6.720170      -182.8651
  13   1.0000      -1.710951       -46.5574
  14   1.0000      -1.505985       -40.9799
  15   1.0000      -1.413176       -38.4545
  16   1.0000      -1.043119       -28.3847
  17   1.0000      -0.897076       -24.4107
  18   1.0000      -0.773088       -21.0368
  19   1.0000      -0.771232       -20.9863
  20   1.0000      -0.765742       -20.8369
  21   1.0000      -0.676951       -18.4208
  22   1.0000      -0.672277       -18.2936
  23   1.0000      -0.598733       -16.2923
  24   1.0000      -0.556223       -15.1356
  25   1.0000      -0.533012       -14.5040
  26   1.0000      -0.515269       -14.0212
  27   1.0000      -0.449005       -12.2180
  28   0.0000      -0.055335        -1.5057
  29   0.0000       0.034403         0.9362
  30   0.0000       0.061296         1.6679
  31   0.0000       0.069133         1.8812
  32   0.0000       0.072147         1.9632

MULLIKEN ATOMIC CHARGES AND SPIN POPULATIONS
--------------------------------------------
   0 S :    0.167623    1.038096
   1 S :    2.303404   -0.086629
   2 O :   -0.961955    0.025348
   3 O :   -0.961955    0.025347
   4 F :   -0.547116   -0.002162
Sum of atomic charges         :   -0.0000000

LOEWDIN ATOMIC CHARGES AND SPIN POPULATIONS
-------------------------------------------
   0 S :    0.765322    0.767178
   1 S :   -1.465245    0.175119
   2 O :    0.165460    0.030483
   3 O :    0.165460    0.030482
   4 F :    0.369002   -0.003261

  Mayer bond orders larger than 0.100000
B(  0-S ,  1-S ) :   1.0693 B(  1-S ,  2-O ) :   1.3914 B(  1-S ,  3-O ) :   1.3914
B(  1-S ,  4-F ) :   0.5561

MP2 TOTAL ENERGY:    -1045.475967994 Eh
FINAL SINGLE POINT ENERGY     -1045.475967993971

DIPOLE MOMENT
-------------
                                X             Y             Z
Electronic contribution:     -0.42207      -0.00001       1.68411
Nuclear contribution   :     -0.71820       0.00000      -1.26089
                        -----------------------------------------
Total Dipole Moment    :     -1.14027      -0.00001       0.42321
                        -----------------------------------------
Magnitude (a.u.)       :      1.21627
Magnitude (Debye)      :      3.09152

Rotational constants in cm-1:     0.169419     0.097515     0.097482
Rotational constants in MHz :  5079.049116  2923.438876  2922.449015

                             ****ORCA TERMINATED NORMALLY****
TOTAL RUN TIME: 0 days 0 hours 15 minutes 2 seconds 231 msec
