                         Program Version 5.0.4 -  RELEASE  -
|  1> ! ri-mp2 aug-cc-pvdz aug-cc-pvdz/c tightscf
|  2> %pal nprocs 16 end
|  3> %maxcore 3800
|  4> %base "DZ_B-P_82_AB"
|  5>
|  6> *xyz 0 1
|  7> C         2.649738   -0.459763   -1.127322
|  8> C         1.525186   -1.090003   -0.628483
|  9> C         3.159189    0.665603   -0.497811
| 10> C         2.537014    1.149990    0.638084
| 11> C         1.411839    0.512828    1.140464
| 12> C         0.888067   -0.613457    0.514517
| 13> H         1.127114   -1.961156   -1.133150
| 14> B        -2.189303    0.679617   -0.237001
| 15> O        -1.273394    1.685213   -0.226929
| 16> O        -3.500052    1.005518   -0.383571
| 17> H         3.130882   -0.846778   -2.015801
| 18> H         2.927439    2.024492    1.141487
| 19> H         4.036756    1.160035   -0.891757
| 20> H         0.934855    0.892636    2.035836
| 21> C        -0.349210   -1.280585    1.043509
| 22> H        -3.633051    1.954519   -0.489673
| 23> H        -0.353819    1.415336   -0.125352
| 24> P        -1.758120   -1.206789   -0.189144
| 25> H        -0.632797   -0.838206    1.996299
| 26> H        -0.153461   -2.339134    1.220255
| 27> H        -2.808969   -1.591521    0.670264
| 28> *
| 29>
| 30> $new_job
| 31> ! ri-mp2 aug-cc-pvtz aug-cc-pvtz/c tightscf
| 32> %pal nprocs 16 end
| 33> %maxcore 3800
| 34> %base "TZ_B-P_82_AB"
| 35>
| 36> *xyz 0 1
| 37> C         2.649738   -0.459763   -1.127322
| 38> C         1.525186   -1.090003   -0.628483
| 39> C         3.159189    0.665603   -0.497811
| 40> C         2.537014    1.149990    0.638084
| 41> C         1.411839    0.512828    1.140464
| 42> C         0.888067   -0.613457    0.514517
| 43> H         1.127114   -1.961156   -1.133150
| 44> B        -2.189303    0.679617   -0.237001
| 45> O        -1.273394    1.685213   -0.226929
| 46> O        -3.500052    1.005518   -0.383571
| 47> H         3.130882   -0.846778   -2.015801
| 48> H         2.927439    2.024492    1.141487
| 49> H         4.036756    1.160035   -0.891757
| 50> H         0.934855    0.892636    2.035836
| 51> C        -0.349210   -1.280585    1.043509
| 52> H        -3.633051    1.954519   -0.489673
| 53> H        -0.353819    1.415336   -0.125352
| 54> P        -1.758120   -1.206789   -0.189144
| 55> H        -0.632797   -0.838206    1.996299
| 56> H        -0.153461   -2.339134    1.220255
| 57> H        -2.808969   -1.591521    0.670264
| 58> *
| 59>
| 60> $new_job
| 61> ! ri-mp2 aug-cc-pvqz aug-cc-pvqz/c tightscf
| 62> %pal nprocs 16 end
| 63> %maxcore 3800
| 64> %base "QZ_B-P_82_AB"
| 65>
| 66> *xyz 0 1
| 67> C         2.649738   -0.459763   -1.127322
| 68> C         1.525186   -1.090003   -0.628483
| 69> C         3.159189    0.665603   -0.497811
| 70> C         2.537014    1.149990    0.638084
| 71> C         1.411839    0.512828    1.140464
| 72> C         0.888067   -0.613457    0.514517
| 73> H         1.127114   -1.961156   -1.133150
| 74> B        -2.189303    0.679617   -0.237001
| 75> O        -1.273394    1.685213   -0.226929
| 76> O        -3.500052    1.005518   -0.383571
| 77> H         3.130882   -0.846778   -2.015801
| 78> H         2.927439    2.024492    1.141487
| 79> H         4.036756    1.160035   -0.891757
| 80> H         0.934855    0.892636    2.035836
| 81> C        -0.349210   -1.280585    1.043509
| 82> H        -3.633051    1.954519   -0.489673
| 83> H        -0.353819    1.415336   -0.125352
| 84> P        -1.758120   -1.206789   -0.189144
| 85> H        -0.632797   -0.838206    1.996299
| 86> H        -0.153461   -2.339134    1.220255
| 87> H        -2.808969   -1.591521    0.670264
| 88> *
| 89>
| 90>
| 91>
| 92>
| 93>                          ****END OF INPUT****
 Total Charge           Charge          ....    0
 Multiplicity           Mult            ....    1
 Number of Electrons    NEL             ....   88
MP2 TOTAL ENERGY:     -787.793049536 Eh
FINAL SINGLE POINT ENERGY      -787.793049535938
MP2 TOTAL ENERGY:     -788.227413818 Eh
FINAL SINGLE POINT ENERGY      -788.227413818322

CARTESIAN COORDINATES (ANGSTROEM)
---------------------------------
  C      2.649738   -0.459763   -1.127322
  C      1.525186   -1.090003   -0.628483
  C      3.159189    0.665603   -0.497811
  C      2.537014    1.149990    0.638084
  C      1.411839    0.512828    1.140464
  C      0.888067   -0.613457    0.514517
  H      1.127114   -1.961156   -1.133150
  B     -2.189303    0.679617   -0.237001
  O     -1.273394    1.685213   -0.226929
  O     -3.500052    1.005518   -0.383571
  H      3.130882   -0.846778   -2.015801
  H      2.927439    2.024492    1.141487
  H      4.036756    1.160035   -0.891757
  H      0.934855    0.892636    2.035836
  C     -0.349210   -1.280585    1.043509
  H     -3.633051    1.954519   -0.489673
  H     -0.353819    1.415336   -0.125352
  P     -1.758120   -1.206789   -0.189144
  H     -0.632797   -0.838206    1.996299
  H     -0.153461   -2.339134    1.220255
  H     -2.808969   -1.591521    0.670264

 Multiplicity           Mult            ....    1
 Number of Electrons    NEL             ....   88
 Basis Dimension        Dim             .... 1344

ORBITAL ENERGIES
----------------

  NO   OCC          E(Eh)            E(eV)
   0   2.0000     -79.918697     -2174.6983
   1   2.0000     -20.565873      -559.6259
   2   2.0000     -20.563357      -559.5574
   3   2.0000     -11.254552      -306.2519
   4   2.0000     -11.244435      -305.9766
   5   2.0000     -11.243152      -305.9417
   6   2.0000     -11.242734      -305.9304
   7   2.0000     -11.240690      -305.8747
   8   2.0000     -11.239134      -305.8324
   9   2.0000     -11.238173      -305.8062
  10   2.0000      -7.644858      -208.0272
  11   2.0000      -7.463740      -203.0987
  12   2.0000      -5.357978      -145.7980
  13   2.0000      -5.357560      -145.7866
  14   2.0000      -5.356915      -145.7691
  15   2.0000      -1.385102       -37.6905
  16   2.0000      -1.344368       -36.5821
  17   2.0000      -1.173328       -31.9279
  18   2.0000      -1.065818       -29.0024
  19   2.0000      -1.028893       -27.9976
  20   2.0000      -0.959167       -26.1003
  21   2.0000      -0.842921       -22.9370
  22   2.0000      -0.833387       -22.6776
  23   2.0000      -0.796190       -21.6654
  24   2.0000      -0.760748       -20.7010
  25   2.0000      -0.721971       -19.6458
  26   2.0000      -0.704911       -19.1816
  27   2.0000      -0.653665       -17.7871
  28   2.0000      -0.645272       -17.5587
  29   2.0000      -0.613779       -16.7018
  30   2.0000      -0.598712       -16.2918
  31   2.0000      -0.585310       -15.9271
  32   2.0000      -0.577152       -15.7051
  33   2.0000      -0.568010       -15.4563
  34   2.0000      -0.562440       -15.3048
  35   2.0000      -0.536714       -14.6047
  36   2.0000      -0.507838       -13.8190
  37   2.0000      -0.502626       -13.6772
  38   2.0000      -0.500493       -13.6191
  39   2.0000      -0.478813       -13.0292
  40   2.0000      -0.449271       -12.2253
  41   2.0000      -0.354926        -9.6580
  42   2.0000      -0.342321        -9.3150
  43   2.0000      -0.337140        -9.1740
  44   0.0000       0.020684         0.5628
  45   0.0000       0.026340         0.7168
  46   0.0000       0.028741         0.7821
  47   0.0000       0.032337         0.8799
  48   0.0000       0.039651         1.0790

MULLIKEN ATOMIC CHARGES
-----------------------
   0 C :   -0.350545
   1 C :   -0.561289
   2 C :   -0.394496
   3 C :   -0.289842
   4 C :   -0.403536
   5 C :    0.851148
   6 H :    0.332564
   7 B :    1.359932
   8 O :   -1.264820
   9 O :   -1.026800
  10 H :    0.209292
  11 H :    0.198399
  12 H :    0.353574
  13 H :    0.232008
  14 C :   -0.701662
  15 H :    0.319259
  16 H :    0.458248
  17 P :    0.320788
  18 H :    0.169041
  19 H :    0.344902
  20 H :   -0.156165
Sum of atomic charges:    0.0000000

LOEWDIN ATOMIC CHARGES
----------------------
   0 C :    0.352081
   1 C :    0.321368
   2 C :    0.343167
   3 C :    0.353675
   4 C :    0.320987
   5 C :   -0.179522
   6 H :   -0.319668
   7 B :   -1.414442
   8 O :    1.346603
   9 O :    1.276844
  10 H :   -0.315258
  11 H :   -0.313342
  12 H :   -0.320464
  13 H :   -0.305648
  14 C :    0.319591
  15 H :   -0.805838
  16 H :   -0.898408
  17 P :    1.375733
  18 H :   -0.353869
  19 H :   -0.344215
  20 H :   -0.439376

  Mayer bond orders larger than 0.100000
B(  0-C ,  1-C ) :   1.3843 B(  0-C ,  2-C ) :   1.1408 B(  0-C ,  4-C ) :   0.1476
B(  0-C ,  5-C ) :  -0.3155 B(  0-C , 10-H ) :   1.1726 B(  1-C ,  2-C ) :   0.1464
B(  1-C ,  3-C ) :   0.1048 B(  1-C ,  5-C ) :   0.9234 B(  1-C ,  6-H ) :   0.9291
B(  1-C , 10-H ) :  -0.1304 B(  2-C ,  3-C ) :   1.1157 B(  2-C , 10-H ) :  -0.1020
B(  2-C , 11-H ) :  -0.1148 B(  2-C , 12-H ) :   0.9782 B(  3-C ,  4-C ) :   1.3266
B(  3-C ,  5-C ) :  -0.2934 B(  3-C , 11-H ) :   1.2125 B(  4-C ,  5-C ) :   0.9257
B(  4-C , 11-H ) :  -0.1467 B(  4-C , 13-H ) :   1.0553 B(  5-C , 14-C ) :   0.5660
B(  7-B ,  8-O ) :   0.4083 B(  7-B ,  9-O ) :   0.4773 B(  7-B , 17-P ) :   1.0203
B(  8-O ,  9-O ) :  -0.1915 B(  8-O , 16-H ) :   0.8012 B(  8-O , 17-P ) :   0.1071
B(  9-O , 15-H ) :   0.9260 B(  9-O , 17-P ) :  -0.1497 B( 14-C , 17-P ) :   0.8715
B( 14-C , 18-H ) :   1.0923 B( 14-C , 19-H ) :   0.8956 B( 17-P , 20-H ) :   0.9573

MP2 TOTAL ENERGY:     -788.366575151 Eh
FINAL SINGLE POINT ENERGY      -788.366575151236

DIPOLE MOMENT
-------------
                                X             Y             Z
Electronic contribution:     -7.01036      -0.24517      -2.29533
Nuclear contribution   :      7.81209       0.50614       2.72588
                        -----------------------------------------
Total Dipole Moment    :      0.80173       0.26097       0.43055
                        -----------------------------------------
Magnitude (a.u.)       :      0.94670
Magnitude (Debye)      :      2.40633

Rotational constants in cm-1:     0.059141     0.019719     0.017288
Rotational constants in MHz :  1772.997219   591.152227   518.283439

                             ****ORCA TERMINATED NORMALLY****
TOTAL RUN TIME: 0 days 1 hours 3 minutes 26 seconds 181 msec
