                         Program Version 5.0.4 -  RELEASE  -
|  1> ! ri-mp2 aug-cc-pvdz aug-cc-pvdz/c tightscf
|  2> %pal nprocs 16 end
|  3> %maxcore 3800
|  4> %base "DZ_P-C_84_AB"
|  5>
|  6> *xyz 0 1
|  7> C         0.165056   -0.022883    0.303504
|  8> C         1.008687   -1.045640    0.718911
|  9> C         2.361298   -1.018797    0.426982
| 10> C         2.895992    0.036761   -0.291053
| 11> C         2.066075    1.061278   -0.713610
| 12> C         0.714044    1.030144   -0.419866
| 13> P        -2.206749   -0.736022   -0.892702
| 14> H         2.999385   -1.825329    0.763485
| 15> H         3.953010    0.061594   -0.519675
| 16> H         2.473068    1.891134   -1.276361
| 17> H         0.080946    1.838850   -0.760391
| 18> H         0.597773   -1.876107    1.279943
| 19> C        -1.312370   -0.079987    0.611854
| 20> C        -1.874376    1.227422    1.158992
| 21> H        -1.453411   -0.857573    1.366377
| 22> H        -1.839645    2.022776    0.415023
| 23> H        -1.305806    1.557138    2.030636
| 24> H        -2.915307    1.103889    1.455898
| 25> H        -2.110202    0.438607   -1.676625
| 26> H        -3.525005   -0.444434   -0.462058
| 27> *
| 28>
| 29> $new_job
| 30> ! ri-mp2 aug-cc-pvtz aug-cc-pvtz/c tightscf
| 31> %pal nprocs 16 end
| 32> %maxcore 3800
| 33> %base "TZ_P-C_84_AB"
| 34>
| 35> *xyz 0 1
| 36> C         0.165056   -0.022883    0.303504
| 37> C         1.008687   -1.045640    0.718911
| 38> C         2.361298   -1.018797    0.426982
| 39> C         2.895992    0.036761   -0.291053
| 40> C         2.066075    1.061278   -0.713610
| 41> C         0.714044    1.030144   -0.419866
| 42> P        -2.206749   -0.736022   -0.892702
| 43> H         2.999385   -1.825329    0.763485
| 44> H         3.953010    0.061594   -0.519675
| 45> H         2.473068    1.891134   -1.276361
| 46> H         0.080946    1.838850   -0.760391
| 47> H         0.597773   -1.876107    1.279943
| 48> C        -1.312370   -0.079987    0.611854
| 49> C        -1.874376    1.227422    1.158992
| 50> H        -1.453411   -0.857573    1.366377
| 51> H        -1.839645    2.022776    0.415023
| 52> H        -1.305806    1.557138    2.030636
| 53> H        -2.915307    1.103889    1.455898
| 54> H        -2.110202    0.438607   -1.676625
| 55> H        -3.525005   -0.444434   -0.462058
| 56> *
| 57>
| 58> $new_job
| 59> ! ri-mp2 aug-cc-pvqz aug-cc-pvqz/c tightscf
| 60> %pal nprocs 16 end
| 61> %maxcore 3800
| 62> %base "QZ_P-C_84_AB"
| 63>
| 64> *xyz 0 1
| 65> C         0.165056   -0.022883    0.303504
| 66> C         1.008687   -1.045640    0.718911
| 67> C         2.361298   -1.018797    0.426982
| 68> C         2.895992    0.036761   -0.291053
| 69> C         2.066075    1.061278   -0.713610
| 70> C         0.714044    1.030144   -0.419866
| 71> P        -2.206749   -0.736022   -0.892702
| 72> H         2.999385   -1.825329    0.763485
| 73> H         3.953010    0.061594   -0.519675
| 74> H         2.473068    1.891134   -1.276361
| 75> H         0.080946    1.838850   -0.760391
| 76> H         0.597773   -1.876107    1.279943
| 77> C        -1.312370   -0.079987    0.611854
| 78> C        -1.874376    1.227422    1.158992
| 79> H        -1.453411   -0.857573    1.366377
| 80> H        -1.839645    2.022776    0.415023
| 81> H        -1.305806    1.557138    2.030636
| 82> H        -2.915307    1.103889    1.455898
| 83> H        -2.110202    0.438607   -1.676625
| 84> H        -3.525005   -0.444434   -0.462058
| 85> *
| 86>
| 87>
| 88>
| 89>
| 90>                          ****END OF INPUT****
 Total Charge           Charge          ....    0
 Multiplicity           Mult            ....    1
 Number of Electrons    NEL             ....   74
MP2 TOTAL ENERGY:     -651.359913235 Eh
FINAL SINGLE POINT ENERGY      -651.359913234810
MP2 TOTAL ENERGY:     -651.681853968 Eh
FINAL SINGLE POINT ENERGY      -651.681853968067

CARTESIAN COORDINATES (ANGSTROEM)
---------------------------------
  C      0.165056   -0.022883    0.303504
  C      1.008687   -1.045640    0.718911
  C      2.361298   -1.018797    0.426982
  C      2.895992    0.036761   -0.291053
  C      2.066075    1.061278   -0.713610
  C      0.714044    1.030144   -0.419866
  P     -2.206749   -0.736022   -0.892702
  H      2.999385   -1.825329    0.763485
  H      3.953010    0.061594   -0.519675
  H      2.473068    1.891134   -1.276361
  H      0.080946    1.838850   -0.760391
  H      0.597773   -1.876107    1.279943
  C     -1.312370   -0.079987    0.611854
  C     -1.874376    1.227422    1.158992
  H     -1.453411   -0.857573    1.366377
  H     -1.839645    2.022776    0.415023
  H     -1.305806    1.557138    2.030636
  H     -2.915307    1.103889    1.455898
  H     -2.110202    0.438607   -1.676625
  H     -3.525005   -0.444434   -0.462058

 Multiplicity           Mult            ....    1
 Number of Electrons    NEL             ....   74
 Basis Dimension        Dim             .... 1230

ORBITAL ENERGIES
----------------

  NO   OCC          E(Eh)            E(eV)
   0   2.0000     -79.934039     -2175.1158
   1   2.0000     -11.244412      -305.9760
   2   2.0000     -11.241910      -305.9079
   3   2.0000     -11.232918      -305.6632
   4   2.0000     -11.232453      -305.6506
   5   2.0000     -11.229367      -305.5666
   6   2.0000     -11.229211      -305.5624
   7   2.0000     -11.228749      -305.5498
   8   2.0000     -11.222339      -305.3754
   9   2.0000      -7.477031      -203.4604
  10   2.0000      -5.370838      -146.1479
  11   2.0000      -5.370682      -146.1437
  12   2.0000      -5.369585      -146.1138
  13   2.0000      -1.163959       -31.6729
  14   2.0000      -1.077285       -29.3144
  15   2.0000      -1.018267       -27.7085
  16   2.0000      -0.992502       -27.0074
  17   2.0000      -0.889821       -24.2133
  18   2.0000      -0.832393       -22.6506
  19   2.0000      -0.825147       -22.4534
  20   2.0000      -0.767035       -20.8721
  21   2.0000      -0.698791       -19.0151
  22   2.0000      -0.648058       -17.6346
  23   2.0000      -0.627999       -17.0887
  24   2.0000      -0.602191       -16.3865
  25   2.0000      -0.586554       -15.9610
  26   2.0000      -0.579756       -15.7760
  27   2.0000      -0.552621       -15.0376
  28   2.0000      -0.528333       -14.3767
  29   2.0000      -0.523737       -14.2516
  30   2.0000      -0.501551       -13.6479
  31   2.0000      -0.490570       -13.3491
  32   2.0000      -0.479040       -13.0354
  33   2.0000      -0.454893       -12.3783
  34   2.0000      -0.362233        -9.8569
  35   2.0000      -0.339601        -9.2410
  36   2.0000      -0.326485        -8.8841
  37   0.0000       0.023619         0.6427
  38   0.0000       0.027759         0.7554
  39   0.0000       0.028767         0.7828
  40   0.0000       0.037988         1.0337
  41   0.0000       0.039956         1.0873

MULLIKEN ATOMIC CHARGES
-----------------------
   0 C :    0.656276
   1 C :   -0.751433
   2 C :   -0.214481
   3 C :   -0.367151
   4 C :   -0.213167
   5 C :   -0.576394
   6 P :    0.339353
   7 H :    0.255429
   8 H :    0.332509
   9 H :    0.229992
  10 H :    0.304811
  11 H :    0.222582
  12 C :   -0.036455
  13 C :   -0.992942
  14 H :    0.216885
  15 H :    0.244775
  16 H :    0.236435
  17 H :    0.325263
  18 H :   -0.099742
  19 H :   -0.112546
Sum of atomic charges:    0.0000000

LOEWDIN ATOMIC CHARGES
----------------------
   0 C :   -0.187320
   1 C :    0.334456
   2 C :    0.346446
   3 C :    0.337471
   4 C :    0.350563
   5 C :    0.315981
   6 P :    1.553745
   7 H :   -0.319005
   8 H :   -0.322958
   9 H :   -0.318023
  10 H :   -0.332379
  11 H :   -0.315632
  12 C :   -0.129606
  13 C :    0.850400
  14 H :   -0.387827
  15 H :   -0.311265
  16 H :   -0.265724
  17 H :   -0.293987
  18 H :   -0.447875
  19 H :   -0.457460

  Mayer bond orders larger than 0.100000
B(  0-C ,  1-C ) :   0.8047 B(  0-C ,  2-C ) :  -0.4405 B(  0-C ,  4-C ) :  -0.3853
B(  0-C ,  5-C ) :   1.0216 B(  0-C , 10-H ) :  -0.1102 B(  0-C , 12-C ) :   0.6795
B(  1-C ,  2-C ) :   1.4572 B(  1-C ,  3-C ) :   0.1695 B(  1-C ,  4-C ) :   0.1620
B(  1-C ,  7-H ) :  -0.1434 B(  1-C , 11-H ) :   1.0343 B(  1-C , 12-C ) :  -0.1753
B(  2-C ,  3-C ) :   1.1028 B(  2-C ,  5-C ) :   0.1632 B(  2-C ,  7-H ) :   1.1080
B(  3-C ,  4-C ) :   1.1071 B(  3-C ,  7-H ) :  -0.1162 B(  3-C ,  8-H ) :   1.0139
B(  4-C ,  5-C ) :   1.3603 B(  4-C ,  9-H ) :   1.1297 B(  5-C ,  9-H ) :  -0.1242
B(  5-C , 10-H ) :   0.9581 B(  5-C , 12-C ) :  -0.1419 B(  6-P , 12-C ) :   0.7372
B(  6-P , 18-H ) :   0.9300 B(  6-P , 19-H ) :   0.9151 B( 12-C , 13-C ) :   0.9063
B( 12-C , 14-H ) :   0.9578 B( 13-C , 15-H ) :   0.9799 B( 13-C , 16-H ) :   1.0012
B( 13-C , 17-H ) :   0.9534

MP2 TOTAL ENERGY:     -651.782428480 Eh
FINAL SINGLE POINT ENERGY      -651.782428479784

DIPOLE MOMENT
-------------
                                X             Y             Z
Electronic contribution:      0.95526      -4.30269      -3.13784
Nuclear contribution   :     -0.94920       4.63913       3.48720
                        -----------------------------------------
Total Dipole Moment    :      0.00606       0.33644       0.34935
                        -----------------------------------------
Magnitude (a.u.)       :      0.48505
Magnitude (Debye)      :      1.23290

Rotational constants in cm-1:     0.089079     0.028314     0.026937
Rotational constants in MHz :  2670.529776   848.827942   807.561900

                             ****ORCA TERMINATED NORMALLY****
TOTAL RUN TIME: 0 days 0 hours 48 minutes 33 seconds 34 msec
