                         Program Version 5.0.4 -  RELEASE  -
|  1> ! ri-mp2 aug-cc-pvdz aug-cc-pvdz/c tightscf
|  2> %pal nprocs 16 end
|  3> %maxcore 3800
|  4> %base "DZ_S-F_35_AB"
|  5> %scf
|  6> STABPerform true
|  7> STABRestartUHFifUnstable true
|  8> end
|  9>
| 10> *xyz 0 1
| 11> F         2.236639    0.148483   -0.000005
| 12> S         0.909085   -0.741446    0.000005
| 13> C        -0.294159    0.509102    0.000002
| 14> O        -0.172837    1.676244    0.000002
| 15> Cl        -1.854556   -0.349281   -0.000004
| 16> *
| 17>
| 18> $new_job
| 19> ! ri-mp2 aug-cc-pvtz aug-cc-pvtz/c tightscf
| 20> %pal nprocs 16 end
| 21> %maxcore 3800
| 22> %base "TZ_S-F_35_AB"
| 23>
| 24> *xyz 0 1
| 25> F         2.236639    0.148483   -0.000005
| 26> S         0.909085   -0.741446    0.000005
| 27> C        -0.294159    0.509102    0.000002
| 28> O        -0.172837    1.676244    0.000002
| 29> Cl        -1.854556   -0.349281   -0.000004
| 30> *
| 31>
| 32> $new_job
| 33> ! ri-mp2 aug-cc-pvqz aug-cc-pvqz/c tightscf
| 34> %pal nprocs 16 end
| 35> %maxcore 3800
| 36> %base "QZ_S-F_35_AB"
| 37>
| 38> *xyz 0 1
| 39> F         2.236639    0.148483   -0.000005
| 40> S         0.909085   -0.741446    0.000005
| 41> C        -0.294159    0.509102    0.000002
| 42> O        -0.172837    1.676244    0.000002
| 43> Cl        -1.854556   -0.349281   -0.000004
| 44> *
| 45>
| 46>
| 47>
| 48>
| 49>                          ****END OF INPUT****
 Total Charge           Charge          ....    0
 Multiplicity           Mult            ....    1
 Number of Electrons    NEL             ....   56
MP2 TOTAL ENERGY:    -1070.010296663 Eh
FINAL SINGLE POINT ENERGY     -1070.010296663143
MP2 TOTAL ENERGY:    -1070.300053355 Eh
FINAL SINGLE POINT ENERGY     -1070.300053355287

CARTESIAN COORDINATES (ANGSTROEM)
---------------------------------
  F      2.236639    0.148483   -0.000005
  S      0.909085   -0.741446    0.000005
  C     -0.294159    0.509102    0.000002
  O     -0.172837    1.676244    0.000002
  Cl    -1.854556   -0.349281   -0.000004

 Multiplicity           Mult            ....    1
 Number of Electrons    NEL             ....   56
 Basis Dimension        Dim             ....  408

ORBITAL ENERGIES
----------------

  NO   OCC          E(Eh)            E(eV)
   0   2.0000    -104.882867     -2854.0079
   1   2.0000     -92.090656     -2505.9142
   2   2.0000     -26.350523      -717.0342
   3   2.0000     -20.615545      -560.9775
   4   2.0000     -11.449553      -311.5582
   5   2.0000     -10.608586      -288.6743
   6   2.0000      -9.084992      -247.2152
   7   2.0000      -8.075470      -219.7447
   8   2.0000      -8.073662      -219.6955
   9   2.0000      -8.073636      -219.6948
  10   2.0000      -6.766303      -184.1205
  11   2.0000      -6.764360      -184.0676
  12   2.0000      -6.763063      -184.0323
  13   2.0000      -1.655147       -45.0388
  14   2.0000      -1.479205       -40.2512
  15   2.0000      -1.178671       -32.0733
  16   2.0000      -1.051101       -28.6019
  17   2.0000      -0.824207       -22.4278
  18   2.0000      -0.746786       -20.3211
  19   2.0000      -0.734624       -19.9901
  20   2.0000      -0.727616       -19.7994
  21   2.0000      -0.679928       -18.5018
  22   2.0000      -0.637198       -17.3391
  23   2.0000      -0.609337       -16.5809
  24   2.0000      -0.504750       -13.7349
  25   2.0000      -0.500249       -13.6125
  26   2.0000      -0.470520       -12.8035
  27   2.0000      -0.427579       -11.6350
  28   0.0000       0.038326         1.0429
  29   0.0000       0.044842         1.2202
  30   0.0000       0.058731         1.5982
  31   0.0000       0.069291         1.8855
  32   0.0000       0.080571         2.1924

MULLIKEN ATOMIC CHARGES
-----------------------
   0 F :   -0.570894
   1 S :    0.859959
   2 C :    0.248812
   3 O :   -0.504558
   4 Cl:   -0.033319
Sum of atomic charges:   -0.0000000

LOEWDIN ATOMIC CHARGES
----------------------
   0 F :    0.096320
   1 S :    0.486819
   2 C :   -2.007290
   3 O :    0.467487
   4 Cl:    0.956664

  Mayer bond orders larger than 0.100000
B(  0-F ,  1-S ) :   0.6574 B(  1-S ,  2-C ) :   1.0704 B(  2-C ,  3-O ) :   1.8062
B(  2-C ,  4-Cl) :   0.9591

MP2 TOTAL ENERGY:    -1070.398176868 Eh
FINAL SINGLE POINT ENERGY     -1070.398176867713

DIPOLE MOMENT
-------------
                                X             Y             Z
Electronic contribution:     -0.49008      -1.24207      -0.00001
Nuclear contribution   :      0.37981       0.36952       0.00001
                        -----------------------------------------
Total Dipole Moment    :     -0.11027      -0.87256       0.00000
                        -----------------------------------------
Magnitude (a.u.)       :      0.87950
Magnitude (Debye)      :      2.23550

Rotational constants in cm-1:     0.239368     0.068808     0.053445
Rotational constants in MHz :  7176.069978  2062.817736  1602.240972

                             ****ORCA TERMINATED NORMALLY****
TOTAL RUN TIME: 0 days 0 hours 5 minutes 39 seconds 200 msec
