                         Program Version 5.0.4 -  RELEASE  -
|  1> ! ri-mp2 aug-cc-pvdz aug-cc-pvdz/c tightscf
|  2> %pal nprocs 16 end
|  3> %maxcore 3800
|  4> %base "DZ_B-F_28_A"
|  5> %scf
|  6> STABPerform true
|  7> STABRestartUHFifUnstable true
|  8> end
|  9>
| 10> *xyz 0 2
| 11> F        -1.996001   -0.015142   -0.211520
| 12> B        -0.952274   -0.029251    0.547260
| 13> C         0.541606    0.129335    0.066395
| 14> O         1.130573    1.140904   -0.074450
| 15> F         1.159018   -1.068968   -0.070599
| 16> *
| 17>
| 18> $new_job
| 19> ! ri-mp2 aug-cc-pvtz aug-cc-pvtz/c tightscf
| 20> %pal nprocs 16 end
| 21> %maxcore 3800
| 22> %base "TZ_B-F_28_A"
| 23>
| 24> *xyz 0 2
| 25> F        -1.996001   -0.015142   -0.211520
| 26> B        -0.952274   -0.029251    0.547260
| 27> C         0.541606    0.129335    0.066395
| 28> O         1.130573    1.140904   -0.074450
| 29> F         1.159018   -1.068968   -0.070599
| 30> *
| 31>
| 32> $new_job
| 33> ! ri-mp2 aug-cc-pvqz aug-cc-pvqz/c tightscf
| 34> %pal nprocs 16 end
| 35> %maxcore 3800
| 36> %base "QZ_B-F_28_A"
| 37>
| 38> *xyz 0 2
| 39> F        -1.996001   -0.015142   -0.211520
| 40> B        -0.952274   -0.029251    0.547260
| 41> C         0.541606    0.129335    0.066395
| 42> O         1.130573    1.140904   -0.074450
| 43> F         1.159018   -1.068968   -0.070599
| 44> *
| 45>
| 46>
| 47>
| 48>
| 49>                          ****END OF INPUT****
 Total Charge           Charge          ....    0
 Multiplicity           Mult            ....    2
 Number of Electrons    NEL             ....   37
MP2 TOTAL ENERGY:     -337.101192295 Eh
FINAL SINGLE POINT ENERGY      -337.101192294682
MP2 TOTAL ENERGY:     -337.381044129 Eh
FINAL SINGLE POINT ENERGY      -337.381044128978

CARTESIAN COORDINATES (ANGSTROEM)
---------------------------------
  F     -1.996001   -0.015142   -0.211520
  B     -0.952274   -0.029251    0.547260
  C      0.541606    0.129335    0.066395
  O      1.130573    1.140904   -0.074450
  F      1.159018   -1.068968   -0.070599

 Multiplicity           Mult            ....    2
 Number of Electrons    NEL             ....   37
 Basis Dimension        Dim             ....  400

ORBITAL ENERGIES
----------------
                 SPIN UP ORBITALS
  NO   OCC          E(Eh)            E(eV)
   0   1.0000     -26.369158      -717.5413
   1   1.0000     -26.343559      -716.8447
   2   1.0000     -20.607601      -560.7613
   3   1.0000     -11.428329      -310.9807
   4   1.0000      -7.744770      -210.7459
   5   1.0000      -1.689204       -45.9656
   6   1.0000      -1.668371       -45.3987
   7   1.0000      -1.458796       -39.6959
   8   1.0000      -0.931462       -25.3464
   9   1.0000      -0.846389       -23.0314
  10   1.0000      -0.798484       -21.7279
  11   1.0000      -0.758779       -20.6474
  12   1.0000      -0.743708       -20.2373
  13   1.0000      -0.730868       -19.8879
  14   1.0000      -0.728997       -19.8370
  15   1.0000      -0.644134       -17.5278
  16   1.0000      -0.581715       -15.8293
  17   1.0000      -0.524759       -14.2794
  18   1.0000      -0.404775       -11.0145
  19   0.0000       0.027994         0.7618
  20   0.0000       0.031840         0.8664
  21   0.0000       0.036166         0.9841
  22   0.0000       0.039756         1.0818
  23   0.0000       0.061655         1.6777

                 SPIN DOWN ORBITALS
  NO   OCC          E(Eh)            E(eV)
   0   1.0000     -26.365938      -717.4536
   1   1.0000     -26.343583      -716.8453
   2   1.0000     -20.603353      -560.6457
   3   1.0000     -11.426673      -310.9356
   4   1.0000      -7.724480      -210.1938
   5   1.0000      -1.680593       -45.7313
   6   1.0000      -1.668014       -45.3890
   7   1.0000      -1.449407       -39.4404
   8   1.0000      -0.913903       -24.8686
   9   1.0000      -0.837429       -22.7876
  10   1.0000      -0.786877       -21.4120
  11   1.0000      -0.741909       -20.1884
  12   1.0000      -0.737663       -20.0728
  13   1.0000      -0.728650       -19.8276
  14   1.0000      -0.720360       -19.6020
  15   1.0000      -0.633455       -17.2372
  16   1.0000      -0.554147       -15.0791
  17   1.0000      -0.506788       -13.7904
  18   0.0000       0.018293         0.4978
  19   0.0000       0.032877         0.8946
  20   0.0000       0.035394         0.9631
  21   0.0000       0.039452         1.0736
  22   0.0000       0.057608         1.5676

MULLIKEN ATOMIC CHARGES AND SPIN POPULATIONS
--------------------------------------------
   0 F :   -0.643098   -0.016016
   1 B :    0.932113    0.958765
   2 C :    0.820609   -0.035870
   3 O :   -0.574070    0.092136
   4 F :   -0.535555    0.000985
Sum of atomic charges         :   -0.0000000

LOEWDIN ATOMIC CHARGES AND SPIN POPULATIONS
-------------------------------------------
   0 F :    0.732187    0.153195
   1 B :   -0.763304    0.583300
   2 C :   -1.232992    0.178317
   3 O :    0.593459    0.075797
   4 F :    0.670650    0.009391

  Mayer bond orders larger than 0.100000
B(  0-F ,  1-B ) :   0.4977 B(  1-B ,  2-C ) :   0.9315 B(  2-C ,  3-O ) :   1.7900
B(  2-C ,  4-F ) :   0.7143

MP2 TOTAL ENERGY:     -337.473455710 Eh
FINAL SINGLE POINT ENERGY      -337.473455710493

DIPOLE MOMENT
-------------
                                X             Y             Z
Electronic contribution:     -2.14381      -1.30895       0.39336
Nuclear contribution   :      1.45802       1.00612      -0.14794
                        -----------------------------------------
Total Dipole Moment    :     -0.68579      -0.30283       0.24542
                        -----------------------------------------
Magnitude (a.u.)       :      0.78882
Magnitude (Debye)      :      2.00503

Rotational constants in cm-1:     0.358365     0.121025     0.094874
Rotational constants in MHz : 10743.518268  3628.240095  2844.255090

                             ****ORCA TERMINATED NORMALLY****
TOTAL RUN TIME: 0 days 0 hours 11 minutes 24 seconds 994 msec
