                         Program Version 5.0.4 -  RELEASE  -
|  1> ! ri-mp2 aug-cc-pvdz aug-cc-pvdz/c tightscf
|  2> %pal nprocs 16 end
|  3> %maxcore 3800
|  4> %base "DZ_B-F_42_AB"
|  5>
|  6> *xyz 0 1
|  7> F         1.456209    1.243577    0.000027
|  8> F         2.074269   -0.920488   -0.000009
|  9> B         1.106965   -0.020763   -0.000002
| 10> C        -0.384502   -0.483585   -0.000022
| 11> N        -1.311529    0.375313   -0.000000
| 12> H        -0.612220   -1.559639   -0.000021
| 13> C        -2.678075   -0.077950    0.000000
| 14> H        -3.182265    0.333882   -0.875390
| 15> H        -3.182252    0.333844    0.875416
| 16> H        -2.776216   -1.170052   -0.000023
| 17> *
| 18>
| 19> $new_job
| 20> ! ri-mp2 aug-cc-pvtz aug-cc-pvtz/c tightscf
| 21> %pal nprocs 16 end
| 22> %maxcore 3800
| 23> %base "TZ_B-F_42_AB"
| 24>
| 25> *xyz 0 1
| 26> F         1.456209    1.243577    0.000027
| 27> F         2.074269   -0.920488   -0.000009
| 28> B         1.106965   -0.020763   -0.000002
| 29> C        -0.384502   -0.483585   -0.000022
| 30> N        -1.311529    0.375313   -0.000000
| 31> H        -0.612220   -1.559639   -0.000021
| 32> C        -2.678075   -0.077950    0.000000
| 33> H        -3.182265    0.333882   -0.875390
| 34> H        -3.182252    0.333844    0.875416
| 35> H        -2.776216   -1.170052   -0.000023
| 36> *
| 37>
| 38> $new_job
| 39> ! ri-mp2 aug-cc-pvqz aug-cc-pvqz/c tightscf
| 40> %pal nprocs 16 end
| 41> %maxcore 3800
| 42> %base "QZ_B-F_42_AB"
| 43>
| 44> *xyz 0 1
| 45> F         1.456209    1.243577    0.000027
| 46> F         2.074269   -0.920488   -0.000009
| 47> B         1.106965   -0.020763   -0.000002
| 48> C        -0.384502   -0.483585   -0.000022
| 49> N        -1.311529    0.375313   -0.000000
| 50> H        -0.612220   -1.559639   -0.000021
| 51> C        -2.678075   -0.077950    0.000000
| 52> H        -3.182265    0.333882   -0.875390
| 53> H        -3.182252    0.333844    0.875416
| 54> H        -2.776216   -1.170052   -0.000023
| 55> *
| 56>
| 57>
| 58>
| 59>
| 60>                          ****END OF INPUT****
 Total Charge           Charge          ....    0
 Multiplicity           Mult            ....    1
 Number of Electrons    NEL             ....   46
MP2 TOTAL ENERGY:     -357.150392194 Eh
FINAL SINGLE POINT ENERGY      -357.150392194112
MP2 TOTAL ENERGY:     -357.464436975 Eh
FINAL SINGLE POINT ENERGY      -357.464436975304

CARTESIAN COORDINATES (ANGSTROEM)
---------------------------------
  F      1.456209    1.243577    0.000027
  F      2.074269   -0.920488   -0.000009
  B      1.106965   -0.020763   -0.000002
  C     -0.384502   -0.483585   -0.000022
  N     -1.311529    0.375313   -0.000000
  H     -0.612220   -1.559639   -0.000021
  C     -2.678075   -0.077950    0.000000
  H     -3.182265    0.333882   -0.875390
  H     -3.182252    0.333844    0.875416
  H     -2.776216   -1.170052   -0.000023

 Multiplicity           Mult            ....    1
 Number of Electrons    NEL             ....   46
 Basis Dimension        Dim             ....  664

ORBITAL ENERGIES
----------------

  NO   OCC          E(Eh)            E(eV)
   0   2.0000     -26.313972      -716.0396
   1   2.0000     -26.309057      -715.9058
   2   2.0000     -15.591974      -424.2792
   3   2.0000     -11.269383      -306.6555
   4   2.0000     -11.260960      -306.4263
   5   2.0000      -7.710647      -209.8174
   6   2.0000      -1.646021       -44.7905
   7   2.0000      -1.613730       -43.9118
   8   2.0000      -1.251970       -34.0678
   9   2.0000      -0.981739       -26.7145
  10   2.0000      -0.839597       -22.8466
  11   2.0000      -0.800986       -21.7959
  12   2.0000      -0.761915       -20.7328
  13   2.0000      -0.725478       -19.7413
  14   2.0000      -0.714541       -19.4437
  15   2.0000      -0.662948       -18.0397
  16   2.0000      -0.659307       -17.9406
  17   2.0000      -0.642249       -17.4765
  18   2.0000      -0.628915       -17.1136
  19   2.0000      -0.606650       -16.5078
  20   2.0000      -0.530663       -14.4401
  21   2.0000      -0.440335       -11.9821
  22   2.0000      -0.423624       -11.5274
  23   0.0000       0.022668         0.6168
  24   0.0000       0.032809         0.8928
  25   0.0000       0.034724         0.9449
  26   0.0000       0.037505         1.0206
  27   0.0000       0.050013         1.3609

MULLIKEN ATOMIC CHARGES
-----------------------
   0 F :   -0.779524
   1 F :   -0.789005
   2 B :    1.742762
   3 C :   -0.357108
   4 N :   -0.444337
   5 H :    0.461493
   6 C :   -0.659650
   7 H :    0.281221
   8 H :    0.281223
   9 H :    0.262924
Sum of atomic charges:    0.0000000

LOEWDIN ATOMIC CHARGES
----------------------
   0 F :    0.819020
   1 F :    0.802405
   2 B :   -1.734053
   3 C :    0.185930
   4 N :    0.578011
   5 H :   -0.370731
   6 C :    0.679040
   7 H :   -0.314940
   8 H :   -0.314939
   9 H :   -0.329742

  Mayer bond orders larger than 0.100000
B(  0-F ,  2-B ) :   0.4376 B(  1-F ,  2-B ) :   0.3091 B(  2-B ,  3-C ) :   0.9309
B(  3-C ,  4-N ) :   1.7547 B(  3-C ,  5-H ) :   0.7428 B(  4-N ,  6-C ) :   0.8840
B(  6-C ,  7-H ) :   0.9300 B(  6-C ,  8-H ) :   0.9300 B(  6-C ,  9-H ) :   0.9308

MP2 TOTAL ENERGY:     -357.564368666 Eh
FINAL SINGLE POINT ENERGY      -357.564368665998

DIPOLE MOMENT
-------------
                                X             Y             Z
Electronic contribution:     12.59240       1.54274       0.00002
Nuclear contribution   :    -13.44288      -2.24577      -0.00003
                        -----------------------------------------
Total Dipole Moment    :     -0.85048      -0.70303      -0.00001
                        -----------------------------------------
Magnitude (a.u.)       :      1.10344
Magnitude (Debye)      :      2.80471

Rotational constants in cm-1:     0.301849     0.061245     0.051394
Rotational constants in MHz :  9049.190918  1836.075173  1540.753189

                             ****ORCA TERMINATED NORMALLY****
TOTAL RUN TIME: 0 days 0 hours 5 minutes 44 seconds 213 msec
