                         Program Version 5.0.4 -  RELEASE  -
|  1> ! ri-mp2 aug-cc-pvdz aug-cc-pvdz/c tightscf
|  2> %pal nprocs 16 end
|  3> %maxcore 3800
|  4> %base "DZ_Si-Si_60_A"
|  5> %scf
|  6> STABPerform true
|  7> STABRestartUHFifUnstable true
|  8> end
|  9>
| 10> *xyz 0 2
| 11> Si         1.100905    0.111407    0.108949
| 12> O        -0.396917   -0.529344   -0.084523
| 13> H         2.050606   -0.899244   -0.412750
| 14> H         1.203990    1.388459   -0.655824
| 15> C        -1.611425    0.182995    0.016764
| 16> H        -1.862904    0.377014    1.061788
| 17> H        -2.399042   -0.424994   -0.425305
| 18> H        -1.561436    1.135853   -0.517588
| 19> *
| 20>
| 21> $new_job
| 22> ! ri-mp2 aug-cc-pvtz aug-cc-pvtz/c tightscf
| 23> %pal nprocs 16 end
| 24> %maxcore 3800
| 25> %base "TZ_Si-Si_60_A"
| 26>
| 27> *xyz 0 2
| 28> Si         1.100905    0.111407    0.108949
| 29> O        -0.396917   -0.529344   -0.084523
| 30> H         2.050606   -0.899244   -0.412750
| 31> H         1.203990    1.388459   -0.655824
| 32> C        -1.611425    0.182995    0.016764
| 33> H        -1.862904    0.377014    1.061788
| 34> H        -2.399042   -0.424994   -0.425305
| 35> H        -1.561436    1.135853   -0.517588
| 36> *
| 37>
| 38> $new_job
| 39> ! ri-mp2 aug-cc-pvqz aug-cc-pvqz/c tightscf
| 40> %pal nprocs 16 end
| 41> %maxcore 3800
| 42> %base "QZ_Si-Si_60_A"
| 43>
| 44> *xyz 0 2
| 45> Si         1.100905    0.111407    0.108949
| 46> O        -0.396917   -0.529344   -0.084523
| 47> H         2.050606   -0.899244   -0.412750
| 48> H         1.203990    1.388459   -0.655824
| 49> C        -1.611425    0.182995    0.016764
| 50> H        -1.862904    0.377014    1.061788
| 51> H        -2.399042   -0.424994   -0.425305
| 52> H        -1.561436    1.135853   -0.517588
| 53> *
| 54>
| 55>
| 56>
| 57>
| 58>                          ****END OF INPUT****
 Total Charge           Charge          ....    0
 Multiplicity           Mult            ....    2
 Number of Electrons    NEL             ....   33
MP2 TOTAL ENERGY:     -405.001742585 Eh
FINAL SINGLE POINT ENERGY      -405.001742584835
MP2 TOTAL ENERGY:     -405.147146354 Eh
FINAL SINGLE POINT ENERGY      -405.147146354330

CARTESIAN COORDINATES (ANGSTROEM)
---------------------------------
  Si     1.100905    0.111407    0.108949
  O     -0.396917   -0.529344   -0.084523
  H      2.050606   -0.899244   -0.412750
  H      1.203990    1.388459   -0.655824
  C     -1.611425    0.182995    0.016764
  H     -1.862904    0.377014    1.061788
  H     -2.399042   -0.424994   -0.425305
  H     -1.561436    1.135853   -0.517588

 Multiplicity           Mult            ....    2
 Number of Electrons    NEL             ....   33
 Basis Dimension        Dim             ....  474

ORBITAL ENERGIES
----------------
                 SPIN UP ORBITALS
  NO   OCC          E(Eh)            E(eV)
   0   1.0000     -68.797417     -1872.0729
   1   1.0000     -20.556577      -559.3729
   2   1.0000     -11.282574      -307.0145
   3   1.0000      -6.143431      -167.1712
   4   1.0000      -4.255321      -115.7932
   5   1.0000      -4.246755      -115.5601
   6   1.0000      -4.246405      -115.5506
   7   1.0000      -1.361890       -37.0589
   8   1.0000      -0.938631       -25.5415
   9   1.0000      -0.732496       -19.9322
  10   1.0000      -0.644014       -17.5245
  11   1.0000      -0.632770       -17.2185
  12   1.0000      -0.604579       -16.4514
  13   1.0000      -0.503825       -13.7098
  14   1.0000      -0.488896       -13.3035
  15   1.0000      -0.465724       -12.6730
  16   1.0000      -0.325308        -8.8521
  17   0.0000       0.025609         0.6969
  18   0.0000       0.035443         0.9644
  19   0.0000       0.039432         1.0730
  20   0.0000       0.041284         1.1234
  21   0.0000       0.052587         1.4310

                 SPIN DOWN ORBITALS
  NO   OCC          E(Eh)            E(eV)
   0   1.0000     -68.792147     -1871.9295
   1   1.0000     -20.552319      -559.2570
   2   1.0000     -11.282788      -307.0203
   3   1.0000      -6.135027      -166.9426
   4   1.0000      -4.243629      -115.4750
   5   1.0000      -4.243223      -115.4640
   6   1.0000      -4.235195      -115.2455
   7   1.0000      -1.351192       -36.7678
   8   1.0000      -0.936693       -25.4887
   9   1.0000      -0.710084       -19.3224
  10   1.0000      -0.633253       -17.2317
  11   1.0000      -0.628559       -17.1040
  12   1.0000      -0.581955       -15.8358
  13   1.0000      -0.495449       -13.4819
  14   1.0000      -0.465661       -12.6713
  15   1.0000      -0.454995       -12.3810
  16   0.0000       0.024756         0.6737
  17   0.0000       0.031366         0.8535
  18   0.0000       0.036750         1.0000
  19   0.0000       0.039700         1.0803
  20   0.0000       0.052042         1.4161

MULLIKEN ATOMIC CHARGES AND SPIN POPULATIONS
--------------------------------------------
   0 Si:    0.877173    0.899277
   1 O :   -0.820120    0.014058
   2 H :   -0.202605    0.038532
   3 H :   -0.224713    0.050843
   4 C :   -0.556780   -0.004046
   5 H :    0.279248    0.002699
   6 H :    0.369484    0.000305
   7 H :    0.278313   -0.001667
Sum of atomic charges         :    0.0000000

LOEWDIN ATOMIC CHARGES AND SPIN POPULATIONS
-------------------------------------------
   0 Si:    0.737318    0.566720
   1 O :    0.542274    0.137243
   2 H :   -0.365105    0.128436
   3 H :   -0.340745    0.135563
   4 C :    0.429547    0.025625
   5 H :   -0.328038    0.005083
   6 H :   -0.333944    0.000384
   7 H :   -0.341308    0.000946

  Mayer bond orders larger than 0.100000
B(  0-Si,  1-O ) :   0.5704 B(  0-Si,  2-H ) :   0.8810 B(  0-Si,  3-H ) :   0.8892
B(  1-O ,  4-C ) :   0.8874 B(  4-C ,  5-H ) :   0.9045 B(  4-C ,  6-H ) :   0.8683
B(  4-C ,  7-H ) :   0.9075

MP2 TOTAL ENERGY:     -405.192618930 Eh
FINAL SINGLE POINT ENERGY      -405.192618930047

DIPOLE MOMENT
-------------
                                X             Y             Z
Electronic contribution:      2.34906      -1.22239       1.02157
Nuclear contribution   :     -2.67819       1.58345      -0.97079
                        -----------------------------------------
Total Dipole Moment    :     -0.32913       0.36106       0.05078
                        -----------------------------------------
Magnitude (a.u.)       :      0.49119
Magnitude (Debye)      :      1.24852

Rotational constants in cm-1:     1.389305     0.192172     0.177918
Rotational constants in MHz : 41650.323015  5761.160029  5333.859240

                             ****ORCA TERMINATED NORMALLY****
TOTAL RUN TIME: 0 days 0 hours 14 minutes 32 seconds 705 msec
