                         Program Version 5.0.4 -  RELEASE  -
|  1> ! ri-mp2 aug-cc-pvdz aug-cc-pvdz/c tightscf
|  2> %pal nprocs 16 end
|  3> %maxcore 3800
|  4> %base "DZ_P-P_5_AB"
|  5> %scf
|  6> STABPerform true
|  7> STABRestartUHFifUnstable true
|  8> end
|  9>
| 10> *xyz 0 1
| 11> P        -0.172062   -1.083965    0.664090
| 12> P         0.172062    1.083965    0.664090
| 13> C         0.172062   -1.662773   -1.055356
| 14> C        -0.172062    1.662773   -1.055356
| 15> H         0.342617    1.095048   -1.826951
| 16> H         0.127801    2.708068   -1.132864
| 17> H        -1.245794    1.612227   -1.235021
| 18> H         1.245794   -1.612227   -1.235021
| 19> H        -0.342617   -1.095048   -1.826951
| 20> H        -0.127801   -2.708068   -1.132864
| 21> H         1.578746    0.979946    0.565623
| 22> H        -1.578746   -0.979946    0.565623
| 23> *
| 24>
| 25> $new_job
| 26> ! ri-mp2 aug-cc-pvtz aug-cc-pvtz/c tightscf
| 27> %pal nprocs 16 end
| 28> %maxcore 3800
| 29> %base "TZ_P-P_5_AB"
| 30>
| 31> *xyz 0 1
| 32> P        -0.172062   -1.083965    0.664090
| 33> P         0.172062    1.083965    0.664090
| 34> C         0.172062   -1.662773   -1.055356
| 35> C        -0.172062    1.662773   -1.055356
| 36> H         0.342617    1.095048   -1.826951
| 37> H         0.127801    2.708068   -1.132864
| 38> H        -1.245794    1.612227   -1.235021
| 39> H         1.245794   -1.612227   -1.235021
| 40> H        -0.342617   -1.095048   -1.826951
| 41> H        -0.127801   -2.708068   -1.132864
| 42> H         1.578746    0.979946    0.565623
| 43> H        -1.578746   -0.979946    0.565623
| 44> *
| 45>
| 46> $new_job
| 47> ! ri-mp2 aug-cc-pvqz aug-cc-pvqz/c tightscf
| 48> %pal nprocs 16 end
| 49> %maxcore 3800
| 50> %base "QZ_P-P_5_AB"
| 51>
| 52> *xyz 0 1
| 53> P        -0.172062   -1.083965    0.664090
| 54> P         0.172062    1.083965    0.664090
| 55> C         0.172062   -1.662773   -1.055356
| 56> C        -0.172062    1.662773   -1.055356
| 57> H         0.342617    1.095048   -1.826951
| 58> H         0.127801    2.708068   -1.132864
| 59> H        -1.245794    1.612227   -1.235021
| 60> H         1.245794   -1.612227   -1.235021
| 61> H        -0.342617   -1.095048   -1.826951
| 62> H        -0.127801   -2.708068   -1.132864
| 63> H         1.578746    0.979946    0.565623
| 64> H        -1.578746   -0.979946    0.565623
| 65> *
| 66>
| 67>
| 68>
| 69>
| 70>                          ****END OF INPUT****
 Total Charge           Charge          ....    0
 Multiplicity           Mult            ....    1
 Number of Electrons    NEL             ....   50
MP2 TOTAL ENERGY:     -762.444719946 Eh
FINAL SINGLE POINT ENERGY      -762.444719946164
MP2 TOTAL ENERGY:     -762.615750471 Eh
FINAL SINGLE POINT ENERGY      -762.615750470785

CARTESIAN COORDINATES (ANGSTROEM)
---------------------------------
  P     -0.172062   -1.083965    0.664090
  P      0.172062    1.083965    0.664090
  C      0.172062   -1.662773   -1.055356
  C     -0.172062    1.662773   -1.055356
  H      0.342617    1.095048   -1.826951
  H      0.127801    2.708068   -1.132864
  H     -1.245794    1.612227   -1.235021
  H      1.245794   -1.612227   -1.235021
  H     -0.342617   -1.095048   -1.826951
  H     -0.127801   -2.708068   -1.132864
  H      1.578746    0.979946    0.565623
  H     -1.578746   -0.979946    0.565623

 Multiplicity           Mult            ....    1
 Number of Electrons    NEL             ....   50
 Basis Dimension        Dim             ....  696

ORBITAL ENERGIES
----------------

  NO   OCC          E(Eh)            E(eV)
   0   2.0000     -79.938008     -2175.2238
   1   2.0000     -79.938006     -2175.2237
   2   2.0000     -11.230138      -305.5876
   3   2.0000     -11.230134      -305.5875
   4   2.0000      -7.480402      -203.5521
   5   2.0000      -7.480231      -203.5474
   6   2.0000      -5.374363      -146.2438
   7   2.0000      -5.374124      -146.2373
   8   2.0000      -5.374093      -146.2365
   9   2.0000      -5.373882      -146.2308
  10   2.0000      -5.373162      -146.2112
  11   2.0000      -5.373086      -146.2091
  12   2.0000      -1.000976       -27.2379
  13   2.0000      -0.969683       -26.3864
  14   2.0000      -0.833472       -22.6799
  15   2.0000      -0.724067       -19.7029
  16   2.0000      -0.597894       -16.2695
  17   2.0000      -0.588972       -16.0267
  18   2.0000      -0.578639       -15.7456
  19   2.0000      -0.556432       -15.1413
  20   2.0000      -0.501622       -13.6498
  21   2.0000      -0.494068       -13.4443
  22   2.0000      -0.452517       -12.3136
  23   2.0000      -0.356440        -9.6992
  24   2.0000      -0.339186        -9.2297
  25   0.0000       0.024275         0.6606
  26   0.0000       0.031680         0.8620
  27   0.0000       0.035357         0.9621
  28   0.0000       0.039267         1.0685
  29   0.0000       0.048742         1.3263

MULLIKEN ATOMIC CHARGES
-----------------------
   0 P :    0.250907
   1 P :    0.250907
   2 C :   -1.010991
   3 C :   -1.010991
   4 H :    0.262650
   5 H :    0.347148
   6 H :    0.244089
   7 H :    0.244089
   8 H :    0.262650
   9 H :    0.347148
  10 H :   -0.093803
  11 H :   -0.093803
Sum of atomic charges:    0.0000000

LOEWDIN ATOMIC CHARGES
----------------------
   0 P :    0.967368
   1 P :    0.967368
   2 C :    0.671075
   3 C :    0.671075
   4 H :   -0.385880
   5 H :   -0.374218
   6 H :   -0.372173
   7 H :   -0.372173
   8 H :   -0.385880
   9 H :   -0.374218
  10 H :   -0.506173
  11 H :   -0.506173

  Mayer bond orders larger than 0.100000
B(  0-P ,  1-P ) :   0.9982 B(  0-P ,  2-C ) :   0.8806 B(  0-P , 11-H ) :   0.9331
B(  1-P ,  3-C ) :   0.8806 B(  1-P , 10-H ) :   0.9331 B(  2-C ,  7-H ) :   0.9359
B(  2-C ,  8-H ) :   0.9143 B(  2-C ,  9-H ) :   0.8795 B(  3-C ,  4-H ) :   0.9143
B(  3-C ,  5-H ) :   0.8795 B(  3-C ,  6-H ) :   0.9359

MP2 TOTAL ENERGY:     -762.667764277 Eh
FINAL SINGLE POINT ENERGY      -762.667764276820

DIPOLE MOMENT
-------------
                                X             Y             Z
Electronic contribution:     -0.00000       0.00000       7.54669
Nuclear contribution   :      0.00000       0.00000      -8.51153
                        -----------------------------------------
Total Dipole Moment    :     -0.00000       0.00000      -0.96484
                        -----------------------------------------
Magnitude (a.u.)       :      0.96484
Magnitude (Debye)      :      2.45243

Rotational constants in cm-1:     0.218535     0.096577     0.073260
Rotational constants in MHz :  6551.521212  2895.319292  2196.273436

                             ****ORCA TERMINATED NORMALLY****
TOTAL RUN TIME: 0 days 0 hours 29 minutes 52 seconds 668 msec
