                         Program Version 5.0.4 -  RELEASE  -
|  1> ! ri-mp2 aug-cc-pvdz aug-cc-pvdz/c tightscf
|  2> %pal nprocs 16 end
|  3> %maxcore 3800
|  4> %base "DZ_S-Cl_9_A"
|  5> %scf
|  6> STABPerform true
|  7> STABRestartUHFifUnstable true
|  8> end
|  9>
| 10> *xyz 0 2
| 11> S        -1.539741    0.000154   -1.454952
| 12> Si         0.002952    0.000004   -0.030916
| 13> Cl         1.194039    1.635954   -0.186045
| 14> Cl        -0.941371   -0.000210    1.767279
| 15> Cl         1.194070   -1.635891   -0.186408
| 16> *
| 17>
| 18> $new_job
| 19> ! ri-mp2 aug-cc-pvtz aug-cc-pvtz/c tightscf
| 20> %pal nprocs 16 end
| 21> %maxcore 3800
| 22> %base "TZ_S-Cl_9_A"
| 23>
| 24> *xyz 0 2
| 25> S        -1.539741    0.000154   -1.454952
| 26> Si         0.002952    0.000004   -0.030916
| 27> Cl         1.194039    1.635954   -0.186045
| 28> Cl        -0.941371   -0.000210    1.767279
| 29> Cl         1.194070   -1.635891   -0.186408
| 30> *
| 31>
| 32> $new_job
| 33> ! ri-mp2 aug-cc-pvqz aug-cc-pvqz/c tightscf
| 34> %pal nprocs 16 end
| 35> %maxcore 3800
| 36> %base "QZ_S-Cl_9_A"
| 37>
| 38> *xyz 0 2
| 39> S        -1.539741    0.000154   -1.454952
| 40> Si         0.002952    0.000004   -0.030916
| 41> Cl         1.194039    1.635954   -0.186045
| 42> Cl        -0.941371   -0.000210    1.767279
| 43> Cl         1.194070   -1.635891   -0.186408
| 44> *
| 45>
| 46>
| 47>
| 48>
| 49>                          ****END OF INPUT****
 Total Charge           Charge          ....    0
 Multiplicity           Mult            ....    2
 Number of Electrons    NEL             ....   81
MP2 TOTAL ENERGY:    -2065.785438505 Eh
FINAL SINGLE POINT ENERGY     -2065.785438505116
MP2 TOTAL ENERGY:    -2066.057145659 Eh
FINAL SINGLE POINT ENERGY     -2066.057145658594

CARTESIAN COORDINATES (ANGSTROEM)
---------------------------------
  S     -1.539741    0.000154   -1.454952
  Si     0.002952    0.000004   -0.030916
  Cl     1.194039    1.635954   -0.186045
  Cl    -0.941371   -0.000210    1.767279
  Cl     1.194070   -1.635891   -0.186408

 Multiplicity           Mult            ....    2
 Number of Electrons    NEL             ....   81
 Basis Dimension        Dim             ....  420

ORBITAL ENERGIES
----------------
                 SPIN UP ORBITALS
  NO   OCC          E(Eh)            E(eV)
   0   1.0000    -104.858911     -2853.3560
   1   1.0000    -104.855975     -2853.2761
   2   1.0000    -104.855975     -2853.2761
   3   1.0000     -92.003188     -2503.5340
   4   1.0000     -68.926744     -1875.5920
   5   1.0000     -10.586451      -288.0720
   6   1.0000     -10.583558      -287.9933
   7   1.0000     -10.583551      -287.9931
   8   1.0000      -9.006629      -245.0828
   9   1.0000      -8.053451      -219.1455
  10   1.0000      -8.052215      -219.1119
  11   1.0000      -8.051857      -219.1022
  12   1.0000      -8.050307      -219.0600
  13   1.0000      -8.050306      -219.0600
  14   1.0000      -8.049162      -219.0288
  15   1.0000      -8.049162      -219.0288
  16   1.0000      -8.049031      -219.0253
  17   1.0000      -8.049030      -219.0252
  18   1.0000      -6.702163      -182.3751
  19   1.0000      -6.683773      -181.8747
  20   1.0000      -6.682687      -181.8451
  21   1.0000      -6.259651      -170.3338
  22   1.0000      -4.367406      -118.8432
  23   1.0000      -4.367063      -118.8338
  24   1.0000      -4.366460      -118.8174
  25   1.0000      -1.161699       -31.6114
  26   1.0000      -1.117778       -30.4163
  27   1.0000      -1.113827       -30.3088
  28   1.0000      -1.005383       -27.3579
  29   1.0000      -0.705097       -19.1867
  30   1.0000      -0.595638       -16.2081
  31   1.0000      -0.587929       -15.9984
  32   1.0000      -0.564439       -15.3592
  33   1.0000      -0.523372       -14.2417
  34   1.0000      -0.513432       -13.9712
  35   1.0000      -0.500424       -13.6172
  36   1.0000      -0.489550       -13.3213
  37   1.0000      -0.475439       -12.9373
  38   1.0000      -0.471215       -12.8224
  39   1.0000      -0.469137       -12.7659
  40   1.0000      -0.422310       -11.4916
  41   0.0000       0.033014         0.8984
  42   0.0000       0.041190         1.1208
  43   0.0000       0.042647         1.1605
  44   0.0000       0.044081         1.1995
  45   0.0000       0.073187         1.9915

                 SPIN DOWN ORBITALS
  NO   OCC          E(Eh)            E(eV)
   0   1.0000    -104.858501     -2853.3449
   1   1.0000    -104.855941     -2853.2752
   2   1.0000    -104.855941     -2853.2752
   3   1.0000     -91.994364     -2503.2939
   4   1.0000     -68.927012     -1875.5994
   5   1.0000     -10.586008      -288.0599
   6   1.0000     -10.583524      -287.9923
   7   1.0000     -10.583517      -287.9921
   8   1.0000      -8.996952      -244.8195
   9   1.0000      -8.052699      -219.1251
  10   1.0000      -8.051612      -219.0955
  11   1.0000      -8.051128      -219.0823
  12   1.0000      -8.050296      -219.0597
  13   1.0000      -8.050294      -219.0596
  14   1.0000      -8.049051      -219.0258
  15   1.0000      -8.049051      -219.0258
  16   1.0000      -8.048975      -219.0237
  17   1.0000      -8.048974      -219.0237
  18   1.0000      -6.678972      -181.7441
  19   1.0000      -6.677551      -181.7054
  20   1.0000      -6.662010      -181.2825
  21   1.0000      -6.260073      -170.3452
  22   1.0000      -4.367659      -118.8500
  23   1.0000      -4.367290      -118.8400
  24   1.0000      -4.367155      -118.8363
  25   1.0000      -1.159466       -31.5507
  26   1.0000      -1.115569       -30.3562
  27   1.0000      -1.113577       -30.3020
  28   1.0000      -0.914305       -24.8795
  29   1.0000      -0.697003       -18.9664
  30   1.0000      -0.587528       -15.9874
  31   1.0000      -0.586799       -15.9676
  32   1.0000      -0.556331       -15.1385
  33   1.0000      -0.513236       -13.9659
  34   1.0000      -0.512317       -13.9409
  35   1.0000      -0.488392       -13.2898
  36   1.0000      -0.487603       -13.2683
  37   1.0000      -0.470773       -12.8104
  38   1.0000      -0.464736       -12.6461
  39   1.0000      -0.403768       -10.9871
  40   0.0000      -0.031765        -0.8644
  41   0.0000       0.033882         0.9220
  42   0.0000       0.041334         1.1248
  43   0.0000       0.044149         1.2014
  44   0.0000       0.044755         1.2179

MULLIKEN ATOMIC CHARGES AND SPIN POPULATIONS
--------------------------------------------
   0 S :   -0.358846    1.064082
   1 Si:    1.971978   -0.084375
   2 Cl:   -0.537159    0.001492
   3 Cl:   -0.538813    0.017309
   4 Cl:   -0.537159    0.001492
Sum of atomic charges         :    0.0000000

LOEWDIN ATOMIC CHARGES AND SPIN POPULATIONS
-------------------------------------------
   0 S :    0.673292    0.749650
   1 Si:   -3.116985    0.211426
   2 Cl:    0.812514    0.004564
   3 Cl:    0.818668    0.029797
   4 Cl:    0.812512    0.004563

  Mayer bond orders larger than 0.100000
B(  0-S ,  1-Si) :   0.8369 B(  1-Si,  2-Cl) :   0.6608 B(  1-Si,  3-Cl) :   0.6504
B(  1-Si,  4-Cl) :   0.6608

MP2 TOTAL ENERGY:    -2066.149234405 Eh
FINAL SINGLE POINT ENERGY     -2066.149234405110

DIPOLE MOMENT
-------------
                                X             Y             Z
Electronic contribution:      1.74544      -0.00017       1.63916
Nuclear contribution   :     -1.84777       0.00019      -1.78043
                        -----------------------------------------
Total Dipole Moment    :     -0.10233       0.00002      -0.14127
                        -----------------------------------------
Magnitude (a.u.)       :      0.17444
Magnitude (Debye)      :      0.44339

Rotational constants in cm-1:     0.045499     0.043274     0.042295
Rotational constants in MHz :  1364.018799  1297.317870  1267.972958

                             ****ORCA TERMINATED NORMALLY****
TOTAL RUN TIME: 0 days 0 hours 18 minutes 47 seconds 298 msec
