                         Program Version 5.0.4 -  RELEASE  -
|  1> ! ri-mp2 aug-cc-pvdz aug-cc-pvdz/c tightscf
|  2> %pal nprocs 16 end
|  3> %maxcore 3800
|  4> %base "DZ_P-N_64_AB"
|  5>
|  6> *xyz 0 1
|  7> C         2.069888   -1.148910    0.268254
|  8> C         0.750759   -1.346648   -0.086088
|  9> C         2.652036    0.110022    0.132954
| 10> C         1.871172    1.158063   -0.362743
| 11> C         0.554283    0.951050   -0.703349
| 12> C        -0.039313   -0.306946   -0.574161
| 13> H        -0.034013    1.781404   -1.068078
| 14> H         2.662167   -1.975414    0.641026
| 15> H         0.321061   -2.336130    0.014388
| 16> N        -2.660424    0.135644    0.324376
| 17> O        -2.369666   -0.490616    1.542758
| 18> O        -2.288679    1.494442    0.445008
| 19> N         3.981618    0.309427    0.433986
| 20> H         4.424903   -0.367677    1.029766
| 21> H         4.280300    1.256025    0.590965
| 22> H         2.312484    2.140471   -0.478910
| 23> H        -1.415452   -0.371420    1.694061
| 24> H        -3.094747    1.920138    0.761018
| 25> P        -1.772626   -0.670881   -0.970042
| 26> H        -2.001877    0.369925   -1.893457
| 27> *
| 28>
| 29> $new_job
| 30> ! ri-mp2 aug-cc-pvtz aug-cc-pvtz/c tightscf
| 31> %pal nprocs 16 end
| 32> %maxcore 3800
| 33> %base "TZ_P-N_64_AB"
| 34>
| 35> *xyz 0 1
| 36> C         2.069888   -1.148910    0.268254
| 37> C         0.750759   -1.346648   -0.086088
| 38> C         2.652036    0.110022    0.132954
| 39> C         1.871172    1.158063   -0.362743
| 40> C         0.554283    0.951050   -0.703349
| 41> C        -0.039313   -0.306946   -0.574161
| 42> H        -0.034013    1.781404   -1.068078
| 43> H         2.662167   -1.975414    0.641026
| 44> H         0.321061   -2.336130    0.014388
| 45> N        -2.660424    0.135644    0.324376
| 46> O        -2.369666   -0.490616    1.542758
| 47> O        -2.288679    1.494442    0.445008
| 48> N         3.981618    0.309427    0.433986
| 49> H         4.424903   -0.367677    1.029766
| 50> H         4.280300    1.256025    0.590965
| 51> H         2.312484    2.140471   -0.478910
| 52> H        -1.415452   -0.371420    1.694061
| 53> H        -3.094747    1.920138    0.761018
| 54> P        -1.772626   -0.670881   -0.970042
| 55> H        -2.001877    0.369925   -1.893457
| 56> *
| 57>
| 58> $new_job
| 59> ! ri-mp2 aug-cc-pvqz aug-cc-pvqz/c tightscf
| 60> %pal nprocs 16 end
| 61> %maxcore 3800
| 62> %base "QZ_P-N_64_AB"
| 63>
| 64> *xyz 0 1
| 65> C         2.069888   -1.148910    0.268254
| 66> C         0.750759   -1.346648   -0.086088
| 67> C         2.652036    0.110022    0.132954
| 68> C         1.871172    1.158063   -0.362743
| 69> C         0.554283    0.951050   -0.703349
| 70> C        -0.039313   -0.306946   -0.574161
| 71> H        -0.034013    1.781404   -1.068078
| 72> H         2.662167   -1.975414    0.641026
| 73> H         0.321061   -2.336130    0.014388
| 74> N        -2.660424    0.135644    0.324376
| 75> O        -2.369666   -0.490616    1.542758
| 76> O        -2.288679    1.494442    0.445008
| 77> N         3.981618    0.309427    0.433986
| 78> H         4.424903   -0.367677    1.029766
| 79> H         4.280300    1.256025    0.590965
| 80> H         2.312484    2.140471   -0.478910
| 81> H        -1.415452   -0.371420    1.694061
| 82> H        -3.094747    1.920138    0.761018
| 83> P        -1.772626   -0.670881   -0.970042
| 84> H        -2.001877    0.369925   -1.893457
| 85> *
| 86>
| 87>
| 88>
| 89>
| 90>                          ****END OF INPUT****
 Total Charge           Charge          ....    0
 Multiplicity           Mult            ....    1
 Number of Electrons    NEL             ....   90
MP2 TOTAL ENERGY:     -833.458458090 Eh
FINAL SINGLE POINT ENERGY      -833.458458090196
MP2 TOTAL ENERGY:     -833.926734164 Eh
FINAL SINGLE POINT ENERGY      -833.926734164367

CARTESIAN COORDINATES (ANGSTROEM)
---------------------------------
  C      2.069888   -1.148910    0.268254
  C      0.750759   -1.346648   -0.086088
  C      2.652036    0.110022    0.132954
  C      1.871172    1.158063   -0.362743
  C      0.554283    0.951050   -0.703349
  C     -0.039313   -0.306946   -0.574161
  H     -0.034013    1.781404   -1.068078
  H      2.662167   -1.975414    0.641026
  H      0.321061   -2.336130    0.014388
  N     -2.660424    0.135644    0.324376
  O     -2.369666   -0.490616    1.542758
  O     -2.288679    1.494442    0.445008
  N      3.981618    0.309427    0.433986
  H      4.424903   -0.367677    1.029766
  H      4.280300    1.256025    0.590965
  H      2.312484    2.140471   -0.478910
  H     -1.415452   -0.371420    1.694061
  H     -3.094747    1.920138    0.761018
  P     -1.772626   -0.670881   -0.970042
  H     -2.001877    0.369925   -1.893457

 Multiplicity           Mult            ....    1
 Number of Electrons    NEL             ....   90
 Basis Dimension        Dim             .... 1298

ORBITAL ENERGIES
----------------

  NO   OCC          E(Eh)            E(eV)
   0   2.0000     -79.957186     -2175.7456
   1   2.0000     -20.594745      -560.4115
   2   2.0000     -20.591783      -560.3309
   3   2.0000     -15.656891      -426.0457
   4   2.0000     -15.578316      -423.9075
   5   2.0000     -11.295062      -307.3543
   6   2.0000     -11.249298      -306.1090
   7   2.0000     -11.247494      -306.0599
   8   2.0000     -11.230282      -305.5915
   9   2.0000     -11.229474      -305.5695
  10   2.0000     -11.225760      -305.4685
  11   2.0000      -7.496996      -204.0036
  12   2.0000      -5.390845      -146.6924
  13   2.0000      -5.390579      -146.6851
  14   2.0000      -5.389478      -146.6552
  15   2.0000      -1.464807       -39.8594
  16   2.0000      -1.343613       -36.5616
  17   2.0000      -1.245395       -33.8889
  18   2.0000      -1.145950       -31.1829
  19   2.0000      -1.039156       -28.2769
  20   2.0000      -1.028571       -27.9888
  21   2.0000      -0.998790       -27.1785
  22   2.0000      -0.852575       -23.1997
  23   2.0000      -0.848621       -23.0921
  24   2.0000      -0.791053       -21.5257
  25   2.0000      -0.740624       -20.1534
  26   2.0000      -0.718638       -19.5551
  27   2.0000      -0.708570       -19.2812
  28   2.0000      -0.662913       -18.0388
  29   2.0000      -0.649258       -17.6672
  30   2.0000      -0.633357       -17.2345
  31   2.0000      -0.618441       -16.8286
  32   2.0000      -0.611998       -16.6533
  33   2.0000      -0.595236       -16.1972
  34   2.0000      -0.589170       -16.0321
  35   2.0000      -0.549943       -14.9647
  36   2.0000      -0.505023       -13.7424
  37   2.0000      -0.499347       -13.5879
  38   2.0000      -0.495707       -13.4889
  39   2.0000      -0.481443       -13.1007
  40   2.0000      -0.461203       -12.5500
  41   2.0000      -0.405642       -11.0381
  42   2.0000      -0.365276        -9.9397
  43   2.0000      -0.352290        -9.5863
  44   2.0000      -0.308424        -8.3926
  45   0.0000       0.017083         0.4649
  46   0.0000       0.026404         0.7185
  47   0.0000       0.031059         0.8452
  48   0.0000       0.039622         1.0782
  49   0.0000       0.042770         1.1638

MULLIKEN ATOMIC CHARGES
-----------------------
   0 C :   -0.349037
   1 C :   -0.104180
   2 C :    0.634253
   3 C :   -0.366661
   4 C :   -0.352900
   5 C :   -0.164253
   6 H :    0.315139
   7 H :    0.213299
   8 H :    0.292636
   9 N :   -0.091997
  10 O :   -0.604323
  11 O :   -0.578864
  12 N :   -0.860738
  13 H :    0.279648
  14 H :    0.284514
  15 H :    0.210068
  16 H :    0.360941
  17 H :    0.340622
  18 P :    0.673509
  19 H :   -0.131675
Sum of atomic charges:   -0.0000000

LOEWDIN ATOMIC CHARGES
----------------------
   0 C :    0.344313
   1 C :    0.225772
   2 C :   -0.243874
   3 C :    0.350972
   4 C :    0.249525
   5 C :   -0.306605
   6 H :   -0.345020
   7 H :   -0.321753
   8 H :   -0.341640
   9 N :   -0.413752
  10 O :    0.984809
  11 O :    1.003589
  12 N :    1.278362
  13 H :   -0.498344
  14 H :   -0.498848
  15 H :   -0.320134
  16 H :   -0.893896
  17 H :   -0.845174
  18 P :    1.033034
  19 H :   -0.441337

  Mayer bond orders larger than 0.100000
B(  0-C ,  1-C ) :   1.3232 B(  0-C ,  2-C ) :   1.1491 B(  0-C ,  4-C ) :   0.1198
B(  0-C ,  5-C ) :  -0.2179 B(  0-C ,  7-H ) :   1.0432 B(  0-C ,  8-H ) :  -0.1448
B(  1-C ,  2-C ) :  -0.1082 B(  1-C ,  3-C ) :   0.1045 B(  1-C ,  5-C ) :   0.8362
B(  1-C ,  7-H ) :  -0.1161 B(  1-C ,  8-H ) :   1.0307 B(  1-C , 18-P ) :  -0.3457
B(  2-C ,  3-C ) :   1.1417 B(  2-C ,  4-C ) :  -0.1333 B(  2-C ,  7-H ) :  -0.1158
B(  2-C , 12-N ) :   0.6686 B(  2-C , 15-H ) :  -0.1101 B(  3-C ,  4-C ) :   1.2960
B(  3-C ,  5-C ) :  -0.1956 B(  3-C ,  6-H ) :  -0.1401 B(  3-C , 15-H ) :   1.0476
B(  4-C ,  5-C ) :   0.9828 B(  4-C ,  6-H ) :   0.9813 B(  4-C , 15-H ) :  -0.1376
B(  5-C ,  6-H ) :  -0.1029 B(  5-C ,  8-H ) :  -0.1444 B(  5-C , 18-P ) :   0.9220
B(  5-C , 19-H ) :  -0.1760 B(  9-N , 10-O ) :   0.6593 B(  9-N , 11-O ) :   0.7014
B(  9-N , 18-P ) :   0.5705 B( 10-O , 16-H ) :   0.8110 B( 11-O , 17-H ) :   0.9086
B( 12-N , 13-H ) :   0.9382 B( 12-N , 14-H ) :   0.9347 B( 18-P , 19-H ) :   0.9680

MP2 TOTAL ENERGY:     -834.078772506 Eh
FINAL SINGLE POINT ENERGY      -834.078772505747

DIPOLE MOMENT
-------------
                                X             Y             Z
Electronic contribution:     -7.41516      -2.28204      -1.86430
Nuclear contribution   :      8.91400       3.01936       2.20991
                        -----------------------------------------
Total Dipole Moment    :      1.49884       0.73732       0.34561
                        -----------------------------------------
Magnitude (a.u.)       :      1.70576
Magnitude (Debye)      :      4.33570

Rotational constants in cm-1:     0.069864     0.017862     0.017009
Rotational constants in MHz :  2094.477353   535.483670   509.929853

                             ****ORCA TERMINATED NORMALLY****
TOTAL RUN TIME: 0 days 0 hours 52 minutes 35 seconds 711 msec
