                         Program Version 5.0.4 -  RELEASE  -
|  1> ! ri-mp2 aug-cc-pvdz aug-cc-pvdz/c tightscf
|  2> %pal nprocs 16 end
|  3> %maxcore 3800
|  4> %base "DZ_S-Cl_22_AB"
|  5>
|  6> *xyz 0 1
|  7> Cl         2.076304    0.260916    0.000000
|  8> S         0.484797   -1.010651   -0.000001
|  9> C        -0.947453    0.131968    0.000000
| 10> C        -2.130272   -0.835984   -0.000004
| 11> H        -2.128934   -1.471011   -0.886339
| 12> H        -3.056860   -0.260513   -0.000004
| 13> H        -2.128936   -1.471016    0.886327
| 14> C        -0.956826    0.990733    1.255261
| 15> H        -1.843168    1.628503    1.256602
| 16> H        -0.079554    1.634542    1.297450
| 17> H        -0.972760    0.373260    2.152425
| 18> C        -0.956823    0.990739   -1.255256
| 19> H        -0.972755    0.373271   -2.152424
| 20> H        -0.079550    1.634549   -1.297440
| 21> H        -1.843165    1.628510   -1.256596
| 22> *
| 23>
| 24> $new_job
| 25> ! ri-mp2 aug-cc-pvtz aug-cc-pvtz/c tightscf
| 26> %pal nprocs 16 end
| 27> %maxcore 3800
| 28> %base "TZ_S-Cl_22_AB"
| 29>
| 30> *xyz 0 1
| 31> Cl         2.076304    0.260916    0.000000
| 32> S         0.484797   -1.010651   -0.000001
| 33> C        -0.947453    0.131968    0.000000
| 34> C        -2.130272   -0.835984   -0.000004
| 35> H        -2.128934   -1.471011   -0.886339
| 36> H        -3.056860   -0.260513   -0.000004
| 37> H        -2.128936   -1.471016    0.886327
| 38> C        -0.956826    0.990733    1.255261
| 39> H        -1.843168    1.628503    1.256602
| 40> H        -0.079554    1.634542    1.297450
| 41> H        -0.972760    0.373260    2.152425
| 42> C        -0.956823    0.990739   -1.255256
| 43> H        -0.972755    0.373271   -2.152424
| 44> H        -0.079550    1.634549   -1.297440
| 45> H        -1.843165    1.628510   -1.256596
| 46> *
| 47>
| 48> $new_job
| 49> ! ri-mp2 aug-cc-pvqz aug-cc-pvqz/c tightscf
| 50> %pal nprocs 16 end
| 51> %maxcore 3800
| 52> %base "QZ_S-Cl_22_AB"
| 53>
| 54> *xyz 0 1
| 55> Cl         2.076304    0.260916    0.000000
| 56> S         0.484797   -1.010651   -0.000001
| 57> C        -0.947453    0.131968    0.000000
| 58> C        -2.130272   -0.835984   -0.000004
| 59> H        -2.128934   -1.471011   -0.886339
| 60> H        -3.056860   -0.260513   -0.000004
| 61> H        -2.128936   -1.471016    0.886327
| 62> C        -0.956826    0.990733    1.255261
| 63> H        -1.843168    1.628503    1.256602
| 64> H        -0.079554    1.634542    1.297450
| 65> H        -0.972760    0.373260    2.152425
| 66> C        -0.956823    0.990739   -1.255256
| 67> H        -0.972755    0.373271   -2.152424
| 68> H        -0.079550    1.634549   -1.297440
| 69> H        -1.843165    1.628510   -1.256596
| 70> *
| 71>
| 72>
| 73>
| 74>
| 75>                          ****END OF INPUT****
 Total Charge           Charge          ....    0
 Multiplicity           Mult            ....    1
 Number of Electrons    NEL             ....   66
MP2 TOTAL ENERGY:    -1014.662898219 Eh
FINAL SINGLE POINT ENERGY     -1014.662898219075
MP2 TOTAL ENERGY:    -1014.931212122 Eh
FINAL SINGLE POINT ENERGY     -1014.931212122197

CARTESIAN COORDINATES (ANGSTROEM)
---------------------------------
  Cl     2.076304    0.260916    0.000000
  S      0.484797   -1.010651   -0.000001
  C     -0.947453    0.131968    0.000000
  C     -2.130272   -0.835984   -0.000004
  H     -2.128934   -1.471011   -0.886339
  H     -3.056860   -0.260513   -0.000004
  H     -2.128936   -1.471016    0.886327
  C     -0.956826    0.990733    1.255261
  H     -1.843168    1.628503    1.256602
  H     -0.079554    1.634542    1.297450
  H     -0.972760    0.373260    2.152425
  C     -0.956823    0.990739   -1.255256
  H     -0.972755    0.373271   -2.152424
  H     -0.079550    1.634549   -1.297440
  H     -1.843165    1.628510   -1.256596

 Multiplicity           Mult            ....    1
 Number of Electrons    NEL             ....   66
 Basis Dimension        Dim             ....  902

ORBITAL ENERGIES
----------------

  NO   OCC          E(Eh)            E(eV)
   0   2.0000    -104.843132     -2852.9267
   1   2.0000     -91.994109     -2503.2870
   2   2.0000     -11.283281      -307.0337
   3   2.0000     -11.234626      -305.7097
   4   2.0000     -11.224306      -305.4289
   5   2.0000     -11.224291      -305.4285
   6   2.0000     -10.567658      -287.5606
   7   2.0000      -8.992988      -244.7116
   8   2.0000      -8.034670      -218.6345
   9   2.0000      -8.032850      -218.5850
  10   2.0000      -8.032655      -218.5796
  11   2.0000      -6.674305      -181.6171
  12   2.0000      -6.672420      -181.5658
  13   2.0000      -6.671430      -181.5388
  14   2.0000      -1.155752       -31.4496
  15   2.0000      -1.099449       -29.9175
  16   2.0000      -0.956647       -26.0317
  17   2.0000      -0.950584       -25.8667
  18   2.0000      -0.907473       -24.6936
  19   2.0000      -0.743171       -20.2227
  20   2.0000      -0.638350       -17.3704
  21   2.0000      -0.624492       -16.9933
  22   2.0000      -0.621512       -16.9122
  23   2.0000      -0.567834       -15.4516
  24   2.0000      -0.562030       -15.2936
  25   2.0000      -0.532111       -14.4795
  26   2.0000      -0.518700       -14.1145
  27   2.0000      -0.502783       -13.6814
  28   2.0000      -0.495013       -13.4700
  29   2.0000      -0.486645       -13.2423
  30   2.0000      -0.484015       -13.1707
  31   2.0000      -0.419510       -11.4155
  32   2.0000      -0.350721        -9.5436
  33   0.0000       0.024062         0.6548
  34   0.0000       0.031668         0.8617
  35   0.0000       0.032842         0.8937
  36   0.0000       0.040732         1.1084
  37   0.0000       0.052136         1.4187

MULLIKEN ATOMIC CHARGES
-----------------------
   0 Cl:   -0.446733
   1 S :    0.069614
   2 C :    1.094645
   3 C :   -1.052814
   4 H :    0.280574
   5 H :    0.268279
   6 H :    0.280574
   7 C :   -1.059790
   8 H :    0.252967
   9 H :    0.270524
  10 H :    0.289231
  11 C :   -1.059789
  12 H :    0.289231
  13 H :    0.270523
  14 H :    0.252967
Sum of atomic charges:    0.0000000

LOEWDIN ATOMIC CHARGES
----------------------
   0 Cl:    0.549742
   1 S :    0.532109
   2 C :   -0.784184
   3 C :    0.777427
   4 H :   -0.293694
   5 H :   -0.273587
   6 H :   -0.293694
   7 C :    0.793207
   8 H :   -0.276333
   9 H :   -0.329961
  10 H :   -0.293972
  11 C :    0.793206
  12 H :   -0.293972
  13 H :   -0.329961
  14 H :   -0.276333

  Mayer bond orders larger than 0.100000
B(  0-Cl,  1-S ) :   0.9988 B(  0-Cl,  2-C ) :  -0.2871 B(  1-S ,  2-C ) :   0.5759
B(  1-S ,  3-C ) :   0.1353 B(  2-C ,  3-C ) :   0.5419 B(  2-C ,  7-C ) :   0.6578
B(  2-C , 11-C ) :   0.6578 B(  3-C ,  4-H ) :   0.9914 B(  3-C ,  5-H ) :   0.9511
B(  3-C ,  6-H ) :   0.9914 B(  7-C ,  8-H ) :   0.9535 B(  7-C ,  9-H ) :   0.9957
B(  7-C , 10-H ) :   0.9811 B( 11-C , 12-H ) :   0.9811 B( 11-C , 13-H ) :   0.9957
B( 11-C , 14-H ) :   0.9535

MP2 TOTAL ENERGY:    -1015.014905450 Eh
FINAL SINGLE POINT ENERGY     -1015.014905449651

DIPOLE MOMENT
-------------
                                X             Y             Z
Electronic contribution:     14.98370      -3.43790      -0.00000
Nuclear contribution   :    -16.00381       3.70777       0.00000
                        -----------------------------------------
Total Dipole Moment    :     -1.02011       0.26988       0.00000
                        -----------------------------------------
Magnitude (a.u.)       :      1.05520
Magnitude (Debye)      :      2.68211

Rotational constants in cm-1:     0.122138     0.051350     0.047405
Rotational constants in MHz :  3661.608990  1539.441546  1421.180013

                             ****ORCA TERMINATED NORMALLY****
TOTAL RUN TIME: 0 days 0 hours 18 minutes 22 seconds 493 msec
