                         Program Version 5.0.4 -  RELEASE  -
|  1> ! ri-mp2 aug-cc-pvdz aug-cc-pvdz/c tightscf
|  2> %pal nprocs 16 end
|  3> %maxcore 3800
|  4> %base "DZ_B-Cl_67_AB"
|  5>
|  6> *xyz 0 1
|  7> Cl        -3.416456    0.780818   -0.000016
|  8> Cl        -2.199526   -1.952830   -0.000015
|  9> B        -1.980675   -0.219523    0.000026
| 10> C        -0.567654    0.410626    0.000018
| 11> C         0.569763   -0.396533    0.000015
| 12> C         1.816695    0.187056    0.000009
| 13> C         1.991881    1.557494    0.000005
| 14> C        -0.391456    1.797068    0.000014
| 15> H        -1.261334    2.439090    0.000017
| 16> C         0.869798    2.364606    0.000008
| 17> H         0.981740    3.439763    0.000005
| 18> H         2.990587    1.966814   -0.000000
| 19> N         3.007657   -0.679042    0.000007
| 20> O         2.830795   -1.877001    0.000004
| 21> O         4.092158   -0.137945   -0.000016
| 22> H         0.492711   -1.472893    0.000018
| 23> *
| 24>
| 25> $new_job
| 26> ! ri-mp2 aug-cc-pvtz aug-cc-pvtz/c tightscf
| 27> %pal nprocs 16 end
| 28> %maxcore 3800
| 29> %base "TZ_B-Cl_67_AB"
| 30>
| 31> *xyz 0 1
| 32> Cl        -3.416456    0.780818   -0.000016
| 33> Cl        -2.199526   -1.952830   -0.000015
| 34> B        -1.980675   -0.219523    0.000026
| 35> C        -0.567654    0.410626    0.000018
| 36> C         0.569763   -0.396533    0.000015
| 37> C         1.816695    0.187056    0.000009
| 38> C         1.991881    1.557494    0.000005
| 39> C        -0.391456    1.797068    0.000014
| 40> H        -1.261334    2.439090    0.000017
| 41> C         0.869798    2.364606    0.000008
| 42> H         0.981740    3.439763    0.000005
| 43> H         2.990587    1.966814   -0.000000
| 44> N         3.007657   -0.679042    0.000007
| 45> O         2.830795   -1.877001    0.000004
| 46> O         4.092158   -0.137945   -0.000016
| 47> H         0.492711   -1.472893    0.000018
| 48> *
| 49>
| 50> $new_job
| 51> ! ri-mp2 aug-cc-pvqz aug-cc-pvqz/c tightscf
| 52> %pal nprocs 16 end
| 53> %maxcore 3800
| 54> %base "QZ_B-Cl_67_AB"
| 55>
| 56> *xyz 0 1
| 57> Cl        -3.416456    0.780818   -0.000016
| 58> Cl        -2.199526   -1.952830   -0.000015
| 59> B        -1.980675   -0.219523    0.000026
| 60> C        -0.567654    0.410626    0.000018
| 61> C         0.569763   -0.396533    0.000015
| 62> C         1.816695    0.187056    0.000009
| 63> C         1.991881    1.557494    0.000005
| 64> C        -0.391456    1.797068    0.000014
| 65> H        -1.261334    2.439090    0.000017
| 66> C         0.869798    2.364606    0.000008
| 67> H         0.981740    3.439763    0.000005
| 68> H         2.990587    1.966814   -0.000000
| 69> N         3.007657   -0.679042    0.000007
| 70> O         2.830795   -1.877001    0.000004
| 71> O         4.092158   -0.137945   -0.000016
| 72> H         0.492711   -1.472893    0.000018
| 73> *
| 74>
| 75>
| 76>
| 77>
| 78>                          ****END OF INPUT****
 Total Charge           Charge          ....    0
 Multiplicity           Mult            ....    1
 Number of Electrons    NEL             ....  102
MP2 TOTAL ENERGY:    -1379.198107668 Eh
FINAL SINGLE POINT ENERGY     -1379.198107667817
MP2 TOTAL ENERGY:    -1379.698590933 Eh
FINAL SINGLE POINT ENERGY     -1379.698590932570

CARTESIAN COORDINATES (ANGSTROEM)
---------------------------------
  Cl    -3.416456    0.780818   -0.000016
  Cl    -2.199526   -1.952830   -0.000015
  B     -1.980675   -0.219523    0.000026
  C     -0.567654    0.410626    0.000018
  C      0.569763   -0.396533    0.000015
  C      1.816695    0.187056    0.000009
  C      1.991881    1.557494    0.000005
  C     -0.391456    1.797068    0.000014
  H     -1.261334    2.439090    0.000017
  C      0.869798    2.364606    0.000008
  H      0.981740    3.439763    0.000005
  H      2.990587    1.966814   -0.000000
  N      3.007657   -0.679042    0.000007
  O      2.830795   -1.877001    0.000004
  O      4.092158   -0.137945   -0.000016
  H      0.492711   -1.472893    0.000018

 Multiplicity           Mult            ....    1
 Number of Electrons    NEL             ....  102
 Basis Dimension        Dim             .... 1152

ORBITAL ENERGIES
----------------

  NO   OCC          E(Eh)            E(eV)
   0   2.0000    -104.852844     -2853.1909
   1   2.0000    -104.851561     -2853.1560
   2   2.0000     -20.606468      -560.7305
   3   2.0000     -20.606118      -560.7210
   4   2.0000     -15.859973      -431.5718
   5   2.0000     -11.316085      -307.9263
   6   2.0000     -11.290643      -307.2340
   7   2.0000     -11.288783      -307.1834
   8   2.0000     -11.285646      -307.0980
   9   2.0000     -11.270503      -306.6860
  10   2.0000     -11.260095      -306.4028
  11   2.0000     -10.580810      -287.9185
  12   2.0000     -10.579521      -287.8834
  13   2.0000      -8.047637      -218.9873
  14   2.0000      -8.046570      -218.9583
  15   2.0000      -8.046347      -218.9522
  16   2.0000      -8.046340      -218.9520
  17   2.0000      -8.045269      -218.9229
  18   2.0000      -8.045034      -218.9165
  19   2.0000      -7.723358      -210.1632
  20   2.0000      -1.625220       -44.2245
  21   2.0000      -1.415688       -38.5228
  22   2.0000      -1.217699       -33.1353
  23   2.0000      -1.159003       -31.5381
  24   2.0000      -1.113786       -30.3077
  25   2.0000      -1.103703       -30.0333
  26   2.0000      -1.066668       -29.0255
  27   2.0000      -0.971401       -26.4332
  28   2.0000      -0.883197       -24.0330
  29   2.0000      -0.843200       -22.9446
  30   2.0000      -0.798832       -21.7373
  31   2.0000      -0.740531       -20.1509
  32   2.0000      -0.735413       -20.0116
  33   2.0000      -0.722955       -19.6726
  34   2.0000      -0.700504       -19.0617
  35   2.0000      -0.677948       -18.4479
  36   2.0000      -0.648184       -17.6380
  37   2.0000      -0.624851       -17.0030
  38   2.0000      -0.578586       -15.7441
  39   2.0000      -0.561402       -15.2765
  40   2.0000      -0.561364       -15.2755
  41   2.0000      -0.543570       -14.7913
  42   2.0000      -0.525112       -14.2890
  43   2.0000      -0.504586       -13.7305
  44   2.0000      -0.503393       -13.6980
  45   2.0000      -0.479433       -13.0460
  46   2.0000      -0.479374       -13.0444
  47   2.0000      -0.464960       -12.6522
  48   2.0000      -0.464871       -12.6498
  49   2.0000      -0.392317       -10.6755
  50   2.0000      -0.384993       -10.4762
  51   0.0000       0.016109         0.4383
  52   0.0000       0.021562         0.5867
  53   0.0000       0.027998         0.7619
  54   0.0000       0.031741         0.8637
  55   0.0000       0.032872         0.8945

MULLIKEN ATOMIC CHARGES
-----------------------
   0 Cl:   -0.237554
   1 Cl:   -0.240455
   2 B :    0.862363
   3 C :   -0.191573
   4 C :   -0.361666
   5 C :   -0.117647
   6 C :   -0.211193
   7 C :   -0.205764
   8 H :    0.349751
   9 C :   -0.256839
  10 H :    0.186506
  11 H :    0.424523
  12 N :    0.769506
  13 O :   -0.604891
  14 O :   -0.610136
  15 H :    0.445071
Sum of atomic charges:    0.0000000

LOEWDIN ATOMIC CHARGES
----------------------
   0 Cl:    1.314866
   1 Cl:    1.323559
   2 B :   -2.309574
   3 C :   -0.138179
   4 C :    0.241296
   5 C :   -0.282729
   6 C :    0.333895
   7 C :    0.284576
   8 H :   -0.368730
   9 C :    0.386547
  10 H :   -0.312170
  11 H :   -0.341260
  12 N :   -0.841907
  13 O :    0.560510
  14 O :    0.555156
  15 H :   -0.405855

  Mayer bond orders larger than 0.100000
B(  0-Cl,  2-B ) :   0.9042 B(  0-Cl,  3-C ) :   0.3099 B(  0-Cl,  8-H ) :  -0.1274
B(  1-Cl,  2-B ) :   0.9017 B(  1-Cl,  3-C ) :   0.1498 B(  1-Cl,  4-C ) :   0.1242
B(  1-Cl, 15-H ) :  -0.1071 B(  2-B ,  3-C ) :   1.2445 B(  3-C ,  4-C ) :   1.2075
B(  3-C ,  5-C ) :  -0.5371 B(  3-C ,  6-C ) :  -0.1240 B(  3-C ,  7-C ) :   0.9546
B(  3-C ,  8-H ) :  -0.1151 B(  3-C ,  9-C ) :  -0.4158 B(  4-C ,  5-C ) :   1.4134
B(  4-C ,  9-C ) :   0.1360 B(  4-C , 12-N ) :  -0.1368 B(  4-C , 13-O ) :  -0.1460
B(  4-C , 15-H ) :   0.7945 B(  5-C ,  6-C ) :   1.1873 B(  5-C ,  9-C ) :  -0.2667
B(  5-C , 11-H ) :  -0.1263 B(  5-C , 12-N ) :   0.8240 B(  5-C , 13-O ) :   0.3639
B(  5-C , 14-O ) :   0.3070 B(  6-C ,  9-C ) :   1.2631 B(  6-C , 10-H ) :  -0.1316
B(  6-C , 11-H ) :   0.7802 B(  7-C ,  8-H ) :   1.0042 B(  7-C ,  9-C ) :   1.1698
B(  7-C , 10-H ) :  -0.1525 B(  9-C , 10-H ) :   1.2403 B(  9-C , 14-O ) :  -0.1054
B( 12-N , 13-O ) :   1.1490 B( 12-N , 14-O ) :   1.1419

MP2 TOTAL ENERGY:    -1379.865543944 Eh
FINAL SINGLE POINT ENERGY     -1379.865543944424

DIPOLE MOMENT
-------------
                                X             Y             Z
Electronic contribution:    -12.98190      -6.23797      -0.00002
Nuclear contribution   :     12.18172       7.69816       0.00006
                        -----------------------------------------
Total Dipole Moment    :     -0.80019       1.46019       0.00004
                        -----------------------------------------
Magnitude (a.u.)       :      1.66507
Magnitude (Debye)      :      4.23228

Rotational constants in cm-1:     0.043951     0.013299     0.010210
Rotational constants in MHz :  1317.612271   398.691766   306.076984

                             ****ORCA TERMINATED NORMALLY****
TOTAL RUN TIME: 0 days 0 hours 51 minutes 7 seconds 691 msec
