                         Program Version 5.0.4 -  RELEASE  -
|  1> ! ri-mp2 aug-cc-pvdz aug-cc-pvdz/c tightscf
|  2> %pal nprocs 16 end
|  3> %maxcore 3800
|  4> %base "DZ_B-B_43_AB"
|  5> %scf
|  6> STABPerform true
|  7> STABRestartUHFifUnstable true
|  8> end
|  9>
| 10> *xyz 0 1
| 11> B         2.439821   -0.589093   -0.000000
| 12> B         1.314633    0.630951   -0.000021
| 13> N        -0.076096    0.396187    0.000030
| 14> C        -1.199202    0.007561    0.000007
| 15> O        -2.309183   -0.341505   -0.000011
| 16> H         2.880284   -1.035865   -1.015062
| 17> H         2.880340   -1.035761    1.015084
| 18> H         1.668454    1.775692   -0.000074
| 19> *
| 20>
| 21> $new_job
| 22> ! ri-mp2 aug-cc-pvtz aug-cc-pvtz/c tightscf
| 23> %pal nprocs 16 end
| 24> %maxcore 3800
| 25> %base "TZ_B-B_43_AB"
| 26>
| 27> *xyz 0 1
| 28> B         2.439821   -0.589093   -0.000000
| 29> B         1.314633    0.630951   -0.000021
| 30> N        -0.076096    0.396187    0.000030
| 31> C        -1.199202    0.007561    0.000007
| 32> O        -2.309183   -0.341505   -0.000011
| 33> H         2.880284   -1.035865   -1.015062
| 34> H         2.880340   -1.035761    1.015084
| 35> H         1.668454    1.775692   -0.000074
| 36> *
| 37>
| 38> $new_job
| 39> ! ri-mp2 aug-cc-pvqz aug-cc-pvqz/c tightscf
| 40> %pal nprocs 16 end
| 41> %maxcore 3800
| 42> %base "QZ_B-B_43_AB"
| 43>
| 44> *xyz 0 1
| 45> B         2.439821   -0.589093   -0.000000
| 46> B         1.314633    0.630951   -0.000021
| 47> N        -0.076096    0.396187    0.000030
| 48> C        -1.199202    0.007561    0.000007
| 49> O        -2.309183   -0.341505   -0.000011
| 50> H         2.880284   -1.035865   -1.015062
| 51> H         2.880340   -1.035761    1.015084
| 52> H         1.668454    1.775692   -0.000074
| 53> *
| 54>
| 55>
| 56>
| 57>
| 58>                          ****END OF INPUT****
 Total Charge           Charge          ....    0
 Multiplicity           Mult            ....    1
 Number of Electrons    NEL             ....   34
MP2 TOTAL ENERGY:     -218.958705421 Eh
FINAL SINGLE POINT ENERGY      -218.958705420606
MP2 TOTAL ENERGY:     -219.145108882 Eh
FINAL SINGLE POINT ENERGY      -219.145108882468

CARTESIAN COORDINATES (ANGSTROEM)
---------------------------------
  B      2.439821   -0.589093   -0.000000
  B      1.314633    0.630951   -0.000021
  N     -0.076096    0.396187    0.000030
  C     -1.199202    0.007561    0.000007
  O     -2.309183   -0.341505   -0.000011
  H      2.880284   -1.035865   -1.015062
  H      2.880340   -1.035761    1.015084
  H      1.668454    1.775692   -0.000074

 Multiplicity           Mult            ....    1
 Number of Electrons    NEL             ....   34
 Basis Dimension        Dim             ....  538

ORBITAL ENERGIES
----------------

  NO   OCC          E(Eh)            E(eV)
   0   2.0000     -20.611700      -560.8729
   1   2.0000     -15.590575      -424.2411
   2   2.0000     -11.409933      -310.4801
   3   2.0000      -7.633643      -207.7220
   4   2.0000      -7.603506      -206.9019
   5   2.0000      -1.470865       -40.0243
   6   2.0000      -1.270563       -34.5738
   7   2.0000      -0.872417       -23.7397
   8   2.0000      -0.734138       -19.9769
   9   2.0000      -0.709678       -19.3113
  10   2.0000      -0.664866       -18.0919
  11   2.0000      -0.656009       -17.8509
  12   2.0000      -0.583000       -15.8642
  13   2.0000      -0.513164       -13.9639
  14   2.0000      -0.509823       -13.8730
  15   2.0000      -0.469595       -12.7783
  16   2.0000      -0.402535       -10.9535
  17   0.0000       0.024189         0.6582
  18   0.0000       0.026836         0.7303
  19   0.0000       0.028960         0.7880
  20   0.0000       0.030921         0.8414
  21   0.0000       0.046474         1.2646

MULLIKEN ATOMIC CHARGES
-----------------------
   0 B :    0.276668
   1 B :    0.587278
   2 N :   -0.733367
   3 C :    1.067624
   4 O :   -0.603849
   5 H :   -0.159722
   6 H :   -0.159723
   7 H :   -0.274909
Sum of atomic charges:   -0.0000000

LOEWDIN ATOMIC CHARGES
----------------------
   0 B :    0.482340
   1 B :   -0.244559
   2 N :    0.538973
   3 C :   -0.739695
   4 O :    0.601311
   5 H :   -0.215714
   6 H :   -0.215714
   7 H :   -0.206943

  Mayer bond orders larger than 0.100000
B(  0-B ,  1-B ) :   1.0283 B(  0-B ,  5-H ) :   0.9578 B(  0-B ,  6-H ) :   0.9578
B(  1-B ,  2-N ) :   1.0495 B(  1-B ,  7-H ) :   0.8832 B(  2-N ,  3-C ) :   2.2519
B(  2-N ,  4-O ) :   0.3282 B(  3-C ,  4-O ) :   1.6690

MP2 TOTAL ENERGY:     -219.205699723 Eh
FINAL SINGLE POINT ENERGY      -219.205699723323

DIPOLE MOMENT
-------------
                                X             Y             Z
Electronic contribution:     -3.43928       0.43927       0.00002
Nuclear contribution   :      4.18303      -0.31871      -0.00003
                        -----------------------------------------
Total Dipole Moment    :      0.74375       0.12056      -0.00001
                        -----------------------------------------
Magnitude (a.u.)       :      0.75346
Magnitude (Debye)      :      1.91513

Rotational constants in cm-1:     0.864346     0.081416     0.075797
Rotational constants in MHz : 25912.432069  2440.778461  2272.332809

                             ****ORCA TERMINATED NORMALLY****
TOTAL RUN TIME: 0 days 0 hours 17 minutes 6 seconds 230 msec
