                         Program Version 5.0.4 -  RELEASE  -
|  1> ! ri-mp2 aug-cc-pvdz aug-cc-pvdz/c tightscf
|  2> %pal nprocs 16 end
|  3> %maxcore 3800
|  4> %base "DZ_P-Cl_20_AB"
|  5> %scf
|  6> STABPerform true
|  7> STABRestartUHFifUnstable true
|  8> end
|  9>
| 10> *xyz 0 1
| 11> Cl        -1.483768    1.587851    0.226314
| 12> S         1.305103    0.000001   -0.111363
| 13> O         1.850011    1.248450   -0.565832
| 14> P        -0.777634    0.000000   -0.853051
| 15> C         1.285011   -0.000008    1.659586
| 16> H         2.335271   -0.000006    1.948754
| 17> H         0.792693    0.900031    2.015043
| 18> Cl        -1.483766   -1.587852    0.226312
| 19> O         1.850016   -1.248441   -0.565845
| 20> H         0.792699   -0.900054    2.015034
| 21> *
| 22>
| 23> $new_job
| 24> ! ri-mp2 aug-cc-pvtz aug-cc-pvtz/c tightscf
| 25> %pal nprocs 16 end
| 26> %maxcore 3800
| 27> %base "TZ_P-Cl_20_AB"
| 28>
| 29> *xyz 0 1
| 30> Cl        -1.483768    1.587851    0.226314
| 31> S         1.305103    0.000001   -0.111363
| 32> O         1.850011    1.248450   -0.565832
| 33> P        -0.777634    0.000000   -0.853051
| 34> C         1.285011   -0.000008    1.659586
| 35> H         2.335271   -0.000006    1.948754
| 36> H         0.792693    0.900031    2.015043
| 37> Cl        -1.483766   -1.587852    0.226312
| 38> O         1.850016   -1.248441   -0.565845
| 39> H         0.792699   -0.900054    2.015034
| 40> *
| 41>
| 42> $new_job
| 43> ! ri-mp2 aug-cc-pvqz aug-cc-pvqz/c tightscf
| 44> %pal nprocs 16 end
| 45> %maxcore 3800
| 46> %base "QZ_P-Cl_20_AB"
| 47>
| 48> *xyz 0 1
| 49> Cl        -1.483768    1.587851    0.226314
| 50> S         1.305103    0.000001   -0.111363
| 51> O         1.850011    1.248450   -0.565832
| 52> P        -0.777634    0.000000   -0.853051
| 53> C         1.285011   -0.000008    1.659586
| 54> H         2.335271   -0.000006    1.948754
| 55> H         0.792693    0.900031    2.015043
| 56> Cl        -1.483766   -1.587852    0.226312
| 57> O         1.850016   -1.248441   -0.565845
| 58> H         0.792699   -0.900054    2.015034
| 59> *
| 60>
| 61>
| 62>
| 63>
| 64>                          ****END OF INPUT****
 Total Charge           Charge          ....    0
 Multiplicity           Mult            ....    1
 Number of Electrons    NEL             ....   90
MP2 TOTAL ENERGY:    -1847.715817026 Eh
FINAL SINGLE POINT ENERGY     -1847.715817025530
MP2 TOTAL ENERGY:    -1848.140720858 Eh
FINAL SINGLE POINT ENERGY     -1848.140720858386

CARTESIAN COORDINATES (ANGSTROEM)
---------------------------------
  Cl    -1.483768    1.587851    0.226314
  S      1.305103    0.000001   -0.111363
  O      1.850011    1.248450   -0.565832
  P     -0.777634    0.000000   -0.853051
  C      1.285011   -0.000008    1.659586
  H      2.335271   -0.000006    1.948754
  H      0.792693    0.900031    2.015043
  Cl    -1.483766   -1.587852    0.226312
  O      1.850016   -1.248441   -0.565845
  H      0.792699   -0.900054    2.015034

 Multiplicity           Mult            ....    1
 Number of Electrons    NEL             ....   90
 Basis Dimension        Dim             ....  714

ORBITAL ENERGIES
----------------

  NO   OCC          E(Eh)            E(eV)
   0   2.0000    -104.877417     -2853.8596
   1   2.0000    -104.877417     -2853.8596
   2   2.0000     -92.184813     -2508.4763
   3   2.0000     -80.090850     -2179.3828
   4   2.0000     -20.562529      -559.5349
   5   2.0000     -20.562509      -559.5343
   6   2.0000     -11.287201      -307.1404
   7   2.0000     -10.603717      -288.5418
   8   2.0000     -10.603710      -288.5416
   9   2.0000      -9.156889      -249.1716
  10   2.0000      -8.070505      -219.6096
  11   2.0000      -8.070504      -219.6096
  12   2.0000      -8.068954      -219.5674
  13   2.0000      -8.068954      -219.5674
  14   2.0000      -8.068865      -219.5650
  15   2.0000      -8.068864      -219.5650
  16   2.0000      -7.622520      -207.4193
  17   2.0000      -6.842057      -186.1818
  18   2.0000      -6.841201      -186.1585
  19   2.0000      -6.840964      -186.1521
  20   2.0000      -5.514614      -150.0603
  21   2.0000      -5.514025      -150.0442
  22   2.0000      -5.512863      -150.0126
  23   2.0000      -1.474687       -40.1283
  24   2.0000      -1.362968       -37.0882
  25   2.0000      -1.182652       -32.1816
  26   2.0000      -1.128826       -30.7169
  27   2.0000      -1.061642       -28.8887
  28   2.0000      -0.900093       -24.4928
  29   2.0000      -0.792050       -21.5528
  30   2.0000      -0.699374       -19.0309
  31   2.0000      -0.684262       -18.6197
  32   2.0000      -0.673481       -18.3264
  33   2.0000      -0.621626       -16.9153
  34   2.0000      -0.615086       -16.7373
  35   2.0000      -0.602838       -16.4041
  36   2.0000      -0.560298       -15.2465
  37   2.0000      -0.540092       -14.6967
  38   2.0000      -0.528238       -14.3741
  39   2.0000      -0.511465       -13.9177
  40   2.0000      -0.507944       -13.8219
  41   2.0000      -0.494013       -13.4428
  42   2.0000      -0.481279       -13.0963
  43   2.0000      -0.463883       -12.6229
  44   2.0000      -0.395069       -10.7504
  45   0.0000       0.022558         0.6138
  46   0.0000       0.037301         1.0150
  47   0.0000       0.038664         1.0521
  48   0.0000       0.042469         1.1556
  49   0.0000       0.052128         1.4185

MULLIKEN ATOMIC CHARGES
-----------------------
   0 Cl:   -0.422762
   1 S :    2.291262
   2 O :   -1.226633
   3 P :    0.963889
   4 C :   -1.043637
   5 H :    0.353846
   6 H :    0.366715
   7 Cl:   -0.422763
   8 O :   -1.226633
   9 H :    0.366715
Sum of atomic charges:    0.0000000

LOEWDIN ATOMIC CHARGES
----------------------
   0 Cl:    0.667201
   1 S :   -0.576237
   2 O :    0.221361
   3 P :   -0.814257
   4 C :    0.705688
   5 H :   -0.338111
   6 H :   -0.377104
   7 Cl:    0.667202
   8 O :    0.221361
   9 H :   -0.377105

  Mayer bond orders larger than 0.100000
B(  0-Cl,  3-P ) :   0.8540 B(  1-S ,  2-O ) :   1.0181 B(  1-S ,  3-P ) :   0.8192
B(  1-S ,  4-C ) :   0.9244 B(  1-S ,  8-O ) :   1.0181 B(  3-P ,  7-Cl) :   0.8540
B(  4-C ,  5-H ) :   0.8302 B(  4-C ,  6-H ) :   0.8845 B(  4-C ,  9-H ) :   0.8845

MP2 TOTAL ENERGY:    -1848.280672031 Eh
FINAL SINGLE POINT ENERGY     -1848.280672030520

DIPOLE MOMENT
-------------
                                X             Y             Z
Electronic contribution:     -9.25609       0.00002      -4.52505
Nuclear contribution   :      8.33569      -0.00003       5.72469
                        -----------------------------------------
Total Dipole Moment    :     -0.92040      -0.00001       1.19964
                        -----------------------------------------
Magnitude (a.u.)       :      1.51204
Magnitude (Debye)      :      3.84330

Rotational constants in cm-1:     0.054076     0.037728     0.028302
Rotational constants in MHz :  1621.157027  1131.051206   848.463322

                             ****ORCA TERMINATED NORMALLY****
TOTAL RUN TIME: 0 days 0 hours 34 minutes 12 seconds 838 msec
