                         Program Version 5.0.4 -  RELEASE  -
|  1> ! ri-mp2 aug-cc-pvdz aug-cc-pvdz/c tightscf
|  2> %pal nprocs 16 end
|  3> %maxcore 3800
|  4> %base "DZ_Si-Cl_51_AB"
|  5>
|  6> *xyz 0 1
|  7> C         0.006122   -1.200736    0.312964
|  8> C         1.355822   -1.188035    0.015698
|  9> C         2.046075    0.000011   -0.136598
| 10> C         1.355804    1.188045    0.015703
| 11> C         0.006104    1.200725    0.312968
| 12> C        -0.681013   -0.000011    0.461864
| 13> H        -0.498974   -2.150358    0.426646
| 14> Cl         2.206758   -2.685281   -0.167441
| 15> Si        -2.501415   -0.000026    0.835672
| 16> H        -0.499007    2.150339    0.426655
| 17> Cl        -3.583638    0.000003   -0.914578
| 18> Cl         2.206718    2.685305   -0.167431
| 19> H         3.100760    0.000019   -0.366846
| 20> H        -2.861848    1.219058    1.579617
| 21> H        -2.861835   -1.219142    1.579571
| 22> *
| 23>
| 24> $new_job
| 25> ! ri-mp2 aug-cc-pvtz aug-cc-pvtz/c tightscf
| 26> %pal nprocs 16 end
| 27> %maxcore 3800
| 28> %base "TZ_Si-Cl_51_AB"
| 29>
| 30> *xyz 0 1
| 31> C         0.006122   -1.200736    0.312964
| 32> C         1.355822   -1.188035    0.015698
| 33> C         2.046075    0.000011   -0.136598
| 34> C         1.355804    1.188045    0.015703
| 35> C         0.006104    1.200725    0.312968
| 36> C        -0.681013   -0.000011    0.461864
| 37> H        -0.498974   -2.150358    0.426646
| 38> Cl         2.206758   -2.685281   -0.167441
| 39> Si        -2.501415   -0.000026    0.835672
| 40> H        -0.499007    2.150339    0.426655
| 41> Cl        -3.583638    0.000003   -0.914578
| 42> Cl         2.206718    2.685305   -0.167431
| 43> H         3.100760    0.000019   -0.366846
| 44> H        -2.861848    1.219058    1.579617
| 45> H        -2.861835   -1.219142    1.579571
| 46> *
| 47>
| 48> $new_job
| 49> ! ri-mp2 aug-cc-pvqz aug-cc-pvqz/c tightscf
| 50> %pal nprocs 16 end
| 51> %maxcore 3800
| 52> %base "QZ_Si-Cl_51_AB"
| 53>
| 54> *xyz 0 1
| 55> C         0.006122   -1.200736    0.312964
| 56> C         1.355822   -1.188035    0.015698
| 57> C         2.046075    0.000011   -0.136598
| 58> C         1.355804    1.188045    0.015703
| 59> C         0.006104    1.200725    0.312968
| 60> C        -0.681013   -0.000011    0.461864
| 61> H        -0.498974   -2.150358    0.426646
| 62> Cl         2.206758   -2.685281   -0.167441
| 63> Si        -2.501415   -0.000026    0.835672
| 64> H        -0.499007    2.150339    0.426655
| 65> Cl        -3.583638    0.000003   -0.914578
| 66> Cl         2.206718    2.685305   -0.167431
| 67> H         3.100760    0.000019   -0.366846
| 68> H        -2.861848    1.219058    1.579617
| 69> H        -2.861835   -1.219142    1.579571
| 70> *
| 71>
| 72>
| 73>
| 74>
| 75>                          ****END OF INPUT****
 Total Charge           Charge          ....    0
 Multiplicity           Mult            ....    1
 Number of Electrons    NEL             ....  106
MP2 TOTAL ENERGY:    -1898.992246435 Eh
FINAL SINGLE POINT ENERGY     -1898.992246434748
MP2 TOTAL ENERGY:    -1899.409547146 Eh
FINAL SINGLE POINT ENERGY     -1899.409547146461

CARTESIAN COORDINATES (ANGSTROEM)
---------------------------------
  C      0.006122   -1.200736    0.312964
  C      1.355822   -1.188035    0.015698
  C      2.046075    0.000011   -0.136598
  C      1.355804    1.188045    0.015703
  C      0.006104    1.200725    0.312968
  C     -0.681013   -0.000011    0.461864
  H     -0.498974   -2.150358    0.426646
  Cl     2.206758   -2.685281   -0.167441
  Si    -2.501415   -0.000026    0.835672
  H     -0.499007    2.150339    0.426655
  Cl    -3.583638    0.000003   -0.914578
  Cl     2.206718    2.685305   -0.167431
  H      3.100760    0.000019   -0.366846
  H     -2.861848    1.219058    1.579617
  H     -2.861835   -1.219142    1.579571

 Multiplicity           Mult            ....    1
 Number of Electrons    NEL             ....  106
 Basis Dimension        Dim             .... 1046

ORBITAL ENERGIES
----------------

  NO   OCC          E(Eh)            E(eV)
   0   2.0000    -104.854111     -2853.2254
   1   2.0000    -104.854111     -2853.2254
   2   2.0000    -104.831135     -2852.6002
   3   2.0000     -68.825094     -1872.8260
   4   2.0000     -11.321755      -308.0806
   5   2.0000     -11.321744      -308.0803
   6   2.0000     -11.272646      -306.7443
   7   2.0000     -11.269592      -306.6612
   8   2.0000     -11.269546      -306.6599
   9   2.0000     -11.256413      -306.3026
  10   2.0000     -10.579696      -287.8882
  11   2.0000     -10.579696      -287.8882
  12   2.0000     -10.558633      -287.3150
  13   2.0000      -8.046857      -218.9661
  14   2.0000      -8.046856      -218.9661
  15   2.0000      -8.045049      -218.9169
  16   2.0000      -8.045049      -218.9169
  17   2.0000      -8.045004      -218.9157
  18   2.0000      -8.045004      -218.9157
  19   2.0000      -8.025421      -218.3828
  20   2.0000      -8.024308      -218.3525
  21   2.0000      -8.024297      -218.3522
  22   2.0000      -6.170724      -167.9139
  23   2.0000      -4.277663      -116.4011
  24   2.0000      -4.276831      -116.3785
  25   2.0000      -4.276647      -116.3735
  26   2.0000      -1.227291       -33.3963
  27   2.0000      -1.172885       -31.9158
  28   2.0000      -1.119908       -30.4742
  29   2.0000      -1.100432       -29.9443
  30   2.0000      -1.037247       -28.2249
  31   2.0000      -1.012352       -27.5475
  32   2.0000      -0.864168       -23.5152
  33   2.0000      -0.835334       -22.7306
  34   2.0000      -0.741926       -20.1888
  35   2.0000      -0.709063       -19.2946
  36   2.0000      -0.689815       -18.7708
  37   2.0000      -0.629518       -17.1301
  38   2.0000      -0.609145       -16.5757
  39   2.0000      -0.595489       -16.2041
  40   2.0000      -0.583368       -15.8743
  41   2.0000      -0.540243       -14.7008
  42   2.0000      -0.536287       -14.5931
  43   2.0000      -0.531683       -14.4678
  44   2.0000      -0.520842       -14.1728
  45   2.0000      -0.515474       -14.0268
  46   2.0000      -0.478779       -13.0282
  47   2.0000      -0.467567       -12.7231
  48   2.0000      -0.466978       -12.7071
  49   2.0000      -0.456493       -12.4218
  50   2.0000      -0.450738       -12.2652
  51   2.0000      -0.368452       -10.0261
  52   2.0000      -0.352966        -9.6047
  53   0.0000       0.022340         0.6079
  54   0.0000       0.031705         0.8627
  55   0.0000       0.032178         0.8756
  56   0.0000       0.035565         0.9678
  57   0.0000       0.041522         1.1299

MULLIKEN ATOMIC CHARGES
-----------------------
   0 C :   -0.084625
   1 C :   -0.585176
   2 C :    0.048449
   3 C :   -0.585175
   4 C :   -0.084622
   5 C :    0.170599
   6 H :    0.426153
   7 Cl:   -0.302364
   8 Si:    1.406952
   9 H :    0.426149
  10 Cl:   -0.612334
  11 Cl:   -0.302365
  12 H :    0.581459
  13 H :   -0.251548
  14 H :   -0.251552
Sum of atomic charges:   -0.0000000

LOEWDIN ATOMIC CHARGES
----------------------
   0 C :    0.104897
   1 C :   -0.867572
   2 C :    0.060798
   3 C :   -0.867572
   4 C :    0.104897
   5 C :   -0.182740
   6 H :   -0.374796
   7 Cl:    1.222851
   8 Si:   -0.026316
   9 H :   -0.374794
  10 Cl:    0.905018
  11 Cl:    1.222850
  12 H :   -0.385701
  13 H :   -0.270910
  14 H :   -0.270910

  Mayer bond orders larger than 0.100000
B(  0-C ,  1-C ) :   1.1726 B(  0-C ,  3-C ) :   0.1004 B(  0-C ,  5-C ) :   0.9844
B(  0-C ,  6-H ) :   0.7985 B(  0-C ,  7-Cl) :  -0.2817 B(  0-C ,  8-Si) :  -0.1398
B(  1-C ,  2-C ) :   1.2531 B(  1-C ,  4-C ) :   0.1004 B(  1-C ,  5-C ) :  -0.3708
B(  1-C ,  7-Cl) :   1.3437 B(  2-C ,  3-C ) :   1.2531 B(  2-C ,  7-Cl) :  -0.2745
B(  2-C , 11-Cl) :  -0.2745 B(  2-C , 12-H ) :   0.7126 B(  3-C ,  4-C ) :   1.1726
B(  3-C ,  5-C ) :  -0.3708 B(  3-C , 11-Cl) :   1.3437 B(  4-C ,  5-C ) :   0.9844
B(  4-C ,  8-Si) :  -0.1398 B(  4-C ,  9-H ) :   0.7985 B(  4-C , 11-Cl) :  -0.2817
B(  5-C ,  6-H ) :  -0.1335 B(  5-C ,  8-Si) :   1.0388 B(  5-C ,  9-H ) :  -0.1335
B(  5-C , 10-Cl) :  -0.1023 B(  5-C , 13-H ) :  -0.1343 B(  5-C , 14-H ) :  -0.1343
B(  8-Si, 10-Cl) :   0.3545 B(  8-Si, 13-H ) :   0.7596 B(  8-Si, 14-H ) :   0.7596

MP2 TOTAL ENERGY:    -1899.547379864 Eh
FINAL SINGLE POINT ENERGY     -1899.547379864015

DIPOLE MOMENT
-------------
                                X             Y             Z
Electronic contribution:      4.36141       0.00010      -4.53546
Nuclear contribution   :     -4.38168      -0.00011       5.06504
                        -----------------------------------------
Total Dipole Moment    :     -0.02027      -0.00001       0.52958
                        -----------------------------------------
Magnitude (a.u.)       :      0.52997
Magnitude (Debye)      :      1.34707

Rotational constants in cm-1:     0.025786     0.014473     0.009944
Rotational constants in MHz :   773.042889   433.896886   298.108863

                             ****ORCA TERMINATED NORMALLY****
TOTAL RUN TIME: 0 days 0 hours 40 minutes 20 seconds 496 msec
