                         Program Version 5.0.4 -  RELEASE  -
|  1> ! ri-mp2 aug-cc-pvdz aug-cc-pvdz/c tightscf
|  2> %pal nprocs 16 end
|  3> %maxcore 3800
|  4> %base "DZ_P-N_82_AB"
|  5> %scf
|  6> STABPerform true
|  7> STABRestartUHFifUnstable true
|  8> end
|  9>
| 10> *xyz 0 1
| 11> C         1.093656    0.237096   -0.103586
| 12> P        -0.204510   -1.100302   -0.184008
| 13> O         1.000034    1.317457   -0.615719
| 14> O         2.207872   -0.174097    0.530577
| 15> N        -1.638960   -0.252939   -0.288619
| 16> C        -2.001636    0.878691    0.547106
| 17> H        -3.062270    1.097371    0.426493
| 18> H        -1.424157    1.775875    0.315171
| 19> H        -1.833563    0.619901    1.593218
| 20> H         2.862747    0.539096    0.464100
| 21> H        -0.164167   -1.347148    1.206509
| 22> H        -2.053578   -0.251595   -1.205029
| 23> *
| 24>
| 25> $new_job
| 26> ! ri-mp2 aug-cc-pvtz aug-cc-pvtz/c tightscf
| 27> %pal nprocs 16 end
| 28> %maxcore 3800
| 29> %base "TZ_P-N_82_AB"
| 30>
| 31> *xyz 0 1
| 32> C         1.093656    0.237096   -0.103586
| 33> P        -0.204510   -1.100302   -0.184008
| 34> O         1.000034    1.317457   -0.615719
| 35> O         2.207872   -0.174097    0.530577
| 36> N        -1.638960   -0.252939   -0.288619
| 37> C        -2.001636    0.878691    0.547106
| 38> H        -3.062270    1.097371    0.426493
| 39> H        -1.424157    1.775875    0.315171
| 40> H        -1.833563    0.619901    1.593218
| 41> H         2.862747    0.539096    0.464100
| 42> H        -0.164167   -1.347148    1.206509
| 43> H        -2.053578   -0.251595   -1.205029
| 44> *
| 45>
| 46> $new_job
| 47> ! ri-mp2 aug-cc-pvqz aug-cc-pvqz/c tightscf
| 48> %pal nprocs 16 end
| 49> %maxcore 3800
| 50> %base "QZ_P-N_82_AB"
| 51>
| 52> *xyz 0 1
| 53> C         1.093656    0.237096   -0.103586
| 54> P        -0.204510   -1.100302   -0.184008
| 55> O         1.000034    1.317457   -0.615719
| 56> O         2.207872   -0.174097    0.530577
| 57> N        -1.638960   -0.252939   -0.288619
| 58> C        -2.001636    0.878691    0.547106
| 59> H        -3.062270    1.097371    0.426493
| 60> H        -1.424157    1.775875    0.315171
| 61> H        -1.833563    0.619901    1.593218
| 62> H         2.862747    0.539096    0.464100
| 63> H        -0.164167   -1.347148    1.206509
| 64> H        -2.053578   -0.251595   -1.205029
| 65> *
| 66>
| 67>
| 68>
| 69>
| 70>                          ****END OF INPUT****
 Total Charge           Charge          ....    0
 Multiplicity           Mult            ....    1
 Number of Electrons    NEL             ....   56
MP2 TOTAL ENERGY:     -625.169959003 Eh
FINAL SINGLE POINT ENERGY      -625.169959002788
MP2 TOTAL ENERGY:     -625.464818927 Eh
FINAL SINGLE POINT ENERGY      -625.464818926575

CARTESIAN COORDINATES (ANGSTROEM)
---------------------------------
  C      1.093656    0.237096   -0.103586
  P     -0.204510   -1.100302   -0.184008
  O      1.000034    1.317457   -0.615719
  O      2.207872   -0.174097    0.530577
  N     -1.638960   -0.252939   -0.288619
  C     -2.001636    0.878691    0.547106
  H     -3.062270    1.097371    0.426493
  H     -1.424157    1.775875    0.315171
  H     -1.833563    0.619901    1.593218
  H      2.862747    0.539096    0.464100
  H     -0.164167   -1.347148    1.206509
  H     -2.053578   -0.251595   -1.205029

 Multiplicity           Mult            ....    1
 Number of Electrons    NEL             ....   56
 Basis Dimension        Dim             ....  760

ORBITAL ENERGIES
----------------

  NO   OCC          E(Eh)            E(eV)
   0   2.0000     -79.974606     -2176.2197
   1   2.0000     -20.613576      -560.9239
   2   2.0000     -20.552536      -559.2630
   3   2.0000     -15.563938      -423.5163
   4   2.0000     -11.377959      -309.6100
   5   2.0000     -11.256293      -306.2993
   6   2.0000      -7.513651      -204.4568
   7   2.0000      -5.407797      -147.1536
   8   2.0000      -5.407431      -147.1437
   9   2.0000      -5.406939      -147.1303
  10   2.0000      -1.468688       -39.9650
  11   2.0000      -1.366993       -37.1978
  12   2.0000      -1.207182       -32.8491
  13   2.0000      -0.946688       -25.7607
  14   2.0000      -0.895668       -24.3724
  15   2.0000      -0.793622       -21.5956
  16   2.0000      -0.707593       -19.2546
  17   2.0000      -0.684498       -18.6261
  18   2.0000      -0.647263       -17.6129
  19   2.0000      -0.633945       -17.2505
  20   2.0000      -0.613090       -16.6830
  21   2.0000      -0.596861       -16.2414
  22   2.0000      -0.556637       -15.1469
  23   2.0000      -0.531204       -14.4548
  24   2.0000      -0.492007       -13.3882
  25   2.0000      -0.461191       -12.5496
  26   2.0000      -0.398517       -10.8442
  27   2.0000      -0.373205       -10.1554
  28   0.0000       0.024629         0.6702
  29   0.0000       0.030586         0.8323
  30   0.0000       0.038315         1.0426
  31   0.0000       0.041256         1.1226
  32   0.0000       0.052070         1.4169

MULLIKEN ATOMIC CHARGES
-----------------------
   0 C :    0.703167
   1 P :    0.806640
   2 O :   -0.756360
   3 O :   -0.683862
   4 N :   -0.623828
   5 C :   -0.829531
   6 H :    0.348270
   7 H :    0.321646
   8 H :    0.276976
   9 H :    0.322430
  10 H :   -0.089044
  11 H :    0.203494
Sum of atomic charges:    0.0000000

LOEWDIN ATOMIC CHARGES
----------------------
   0 C :   -1.245171
   1 P :    1.053787
   2 O :    0.611779
   3 O :    1.150722
   4 N :    0.562682
   5 C :    0.682302
   6 H :   -0.298234
   7 H :   -0.323898
   8 H :   -0.319140
   9 H :   -0.830384
  10 H :   -0.434517
  11 H :   -0.609930

  Mayer bond orders larger than 0.100000
B(  0-C ,  1-P ) :   0.7364 B(  0-C ,  2-O ) :   1.5215 B(  0-C ,  3-O ) :   0.9026
B(  1-P ,  4-N ) :   0.9188 B(  1-P , 10-H ) :   0.9576 B(  3-O ,  9-H ) :   0.9014
B(  4-N ,  5-C ) :   0.8811 B(  4-N , 11-H ) :   1.0173 B(  5-C ,  6-H ) :   0.8989
B(  5-C ,  7-H ) :   0.9073 B(  5-C ,  8-H ) :   0.9455

MP2 TOTAL ENERGY:     -625.560969013 Eh
FINAL SINGLE POINT ENERGY      -625.560969013355

DIPOLE MOMENT
-------------
                                X             Y             Z
Electronic contribution:      5.05236      -3.41730      -2.56262
Nuclear contribution   :     -5.34390       3.43661       2.92055
                        -----------------------------------------
Total Dipole Moment    :     -0.29154       0.01930       0.35793
                        -----------------------------------------
Magnitude (a.u.)       :      0.46204
Magnitude (Debye)      :      1.17440

Rotational constants in cm-1:     0.159522     0.068767     0.055086
Rotational constants in MHz :  4782.334573  2061.571407  1651.440308

                             ****ORCA TERMINATED NORMALLY****
TOTAL RUN TIME: 0 days 0 hours 43 minutes 4 seconds 265 msec
