                         Program Version 5.0.4 -  RELEASE  -
|  1> ! ri-mp2 aug-cc-pvdz aug-cc-pvdz/c tightscf
|  2> %pal nprocs 16 end
|  3> %maxcore 3800
|  4> %base "DZ_B-Cl_4_A"
|  5> %scf
|  6> STABPerform true
|  7> STABRestartUHFifUnstable true
|  8> end
|  9>
| 10> *xyz 0 2
| 11> Cl        -1.093133    0.068931   -0.000006
| 12> N         1.674023    0.140261    0.000008
| 13> B         0.519490   -0.604744    0.000004
| 14> H         1.680696    1.150545    0.000006
| 15> H         2.586962   -0.280469    0.000013
| 16> *
| 17>
| 18> $new_job
| 19> ! ri-mp2 aug-cc-pvtz aug-cc-pvtz/c tightscf
| 20> %pal nprocs 16 end
| 21> %maxcore 3800
| 22> %base "TZ_B-Cl_4_A"
| 23>
| 24> *xyz 0 2
| 25> Cl        -1.093133    0.068931   -0.000006
| 26> N         1.674023    0.140261    0.000008
| 27> B         0.519490   -0.604744    0.000004
| 28> H         1.680696    1.150545    0.000006
| 29> H         2.586962   -0.280469    0.000013
| 30> *
| 31>
| 32> $new_job
| 33> ! ri-mp2 aug-cc-pvqz aug-cc-pvqz/c tightscf
| 34> %pal nprocs 16 end
| 35> %maxcore 3800
| 36> %base "QZ_B-Cl_4_A"
| 37>
| 38> *xyz 0 2
| 39> Cl        -1.093133    0.068931   -0.000006
| 40> N         1.674023    0.140261    0.000008
| 41> B         0.519490   -0.604744    0.000004
| 42> H         1.680696    1.150545    0.000006
| 43> H         2.586962   -0.280469    0.000013
| 44> *
| 45>
| 46>
| 47>
| 48>
| 49>                          ****END OF INPUT****
 Total Charge           Charge          ....    0
 Multiplicity           Mult            ....    2
 Number of Electrons    NEL             ....   31
MP2 TOTAL ENERGY:     -540.235988365 Eh
FINAL SINGLE POINT ENERGY      -540.235988365360
MP2 TOTAL ENERGY:     -540.365144460 Eh
FINAL SINGLE POINT ENERGY      -540.365144459783

CARTESIAN COORDINATES (ANGSTROEM)
---------------------------------
  Cl    -1.093133    0.068931   -0.000006
  N      1.674023    0.140261    0.000008
  B      0.519490   -0.604744    0.000004
  H      1.680696    1.150545    0.000006
  H      2.586962   -0.280469    0.000013

 Multiplicity           Mult            ....    2
 Number of Electrons    NEL             ....   31
 Basis Dimension        Dim             ....  336

ORBITAL ENERGIES
----------------
                 SPIN UP ORBITALS
  NO   OCC          E(Eh)            E(eV)
   0   1.0000    -104.827265     -2852.4949
   1   1.0000     -15.575264      -423.8245
   2   1.0000     -10.554901      -287.2135
   3   1.0000      -8.022843      -218.3127
   4   1.0000      -8.020431      -218.2470
   5   1.0000      -8.020271      -218.2427
   6   1.0000      -7.669412      -208.6953
   7   1.0000      -1.192312       -32.4445
   8   1.0000      -1.103049       -30.0155
   9   1.0000      -0.731414       -19.9028
  10   1.0000      -0.707177       -19.2433
  11   1.0000      -0.589597       -16.0437
  12   1.0000      -0.503484       -13.7005
  13   1.0000      -0.485437       -13.2094
  14   1.0000      -0.434779       -11.8309
  15   1.0000      -0.343672        -9.3518
  16   0.0000       0.023111         0.6289
  17   0.0000       0.036059         0.9812
  18   0.0000       0.040886         1.1126
  19   0.0000       0.042463         1.1555
  20   0.0000       0.059581         1.6213

                 SPIN DOWN ORBITALS
  NO   OCC          E(Eh)            E(eV)
   0   1.0000    -104.826280     -2852.4681
   1   1.0000     -15.576050      -423.8459
   2   1.0000     -10.553739      -287.1819
   3   1.0000      -8.020627      -218.2524
   4   1.0000      -8.019896      -218.2325
   5   1.0000      -8.018289      -218.1887
   6   1.0000      -7.648035      -208.1136
   7   1.0000      -1.188444       -32.3392
   8   1.0000      -1.094678       -29.7877
   9   1.0000      -0.712284       -19.3822
  10   1.0000      -0.694886       -18.9088
  11   1.0000      -0.565522       -15.3886
  12   1.0000      -0.501614       -13.6496
  13   1.0000      -0.464799       -12.6478
  14   1.0000      -0.442577       -12.0431
  15   0.0000       0.019751         0.5374
  16   0.0000       0.036314         0.9882
  17   0.0000       0.040777         1.1096
  18   0.0000       0.041262         1.1228
  19   0.0000       0.058855         1.6015

MULLIKEN ATOMIC CHARGES AND SPIN POPULATIONS
--------------------------------------------
   0 Cl:   -0.241935    0.022533
   1 N :   -0.626005   -0.041716
   2 B :    0.368678    0.977193
   3 H :    0.248913    0.038106
   4 H :    0.250348    0.003884
Sum of atomic charges         :    0.0000000

LOEWDIN ATOMIC CHARGES AND SPIN POPULATIONS
-------------------------------------------
   0 Cl:    1.127375    0.172949
   1 N :    1.153050    0.164166
   2 B :   -1.158604    0.596987
   3 H :   -0.558872    0.021858
   4 H :   -0.562949    0.044039

  Mayer bond orders larger than 0.100000
B(  0-Cl,  2-B ) :   1.0475 B(  1-N ,  2-B ) :   1.3126 B(  1-N ,  3-H ) :   0.9592
B(  1-N ,  4-H ) :   0.9742

MP2 TOTAL ENERGY:     -540.408436670 Eh
FINAL SINGLE POINT ENERGY      -540.408436669561

DIPOLE MOMENT
-------------
                                X             Y             Z
Electronic contribution:     -4.08317      -0.82410      -0.00002
Nuclear contribution   :      5.06880       1.17737       0.00002
                        -----------------------------------------
Total Dipole Moment    :      0.98564       0.35327       0.00000
                        -----------------------------------------
Magnitude (a.u.)       :      1.04703
Magnitude (Debye)      :      2.66135

Rotational constants in cm-1:     2.929632     0.179925     0.169514
Rotational constants in MHz : 87828.167444  5394.012509  5081.904694

                             ****ORCA TERMINATED NORMALLY****
TOTAL RUN TIME: 0 days 0 hours 6 minutes 42 seconds 820 msec
