                         Program Version 5.0.4 -  RELEASE  -
|  1> ! ri-mp2 aug-cc-pvdz aug-cc-pvdz/c tightscf
|  2> %pal nprocs 16 end
|  3> %maxcore 3800
|  4> %base "DZ_P-N_19_AB"
|  5>
|  6> *xyz 0 1
|  7> C         0.095732   -0.207769   -0.069080
|  8> C        -0.397990    1.085146   -0.147492
|  9> C        -1.766341    1.288177   -0.076229
| 10> N        -2.650511    0.309554    0.059323
| 11> C        -2.175087   -0.929215    0.128503
| 12> C        -0.829307   -1.235914    0.069091
| 13> H         0.274853    1.924451   -0.257389
| 14> H        -2.169036    2.293956   -0.130874
| 15> H        -2.909285   -1.719403    0.241474
| 16> H        -0.512145   -2.269537    0.137518
| 17> N         2.612624    0.812025    0.306584
| 18> P         1.872461   -0.589015   -0.263964
| 19> H         1.931311   -1.458753    0.855042
| 20> H         3.467242    1.093448   -0.139020
| 21> H         2.533323    1.117461    1.262593
| 22> *
| 23>
| 24> $new_job
| 25> ! ri-mp2 aug-cc-pvtz aug-cc-pvtz/c tightscf
| 26> %pal nprocs 16 end
| 27> %maxcore 3800
| 28> %base "TZ_P-N_19_AB"
| 29>
| 30> *xyz 0 1
| 31> C         0.095732   -0.207769   -0.069080
| 32> C        -0.397990    1.085146   -0.147492
| 33> C        -1.766341    1.288177   -0.076229
| 34> N        -2.650511    0.309554    0.059323
| 35> C        -2.175087   -0.929215    0.128503
| 36> C        -0.829307   -1.235914    0.069091
| 37> H         0.274853    1.924451   -0.257389
| 38> H        -2.169036    2.293956   -0.130874
| 39> H        -2.909285   -1.719403    0.241474
| 40> H        -0.512145   -2.269537    0.137518
| 41> N         2.612624    0.812025    0.306584
| 42> P         1.872461   -0.589015   -0.263964
| 43> H         1.931311   -1.458753    0.855042
| 44> H         3.467242    1.093448   -0.139020
| 45> H         2.533323    1.117461    1.262593
| 46> *
| 47>
| 48> $new_job
| 49> ! ri-mp2 aug-cc-pvqz aug-cc-pvqz/c tightscf
| 50> %pal nprocs 16 end
| 51> %maxcore 3800
| 52> %base "QZ_P-N_19_AB"
| 53>
| 54> *xyz 0 1
| 55> C         0.095732   -0.207769   -0.069080
| 56> C        -0.397990    1.085146   -0.147492
| 57> C        -1.766341    1.288177   -0.076229
| 58> N        -2.650511    0.309554    0.059323
| 59> C        -2.175087   -0.929215    0.128503
| 60> C        -0.829307   -1.235914    0.069091
| 61> H         0.274853    1.924451   -0.257389
| 62> H        -2.169036    2.293956   -0.130874
| 63> H        -2.909285   -1.719403    0.241474
| 64> H        -0.512145   -2.269537    0.137518
| 65> N         2.612624    0.812025    0.306584
| 66> P         1.872461   -0.589015   -0.263964
| 67> H         1.931311   -1.458753    0.855042
| 68> H         3.467242    1.093448   -0.139020
| 69> H         2.533323    1.117461    1.262593
| 70> *
| 71>
| 72>
| 73>
| 74>
| 75>                          ****END OF INPUT****
 Total Charge           Charge          ....    0
 Multiplicity           Mult            ....    1
 Number of Electrons    NEL             ....   66
MP2 TOTAL ENERGY:     -644.231624543 Eh
FINAL SINGLE POINT ENERGY      -644.231624543246
MP2 TOTAL ENERGY:     -644.542560455 Eh
FINAL SINGLE POINT ENERGY      -644.542560455192

CARTESIAN COORDINATES (ANGSTROEM)
---------------------------------
  C      0.095732   -0.207769   -0.069080
  C     -0.397990    1.085146   -0.147492
  C     -1.766341    1.288177   -0.076229
  N     -2.650511    0.309554    0.059323
  C     -2.175087   -0.929215    0.128503
  C     -0.829307   -1.235914    0.069091
  H      0.274853    1.924451   -0.257389
  H     -2.169036    2.293956   -0.130874
  H     -2.909285   -1.719403    0.241474
  H     -0.512145   -2.269537    0.137518
  N      2.612624    0.812025    0.306584
  P      1.872461   -0.589015   -0.263964
  H      1.931311   -1.458753    0.855042
  H      3.467242    1.093448   -0.139020
  H      2.533323    1.117461    1.262593

 Multiplicity           Mult            ....    1
 Number of Electrons    NEL             ....   66
 Basis Dimension        Dim             ....  966

ORBITAL ENERGIES
----------------

  NO   OCC          E(Eh)            E(eV)
   0   2.0000     -79.967823     -2176.0351
   1   2.0000     -15.562551      -423.4786
   2   2.0000     -15.557615      -423.3442
   3   2.0000     -11.269283      -306.6528
   4   2.0000     -11.269247      -306.6518
   5   2.0000     -11.255535      -306.2787
   6   2.0000     -11.237173      -305.7790
   7   2.0000     -11.234092      -305.6952
   8   2.0000      -7.506351      -204.2582
   9   2.0000      -5.400761      -146.9622
  10   2.0000      -5.400264      -146.9486
  11   2.0000      -5.399742      -146.9344
  12   2.0000      -1.261567       -34.3290
  13   2.0000      -1.179657       -32.1001
  14   2.0000      -1.092050       -29.7162
  15   2.0000      -1.033804       -28.1312
  16   2.0000      -0.886078       -24.1114
  17   2.0000      -0.857530       -23.3346
  18   2.0000      -0.797871       -21.7112
  19   2.0000      -0.699191       -19.0260
  20   2.0000      -0.685058       -18.6414
  21   2.0000      -0.670439       -18.2436
  22   2.0000      -0.646795       -17.6002
  23   2.0000      -0.599692       -16.3184
  24   2.0000      -0.586261       -15.9530
  25   2.0000      -0.551364       -15.0034
  26   2.0000      -0.533888       -14.5278
  27   2.0000      -0.516264       -14.0482
  28   2.0000      -0.428477       -11.6594
  29   2.0000      -0.423975       -11.5369
  30   2.0000      -0.401258       -10.9188
  31   2.0000      -0.348220        -9.4755
  32   2.0000      -0.340596        -9.2681
  33   0.0000       0.020396         0.5550
  34   0.0000       0.028290         0.7698
  35   0.0000       0.032418         0.8821
  36   0.0000       0.037879         1.0307
  37   0.0000       0.042111         1.1459

MULLIKEN ATOMIC CHARGES
-----------------------
   0 C :    0.240272
   1 C :   -0.588724
   2 C :   -0.131764
   3 N :   -0.652388
   4 C :   -0.169958
   5 C :   -0.475921
   6 H :    0.370320
   7 H :    0.473460
   8 H :    0.472849
   9 H :    0.292657
  10 N :   -0.915259
  11 P :    0.708384
  12 H :   -0.115874
  13 H :    0.232245
  14 H :    0.259701
Sum of atomic charges:   -0.0000000

LOEWDIN ATOMIC CHARGES
----------------------
   0 C :   -0.294789
   1 C :    0.240344
   2 C :    0.068805
   3 N :    0.589838
   4 C :    0.065538
   5 C :    0.224164
   6 H :   -0.359471
   7 H :   -0.349999
   8 H :   -0.350059
   9 H :   -0.342966
  10 N :    1.002843
  11 P :    1.091479
  12 H :   -0.414437
  13 H :   -0.604132
  14 H :   -0.567159

  Mayer bond orders larger than 0.100000
B(  0-C ,  1-C ) :   0.8723 B(  0-C ,  2-C ) :  -0.3372 B(  0-C ,  4-C ) :  -0.3341
B(  0-C ,  5-C ) :   0.8158 B(  0-C , 10-N ) :  -0.1011 B(  0-C , 11-P ) :   0.7829
B(  1-C ,  2-C ) :   1.2987 B(  1-C ,  6-H ) :   0.9378 B(  1-C ,  7-H ) :  -0.1505
B(  2-C ,  3-N ) :   1.1909 B(  2-C ,  7-H ) :   0.8957 B(  3-N ,  4-C ) :   1.2133
B(  3-N ,  5-C ) :   0.1019 B(  3-N ,  7-H ) :  -0.1141 B(  3-N ,  8-H ) :  -0.1173
B(  4-C ,  5-C ) :   1.3526 B(  4-C ,  8-H ) :   0.8900 B(  5-C ,  8-H ) :  -0.1451
B(  5-C ,  9-H ) :   0.9920 B(  5-C , 11-P ) :  -0.1610 B( 10-N , 11-P ) :   0.7917
B( 10-N , 13-H ) :   1.0241 B( 10-N , 14-H ) :   0.9585 B( 11-P , 12-H ) :   0.9268

MP2 TOTAL ENERGY:     -644.642221662 Eh
FINAL SINGLE POINT ENERGY      -644.642221661742

DIPOLE MOMENT
-------------
                                X             Y             Z
Electronic contribution:      0.33008      -1.37621      -1.71518
Nuclear contribution   :      0.81858       1.52280       2.18505
                        -----------------------------------------
Total Dipole Moment    :      1.14866       0.14659       0.46987
                        -----------------------------------------
Magnitude (a.u.)       :      1.24968
Magnitude (Debye)      :      3.17643

Rotational constants in cm-1:     0.149290     0.037470     0.030671
Rotational constants in MHz :  4475.589478  1123.328431   919.479175

                             ****ORCA TERMINATED NORMALLY****
TOTAL RUN TIME: 0 days 0 hours 20 minutes 0 seconds 50 msec
