                         Program Version 5.0.4 -  RELEASE  -
|  1> ! ri-mp2 aug-cc-pvdz aug-cc-pvdz/c tightscf
|  2> %pal nprocs 16 end
|  3> %maxcore 3800
|  4> %base "DZ_B-S_11_AB"
|  5> %scf
|  6> STABPerform true
|  7> STABRestartUHFifUnstable true
|  8> end
|  9>
| 10> *xyz 0 1
| 11> S        -0.921816   -0.979357    0.823960
| 12> B        -2.166823    0.106717    0.047387
| 13> S        -3.708044   -0.704720   -0.411162
| 14> S        -2.032067    1.855531   -0.274651
| 15> S         0.704443    0.180697    1.260391
| 16> C         1.714257    0.015600   -0.244127
| 17> F         1.073514    0.512121   -1.316670
| 18> Cl         2.166232   -1.646808   -0.619548
| 19> Cl         3.149965    1.003674    0.061334
| 20> H        -0.789864    2.007007    0.210379
| 21> H        -3.378804   -1.944432   -0.019512
| 22> *
| 23>
| 24> $new_job
| 25> ! ri-mp2 aug-cc-pvtz aug-cc-pvtz/c tightscf
| 26> %pal nprocs 16 end
| 27> %maxcore 3800
| 28> %base "TZ_B-S_11_AB"
| 29>
| 30> *xyz 0 1
| 31> S        -0.921816   -0.979357    0.823960
| 32> B        -2.166823    0.106717    0.047387
| 33> S        -3.708044   -0.704720   -0.411162
| 34> S        -2.032067    1.855531   -0.274651
| 35> S         0.704443    0.180697    1.260391
| 36> C         1.714257    0.015600   -0.244127
| 37> F         1.073514    0.512121   -1.316670
| 38> Cl         2.166232   -1.646808   -0.619548
| 39> Cl         3.149965    1.003674    0.061334
| 40> H        -0.789864    2.007007    0.210379
| 41> H        -3.378804   -1.944432   -0.019512
| 42> *
| 43>
| 44> $new_job
| 45> ! ri-mp2 aug-cc-pvqz aug-cc-pvqz/c tightscf
| 46> %pal nprocs 16 end
| 47> %maxcore 3800
| 48> %base "QZ_B-S_11_AB"
| 49>
| 50> *xyz 0 1
| 51> S        -0.921816   -0.979357    0.823960
| 52> B        -2.166823    0.106717    0.047387
| 53> S        -3.708044   -0.704720   -0.411162
| 54> S        -2.032067    1.855531   -0.274651
| 55> S         0.704443    0.180697    1.260391
| 56> C         1.714257    0.015600   -0.244127
| 57> F         1.073514    0.512121   -1.316670
| 58> Cl         2.166232   -1.646808   -0.619548
| 59> Cl         3.149965    1.003674    0.061334
| 60> H        -0.789864    2.007007    0.210379
| 61> H        -3.378804   -1.944432   -0.019512
| 62> *
| 63>
| 64>
| 65>
| 66>
| 67>                          ****END OF INPUT****
 Total Charge           Charge          ....    0
 Multiplicity           Mult            ....    1
 Number of Electrons    NEL             ....  120
MP2 TOTAL ENERGY:    -2673.679498257 Eh
FINAL SINGLE POINT ENERGY     -2673.679498256975
MP2 TOTAL ENERGY:    -2674.140268233 Eh
FINAL SINGLE POINT ENERGY     -2674.140268233309

CARTESIAN COORDINATES (ANGSTROEM)
---------------------------------
  S     -0.921816   -0.979357    0.823960
  B     -2.166823    0.106717    0.047387
  S     -3.708044   -0.704720   -0.411162
  S     -2.032067    1.855531   -0.274651
  S      0.704443    0.180697    1.260391
  C      1.714257    0.015600   -0.244127
  F      1.073514    0.512121   -1.316670
  Cl     2.166232   -1.646808   -0.619548
  Cl     3.149965    1.003674    0.061334
  H     -0.789864    2.007007    0.210379
  H     -3.378804   -1.944432   -0.019512

 Multiplicity           Mult            ....    1
 Number of Electrons    NEL             ....  120
 Basis Dimension        Dim             ....  836

ORBITAL ENERGIES
----------------

  NO   OCC          E(Eh)            E(eV)
   0   2.0000    -104.877857     -2853.8716
   1   2.0000    -104.872336     -2853.7213
   2   2.0000     -92.025323     -2504.1364
   3   2.0000     -92.001926     -2503.4997
   4   2.0000     -91.972548     -2502.7003
   5   2.0000     -91.968678     -2502.5950
   6   2.0000     -26.353547      -717.1165
   7   2.0000     -11.496905      -312.8467
   8   2.0000     -10.603800      -288.5441
   9   2.0000     -10.598316      -288.3948
  10   2.0000      -9.025946      -245.6085
  11   2.0000      -9.004569      -245.0268
  12   2.0000      -8.977441      -244.2886
  13   2.0000      -8.973979      -244.1944
  14   2.0000      -8.070777      -219.6170
  15   2.0000      -8.068797      -219.5631
  16   2.0000      -8.068775      -219.5625
  17   2.0000      -8.065313      -219.4683
  18   2.0000      -8.063308      -219.4138
  19   2.0000      -8.063290      -219.4133
  20   2.0000      -7.693403      -209.3481
  21   2.0000      -6.706910      -182.5043
  22   2.0000      -6.705759      -182.4730
  23   2.0000      -6.704751      -182.4455
  24   2.0000      -6.685959      -181.9342
  25   2.0000      -6.684423      -181.8924
  26   2.0000      -6.684141      -181.8847
  27   2.0000      -6.658932      -181.1987
  28   2.0000      -6.658057      -181.1749
  29   2.0000      -6.657466      -181.1588
  30   2.0000      -6.655467      -181.1045
  31   2.0000      -6.654648      -181.0822
  32   2.0000      -6.654093      -181.0671
  33   2.0000      -1.683891       -45.8210
  34   2.0000      -1.224217       -33.3126
  35   2.0000      -1.131328       -30.7850
  36   2.0000      -1.098040       -29.8792
  37   2.0000      -1.028506       -27.9871
  38   2.0000      -0.982227       -26.7278
  39   2.0000      -0.947009       -25.7694
  40   2.0000      -0.865393       -23.5485
  41   2.0000      -0.757971       -20.6254
  42   2.0000      -0.754327       -20.5263
  43   2.0000      -0.727194       -19.7880
  44   2.0000      -0.667276       -18.1575
  45   2.0000      -0.620013       -16.8714
  46   2.0000      -0.594496       -16.1771
  47   2.0000      -0.580873       -15.8064
  48   2.0000      -0.545221       -14.8362
  49   2.0000      -0.533308       -14.5120
  50   2.0000      -0.513126       -13.9629
  51   2.0000      -0.499834       -13.6012
  52   2.0000      -0.491842       -13.3837
  53   2.0000      -0.474632       -12.9154
  54   2.0000      -0.466388       -12.6911
  55   2.0000      -0.459516       -12.5041
  56   2.0000      -0.457715       -12.4551
  57   2.0000      -0.401280       -10.9194
  58   2.0000      -0.393970       -10.7205
  59   2.0000      -0.382692       -10.4136
  60   0.0000       0.027717         0.7542
  61   0.0000       0.034312         0.9337
  62   0.0000       0.038308         1.0424
  63   0.0000       0.040390         1.0991
  64   0.0000       0.055295         1.5046

MULLIKEN ATOMIC CHARGES
-----------------------
   0 S :    0.074593
   1 B :    0.017307
   2 S :   -0.048096
   3 S :    0.009181
   4 S :   -0.015752
   5 C :    0.771734
   6 F :   -0.553942
   7 Cl:   -0.171256
   8 Cl:   -0.167938
   9 H :    0.044268
  10 H :    0.039899
Sum of atomic charges:    0.0000000

LOEWDIN ATOMIC CHARGES
----------------------
   0 S :    0.776698
   1 B :   -2.277811
   2 S :    1.549149
   3 S :    1.592738
   4 S :    0.495771
   5 C :   -2.944332
   6 F :    0.570808
   7 Cl:    0.989403
   8 Cl:    0.979375
   9 H :   -0.904545
  10 H :   -0.827254

  Mayer bond orders larger than 0.100000
B(  0-S ,  1-B ) :   1.1972 B(  0-S ,  4-S ) :   1.1101 B(  1-B ,  2-S ) :   1.0907
B(  1-B ,  3-S ) :   1.2016 B(  2-S , 10-H ) :   1.0688 B(  3-S ,  9-H ) :   1.0285
B(  4-S ,  5-C ) :   0.9352 B(  5-C ,  6-F ) :   0.4949 B(  5-C ,  7-Cl) :   0.8090
B(  5-C ,  8-Cl) :   0.8186

MP2 TOTAL ENERGY:    -2674.294062405 Eh
FINAL SINGLE POINT ENERGY     -2674.294062405307

DIPOLE MOMENT
-------------
                                X             Y             Z
Electronic contribution:     10.30782      -0.58673      -1.71209
Nuclear contribution   :    -10.11423       0.35251       2.04839
                        -----------------------------------------
Total Dipole Moment    :      0.19358      -0.23422       0.33630
                        -----------------------------------------
Magnitude (a.u.)       :      0.45325
Magnitude (Debye)      :      1.15206

Rotational constants in cm-1:     0.039123     0.012197     0.010827
Rotational constants in MHz :  1172.891213   365.663034   324.577614

                             ****ORCA TERMINATED NORMALLY****
TOTAL RUN TIME: 0 days 1 hours 21 minutes 59 seconds 642 msec
