                         Program Version 5.0.4 -  RELEASE  -
|  1> ! ri-mp2 aug-cc-pvdz aug-cc-pvdz/c tightscf
|  2> %pal nprocs 16 end
|  3> %maxcore 3800
|  4> %base "DZ_B-F_4_A"
|  5> %scf
|  6> STABPerform true
|  7> STABRestartUHFifUnstable true
|  8> end
|  9>
| 10> *xyz 0 2
| 11> F         1.218471    0.141293   -0.000001
| 12> N        -1.154349    0.097704    0.000001
| 13> B         0.077318   -0.530038    0.000000
| 14> H        -1.251581    1.103243    0.000001
| 15> H        -2.020812   -0.408620    0.000003
| 16> *
| 17>
| 18> $new_job
| 19> ! ri-mp2 aug-cc-pvtz aug-cc-pvtz/c tightscf
| 20> %pal nprocs 16 end
| 21> %maxcore 3800
| 22> %base "TZ_B-F_4_A"
| 23>
| 24> *xyz 0 2
| 25> F         1.218471    0.141293   -0.000001
| 26> N        -1.154349    0.097704    0.000001
| 27> B         0.077318   -0.530038    0.000000
| 28> H        -1.251581    1.103243    0.000001
| 29> H        -2.020812   -0.408620    0.000003
| 30> *
| 31>
| 32> $new_job
| 33> ! ri-mp2 aug-cc-pvqz aug-cc-pvqz/c tightscf
| 34> %pal nprocs 16 end
| 35> %maxcore 3800
| 36> %base "QZ_B-F_4_A"
| 37>
| 38> *xyz 0 2
| 39> F         1.218471    0.141293   -0.000001
| 40> N        -1.154349    0.097704    0.000001
| 41> B         0.077318   -0.530038    0.000000
| 42> H        -1.251581    1.103243    0.000001
| 43> H        -2.020812   -0.408620    0.000003
| 44> *
| 45>
| 46>
| 47>
| 48>
| 49>                          ****END OF INPUT****
 Total Charge           Charge          ....    0
 Multiplicity           Mult            ....    2
 Number of Electrons    NEL             ....   23
MP2 TOTAL ENERGY:     -180.246071344 Eh
FINAL SINGLE POINT ENERGY      -180.246071344274
MP2 TOTAL ENERGY:     -180.404174210 Eh
FINAL SINGLE POINT ENERGY      -180.404174209752

CARTESIAN COORDINATES (ANGSTROEM)
---------------------------------
  F      1.218471    0.141293   -0.000001
  N     -1.154349    0.097704    0.000001
  B      0.077318   -0.530038    0.000000
  H     -1.251581    1.103243    0.000001
  H     -2.020812   -0.408620    0.000003

 Multiplicity           Mult            ....    2
 Number of Electrons    NEL             ....   23
 Basis Dimension        Dim             ....  332

ORBITAL ENERGIES
----------------
                 SPIN UP ORBITALS
  NO   OCC          E(Eh)            E(eV)
   0   1.0000     -26.294341      -715.5054
   1   1.0000     -15.567319      -423.6083
   2   1.0000      -7.670287      -208.7191
   3   1.0000      -1.611482       -43.8506
   4   1.0000      -1.181814       -32.1588
   5   1.0000      -0.784556       -21.3489
   6   1.0000      -0.718056       -19.5393
   7   1.0000      -0.703059       -19.1312
   8   1.0000      -0.672568       -18.3015
   9   1.0000      -0.645338       -17.5605
  10   1.0000      -0.450879       -12.2690
  11   1.0000      -0.359283        -9.7766
  12   0.0000       0.024076         0.6551
  13   0.0000       0.037278         1.0144
  14   0.0000       0.042035         1.1438
  15   0.0000       0.043217         1.1760
  16   0.0000       0.059721         1.6251

                 SPIN DOWN ORBITALS
  NO   OCC          E(Eh)            E(eV)
   0   1.0000     -26.290908      -715.4120
   1   1.0000     -15.566509      -423.5862
   2   1.0000      -7.649394      -208.1506
   3   1.0000      -1.601515       -43.5795
   4   1.0000      -1.176265       -32.0078
   5   1.0000      -0.771462       -20.9926
   6   1.0000      -0.695015       -18.9123
   7   1.0000      -0.686183       -18.6720
   8   1.0000      -0.669846       -18.2274
   9   1.0000      -0.629748       -17.1363
  10   1.0000      -0.456604       -12.4248
  11   0.0000       0.019986         0.5439
  12   0.0000       0.037479         1.0199
  13   0.0000       0.041852         1.1389
  14   0.0000       0.042738         1.1630
  15   0.0000       0.058788         1.5997

MULLIKEN ATOMIC CHARGES AND SPIN POPULATIONS
--------------------------------------------
   0 F :   -0.691907   -0.007724
   1 N :   -0.617488   -0.022165
   2 B :    0.795928    1.002220
   3 H :    0.251352    0.036487
   4 H :    0.262115   -0.008818
Sum of atomic charges         :    0.0000000

LOEWDIN ATOMIC CHARGES AND SPIN POPULATIONS
-------------------------------------------
   0 F :    0.692181    0.152967
   1 N :    1.231533    0.170034
   2 B :   -0.811799    0.606678
   3 H :   -0.540782    0.024638
   4 H :   -0.571132    0.045683

  Mayer bond orders larger than 0.100000
B(  0-F ,  2-B ) :   0.4694 B(  1-N ,  2-B ) :   1.2956 B(  1-N ,  3-H ) :   0.9552
B(  1-N ,  4-H ) :   0.9757

MP2 TOTAL ENERGY:     -180.454839064 Eh
FINAL SINGLE POINT ENERGY      -180.454839064011

DIPOLE MOMENT
-------------
                                X             Y             Z
Electronic contribution:      3.33664      -0.67290      -0.00000
Nuclear contribution   :     -4.28349       0.92625       0.00000
                        -----------------------------------------
Total Dipole Moment    :     -0.94685       0.25335       0.00000
                        -----------------------------------------
Magnitude (a.u.)       :      0.98016
Magnitude (Debye)      :      2.49136

Rotational constants in cm-1:     3.432423     0.322954     0.295181
Rotational constants in MHz : 102901.466061  9681.921171  8849.297461

                             ****ORCA TERMINATED NORMALLY****
TOTAL RUN TIME: 0 days 0 hours 5 minutes 48 seconds 966 msec
