                         Program Version 5.0.4 -  RELEASE  -
|  1> ! ri-mp2 aug-cc-pvdz aug-cc-pvdz/c tightscf
|  2> %pal nprocs 16 end
|  3> %maxcore 3800
|  4> %base "DZ_P-Si_56_AB"
|  5>
|  6> *xyz 0 1
|  7> Si         2.508621   -0.021872   -0.912233
|  8> P         1.466868   -0.064206    1.084318
|  9> C        -0.255431    0.008934    0.462631
| 10> C        -0.931067   -1.190844    0.258870
| 11> C        -0.922346    1.202218    0.201590
| 12> C        -2.230137    1.194644   -0.250114
| 13> C        -2.888646   -0.005502   -0.460544
| 14> C        -2.234090   -1.198711   -0.207573
| 15> H        -3.909765   -0.010094   -0.817589
| 16> H        -2.742189   -2.141004   -0.364549
| 17> H        -0.434022   -2.129218    0.472527
| 18> H        -0.414559    2.146318    0.350098
| 19> H        -2.735436    2.131762   -0.443567
| 20> H         1.644852    1.315331    1.336327
| 21> H         2.254806   -1.317751   -1.576951
| 22> H         3.964404    0.138648   -0.698091
| 23> H         2.018496    1.070875   -1.780875
| 24> *
| 25>
| 26> $new_job
| 27> ! ri-mp2 aug-cc-pvtz aug-cc-pvtz/c tightscf
| 28> %pal nprocs 16 end
| 29> %maxcore 3800
| 30> %base "TZ_P-Si_56_AB"
| 31>
| 32> *xyz 0 1
| 33> Si         2.508621   -0.021872   -0.912233
| 34> P         1.466868   -0.064206    1.084318
| 35> C        -0.255431    0.008934    0.462631
| 36> C        -0.931067   -1.190844    0.258870
| 37> C        -0.922346    1.202218    0.201590
| 38> C        -2.230137    1.194644   -0.250114
| 39> C        -2.888646   -0.005502   -0.460544
| 40> C        -2.234090   -1.198711   -0.207573
| 41> H        -3.909765   -0.010094   -0.817589
| 42> H        -2.742189   -2.141004   -0.364549
| 43> H        -0.434022   -2.129218    0.472527
| 44> H        -0.414559    2.146318    0.350098
| 45> H        -2.735436    2.131762   -0.443567
| 46> H         1.644852    1.315331    1.336327
| 47> H         2.254806   -1.317751   -1.576951
| 48> H         3.964404    0.138648   -0.698091
| 49> H         2.018496    1.070875   -1.780875
| 50> *
| 51>
| 52> $new_job
| 53> ! ri-mp2 aug-cc-pvqz aug-cc-pvqz/c tightscf
| 54> %pal nprocs 16 end
| 55> %maxcore 3800
| 56> %base "QZ_P-Si_56_AB"
| 57>
| 58> *xyz 0 1
| 59> Si         2.508621   -0.021872   -0.912233
| 60> P         1.466868   -0.064206    1.084318
| 61> C        -0.255431    0.008934    0.462631
| 62> C        -0.931067   -1.190844    0.258870
| 63> C        -0.922346    1.202218    0.201590
| 64> C        -2.230137    1.194644   -0.250114
| 65> C        -2.888646   -0.005502   -0.460544
| 66> C        -2.234090   -1.198711   -0.207573
| 67> H        -3.909765   -0.010094   -0.817589
| 68> H        -2.742189   -2.141004   -0.364549
| 69> H        -0.434022   -2.129218    0.472527
| 70> H        -0.414559    2.146318    0.350098
| 71> H        -2.735436    2.131762   -0.443567
| 72> H         1.644852    1.315331    1.336327
| 73> H         2.254806   -1.317751   -1.576951
| 74> H         3.964404    0.138648   -0.698091
| 75> H         2.018496    1.070875   -1.780875
| 76> *
| 77>
| 78>
| 79>
| 80>
| 81>                          ****END OF INPUT****
 Total Charge           Charge          ....    0
 Multiplicity           Mult            ....    1
 Number of Electrons    NEL             ....   74
MP2 TOTAL ENERGY:     -863.189746580 Eh
FINAL SINGLE POINT ENERGY      -863.189746579555
MP2 TOTAL ENERGY:     -863.472880834 Eh
FINAL SINGLE POINT ENERGY      -863.472880834004

CARTESIAN COORDINATES (ANGSTROEM)
---------------------------------
  Si     2.508621   -0.021872   -0.912233
  P      1.466868   -0.064206    1.084318
  C     -0.255431    0.008934    0.462631
  C     -0.931067   -1.190844    0.258870
  C     -0.922346    1.202218    0.201590
  C     -2.230137    1.194644   -0.250114
  C     -2.888646   -0.005502   -0.460544
  C     -2.234090   -1.198711   -0.207573
  H     -3.909765   -0.010094   -0.817589
  H     -2.742189   -2.141004   -0.364549
  H     -0.434022   -2.129218    0.472527
  H     -0.414559    2.146318    0.350098
  H     -2.735436    2.131762   -0.443567
  H      1.644852    1.315331    1.336327
  H      2.254806   -1.317751   -1.576951
  H      3.964404    0.138648   -0.698091
  H      2.018496    1.070875   -1.780875

 Multiplicity           Mult            ....    1
 Number of Electrons    NEL             ....   74
 Basis Dimension        Dim             .... 1062

ORBITAL ENERGIES
----------------

  NO   OCC          E(Eh)            E(eV)
   0   2.0000     -79.934432     -2175.1265
   1   2.0000     -68.775385     -1871.4734
   2   2.0000     -11.248137      -306.0774
   3   2.0000     -11.240012      -305.8563
   4   2.0000     -11.239615      -305.8455
   5   2.0000     -11.238468      -305.8143
   6   2.0000     -11.237691      -305.7931
   7   2.0000     -11.236756      -305.7677
   8   2.0000      -7.478560      -203.5020
   9   2.0000      -6.124913      -166.6674
  10   2.0000      -5.372584      -146.1954
  11   2.0000      -5.372181      -146.1845
  12   2.0000      -5.371554      -146.1674
  13   2.0000      -4.231107      -115.1343
  14   2.0000      -4.230945      -115.1299
  15   2.0000      -4.230760      -115.1248
  16   2.0000      -1.163836       -31.6696
  17   2.0000      -1.032579       -28.0979
  18   2.0000      -1.024581       -27.8803
  19   2.0000      -0.874083       -23.7850
  20   2.0000      -0.834875       -22.7181
  21   2.0000      -0.795453       -21.6454
  22   2.0000      -0.712564       -19.3899
  23   2.0000      -0.686676       -18.6854
  24   2.0000      -0.638031       -17.3617
  25   2.0000      -0.631362       -17.1802
  26   2.0000      -0.594931       -16.1889
  27   2.0000      -0.561250       -15.2724
  28   2.0000      -0.523552       -14.2466
  29   2.0000      -0.505369       -13.7518
  30   2.0000      -0.499061       -13.5801
  31   2.0000      -0.490528       -13.3479
  32   2.0000      -0.473487       -12.8842
  33   2.0000      -0.439250       -11.9526
  34   2.0000      -0.382976       -10.4213
  35   2.0000      -0.345965        -9.4142
  36   2.0000      -0.318356        -8.6629
  37   0.0000       0.022219         0.6046
  38   0.0000       0.028232         0.7682
  39   0.0000       0.029577         0.8048
  40   0.0000       0.035592         0.9685
  41   0.0000       0.040950         1.1143

MULLIKEN ATOMIC CHARGES
-----------------------
   0 Si:    0.541176
   1 P :    0.225227
   2 C :   -0.038213
   3 C :   -0.318419
   4 C :   -0.462350
   5 C :   -0.272029
   6 C :   -0.348626
   7 C :   -0.278778
   8 H :    0.370016
   9 H :    0.243336
  10 H :    0.371762
  11 H :    0.343456
  12 H :    0.252509
  13 H :   -0.125037
  14 H :   -0.136481
  15 H :   -0.240067
  16 H :   -0.127482
Sum of atomic charges:   -0.0000000

LOEWDIN ATOMIC CHARGES
----------------------
   0 Si:    0.866498
   1 P :    1.119284
   2 C :   -0.391700
   3 C :    0.217805
   4 C :    0.233602
   5 C :    0.336399
   6 C :    0.334985
   7 C :    0.335098
   8 H :   -0.320851
   9 H :   -0.319426
  10 H :   -0.342232
  11 H :   -0.345875
  12 H :   -0.319510
  13 H :   -0.503161
  14 H :   -0.299717
  15 H :   -0.314804
  16 H :   -0.286395

  Mayer bond orders larger than 0.100000
B(  0-Si,  1-P ) :   0.8062 B(  0-Si, 14-H ) :   0.7668 B(  0-Si, 15-H ) :   0.7442
B(  0-Si, 16-H ) :   0.7511 B(  1-P ,  2-C ) :   0.8220 B(  1-P ,  3-C ) :  -0.2521
B(  1-P ,  4-C ) :  -0.1150 B(  1-P , 13-H ) :   0.9754 B(  2-C ,  3-C ) :   0.8456
B(  2-C ,  4-C ) :   0.7981 B(  2-C ,  5-C ) :  -0.2914 B(  2-C ,  7-C ) :  -0.2810
B(  2-C , 10-H ) :  -0.1351 B(  2-C , 13-H ) :  -0.1465 B(  3-C ,  5-C ) :   0.1380
B(  3-C ,  6-C ) :   0.1100 B(  3-C ,  7-C ) :   1.3480 B(  3-C ,  9-H ) :  -0.1343
B(  3-C , 10-H ) :   0.8992 B(  4-C ,  5-C ) :   1.3812 B(  4-C ,  6-C ) :   0.1375
B(  4-C ,  7-C ) :   0.1626 B(  4-C , 11-H ) :   0.9129 B(  4-C , 12-H ) :  -0.1295
B(  5-C ,  6-C ) :   1.1330 B(  5-C ,  7-C ) :  -0.1278 B(  5-C , 12-H ) :   1.1080
B(  6-C ,  7-C ) :   1.1333 B(  6-C ,  8-H ) :   0.9580 B(  7-C ,  9-H ) :   1.1167

MP2 TOTAL ENERGY:     -863.563422310 Eh
FINAL SINGLE POINT ENERGY      -863.563422310337

DIPOLE MOMENT
-------------
                                X             Y             Z
Electronic contribution:      1.52008      -1.03203       4.18595
Nuclear contribution   :     -1.88615       1.25631      -4.46079
                        -----------------------------------------
Total Dipole Moment    :     -0.36607       0.22428      -0.27484
                        -----------------------------------------
Magnitude (a.u.)       :      0.50975
Magnitude (Debye)      :      1.29568

Rotational constants in cm-1:     0.099961     0.027192     0.026524
Rotational constants in MHz :  2996.750314   815.199459   795.170261

                             ****ORCA TERMINATED NORMALLY****
TOTAL RUN TIME: 0 days 0 hours 35 minutes 13 seconds 883 msec
