                         Program Version 5.0.4 -  RELEASE  -
|  1> ! ri-mp2 aug-cc-pvdz aug-cc-pvdz/c tightscf
|  2> %pal nprocs 16 end
|  3> %maxcore 3800
|  4> %base "DZ_B-B_23_AB"
|  5> %scf
|  6> STABPerform true
|  7> STABRestartUHFifUnstable true
|  8> end
|  9>
| 10> *xyz 0 1
| 11> B         0.069502    0.405701    0.170165
| 12> B        -0.352978    1.945703   -0.150650
| 13> C        -1.214019   -0.387556    0.085892
| 14> O        -2.195175   -0.910441   -0.091281
| 15> Cl         1.607411   -0.490354   -0.039995
| 16> H        -1.487303    2.292116   -0.035906
| 17> H         0.501247    2.749428   -0.343606
| 18> H        -0.077043    1.146322    1.176743
| 19> *
| 20>
| 21> $new_job
| 22> ! ri-mp2 aug-cc-pvtz aug-cc-pvtz/c tightscf
| 23> %pal nprocs 16 end
| 24> %maxcore 3800
| 25> %base "TZ_B-B_23_AB"
| 26>
| 27> *xyz 0 1
| 28> B         0.069502    0.405701    0.170165
| 29> B        -0.352978    1.945703   -0.150650
| 30> C        -1.214019   -0.387556    0.085892
| 31> O        -2.195175   -0.910441   -0.091281
| 32> Cl         1.607411   -0.490354   -0.039995
| 33> H        -1.487303    2.292116   -0.035906
| 34> H         0.501247    2.749428   -0.343606
| 35> H        -0.077043    1.146322    1.176743
| 36> *
| 37>
| 38> $new_job
| 39> ! ri-mp2 aug-cc-pvqz aug-cc-pvqz/c tightscf
| 40> %pal nprocs 16 end
| 41> %maxcore 3800
| 42> %base "QZ_B-B_23_AB"
| 43>
| 44> *xyz 0 1
| 45> B         0.069502    0.405701    0.170165
| 46> B        -0.352978    1.945703   -0.150650
| 47> C        -1.214019   -0.387556    0.085892
| 48> O        -2.195175   -0.910441   -0.091281
| 49> Cl         1.607411   -0.490354   -0.039995
| 50> H        -1.487303    2.292116   -0.035906
| 51> H         0.501247    2.749428   -0.343606
| 52> H        -0.077043    1.146322    1.176743
| 53> *
| 54>
| 55>
| 56>
| 57>
| 58>                          ****END OF INPUT****
 Total Charge           Charge          ....    0
 Multiplicity           Mult            ....    1
 Number of Electrons    NEL             ....   44
MP2 TOTAL ENERGY:     -624.005343404 Eh
FINAL SINGLE POINT ENERGY      -624.005343403749
MP2 TOTAL ENERGY:     -624.204689468 Eh
FINAL SINGLE POINT ENERGY      -624.204689468313

CARTESIAN COORDINATES (ANGSTROEM)
---------------------------------
  B      0.069502    0.405701    0.170165
  B     -0.352978    1.945703   -0.150650
  C     -1.214019   -0.387556    0.085892
  O     -2.195175   -0.910441   -0.091281
  Cl     1.607411   -0.490354   -0.039995
  H     -1.487303    2.292116   -0.035906
  H      0.501247    2.749428   -0.343606
  H     -0.077043    1.146322    1.176743

 Multiplicity           Mult            ....    1
 Number of Electrons    NEL             ....   44
 Basis Dimension        Dim             ....  542

ORBITAL ENERGIES
----------------

  NO   OCC          E(Eh)            E(eV)
   0   2.0000    -104.820591     -2852.3133
   1   2.0000     -20.716758      -563.7316
   2   2.0000     -11.443914      -311.4047
   3   2.0000     -10.547397      -287.0093
   4   2.0000      -8.014414      -218.0833
   5   2.0000      -8.013167      -218.0494
   6   2.0000      -8.013045      -218.0460
   7   2.0000      -7.635144      -207.7628
   8   2.0000      -7.601556      -206.8488
   9   2.0000      -1.574944       -42.8564
  10   2.0000      -1.097143       -29.8548
  11   2.0000      -0.927707       -25.2442
  12   2.0000      -0.820851       -22.3365
  13   2.0000      -0.726754       -19.7760
  14   2.0000      -0.706175       -19.2160
  15   2.0000      -0.687745       -18.7145
  16   2.0000      -0.588899       -16.0248
  17   2.0000      -0.548498       -14.9254
  18   2.0000      -0.496854       -13.5201
  19   2.0000      -0.484188       -13.1754
  20   2.0000      -0.453337       -12.3359
  21   2.0000      -0.370473       -10.0811
  22   0.0000       0.023198         0.6312
  23   0.0000       0.029937         0.8146
  24   0.0000       0.031844         0.8665
  25   0.0000       0.034044         0.9264
  26   0.0000       0.045304         1.2328

MULLIKEN ATOMIC CHARGES
-----------------------
   0 B :    0.277711
   1 B :    0.337210
   2 C :    0.714752
   3 O :   -0.553344
   4 Cl:   -0.329638
   5 H :   -0.223263
   6 H :   -0.189115
   7 H :   -0.034314
Sum of atomic charges:    0.0000000

LOEWDIN ATOMIC CHARGES
----------------------
   0 B :   -1.325477
   1 B :    0.308144
   2 C :   -0.286576
   3 O :    0.758301
   4 Cl:    1.294304
   5 H :   -0.180398
   6 H :   -0.176596
   7 H :   -0.391700

  Mayer bond orders larger than 0.100000
B(  0-B ,  1-B ) :   0.9029 B(  0-B ,  2-C ) :   0.8584 B(  0-B ,  4-Cl) :   0.9543
B(  0-B ,  7-H ) :   0.6582 B(  1-B ,  2-C ) :   0.1292 B(  1-B ,  5-H ) :   0.9547
B(  1-B ,  6-H ) :   0.9843 B(  1-B ,  7-H ) :   0.2360 B(  2-C ,  3-O ) :   1.8731

MP2 TOTAL ENERGY:     -624.270596141 Eh
FINAL SINGLE POINT ENERGY      -624.270596141250

DIPOLE MOMENT
-------------
                                X             Y             Z
Electronic contribution:      2.14264      -4.85470      -0.58162
Nuclear contribution   :     -2.97213       4.67098       0.78529
                        -----------------------------------------
Total Dipole Moment    :     -0.82948      -0.18372       0.20367
                        -----------------------------------------
Magnitude (a.u.)       :      0.87366
Magnitude (Debye)      :      2.22066

Rotational constants in cm-1:     0.204094     0.087563     0.062335
Rotational constants in MHz :  6118.584726  2625.059238  1868.761578

                             ****ORCA TERMINATED NORMALLY****
TOTAL RUN TIME: 0 days 0 hours 15 minutes 17 seconds 739 msec
