                         Program Version 5.0.4 -  RELEASE  -
|  1> ! ri-mp2 aug-cc-pvdz aug-cc-pvdz/c tightscf
|  2> %pal nprocs 16 end
|  3> %maxcore 3800
|  4> %base "DZ_Si-Cl_75_AB"
|  5> %scf
|  6> STABPerform true
|  7> STABRestartUHFifUnstable true
|  8> end
|  9>
| 10> *xyz 0 1
| 11> Si        -0.331438    0.000000    0.000015
| 12> F        -0.878241    1.275847    0.723390
| 13> F        -0.878244   -1.264400    0.743213
| 14> Cl         1.667890   -0.000001   -0.000051
| 15> F        -0.878403   -0.011445   -1.466529
| 16> *
| 17>
| 18> $new_job
| 19> ! ri-mp2 aug-cc-pvtz aug-cc-pvtz/c tightscf
| 20> %pal nprocs 16 end
| 21> %maxcore 3800
| 22> %base "TZ_Si-Cl_75_AB"
| 23>
| 24> *xyz 0 1
| 25> Si        -0.331438    0.000000    0.000015
| 26> F        -0.878241    1.275847    0.723390
| 27> F        -0.878244   -1.264400    0.743213
| 28> Cl         1.667890   -0.000001   -0.000051
| 29> F        -0.878403   -0.011445   -1.466529
| 30> *
| 31>
| 32> $new_job
| 33> ! ri-mp2 aug-cc-pvqz aug-cc-pvqz/c tightscf
| 34> %pal nprocs 16 end
| 35> %maxcore 3800
| 36> %base "QZ_Si-Cl_75_AB"
| 37>
| 38> *xyz 0 1
| 39> Si        -0.331438    0.000000    0.000015
| 40> F        -0.878241    1.275847    0.723390
| 41> F        -0.878244   -1.264400    0.743213
| 42> Cl         1.667890   -0.000001   -0.000051
| 43> F        -0.878403   -0.011445   -1.466529
| 44> *
| 45>
| 46>
| 47>
| 48>
| 49>                          ****END OF INPUT****
 Total Charge           Charge          ....    0
 Multiplicity           Mult            ....    1
 Number of Electrons    NEL             ....   58
MP2 TOTAL ENERGY:    -1047.882071278 Eh
FINAL SINGLE POINT ENERGY     -1047.882071278315
MP2 TOTAL ENERGY:    -1048.250293316 Eh
FINAL SINGLE POINT ENERGY     -1048.250293315932

CARTESIAN COORDINATES (ANGSTROEM)
---------------------------------
  Si    -0.331438    0.000000    0.000015
  F     -0.878241    1.275847    0.723390
  F     -0.878244   -1.264400    0.743213
  Cl     1.667890   -0.000001   -0.000051
  F     -0.878403   -0.011445   -1.466529

 Multiplicity           Mult            ....    1
 Number of Electrons    NEL             ....   58
 Basis Dimension        Dim             ....  408

ORBITAL ENERGIES
----------------

  NO   OCC          E(Eh)            E(eV)
   0   2.0000    -104.870948     -2853.6836
   1   2.0000     -68.933132     -1875.7659
   2   2.0000     -26.332114      -716.5332
   3   2.0000     -26.332112      -716.5332
   4   2.0000     -26.332098      -716.5328
   5   2.0000     -10.598668      -288.4044
   6   2.0000      -8.065528      -219.4742
   7   2.0000      -8.064258      -219.4396
   8   2.0000      -8.064258      -219.4396
   9   2.0000      -6.264380      -170.4624
  10   2.0000      -4.373507      -119.0092
  11   2.0000      -4.373507      -119.0092
  12   2.0000      -4.373483      -119.0085
  13   2.0000      -1.659760       -45.1644
  14   2.0000      -1.630668       -44.3727
  15   2.0000      -1.630664       -44.3726
  16   2.0000      -1.145714       -31.1765
  17   2.0000      -0.841225       -22.8909
  18   2.0000      -0.770125       -20.9562
  19   2.0000      -0.770121       -20.9560
  20   2.0000      -0.742972       -20.2173
  21   2.0000      -0.717918       -19.5355
  22   2.0000      -0.717914       -19.5354
  23   2.0000      -0.692451       -18.8425
  24   2.0000      -0.692447       -18.8424
  25   2.0000      -0.673873       -18.3370
  26   2.0000      -0.596377       -16.2282
  27   2.0000      -0.514587       -14.0026
  28   2.0000      -0.514586       -14.0026
  29   0.0000       0.035046         0.9536
  30   0.0000       0.043510         1.1840
  31   0.0000       0.043510         1.1840
  32   0.0000       0.045572         1.2401
  33   0.0000       0.091504         2.4899

MULLIKEN ATOMIC CHARGES
-----------------------
   0 Si:    2.477106
   1 F :   -0.674988
   2 F :   -0.674988
   3 Cl:   -0.452135
   4 F :   -0.674995
Sum of atomic charges:    0.0000000

LOEWDIN ATOMIC CHARGES
----------------------
   0 Si:   -2.141255
   1 F :    0.398166
   2 F :    0.398167
   3 Cl:    0.946754
   4 F :    0.398168

  Mayer bond orders larger than 0.100000
B(  0-Si,  1-F ) :   0.5505 B(  0-Si,  2-F ) :   0.5505 B(  0-Si,  3-Cl) :   0.7971
B(  0-Si,  4-F ) :   0.5505

MP2 TOTAL ENERGY:    -1048.374042251 Eh
FINAL SINGLE POINT ENERGY     -1048.374042251163

DIPOLE MOMENT
-------------
                                X             Y             Z
Electronic contribution:      0.05948      -0.00000       0.00003
Nuclear contribution   :      0.21340      -0.00000      -0.00000
                        -----------------------------------------
Total Dipole Moment    :      0.27288      -0.00000       0.00003
                        -----------------------------------------
Magnitude (a.u.)       :      0.27288
Magnitude (Debye)      :      0.69360

Rotational constants in cm-1:     0.137508     0.081450     0.081448
Rotational constants in MHz :  4122.386776  2441.801905  2441.744090

                             ****ORCA TERMINATED NORMALLY****
TOTAL RUN TIME: 0 days 0 hours 5 minutes 5 seconds 472 msec
