                         Program Version 5.0.4 -  RELEASE  -
|  1> ! ri-mp2 aug-cc-pvdz aug-cc-pvdz/c tightscf
|  2> %pal nprocs 16 end
|  3> %maxcore 3800
|  4> %base "DZ_Si-Si_99_AB"
|  5> %scf
|  6> STABPerform true
|  7> STABRestartUHFifUnstable true
|  8> end
|  9>
| 10> *xyz 0 1
| 11> Si        -1.730798   -0.471545   -0.000001
| 12> Si         0.157995    0.903821   -0.000002
| 13> H        -2.937818    0.382487   -0.000008
| 14> H        -1.719289   -1.318006    1.210174
| 15> H        -1.719281   -1.318017   -1.210168
| 16> C         1.659379   -0.180620    0.000004
| 17> H         0.249171    1.745556    1.207765
| 18> H         0.249178    1.745546   -1.207775
| 19> N         2.563001   -0.886530    0.000004
| 20> *
| 21>
| 22> $new_job
| 23> ! ri-mp2 aug-cc-pvtz aug-cc-pvtz/c tightscf
| 24> %pal nprocs 16 end
| 25> %maxcore 3800
| 26> %base "TZ_Si-Si_99_AB"
| 27>
| 28> *xyz 0 1
| 29> Si        -1.730798   -0.471545   -0.000001
| 30> Si         0.157995    0.903821   -0.000002
| 31> H        -2.937818    0.382487   -0.000008
| 32> H        -1.719289   -1.318006    1.210174
| 33> H        -1.719281   -1.318017   -1.210168
| 34> C         1.659379   -0.180620    0.000004
| 35> H         0.249171    1.745556    1.207765
| 36> H         0.249178    1.745546   -1.207775
| 37> N         2.563001   -0.886530    0.000004
| 38> *
| 39>
| 40> $new_job
| 41> ! ri-mp2 aug-cc-pvqz aug-cc-pvqz/c tightscf
| 42> %pal nprocs 16 end
| 43> %maxcore 3800
| 44> %base "QZ_Si-Si_99_AB"
| 45>
| 46> *xyz 0 1
| 47> Si        -1.730798   -0.471545   -0.000001
| 48> Si         0.157995    0.903821   -0.000002
| 49> H        -2.937818    0.382487   -0.000008
| 50> H        -1.719289   -1.318006    1.210174
| 51> H        -1.719281   -1.318017   -1.210168
| 52> C         1.659379   -0.180620    0.000004
| 53> H         0.249171    1.745556    1.207765
| 54> H         0.249178    1.745546   -1.207775
| 55> N         2.563001   -0.886530    0.000004
| 56> *
| 57>
| 58>
| 59>
| 60>
| 61>                          ****END OF INPUT****
 Total Charge           Charge          ....    0
 Multiplicity           Mult            ....    1
 Number of Electrons    NEL             ....   46
MP2 TOTAL ENERGY:     -673.594901084 Eh
FINAL SINGLE POINT ENERGY      -673.594901084462
MP2 TOTAL ENERGY:     -673.743808562 Eh
FINAL SINGLE POINT ENERGY      -673.743808561626

CARTESIAN COORDINATES (ANGSTROEM)
---------------------------------
  Si    -1.730798   -0.471545   -0.000001
  Si     0.157995    0.903821   -0.000002
  H     -2.937818    0.382487   -0.000008
  H     -1.719289   -1.318006    1.210174
  H     -1.719281   -1.318017   -1.210168
  C      1.659379   -0.180620    0.000004
  H      0.249171    1.745556    1.207765
  H      0.249178    1.745546   -1.207775
  N      2.563001   -0.886530    0.000004

 Multiplicity           Mult            ....    1
 Number of Electrons    NEL             ....   46
 Basis Dimension        Dim             ....  558

ORBITAL ENERGIES
----------------

  NO   OCC          E(Eh)            E(eV)
   0   2.0000     -68.813388     -1872.5075
   1   2.0000     -68.790227     -1871.8772
   2   2.0000     -15.580963      -423.9796
   3   2.0000     -11.254135      -306.2406
   4   2.0000      -6.162892      -167.7008
   5   2.0000      -6.141146      -167.1091
   6   2.0000      -4.269696      -116.1843
   7   2.0000      -4.268797      -116.1599
   8   2.0000      -4.268772      -116.1592
   9   2.0000      -4.247405      -115.5778
  10   2.0000      -4.247157      -115.5710
  11   2.0000      -4.247106      -115.5696
  12   2.0000      -1.224668       -33.3249
  13   2.0000      -0.818156       -22.2631
  14   2.0000      -0.729231       -19.8434
  15   2.0000      -0.620897       -16.8955
  16   2.0000      -0.549606       -14.9555
  17   2.0000      -0.538356       -14.6494
  18   2.0000      -0.507128       -13.7997
  19   2.0000      -0.502543       -13.6749
  20   2.0000      -0.495311       -13.4781
  21   2.0000      -0.472260       -12.8508
  22   2.0000      -0.425195       -11.5701
  23   0.0000       0.021423         0.5830
  24   0.0000       0.026351         0.7170
  25   0.0000       0.035220         0.9584
  26   0.0000       0.039812         1.0833
  27   0.0000       0.046024         1.2524

MULLIKEN ATOMIC CHARGES
-----------------------
   0 Si:    0.337842
   1 Si:    1.020792
   2 H :   -0.138982
   3 H :   -0.113805
   4 H :   -0.113805
   5 C :   -0.105577
   6 H :   -0.180060
   7 H :   -0.180059
   8 N :   -0.526346
Sum of atomic charges:   -0.0000000

LOEWDIN ATOMIC CHARGES
----------------------
   0 Si:    1.043480
   1 Si:    0.605060
   2 H :   -0.316515
   3 H :   -0.309793
   4 H :   -0.309793
   5 C :   -0.432876
   6 H :   -0.287549
   7 H :   -0.287550
   8 N :    0.295537

  Mayer bond orders larger than 0.100000
B(  0-Si,  1-Si) :   0.7296 B(  0-Si,  2-H ) :   0.7892 B(  0-Si,  3-H ) :   0.7746
B(  0-Si,  4-H ) :   0.7746 B(  1-Si,  5-C ) :   0.6559 B(  1-Si,  6-H ) :   0.8406
B(  1-Si,  7-H ) :   0.8406 B(  5-C ,  8-N ) :   2.6374

MP2 TOTAL ENERGY:     -673.793041580 Eh
FINAL SINGLE POINT ENERGY      -673.793041580125

DIPOLE MOMENT
-------------
                                X             Y             Z
Electronic contribution:      4.35920      -0.44088       0.00001
Nuclear contribution   :     -5.71206       1.19452      -0.00001
                        -----------------------------------------
Total Dipole Moment    :     -1.35286       0.75365      -0.00000
                        -----------------------------------------
Magnitude (a.u.)       :      1.54862
Magnitude (Debye)      :      3.93627

Rotational constants in cm-1:     0.300166     0.073193     0.061369
Rotational constants in MHz :  8998.757888  2194.258516  1839.793304

                             ****ORCA TERMINATED NORMALLY****
TOTAL RUN TIME: 0 days 0 hours 18 minutes 26 seconds 790 msec
