                         Program Version 5.0.4 -  RELEASE  -
|  1> ! ri-mp2 aug-cc-pvdz aug-cc-pvdz/c tightscf
|  2> %pal nprocs 16 end
|  3> %maxcore 3800
|  4> %base "DZ_P-N_78_AB"
|  5> %scf
|  6> STABPerform true
|  7> STABRestartUHFifUnstable true
|  8> end
|  9>
| 10> *xyz 0 1
| 11> N        -1.353691    0.210538    0.357267
| 12> O        -2.539029   -0.560389    0.333348
| 13> O        -1.533341    1.275857   -0.548262
| 14> C         1.275765    0.316393   -0.313957
| 15> C         2.674783   -0.244364   -0.282830
| 16> C         2.154984    0.508603    0.890869
| 17> H         3.408263    0.229347   -0.919013
| 18> H         2.792692   -1.315041   -0.184879
| 19> H         2.532186    1.504829    1.072076
| 20> H         1.914898   -0.049824    1.785387
| 21> H        -1.714957    2.037206    0.014967
| 22> H        -2.965263   -0.365349    1.175244
| 23> P        -0.081721   -0.867686   -0.198406
| 24> H         1.116758    1.182182   -0.940883
| 25> H        -0.437164   -0.889362   -1.572865
| 26> *
| 27>
| 28> $new_job
| 29> ! ri-mp2 aug-cc-pvtz aug-cc-pvtz/c tightscf
| 30> %pal nprocs 16 end
| 31> %maxcore 3800
| 32> %base "TZ_P-N_78_AB"
| 33>
| 34> *xyz 0 1
| 35> N        -1.353691    0.210538    0.357267
| 36> O        -2.539029   -0.560389    0.333348
| 37> O        -1.533341    1.275857   -0.548262
| 38> C         1.275765    0.316393   -0.313957
| 39> C         2.674783   -0.244364   -0.282830
| 40> C         2.154984    0.508603    0.890869
| 41> H         3.408263    0.229347   -0.919013
| 42> H         2.792692   -1.315041   -0.184879
| 43> H         2.532186    1.504829    1.072076
| 44> H         1.914898   -0.049824    1.785387
| 45> H        -1.714957    2.037206    0.014967
| 46> H        -2.965263   -0.365349    1.175244
| 47> P        -0.081721   -0.867686   -0.198406
| 48> H         1.116758    1.182182   -0.940883
| 49> H        -0.437164   -0.889362   -1.572865
| 50> *
| 51>
| 52> $new_job
| 53> ! ri-mp2 aug-cc-pvqz aug-cc-pvqz/c tightscf
| 54> %pal nprocs 16 end
| 55> %maxcore 3800
| 56> %base "QZ_P-N_78_AB"
| 57>
| 58> *xyz 0 1
| 59> N        -1.353691    0.210538    0.357267
| 60> O        -2.539029   -0.560389    0.333348
| 61> O        -1.533341    1.275857   -0.548262
| 62> C         1.275765    0.316393   -0.313957
| 63> C         2.674783   -0.244364   -0.282830
| 64> C         2.154984    0.508603    0.890869
| 65> H         3.408263    0.229347   -0.919013
| 66> H         2.792692   -1.315041   -0.184879
| 67> H         2.532186    1.504829    1.072076
| 68> H         1.914898   -0.049824    1.785387
| 69> H        -1.714957    2.037206    0.014967
| 70> H        -2.965263   -0.365349    1.175244
| 71> P        -0.081721   -0.867686   -0.198406
| 72> H         1.116758    1.182182   -0.940883
| 73> H        -0.437164   -0.889362   -1.572865
| 74> *
| 75>
| 76>
| 77>
| 78>
| 79>                          ****END OF INPUT****
 Total Charge           Charge          ....    0
 Multiplicity           Mult            ....    1
 Number of Electrons    NEL             ....   64
MP2 TOTAL ENERGY:     -664.205044249 Eh
FINAL SINGLE POINT ENERGY      -664.205044249317
MP2 TOTAL ENERGY:     -664.534907795 Eh
FINAL SINGLE POINT ENERGY      -664.534907794648

CARTESIAN COORDINATES (ANGSTROEM)
---------------------------------
  N     -1.353691    0.210538    0.357267
  O     -2.539029   -0.560389    0.333348
  O     -1.533341    1.275857   -0.548262
  C      1.275765    0.316393   -0.313957
  C      2.674783   -0.244364   -0.282830
  C      2.154984    0.508603    0.890869
  H      3.408263    0.229347   -0.919013
  H      2.792692   -1.315041   -0.184879
  H      2.532186    1.504829    1.072076
  H      1.914898   -0.049824    1.785387
  H     -1.714957    2.037206    0.014967
  H     -2.965263   -0.365349    1.175244
  P     -0.081721   -0.867686   -0.198406
  H      1.116758    1.182182   -0.940883
  H     -0.437164   -0.889362   -1.572865

 Multiplicity           Mult            ....    1
 Number of Electrons    NEL             ....   64
 Basis Dimension        Dim             ....  932

ORBITAL ENERGIES
----------------

  NO   OCC          E(Eh)            E(eV)
   0   2.0000     -79.955535     -2175.7007
   1   2.0000     -20.598443      -560.5121
   2   2.0000     -20.598064      -560.5018
   3   2.0000     -15.663611      -426.2285
   4   2.0000     -11.235703      -305.7390
   5   2.0000     -11.234079      -305.6948
   6   2.0000     -11.233467      -305.6782
   7   2.0000      -7.495704      -203.9685
   8   2.0000      -5.389622      -146.6591
   9   2.0000      -5.389085      -146.6445
  10   2.0000      -5.388225      -146.6211
  11   2.0000      -1.466504       -39.9056
  12   2.0000      -1.351388       -36.7731
  13   2.0000      -1.153825       -31.3972
  14   2.0000      -1.041593       -28.3432
  15   2.0000      -0.867645       -23.6098
  16   2.0000      -0.831445       -22.6248
  17   2.0000      -0.759569       -20.6689
  18   2.0000      -0.722178       -19.6515
  19   2.0000      -0.711289       -19.3551
  20   2.0000      -0.681140       -18.5348
  21   2.0000      -0.639766       -17.4089
  22   2.0000      -0.608599       -16.5608
  23   2.0000      -0.603637       -16.4258
  24   2.0000      -0.527228       -14.3466
  25   2.0000      -0.519434       -14.1345
  26   2.0000      -0.497744       -13.5443
  27   2.0000      -0.490341       -13.3429
  28   2.0000      -0.429978       -11.7003
  29   2.0000      -0.425600       -11.5812
  30   2.0000      -0.408587       -11.1182
  31   2.0000      -0.364645        -9.9225
  32   0.0000       0.022843         0.6216
  33   0.0000       0.029922         0.8142
  34   0.0000       0.034735         0.9452
  35   0.0000       0.036147         0.9836
  36   0.0000       0.046280         1.2594

MULLIKEN ATOMIC CHARGES
-----------------------
   0 N :   -0.004366
   1 O :   -0.666846
   2 O :   -0.605025
   3 C :   -0.613652
   4 C :   -0.677185
   5 C :   -0.601718
   6 H :    0.359216
   7 H :    0.322852
   8 H :    0.354108
   9 H :    0.342563
  10 H :    0.354887
  11 H :    0.359173
  12 P :    0.793927
  13 H :    0.403891
  14 H :   -0.121825
Sum of atomic charges:   -0.0000000

LOEWDIN ATOMIC CHARGES
----------------------
   0 N :   -0.405463
   1 O :    0.974702
   2 O :    1.001190
   3 C :   -0.063265
   4 C :    0.512274
   5 C :    0.515147
   6 H :   -0.273399
   7 H :   -0.294739
   8 H :   -0.272628
   9 H :   -0.291845
  10 H :   -0.845785
  11 H :   -0.857247
  12 P :    1.045360
  13 H :   -0.343806
  14 H :   -0.400497

  Mayer bond orders larger than 0.100000
B(  0-N ,  1-O ) :   0.6958 B(  0-N ,  2-O ) :   0.7137 B(  0-N , 12-P ) :   0.7690
B(  1-O , 11-H ) :   0.9142 B(  2-O , 10-H ) :   0.9045 B(  3-C ,  4-C ) :   0.8534
B(  3-C ,  5-C ) :   0.8865 B(  3-C , 12-P ) :   0.6126 B(  3-C , 13-H ) :   0.8437
B(  4-C ,  5-C ) :   1.0940 B(  4-C ,  6-H ) :   0.8898 B(  4-C ,  7-H ) :   0.8890
B(  5-C ,  8-H ) :   0.8649 B(  5-C ,  9-H ) :   0.8588 B( 12-P , 14-H ) :   1.0090

MP2 TOTAL ENERGY:     -664.641205893 Eh
FINAL SINGLE POINT ENERGY      -664.641205892816

DIPOLE MOMENT
-------------
                                X             Y             Z
Electronic contribution:     -6.28488      -2.39875      -0.06553
Nuclear contribution   :      6.60478       3.14982       0.61321
                        -----------------------------------------
Total Dipole Moment    :      0.31990       0.75107       0.54768
                        -----------------------------------------
Magnitude (a.u.)       :      0.98306
Magnitude (Debye)      :      2.49873

Rotational constants in cm-1:     0.165504     0.041955     0.038214
Rotational constants in MHz :  4961.686004  1257.789724  1145.618104

                             ****ORCA TERMINATED NORMALLY****
TOTAL RUN TIME: 0 days 2 hours 2 minutes 17 seconds 287 msec
