                         Program Version 5.0.4 -  RELEASE  -
|  1> ! ri-mp2 aug-cc-pvdz aug-cc-pvdz/c tightscf
|  2> %pal nprocs 16 end
|  3> %maxcore 3800
|  4> %base "DZ_Si-Si_23_AB"
|  5> %scf
|  6> STABPerform true
|  7> STABRestartUHFifUnstable true
|  8> end
|  9>
| 10> *xyz 0 1
| 11> Si        -1.839064   -0.348475    0.000000
| 12> Si         0.168096    0.842098    0.000000
| 13> H         0.303933    1.690494   -1.201152
| 14> H        -1.913758   -1.198737   -1.207045
| 15> Cl         1.740544   -0.499654    0.000001
| 16> H        -1.913758   -1.198736    1.207045
| 17> H         0.303932    1.690495    1.201151
| 18> H        -2.976043    0.599887   -0.000001
| 19> *
| 20>
| 21> $new_job
| 22> ! ri-mp2 aug-cc-pvtz aug-cc-pvtz/c tightscf
| 23> %pal nprocs 16 end
| 24> %maxcore 3800
| 25> %base "TZ_Si-Si_23_AB"
| 26>
| 27> *xyz 0 1
| 28> Si        -1.839064   -0.348475    0.000000
| 29> Si         0.168096    0.842098    0.000000
| 30> H         0.303933    1.690494   -1.201152
| 31> H        -1.913758   -1.198737   -1.207045
| 32> Cl         1.740544   -0.499654    0.000001
| 33> H        -1.913758   -1.198736    1.207045
| 34> H         0.303932    1.690495    1.201151
| 35> H        -2.976043    0.599887   -0.000001
| 36> *
| 37>
| 38> $new_job
| 39> ! ri-mp2 aug-cc-pvqz aug-cc-pvqz/c tightscf
| 40> %pal nprocs 16 end
| 41> %maxcore 3800
| 42> %base "QZ_Si-Si_23_AB"
| 43>
| 44> *xyz 0 1
| 45> Si        -1.839064   -0.348475    0.000000
| 46> Si         0.168096    0.842098    0.000000
| 47> H         0.303933    1.690494   -1.201152
| 48> H        -1.913758   -1.198737   -1.207045
| 49> Cl         1.740544   -0.499654    0.000001
| 50> H        -1.913758   -1.198736    1.207045
| 51> H         0.303932    1.690495    1.201151
| 52> H        -2.976043    0.599887   -0.000001
| 53> *
| 54>
| 55>
| 56>
| 57>
| 58>                          ****END OF INPUT****
 Total Charge           Charge          ....    0
 Multiplicity           Mult            ....    1
 Number of Electrons    NEL             ....   50
MP2 TOTAL ENERGY:    -1040.681506651 Eh
FINAL SINGLE POINT ENERGY     -1040.681506651197
MP2 TOTAL ENERGY:    -1040.818902353 Eh
FINAL SINGLE POINT ENERGY     -1040.818902353481

CARTESIAN COORDINATES (ANGSTROEM)
---------------------------------
  Si    -1.839064   -0.348475    0.000000
  Si     0.168096    0.842098    0.000000
  H      0.303933    1.690494   -1.201152
  H     -1.913758   -1.198737   -1.207045
  Cl     1.740544   -0.499654    0.000001
  H     -1.913758   -1.198736    1.207045
  H      0.303932    1.690495    1.201151
  H     -2.976043    0.599887   -0.000001

 Multiplicity           Mult            ....    1
 Number of Electrons    NEL             ....   50
 Basis Dimension        Dim             ....  482

ORBITAL ENERGIES
----------------

  NO   OCC          E(Eh)            E(eV)
   0   2.0000    -104.826999     -2852.4877
   1   2.0000     -68.814614     -1872.5408
   2   2.0000     -68.777880     -1871.5413
   3   2.0000     -10.554291      -287.1969
   4   2.0000      -8.021097      -218.2651
   5   2.0000      -8.019969      -218.2345
   6   2.0000      -8.019962      -218.2343
   7   2.0000      -6.160660      -167.6401
   8   2.0000      -6.128901      -166.7759
   9   2.0000      -4.267418      -116.1223
  10   2.0000      -4.266409      -116.0949
  11   2.0000      -4.266360      -116.0936
  12   2.0000      -4.235041      -115.2413
  13   2.0000      -4.234938      -115.2385
  14   2.0000      -4.234883      -115.2370
  15   2.0000      -1.095407       -29.8076
  16   2.0000      -0.761392       -20.7185
  17   2.0000      -0.683989       -18.6123
  18   2.0000      -0.532616       -14.4932
  19   2.0000      -0.531197       -14.4546
  20   2.0000      -0.496172       -13.5015
  21   2.0000      -0.492101       -13.3908
  22   2.0000      -0.487737       -13.2720
  23   2.0000      -0.450383       -12.2555
  24   2.0000      -0.403847       -10.9892
  25   0.0000       0.026491         0.7209
  26   0.0000       0.030093         0.8189
  27   0.0000       0.040033         1.0894
  28   0.0000       0.040277         1.0960
  29   0.0000       0.050204         1.3661

MULLIKEN ATOMIC CHARGES
-----------------------
   0 Si:    0.416147
   1 Si:    0.994754
   2 H :   -0.192381
   3 H :   -0.141276
   4 Cl:   -0.584204
   5 H :   -0.141275
   6 H :   -0.192381
   7 H :   -0.159384
Sum of atomic charges:    0.0000000

LOEWDIN ATOMIC CHARGES
----------------------
   0 Si:    0.961999
   1 Si:   -0.117158
   2 H :   -0.345636
   3 H :   -0.322107
   4 Cl:    0.814369
   5 H :   -0.322107
   6 H :   -0.345636
   7 H :   -0.323724

  Mayer bond orders larger than 0.100000
B(  0-Si,  1-Si) :   0.7498 B(  0-Si,  3-H ) :   0.7993 B(  0-Si,  5-H ) :   0.7993
B(  0-Si,  7-H ) :   0.8065 B(  1-Si,  2-H ) :   0.8821 B(  1-Si,  4-Cl) :   0.5183
B(  1-Si,  6-H ) :   0.8821

MP2 TOTAL ENERGY:    -1040.865101150 Eh
FINAL SINGLE POINT ENERGY     -1040.865101149963

DIPOLE MOMENT
-------------
                                X             Y             Z
Electronic contribution:      7.80590      -1.87955       0.00000
Nuclear contribution   :     -8.33915       2.20347      -0.00000
                        -----------------------------------------
Total Dipole Moment    :     -0.53325       0.32392       0.00000
                        -----------------------------------------
Magnitude (a.u.)       :      0.62393
Magnitude (Debye)      :      1.58589

Rotational constants in cm-1:     0.359721     0.074953     0.064817
Rotational constants in MHz : 10784.174527  2247.038247  1943.165281

                             ****ORCA TERMINATED NORMALLY****
TOTAL RUN TIME: 0 days 0 hours 10 minutes 3 seconds 559 msec
