                         Program Version 5.0.4 -  RELEASE  -
|  1> ! ri-mp2 aug-cc-pvdz aug-cc-pvdz/c tightscf
|  2> %pal nprocs 16 end
|  3> %maxcore 3800
|  4> %base "DZ_P-N_46_AB"
|  5> %scf
|  6> STABPerform true
|  7> STABRestartUHFifUnstable true
|  8> end
|  9>
| 10> *xyz 0 1
| 11> N         1.304803    0.554355   -0.029295
| 12> P         0.067303   -0.605951   -0.082654
| 13> C        -1.421562    0.463561   -0.017324
| 14> H        -1.367834    1.214024    0.771677
| 15> H        -2.299238   -0.161397    0.155360
| 16> H        -1.542165    0.968286   -0.974954
| 17> H        -0.009786   -1.035826    1.272060
| 18> H         2.179623    0.290129   -0.448226
| 19> H         1.425611    1.152204    0.772907
| 20> *
| 21>
| 22> $new_job
| 23> ! ri-mp2 aug-cc-pvtz aug-cc-pvtz/c tightscf
| 24> %pal nprocs 16 end
| 25> %maxcore 3800
| 26> %base "TZ_P-N_46_AB"
| 27>
| 28> *xyz 0 1
| 29> N         1.304803    0.554355   -0.029295
| 30> P         0.067303   -0.605951   -0.082654
| 31> C        -1.421562    0.463561   -0.017324
| 32> H        -1.367834    1.214024    0.771677
| 33> H        -2.299238   -0.161397    0.155360
| 34> H        -1.542165    0.968286   -0.974954
| 35> H        -0.009786   -1.035826    1.272060
| 36> H         2.179623    0.290129   -0.448226
| 37> H         1.425611    1.152204    0.772907
| 38> *
| 39>
| 40> $new_job
| 41> ! ri-mp2 aug-cc-pvqz aug-cc-pvqz/c tightscf
| 42> %pal nprocs 16 end
| 43> %maxcore 3800
| 44> %base "QZ_P-N_46_AB"
| 45>
| 46> *xyz 0 1
| 47> N         1.304803    0.554355   -0.029295
| 48> P         0.067303   -0.605951   -0.082654
| 49> C        -1.421562    0.463561   -0.017324
| 50> H        -1.367834    1.214024    0.771677
| 51> H        -2.299238   -0.161397    0.155360
| 52> H        -1.542165    0.968286   -0.974954
| 53> H        -0.009786   -1.035826    1.272060
| 54> H         2.179623    0.290129   -0.448226
| 55> H         1.425611    1.152204    0.772907
| 56> *
| 57>
| 58>
| 59>
| 60>
| 61>                          ****END OF INPUT****
 Total Charge           Charge          ....    0
 Multiplicity           Mult            ....    1
 Number of Electrons    NEL             ....   34
MP2 TOTAL ENERGY:     -437.029408581 Eh
FINAL SINGLE POINT ENERGY      -437.029408580567
MP2 TOTAL ENERGY:     -437.172211453 Eh
FINAL SINGLE POINT ENERGY      -437.172211453500

CARTESIAN COORDINATES (ANGSTROEM)
---------------------------------
  N      1.304803    0.554355   -0.029295
  P      0.067303   -0.605951   -0.082654
  C     -1.421562    0.463561   -0.017324
  H     -1.367834    1.214024    0.771677
  H     -2.299238   -0.161397    0.155360
  H     -1.542165    0.968286   -0.974954
  H     -0.009786   -1.035826    1.272060
  H      2.179623    0.290129   -0.448226
  H      1.425611    1.152204    0.772907

 Multiplicity           Mult            ....    1
 Number of Electrons    NEL             ....   34
 Basis Dimension        Dim             ....  520

ORBITAL ENERGIES
----------------

  NO   OCC          E(Eh)            E(eV)
   0   2.0000     -79.947454     -2175.4808
   1   2.0000     -15.545988      -423.0279
   2   2.0000     -11.215842      -305.1986
   3   2.0000      -7.485660      -203.6952
   4   2.0000      -5.380060      -146.3989
   5   2.0000      -5.379576      -146.3857
   6   2.0000      -5.378907      -146.3675
   7   2.0000      -1.159737       -31.5580
   8   2.0000      -0.967864       -26.3369
   9   2.0000      -0.773894       -21.0587
  10   2.0000      -0.671277       -18.2664
  11   2.0000      -0.602522       -16.3955
  12   2.0000      -0.569122       -15.4866
  13   2.0000      -0.534073       -14.5329
  14   2.0000      -0.501011       -13.6332
  15   2.0000      -0.399748       -10.8777
  16   2.0000      -0.347538        -9.4570
  17   0.0000       0.025329         0.6892
  18   0.0000       0.034206         0.9308
  19   0.0000       0.040020         1.0890
  20   0.0000       0.040649         1.1061
  21   0.0000       0.056653         1.5416

MULLIKEN ATOMIC CHARGES
-----------------------
   0 N :   -0.876135
   1 P :    0.650870
   2 C :   -1.000433
   3 H :    0.245457
   4 H :    0.318875
   5 H :    0.267461
   6 H :   -0.108471
   7 H :    0.245716
   8 H :    0.256659
Sum of atomic charges:    0.0000000

LOEWDIN ATOMIC CHARGES
----------------------
   0 N :    0.994959
   1 P :    1.049819
   2 C :    0.718593
   3 H :   -0.361114
   4 H :   -0.379586
   5 H :   -0.376987
   6 H :   -0.429637
   7 H :   -0.625335
   8 H :   -0.590712

  Mayer bond orders larger than 0.100000
B(  0-N ,  1-P ) :   0.8320 B(  0-N ,  7-H ) :   0.9880 B(  0-N ,  8-H ) :   0.9553
B(  1-P ,  2-C ) :   0.8936 B(  1-P ,  6-H ) :   0.9131 B(  2-C ,  3-H ) :   0.9352
B(  2-C ,  4-H ) :   0.8944 B(  2-C ,  5-H ) :   0.9318

MP2 TOTAL ENERGY:     -437.216072999 Eh
FINAL SINGLE POINT ENERGY      -437.216072998538

DIPOLE MOMENT
-------------
                                X             Y             Z
Electronic contribution:      1.85358      -2.66420      -1.20868
Nuclear contribution   :     -1.69181       3.04662       1.64839
                        -----------------------------------------
Total Dipole Moment    :      0.16177       0.38243       0.43972
                        -----------------------------------------
Magnitude (a.u.)       :      0.60479
Magnitude (Debye)      :      1.53725

Rotational constants in cm-1:     0.618056     0.244811     0.192087
Rotational constants in MHz : 18528.844025  7339.240018  5758.611954

                             ****ORCA TERMINATED NORMALLY****
TOTAL RUN TIME: 0 days 0 hours 10 minutes 37 seconds 673 msec
