                         Program Version 5.0.4 -  RELEASE  -
|  1> ! ri-mp2 aug-cc-pvdz aug-cc-pvdz/c tightscf
|  2> %pal nprocs 16 end
|  3> %maxcore 3800
|  4> %base "DZ_B-F_3_A"
|  5> %scf
|  6> STABPerform true
|  7> STABRestartUHFifUnstable true
|  8> end
|  9>
| 10> *xyz 0 2
| 11> F        -1.167129   -0.087453   -0.000000
| 12> O         1.172976   -0.100889    0.000000
| 13> B         0.000000    0.532417   -0.000000
| 14> H         1.120349   -1.067898    0.000000
| 15> *
| 16>
| 17> $new_job
| 18> ! ri-mp2 aug-cc-pvtz aug-cc-pvtz/c tightscf
| 19> %pal nprocs 16 end
| 20> %maxcore 3800
| 21> %base "TZ_B-F_3_A"
| 22>
| 23> *xyz 0 2
| 24> F        -1.167129   -0.087453   -0.000000
| 25> O         1.172976   -0.100889    0.000000
| 26> B         0.000000    0.532417   -0.000000
| 27> H         1.120349   -1.067898    0.000000
| 28> *
| 29>
| 30> $new_job
| 31> ! ri-mp2 aug-cc-pvqz aug-cc-pvqz/c tightscf
| 32> %pal nprocs 16 end
| 33> %maxcore 3800
| 34> %base "QZ_B-F_3_A"
| 35>
| 36> *xyz 0 2
| 37> F        -1.167129   -0.087453   -0.000000
| 38> O         1.172976   -0.100889    0.000000
| 39> B         0.000000    0.532417   -0.000000
| 40> H         1.120349   -1.067898    0.000000
| 41> *
| 42>
| 43>
| 44>
| 45>
| 46>                          ****END OF INPUT****
 Total Charge           Charge          ....    0
 Multiplicity           Mult            ....    2
 Number of Electrons    NEL             ....   23
MP2 TOTAL ENERGY:     -200.103325133 Eh
FINAL SINGLE POINT ENERGY      -200.103325133240
MP2 TOTAL ENERGY:     -200.277169827 Eh
FINAL SINGLE POINT ENERGY      -200.277169826546

CARTESIAN COORDINATES (ANGSTROEM)
---------------------------------
  F     -1.167129   -0.087453   -0.000000
  O      1.172976   -0.100889    0.000000
  B      0.000000    0.532417   -0.000000
  H      1.120349   -1.067898    0.000000

 Multiplicity           Mult            ....    2
 Number of Electrons    NEL             ....   23
 Basis Dimension        Dim             ....  286

ORBITAL ENERGIES
----------------
                 SPIN UP ORBITALS
  NO   OCC          E(Eh)            E(eV)
   0   1.0000     -26.315577      -716.0833
   1   1.0000     -20.601802      -560.6035
   2   1.0000      -7.707397      -209.7289
   3   1.0000      -1.634632       -44.4806
   4   1.0000      -1.403483       -38.1907
   5   1.0000      -0.811886       -22.0925
   6   1.0000      -0.774873       -21.0854
   7   1.0000      -0.719212       -19.5708
   8   1.0000      -0.694815       -18.9069
   9   1.0000      -0.598092       -16.2749
  10   1.0000      -0.561260       -15.2727
  11   1.0000      -0.383674       -10.4403
  12   0.0000       0.027253         0.7416
  13   0.0000       0.040301         1.0967
  14   0.0000       0.041033         1.1166
  15   0.0000       0.043970         1.1965
  16   0.0000       0.082888         2.2555

                 SPIN DOWN ORBITALS
  NO   OCC          E(Eh)            E(eV)
   0   1.0000     -26.312107      -715.9888
   1   1.0000     -20.600313      -560.5630
   2   1.0000      -7.684731      -209.1122
   3   1.0000      -1.624013       -44.1917
   4   1.0000      -1.397736       -38.0343
   5   1.0000      -0.792976       -21.5780
   6   1.0000      -0.761454       -20.7202
   7   1.0000      -0.693307       -18.8658
   8   1.0000      -0.692828       -18.8528
   9   1.0000      -0.594115       -16.1667
  10   1.0000      -0.565623       -15.3914
  11   0.0000       0.020291         0.5521
  12   0.0000       0.037825         1.0293
  13   0.0000       0.041567         1.1311
  14   0.0000       0.044384         1.2077
  15   0.0000       0.067266         1.8304

MULLIKEN ATOMIC CHARGES AND SPIN POPULATIONS
--------------------------------------------
   0 F :   -0.661009   -0.011539
   1 O :   -0.770524   -0.062750
   2 B :    1.092688    1.036672
   3 H :    0.338846    0.037617
Sum of atomic charges         :   -0.0000000

LOEWDIN ATOMIC CHARGES AND SPIN POPULATIONS
-------------------------------------------
   0 F :    0.683743    0.157678
   1 O :    1.179759    0.165174
   2 B :   -1.027676    0.640487
   3 H :   -0.835826    0.036661

  Mayer bond orders larger than 0.100000
B(  0-F ,  2-B ) :   0.5120 B(  1-O ,  2-B ) :   0.7828 B(  1-O ,  3-H ) :   0.9114

MP2 TOTAL ENERGY:     -200.333408824 Eh
FINAL SINGLE POINT ENERGY      -200.333408824273

DIPOLE MOMENT
-------------
                                X             Y             Z
Electronic contribution:     -1.93306       0.74875      -0.00000
Nuclear contribution   :      2.11433      -1.30297       0.00000
                        -----------------------------------------
Total Dipole Moment    :      0.18127      -0.55421      -0.00000
                        -----------------------------------------
Magnitude (a.u.)       :      0.58311
Magnitude (Debye)      :      1.48214

Rotational constants in cm-1:     3.785554     0.343524     0.314944
Rotational constants in MHz : 113488.068606 10298.597276  9441.791698

                             ****ORCA TERMINATED NORMALLY****
TOTAL RUN TIME: 0 days 0 hours 6 minutes 30 seconds 923 msec
