                         Program Version 5.0.4 -  RELEASE  -
|  1> ! ri-mp2 aug-cc-pvdz aug-cc-pvdz/c tightscf
|  2> %pal nprocs 16 end
|  3> %maxcore 3800
|  4> %base "DZ_B-F_80_AB"
|  5> %scf
|  6> STABPerform true
|  7> STABRestartUHFifUnstable true
|  8> end
|  9>
| 10> *xyz 0 1
| 11> F        -2.362530    0.008419   -0.111113
| 12> O        -0.413666   -1.217368    0.018735
| 13> N        -0.316097    1.198758    0.085522
| 14> C         1.690890   -0.066241   -0.392156
| 15> C         1.133853    1.238561    0.154698
| 16> C         0.991629   -1.259909    0.230056
| 17> B        -1.028959   -0.005582   -0.000356
| 18> H         1.351675   -2.191485   -0.204883
| 19> H         1.182872   -1.296265    1.307031
| 20> H         2.762584   -0.130060   -0.198006
| 21> H         1.547425   -0.097203   -1.474741
| 22> H        -0.801390    2.077861    0.114097
| 23> H         1.513415    2.077339   -0.431515
| 24> H         1.474762    1.385128    1.185691
| 25> *
| 26>
| 27> $new_job
| 28> ! ri-mp2 aug-cc-pvtz aug-cc-pvtz/c tightscf
| 29> %pal nprocs 16 end
| 30> %maxcore 3800
| 31> %base "TZ_B-F_80_AB"
| 32>
| 33> *xyz 0 1
| 34> F        -2.362530    0.008419   -0.111113
| 35> O        -0.413666   -1.217368    0.018735
| 36> N        -0.316097    1.198758    0.085522
| 37> C         1.690890   -0.066241   -0.392156
| 38> C         1.133853    1.238561    0.154698
| 39> C         0.991629   -1.259909    0.230056
| 40> B        -1.028959   -0.005582   -0.000356
| 41> H         1.351675   -2.191485   -0.204883
| 42> H         1.182872   -1.296265    1.307031
| 43> H         2.762584   -0.130060   -0.198006
| 44> H         1.547425   -0.097203   -1.474741
| 45> H        -0.801390    2.077861    0.114097
| 46> H         1.513415    2.077339   -0.431515
| 47> H         1.474762    1.385128    1.185691
| 48> *
| 49>
| 50> $new_job
| 51> ! ri-mp2 aug-cc-pvqz aug-cc-pvqz/c tightscf
| 52> %pal nprocs 16 end
| 53> %maxcore 3800
| 54> %base "QZ_B-F_80_AB"
| 55>
| 56> *xyz 0 1
| 57> F        -2.362530    0.008419   -0.111113
| 58> O        -0.413666   -1.217368    0.018735
| 59> N        -0.316097    1.198758    0.085522
| 60> C         1.690890   -0.066241   -0.392156
| 61> C         1.133853    1.238561    0.154698
| 62> C         0.991629   -1.259909    0.230056
| 63> B        -1.028959   -0.005582   -0.000356
| 64> H         1.351675   -2.191485   -0.204883
| 65> H         1.182872   -1.296265    1.307031
| 66> H         2.762584   -0.130060   -0.198006
| 67> H         1.547425   -0.097203   -1.474741
| 68> H        -0.801390    2.077861    0.114097
| 69> H         1.513415    2.077339   -0.431515
| 70> H         1.474762    1.385128    1.185691
| 71> *
| 72>
| 73>
| 74>
| 75>
| 76>                          ****END OF INPUT****
 Total Charge           Charge          ....    0
 Multiplicity           Mult            ....    1
 Number of Electrons    NEL             ....   54
MP2 TOTAL ENERGY:     -372.399689138 Eh
FINAL SINGLE POINT ENERGY      -372.399689138377
MP2 TOTAL ENERGY:     -372.732920768 Eh
FINAL SINGLE POINT ENERGY      -372.732920767728

CARTESIAN COORDINATES (ANGSTROEM)
---------------------------------
  F     -2.362530    0.008419   -0.111113
  O     -0.413666   -1.217368    0.018735
  N     -0.316097    1.198758    0.085522
  C      1.690890   -0.066241   -0.392156
  C      1.133853    1.238561    0.154698
  C      0.991629   -1.259909    0.230056
  B     -1.028959   -0.005582   -0.000356
  H      1.351675   -2.191485   -0.204883
  H      1.182872   -1.296265    1.307031
  H      2.762584   -0.130060   -0.198006
  H      1.547425   -0.097203   -1.474741
  H     -0.801390    2.077861    0.114097
  H      1.513415    2.077339   -0.431515
  H      1.474762    1.385128    1.185691

 Multiplicity           Mult            ....    1
 Number of Electrons    NEL             ....   54
 Basis Dimension        Dim             ....  882

ORBITAL ENERGIES
----------------

  NO   OCC          E(Eh)            E(eV)
   0   2.0000     -26.268213      -714.7944
   1   2.0000     -20.553961      -559.3017
   2   2.0000     -15.546888      -423.0523
   3   2.0000     -11.285260      -307.0875
   4   2.0000     -11.267186      -306.5957
   5   2.0000     -11.233743      -305.6857
   6   2.0000      -7.653312      -208.2572
   7   2.0000      -1.584275       -43.1103
   8   2.0000      -1.375644       -37.4332
   9   2.0000      -1.201208       -32.6865
  10   2.0000      -1.049512       -28.5587
  11   2.0000      -0.922628       -25.1060
  12   2.0000      -0.837073       -22.7779
  13   2.0000      -0.742384       -20.2013
  14   2.0000      -0.729143       -19.8410
  15   2.0000      -0.692238       -18.8368
  16   2.0000      -0.673909       -18.3380
  17   2.0000      -0.649919       -17.6852
  18   2.0000      -0.616153       -16.7664
  19   2.0000      -0.609361       -16.5816
  20   2.0000      -0.601144       -16.3580
  21   2.0000      -0.581680       -15.8283
  22   2.0000      -0.541258       -14.7284
  23   2.0000      -0.521055       -14.1786
  24   2.0000      -0.465897       -12.6777
  25   2.0000      -0.461618       -12.5613
  26   2.0000      -0.397227       -10.8091
  27   0.0000       0.021258         0.5785
  28   0.0000       0.029680         0.8076
  29   0.0000       0.031669         0.8617
  30   0.0000       0.035147         0.9564
  31   0.0000       0.049103         1.3362

MULLIKEN ATOMIC CHARGES
-----------------------
   0 F :   -0.960044
   1 O :   -1.055597
   2 N :   -0.542157
   3 C :   -0.632030
   4 C :   -0.263048
   5 C :   -0.133592
   6 B :    1.703647
   7 H :    0.409873
   8 H :    0.218715
   9 H :    0.352523
  10 H :    0.247292
  11 H :    0.104046
  12 H :    0.333838
  13 H :    0.216534
Sum of atomic charges:   -0.0000000

LOEWDIN ATOMIC CHARGES
----------------------
   0 F :    0.826709
   1 O :    0.958068
   2 N :    0.961110
   3 C :    0.507806
   4 C :    0.375113
   5 C :    0.195086
   6 B :   -1.692246
   7 H :   -0.292908
   8 H :   -0.281777
   9 H :   -0.259962
  10 H :   -0.265013
  11 H :   -0.495786
  12 H :   -0.270062
  13 H :   -0.266138

  Mayer bond orders larger than 0.100000
B(  0-F ,  1-O ) :  -0.2023 B(  0-F ,  2-N ) :  -0.1308 B(  0-F ,  6-B ) :   0.2826
B(  1-O ,  5-C ) :   0.7620 B(  1-O ,  6-B ) :   0.4124 B(  2-N ,  4-C ) :   0.7666
B(  2-N ,  6-B ) :   0.9946 B(  2-N , 11-H ) :   1.1326 B(  3-C ,  4-C ) :   0.9933
B(  3-C ,  5-C ) :   1.0197 B(  3-C ,  9-H ) :   0.8350 B(  3-C , 10-H ) :   0.8883
B(  4-C , 12-H ) :   0.8940 B(  4-C , 13-H ) :   0.9637 B(  5-C ,  7-H ) :   0.8078
B(  5-C ,  8-H ) :   0.9364

MP2 TOTAL ENERGY:     -372.838607677 Eh
FINAL SINGLE POINT ENERGY      -372.838607676566

DIPOLE MOMENT
-------------
                                X             Y             Z
Electronic contribution:    -10.66386      -1.12496      -0.27947
Nuclear contribution   :     12.00922       1.78320       0.40259
                        -----------------------------------------
Total Dipole Moment    :      1.34536       0.65824       0.12311
                        -----------------------------------------
Magnitude (a.u.)       :      1.50281
Magnitude (Debye)      :      3.81984

Rotational constants in cm-1:     0.157171     0.080645     0.056409
Rotational constants in MHz :  4711.854050  2417.666200  1691.087801

                             ****ORCA TERMINATED NORMALLY****
TOTAL RUN TIME: 0 days 1 hours 38 minutes 59 seconds 493 msec
