                         Program Version 5.0.4 -  RELEASE  -
|  1> ! ri-mp2 aug-cc-pvdz aug-cc-pvdz/c tightscf
|  2> %pal nprocs 16 end
|  3> %maxcore 3800
|  4> %base "DZ_S-Cl_53_A"
|  5> %scf
|  6> STABPerform true
|  7> STABRestartUHFifUnstable true
|  8> end
|  9>
| 10> *xyz 0 2
| 11> S        -1.854385   -0.772001   -0.000010
| 12> C        -0.339152   -0.069986    0.000010
| 13> S        -0.510522    1.583270    0.000000
| 14> S         1.104254   -0.987350    0.000006
| 15> C         2.377841    0.281684    0.000001
| 16> H         3.325560   -0.252726   -0.000002
| 17> H         2.306375    0.899921    0.890907
| 18> H         2.306370    0.899920   -0.890905
| 19> *
| 20>
| 21> $new_job
| 22> ! ri-mp2 aug-cc-pvtz aug-cc-pvtz/c tightscf
| 23> %pal nprocs 16 end
| 24> %maxcore 3800
| 25> %base "TZ_S-Cl_53_A"
| 26>
| 27> *xyz 0 2
| 28> S        -1.854385   -0.772001   -0.000010
| 29> C        -0.339152   -0.069986    0.000010
| 30> S        -0.510522    1.583270    0.000000
| 31> S         1.104254   -0.987350    0.000006
| 32> C         2.377841    0.281684    0.000001
| 33> H         3.325560   -0.252726   -0.000002
| 34> H         2.306375    0.899921    0.890907
| 35> H         2.306370    0.899920   -0.890905
| 36> *
| 37>
| 38> $new_job
| 39> ! ri-mp2 aug-cc-pvqz aug-cc-pvqz/c tightscf
| 40> %pal nprocs 16 end
| 41> %maxcore 3800
| 42> %base "QZ_S-Cl_53_A"
| 43>
| 44> *xyz 0 2
| 45> S        -1.854385   -0.772001   -0.000010
| 46> C        -0.339152   -0.069986    0.000010
| 47> S        -0.510522    1.583270    0.000000
| 48> S         1.104254   -0.987350    0.000006
| 49> C         2.377841    0.281684    0.000001
| 50> H         3.325560   -0.252726   -0.000002
| 51> H         2.306375    0.899921    0.890907
| 52> H         2.306370    0.899920   -0.890905
| 53> *
| 54>
| 55>
| 56>
| 57>
| 58>                          ****END OF INPUT****
 Total Charge           Charge          ....    0
 Multiplicity           Mult            ....    2
 Number of Electrons    NEL             ....   63
MP2 TOTAL ENERGY:    -1270.742173798 Eh
FINAL SINGLE POINT ENERGY     -1270.742173797598
MP2 TOTAL ENERGY:    -1270.961127632 Eh
FINAL SINGLE POINT ENERGY     -1270.961127631828

CARTESIAN COORDINATES (ANGSTROEM)
---------------------------------
  S     -1.854385   -0.772001   -0.000010
  C     -0.339152   -0.069986    0.000010
  S     -0.510522    1.583270    0.000000
  S      1.104254   -0.987350    0.000006
  C      2.377841    0.281684    0.000001
  H      3.325560   -0.252726   -0.000002
  H      2.306375    0.899921    0.890907
  H      2.306370    0.899920   -0.890905

 Multiplicity           Mult            ....    2
 Number of Electrons    NEL             ....   63
 Basis Dimension        Dim             ....  550

ORBITAL ENERGIES
----------------
                 SPIN UP ORBITALS
  NO   OCC          E(Eh)            E(eV)
   0   1.0000     -92.006129     -2503.6141
   1   1.0000     -92.004800     -2503.5779
   2   1.0000     -91.939920     -2501.8124
   3   1.0000     -11.379495      -309.6518
   4   1.0000     -11.277085      -306.8651
   5   1.0000      -9.009054      -245.1488
   6   1.0000      -9.007160      -245.0973
   7   1.0000      -8.943513      -243.3654
   8   1.0000      -6.703537      -182.4125
   9   1.0000      -6.688723      -182.0094
  10   1.0000      -6.687409      -181.9737
  11   1.0000      -6.686851      -181.9585
  12   1.0000      -6.686328      -181.9442
  13   1.0000      -6.685348      -181.9176
  14   1.0000      -6.626873      -180.3264
  15   1.0000      -6.623423      -180.2325
  16   1.0000      -6.622562      -180.2091
  17   1.0000      -1.174596       -31.9624
  18   1.0000      -1.065990       -29.0071
  19   1.0000      -0.957784       -26.0626
  20   1.0000      -0.922420       -25.1003
  21   1.0000      -0.710385       -19.3306
  22   1.0000      -0.635757       -17.2998
  23   1.0000      -0.619950       -16.8697
  24   1.0000      -0.588503       -16.0140
  25   1.0000      -0.554804       -15.0970
  26   1.0000      -0.521704       -14.1963
  27   1.0000      -0.487408       -13.2630
  28   1.0000      -0.451650       -12.2900
  29   1.0000      -0.388783       -10.5793
  30   1.0000      -0.351283        -9.5589
  31   1.0000      -0.349309        -9.5052
  32   0.0000       0.023457         0.6383
  33   0.0000       0.033929         0.9232
  34   0.0000       0.040594         1.1046
  35   0.0000       0.042632         1.1601
  36   0.0000       0.049165         1.3378

                 SPIN DOWN ORBITALS
  NO   OCC          E(Eh)            E(eV)
   0   1.0000     -92.004909     -2503.5809
   1   1.0000     -91.997260     -2503.3727
   2   1.0000     -91.937693     -2501.7518
   3   1.0000     -11.379893      -309.6626
   4   1.0000     -11.276951      -306.8614
   5   1.0000      -9.007293      -245.1009
   6   1.0000      -8.999222      -244.8813
   7   1.0000      -8.940982      -243.2965
   8   1.0000      -6.688760      -182.0104
   9   1.0000      -6.687578      -181.9783
  10   1.0000      -6.687171      -181.9672
  11   1.0000      -6.681967      -181.8256
  12   1.0000      -6.679445      -181.7569
  13   1.0000      -6.664276      -181.3442
  14   1.0000      -6.622592      -180.2099
  15   1.0000      -6.621313      -180.1751
  16   1.0000      -6.616868      -180.0541
  17   1.0000      -1.160605       -31.5817
  18   1.0000      -1.051371       -28.6093
  19   1.0000      -0.922450       -25.1012
  20   1.0000      -0.902880       -24.5686
  21   1.0000      -0.694076       -18.8868
  22   1.0000      -0.620317       -16.8797
  23   1.0000      -0.619993       -16.8709
  24   1.0000      -0.569433       -15.4951
  25   1.0000      -0.543731       -14.7957
  26   1.0000      -0.517254       -14.0752
  27   1.0000      -0.474044       -12.8994
  28   1.0000      -0.381327       -10.3764
  29   1.0000      -0.340685        -9.2705
  30   1.0000      -0.337491        -9.1836
  31   0.0000      -0.006071        -0.1652
  32   0.0000       0.023624         0.6429
  33   0.0000       0.033279         0.9056
  34   0.0000       0.040960         1.1146
  35   0.0000       0.045504         1.2382

MULLIKEN ATOMIC CHARGES AND SPIN POPULATIONS
--------------------------------------------
   0 S :    0.264236    0.983306
   1 C :   -0.683552   -0.150825
   2 S :   -0.034308    0.182619
   3 S :    0.427256   -0.012781
   4 C :   -0.966297   -0.001162
   5 H :    0.409792    0.001507
   6 H :    0.291436   -0.001332
   7 H :    0.291437   -0.001332
Sum of atomic charges         :    0.0000000

LOEWDIN ATOMIC CHARGES AND SPIN POPULATIONS
-------------------------------------------
   0 S :    0.838784    0.634886
   1 C :   -2.098260    0.194182
   2 S :    0.810767    0.153353
   3 S :    1.125014    0.010241
   4 C :    0.492415    0.002203
   5 H :   -0.389352    0.000326
   6 H :   -0.389683    0.002404
   7 H :   -0.389684    0.002404

  Mayer bond orders larger than 0.100000
B(  0-S ,  1-C ) :   0.9882 B(  0-S ,  2-S ) :   0.2243 B(  1-C ,  2-S ) :   1.4440
B(  1-C ,  3-S ) :   1.0491 B(  3-S ,  4-C ) :   0.9994 B(  4-C ,  5-H ) :   0.8118
B(  4-C ,  6-H ) :   0.9127 B(  4-C ,  7-H ) :   0.9127

MP2 TOTAL ENERGY:    -1271.033324287 Eh
FINAL SINGLE POINT ENERGY     -1271.033324287035

DIPOLE MOMENT
-------------
                                X             Y             Z
Electronic contribution:     -6.66661      -1.98674      -0.00000
Nuclear contribution   :      7.65952       1.49072       0.00000
                        -----------------------------------------
Total Dipole Moment    :      0.99291      -0.49602      -0.00000
                        -----------------------------------------
Magnitude (a.u.)       :      1.10991
Magnitude (Debye)      :      2.82117

Rotational constants in cm-1:     0.124949     0.067417     0.044157
Rotational constants in MHz :  3745.868286  2021.106132  1323.789701

                             ****ORCA TERMINATED NORMALLY****
TOTAL RUN TIME: 0 days 0 hours 39 minutes 43 seconds 484 msec
