                         Program Version 5.0.4 -  RELEASE  -
|  1> ! ri-mp2 aug-cc-pvdz aug-cc-pvdz/c tightscf
|  2> %pal nprocs 16 end
|  3> %maxcore 3800
|  4> %base "DZ_S-F_6_AB"
|  5> %scf
|  6> STABPerform true
|  7> STABRestartUHFifUnstable true
|  8> end
|  9>
| 10> *xyz 0 1
| 11> F        -1.448969    0.869051    0.121244
| 12> N         0.796181   -0.380288    0.424070
| 13> S        -0.673608   -0.561186   -0.194235
| 14> C         1.838352    0.416313   -0.206788
| 15> H         0.895151   -0.512694    1.420193
| 16> H         1.726044    0.339290   -1.285780
| 17> H         2.816285    0.026868    0.075783
| 18> H         1.777586    1.468199    0.078610
| 19> *
| 20>
| 21> $new_job
| 22> ! ri-mp2 aug-cc-pvtz aug-cc-pvtz/c tightscf
| 23> %pal nprocs 16 end
| 24> %maxcore 3800
| 25> %base "TZ_S-F_6_AB"
| 26>
| 27> *xyz 0 1
| 28> F        -1.448969    0.869051    0.121244
| 29> N         0.796181   -0.380288    0.424070
| 30> S        -0.673608   -0.561186   -0.194235
| 31> C         1.838352    0.416313   -0.206788
| 32> H         0.895151   -0.512694    1.420193
| 33> H         1.726044    0.339290   -1.285780
| 34> H         2.816285    0.026868    0.075783
| 35> H         1.777586    1.468199    0.078610
| 36> *
| 37>
| 38> $new_job
| 39> ! ri-mp2 aug-cc-pvqz aug-cc-pvqz/c tightscf
| 40> %pal nprocs 16 end
| 41> %maxcore 3800
| 42> %base "QZ_S-F_6_AB"
| 43>
| 44> *xyz 0 1
| 45> F        -1.448969    0.869051    0.121244
| 46> N         0.796181   -0.380288    0.424070
| 47> S        -0.673608   -0.561186   -0.194235
| 48> C         1.838352    0.416313   -0.206788
| 49> H         0.895151   -0.512694    1.420193
| 50> H         1.726044    0.339290   -1.285780
| 51> H         2.816285    0.026868    0.075783
| 52> H         1.777586    1.468199    0.078610
| 53> *
| 54>
| 55>
| 56>
| 57>
| 58>                          ****END OF INPUT****
 Total Charge           Charge          ....    0
 Multiplicity           Mult            ....    1
 Number of Electrons    NEL             ....   42
MP2 TOTAL ENERGY:     -592.277660620 Eh
FINAL SINGLE POINT ENERGY      -592.277660620064
MP2 TOTAL ENERGY:     -592.507176788 Eh
FINAL SINGLE POINT ENERGY      -592.507176787685

CARTESIAN COORDINATES (ANGSTROEM)
---------------------------------
  F     -1.448969    0.869051    0.121244
  N      0.796181   -0.380288    0.424070
  S     -0.673608   -0.561186   -0.194235
  C      1.838352    0.416313   -0.206788
  H      0.895151   -0.512694    1.420193
  H      1.726044    0.339290   -1.285780
  H      2.816285    0.026868    0.075783
  H      1.777586    1.468199    0.078610

 Multiplicity           Mult            ....    1
 Number of Electrons    NEL             ....   42
 Basis Dimension        Dim             ....  508

ORBITAL ENERGIES
----------------

  NO   OCC          E(Eh)            E(eV)
   0   2.0000     -92.040451     -2504.5480
   1   2.0000     -26.277004      -715.0336
   2   2.0000     -15.605975      -424.6602
   3   2.0000     -11.270292      -306.6802
   4   2.0000      -9.031377      -245.7563
   5   2.0000      -6.712940      -182.6684
   6   2.0000      -6.711123      -182.6189
   7   2.0000      -6.709641      -182.5786
   8   2.0000      -1.573181       -42.8084
   9   2.0000      -1.255479       -34.1633
  10   2.0000      -0.986916       -26.8553
  11   2.0000      -0.876484       -23.8503
  12   2.0000      -0.721234       -19.6258
  13   2.0000      -0.669545       -18.2193
  14   2.0000      -0.664766       -18.0892
  15   2.0000      -0.644740       -17.5443
  16   2.0000      -0.612246       -16.6601
  17   2.0000      -0.572765       -15.5857
  18   2.0000      -0.519025       -14.1234
  19   2.0000      -0.431657       -11.7460
  20   2.0000      -0.366670        -9.9776
  21   0.0000       0.022383         0.6091
  22   0.0000       0.036136         0.9833
  23   0.0000       0.041176         1.1204
  24   0.0000       0.045254         1.2314
  25   0.0000       0.065381         1.7791

MULLIKEN ATOMIC CHARGES
-----------------------
   0 F :   -0.615761
   1 N :   -0.608984
   2 S :    0.810868
   3 C :   -0.717285
   4 H :    0.259633
   5 H :    0.294992
   6 H :    0.300269
   7 H :    0.276268
Sum of atomic charges:    0.0000000

LOEWDIN ATOMIC CHARGES
----------------------
   0 F :    0.034441
   1 N :    0.260949
   2 S :    0.623318
   3 C :    0.664657
   4 H :   -0.627762
   5 H :   -0.349981
   6 H :   -0.306024
   7 H :   -0.299598

  Mayer bond orders larger than 0.100000
B(  0-F ,  2-S ) :   0.5746 B(  1-N ,  2-S ) :   1.1460 B(  1-N ,  3-C ) :   0.9125
B(  1-N ,  4-H ) :   0.9393 B(  3-C ,  5-H ) :   0.9309 B(  3-C ,  6-H ) :   0.9237
B(  3-C ,  7-H ) :   0.9306

MP2 TOTAL ENERGY:     -592.581780316 Eh
FINAL SINGLE POINT ENERGY      -592.581780315849

DIPOLE MOMENT
-------------
                                X             Y             Z
Electronic contribution:     -7.30007      -0.66995       0.08756
Nuclear contribution   :      8.43321       0.46533       0.17267
                        -----------------------------------------
Total Dipole Moment    :      1.13314      -0.20461       0.26023
                        -----------------------------------------
Magnitude (a.u.)       :      1.18051
Magnitude (Debye)      :      3.00061

Rotational constants in cm-1:     0.430642     0.133428     0.113029
Rotational constants in MHz : 12910.308277  4000.077253  3388.527888

                             ****ORCA TERMINATED NORMALLY****
TOTAL RUN TIME: 0 days 0 hours 11 minutes 37 seconds 444 msec
