                         Program Version 5.0.4 -  RELEASE  -
|  1> ! ri-mp2 aug-cc-pvdz aug-cc-pvdz/c tightscf
|  2> %pal nprocs 16 end
|  3> %maxcore 3800
|  4> %base "DZ_S-Cl_32_AB"
|  5> %scf
|  6> STABPerform true
|  7> STABRestartUHFifUnstable true
|  8> end
|  9>
| 10> *xyz 0 1
| 11> Cl         1.659174   -0.339726   -0.000002
| 12> S        -0.031444    0.773734    0.000002
| 13> C        -1.256831   -0.511678    0.000002
| 14> O        -2.416925   -0.250871   -0.000002
| 15> H        -0.826472   -1.527357    0.000005
| 16> *
| 17>
| 18> $new_job
| 19> ! ri-mp2 aug-cc-pvtz aug-cc-pvtz/c tightscf
| 20> %pal nprocs 16 end
| 21> %maxcore 3800
| 22> %base "TZ_S-Cl_32_AB"
| 23>
| 24> *xyz 0 1
| 25> Cl         1.659174   -0.339726   -0.000002
| 26> S        -0.031444    0.773734    0.000002
| 27> C        -1.256831   -0.511678    0.000002
| 28> O        -2.416925   -0.250871   -0.000002
| 29> H        -0.826472   -1.527357    0.000005
| 30> *
| 31>
| 32> $new_job
| 33> ! ri-mp2 aug-cc-pvqz aug-cc-pvqz/c tightscf
| 34> %pal nprocs 16 end
| 35> %maxcore 3800
| 36> %base "QZ_S-Cl_32_AB"
| 37>
| 38> *xyz 0 1
| 39> Cl         1.659174   -0.339726   -0.000002
| 40> S        -0.031444    0.773734    0.000002
| 41> C        -1.256831   -0.511678    0.000002
| 42> O        -2.416925   -0.250871   -0.000002
| 43> H        -0.826472   -1.527357    0.000005
| 44> *
| 45>
| 46>
| 47>
| 48>
| 49>                          ****END OF INPUT****
 Total Charge           Charge          ....    0
 Multiplicity           Mult            ....    1
 Number of Electrons    NEL             ....   48
MP2 TOTAL ENERGY:     -970.955164649 Eh
FINAL SINGLE POINT ENERGY      -970.955164648810
MP2 TOTAL ENERGY:     -971.165365596 Eh
FINAL SINGLE POINT ENERGY      -971.165365596484

CARTESIAN COORDINATES (ANGSTROEM)
---------------------------------
  Cl     1.659174   -0.339726   -0.000002
  S     -0.031444    0.773734    0.000002
  C     -1.256831   -0.511678    0.000002
  O     -2.416925   -0.250871   -0.000002
  H     -0.826472   -1.527357    0.000005

 Multiplicity           Mult            ....    1
 Number of Electrons    NEL             ....   48
 Basis Dimension        Dim             ....  374

ORBITAL ENERGIES
----------------

  NO   OCC          E(Eh)            E(eV)
   0   2.0000    -104.880815     -2853.9521
   1   2.0000     -92.042411     -2504.6013
   2   2.0000     -20.593913      -560.3889
   3   2.0000     -11.390145      -309.9416
   4   2.0000     -10.605074      -288.5787
   5   2.0000      -9.041382      -246.0285
   6   2.0000      -8.072106      -219.6532
   7   2.0000      -8.070113      -219.5989
   8   2.0000      -8.069903      -219.5932
   9   2.0000      -6.722382      -182.9253
  10   2.0000      -6.720906      -182.8851
  11   2.0000      -6.719811      -182.8554
  12   2.0000      -1.444546       -39.3081
  13   2.0000      -1.177247       -32.0345
  14   2.0000      -0.997586       -27.1457
  15   2.0000      -0.828503       -22.5447
  16   2.0000      -0.703495       -19.1431
  17   2.0000      -0.662181       -18.0189
  18   2.0000      -0.596507       -16.2318
  19   2.0000      -0.550396       -14.9770
  20   2.0000      -0.534049       -14.5322
  21   2.0000      -0.505349       -13.7512
  22   2.0000      -0.440363       -11.9829
  23   2.0000      -0.394607       -10.7378
  24   0.0000       0.029285         0.7969
  25   0.0000       0.039514         1.0752
  26   0.0000       0.047698         1.2979
  27   0.0000       0.066801         1.8177
  28   0.0000       0.081597         2.2204

MULLIKEN ATOMIC CHARGES
-----------------------
   0 Cl:   -0.255177
   1 S :    0.397193
   2 C :   -0.047156
   3 O :   -0.570089
   4 H :    0.475230
Sum of atomic charges:    0.0000000

LOEWDIN ATOMIC CHARGES
----------------------
   0 Cl:    0.470711
   1 S :    0.356865
   2 C :   -0.874657
   3 O :    0.561712
   4 H :   -0.514632

  Mayer bond orders larger than 0.100000
B(  0-Cl,  1-S ) :   0.9747 B(  1-S ,  2-C ) :   1.0899 B(  2-C ,  3-O ) :   1.8164
B(  2-C ,  4-H ) :   0.7329

MP2 TOTAL ENERGY:     -971.235612778 Eh
FINAL SINGLE POINT ENERGY      -971.235612777902

DIPOLE MOMENT
-------------
                                X             Y             Z
Electronic contribution:      3.65574       0.69351      -0.00000
Nuclear contribution   :     -3.02323      -0.99845       0.00001
                        -----------------------------------------
Total Dipole Moment    :      0.63251      -0.30494       0.00000
                        -----------------------------------------
Magnitude (a.u.)       :      0.70218
Magnitude (Debye)      :      1.78481

Rotational constants in cm-1:     0.566608     0.080021     0.070118
Rotational constants in MHz : 16986.472625  2398.961513  2102.088288

                             ****ORCA TERMINATED NORMALLY****
TOTAL RUN TIME: 0 days 0 hours 4 minutes 18 seconds 650 msec
