                         Program Version 5.0.4 -  RELEASE  -
|  1> ! ri-mp2 aug-cc-pvdz aug-cc-pvdz/c tightscf
|  2> %pal nprocs 16 end
|  3> %maxcore 3800
|  4> %base "DZ_P-N_90_AB"
|  5>
|  6> *xyz 0 1
|  7> P        -0.235679   -0.223522   -0.880824
|  8> N         0.960011   -1.060787    0.003675
|  9> N        -0.065820    1.433434    0.015610
| 10> Cl       -1.895407   -0.891572    0.043739
| 11> O         1.096960    1.811832   -0.044507
| 12> O         0.911643   -0.884428    1.384022
| 13> O         2.229971   -0.777193   -0.480687
| 14> O        -0.976216    2.037492    0.501873
| 15> H         2.377990    0.171079   -0.301346
| 16> H         1.020918   -1.771684    1.749534
| 17> *
| 18>
| 19> $new_job
| 20> ! ri-mp2 aug-cc-pvtz aug-cc-pvtz/c tightscf
| 21> %pal nprocs 16 end
| 22> %maxcore 3800
| 23> %base "TZ_P-N_90_AB"
| 24>
| 25> *xyz 0 1
| 26> P        -0.235679   -0.223522   -0.880824
| 27> N         0.960011   -1.060787    0.003675
| 28> N        -0.065820    1.433434    0.015610
| 29> Cl       -1.895407   -0.891572    0.043739
| 30> O         1.096960    1.811832   -0.044507
| 31> O         0.911643   -0.884428    1.384022
| 32> O         2.229971   -0.777193   -0.480687
| 33> O        -0.976216    2.037492    0.501873
| 34> H         2.377990    0.171079   -0.301346
| 35> H         1.020918   -1.771684    1.749534
| 36> *
| 37>
| 38> $new_job
| 39> ! ri-mp2 aug-cc-pvqz aug-cc-pvqz/c tightscf
| 40> %pal nprocs 16 end
| 41> %maxcore 3800
| 42> %base "QZ_P-N_90_AB"
| 43>
| 44> *xyz 0 1
| 45> P        -0.235679   -0.223522   -0.880824
| 46> N         0.960011   -1.060787    0.003675
| 47> N        -0.065820    1.433434    0.015610
| 48> Cl       -1.895407   -0.891572    0.043739
| 49> O         1.096960    1.811832   -0.044507
| 50> O         0.911643   -0.884428    1.384022
| 51> O         2.229971   -0.777193   -0.480687
| 52> O        -0.976216    2.037492    0.501873
| 53> H         2.377990    0.171079   -0.301346
| 54> H         1.020918   -1.771684    1.749534
| 55> *
| 56>
| 57>
| 58>
| 59>
| 60>                          ****END OF INPUT****
 Total Charge           Charge          ....    0
 Multiplicity           Mult            ....    1
 Number of Electrons    NEL             ....   80
MP2 TOTAL ENERGY:    -1211.033097050 Eh
FINAL SINGLE POINT ENERGY     -1211.033097049785
MP2 TOTAL ENERGY:    -1211.478233416 Eh
FINAL SINGLE POINT ENERGY     -1211.478233416056

CARTESIAN COORDINATES (ANGSTROEM)
---------------------------------
  P     -0.235679   -0.223522   -0.880824
  N      0.960011   -1.060787    0.003675
  N     -0.065820    1.433434    0.015610
  Cl    -1.895407   -0.891572    0.043739
  O      1.096960    1.811832   -0.044507
  O      0.911643   -0.884428    1.384022
  O      2.229971   -0.777193   -0.480687
  O     -0.976216    2.037492    0.501873
  H      2.377990    0.171079   -0.301346
  H      1.020918   -1.771684    1.749534

 Multiplicity           Mult            ....    1
 Number of Electrons    NEL             ....   80
 Basis Dimension        Dim             ....  740

ORBITAL ENERGIES
----------------

  NO   OCC          E(Eh)            E(eV)
   0   2.0000    -104.880087     -2853.9322
   1   2.0000     -80.096539     -2179.5376
   2   2.0000     -20.642774      -561.7184
   3   2.0000     -20.633386      -561.4630
   4   2.0000     -20.630648      -561.3885
   5   2.0000     -20.615719      -560.9822
   6   2.0000     -15.847406      -431.2298
   7   2.0000     -15.713502      -427.5861
   8   2.0000     -10.606596      -288.6201
   9   2.0000      -8.073425      -219.6891
  10   2.0000      -8.071846      -219.6461
  11   2.0000      -8.071722      -219.6427
  12   2.0000      -7.627995      -207.5683
  13   2.0000      -5.520447      -150.2190
  14   2.0000      -5.520112      -150.2099
  15   2.0000      -5.518565      -150.1678
  16   2.0000      -1.628087       -44.3025
  17   2.0000      -1.520115       -41.3644
  18   2.0000      -1.426735       -38.8234
  19   2.0000      -1.393590       -37.9215
  20   2.0000      -1.178406       -32.0660
  21   2.0000      -1.084173       -29.5018
  22   2.0000      -0.976303       -26.5666
  23   2.0000      -0.848590       -23.0913
  24   2.0000      -0.798873       -21.7384
  25   2.0000      -0.775731       -21.1087
  26   2.0000      -0.747458       -20.3394
  27   2.0000      -0.730719       -19.8839
  28   2.0000      -0.696488       -18.9524
  29   2.0000      -0.677180       -18.4270
  30   2.0000      -0.660570       -17.9750
  31   2.0000      -0.555431       -15.1140
  32   2.0000      -0.546626       -14.8745
  33   2.0000      -0.533037       -14.5047
  34   2.0000      -0.525431       -14.2977
  35   2.0000      -0.517755       -14.0888
  36   2.0000      -0.494461       -13.4550
  37   2.0000      -0.477757       -13.0004
  38   2.0000      -0.451200       -12.2778
  39   2.0000      -0.431303       -11.7363
  40   0.0000       0.023898         0.6503
  41   0.0000       0.037716         1.0263
  42   0.0000       0.040101         1.0912
  43   0.0000       0.048789         1.3276
  44   0.0000       0.057186         1.5561

MULLIKEN ATOMIC CHARGES
-----------------------
   0 P :    1.200714
   1 N :    0.028981
   2 N :    0.734211
   3 Cl:   -0.395840
   4 O :   -0.615853
   5 O :   -0.567316
   6 O :   -0.567062
   7 O :   -0.552586
   8 H :    0.368873
   9 H :    0.365879
Sum of atomic charges:    0.0000000

LOEWDIN ATOMIC CHARGES
----------------------
   0 P :   -0.209154
   1 N :   -0.557285
   2 N :   -1.079882
   3 Cl:    0.806564
   4 O :    0.456070
   5 O :    0.996545
   6 O :    0.994365
   7 O :    0.420450
   8 H :   -0.999954
   9 H :   -0.827716

  Mayer bond orders larger than 0.100000
B(  0-P ,  1-N ) :   0.8298 B(  0-P ,  2-N ) :   0.5402 B(  0-P ,  3-Cl) :   0.9253
B(  1-N ,  5-O ) :   0.7571 B(  1-N ,  6-O ) :   0.6916 B(  2-N ,  4-O ) :   1.2784
B(  2-N ,  7-O ) :   1.4205 B(  4-O ,  7-O ) :   0.1426 B(  5-O ,  9-H ) :   0.8967
B(  6-O ,  8-H ) :   0.8204

MP2 TOTAL ENERGY:    -1211.628251584 Eh
FINAL SINGLE POINT ENERGY     -1211.628251583879

DIPOLE MOMENT
-------------
                                X             Y             Z
Electronic contribution:     -6.11945      -1.05057      -2.22723
Nuclear contribution   :      5.98511      -0.07072       2.10317
                        -----------------------------------------
Total Dipole Moment    :     -0.13434      -1.12129      -0.12406
                        -----------------------------------------
Magnitude (a.u.)       :      1.13610
Magnitude (Debye)      :      2.88774

Rotational constants in cm-1:     0.059365     0.049327     0.034086
Rotational constants in MHz :  1779.706701  1478.773941  1021.857894

                             ****ORCA TERMINATED NORMALLY****
TOTAL RUN TIME: 0 days 0 hours 10 minutes 28 seconds 210 msec
