                         Program Version 5.0.4 -  RELEASE  -
|  1> ! ri-mp2 aug-cc-pvdz aug-cc-pvdz/c tightscf
|  2> %pal nprocs 16 end
|  3> %maxcore 3800
|  4> %base "DZ_B-Cl_48_AB"
|  5> %scf
|  6> STABPerform true
|  7> STABRestartUHFifUnstable true
|  8> end
|  9>
| 10> *xyz 0 1
| 11> Cl        -1.763624    1.761123    0.183687
| 12> B        -1.012491    0.218177   -0.043394
| 13> Cl        -2.010591   -1.200090   -0.244619
| 14> C         0.579082    0.046373    0.048504
| 15> O         1.118117   -0.997037   -0.705367
| 16> O         0.796113   -0.254293    1.409025
| 17> O         1.179866    1.255683   -0.232573
| 18> C         0.989539   -0.841280   -2.104188
| 19> H        -0.058869   -0.749994   -2.402206
| 20> H         1.404694   -1.738853   -2.554859
| 21> H         1.534944    0.034549   -2.458618
| 22> C         0.877927   -1.614302    1.811208
| 23> H         0.958949   -1.589564    2.895209
| 24> H         1.754098   -2.099463    1.385648
| 25> H        -0.012909   -2.176266    1.529214
| 26> C         2.572179    1.333197    0.041131
| 27> H         2.894915    2.302118   -0.329988
| 28> H         3.122423    0.542862   -0.471810
| 29> H         2.760746    1.267412    1.111609
| 30> *
| 31>
| 32> $new_job
| 33> ! ri-mp2 aug-cc-pvtz aug-cc-pvtz/c tightscf
| 34> %pal nprocs 16 end
| 35> %maxcore 3800
| 36> %base "TZ_B-Cl_48_AB"
| 37>
| 38> *xyz 0 1
| 39> Cl        -1.763624    1.761123    0.183687
| 40> B        -1.012491    0.218177   -0.043394
| 41> Cl        -2.010591   -1.200090   -0.244619
| 42> C         0.579082    0.046373    0.048504
| 43> O         1.118117   -0.997037   -0.705367
| 44> O         0.796113   -0.254293    1.409025
| 45> O         1.179866    1.255683   -0.232573
| 46> C         0.989539   -0.841280   -2.104188
| 47> H        -0.058869   -0.749994   -2.402206
| 48> H         1.404694   -1.738853   -2.554859
| 49> H         1.534944    0.034549   -2.458618
| 50> C         0.877927   -1.614302    1.811208
| 51> H         0.958949   -1.589564    2.895209
| 52> H         1.754098   -2.099463    1.385648
| 53> H        -0.012909   -2.176266    1.529214
| 54> C         2.572179    1.333197    0.041131
| 55> H         2.894915    2.302118   -0.329988
| 56> H         3.122423    0.542862   -0.471810
| 57> H         2.760746    1.267412    1.111609
| 58> *
| 59>
| 60> $new_job
| 61> ! ri-mp2 aug-cc-pvqz aug-cc-pvqz/c tightscf
| 62> %pal nprocs 16 end
| 63> %maxcore 3800
| 64> %base "QZ_B-Cl_48_AB"
| 65>
| 66> *xyz 0 1
| 67> Cl        -1.763624    1.761123    0.183687
| 68> B        -1.012491    0.218177   -0.043394
| 69> Cl        -2.010591   -1.200090   -0.244619
| 70> C         0.579082    0.046373    0.048504
| 71> O         1.118117   -0.997037   -0.705367
| 72> O         0.796113   -0.254293    1.409025
| 73> O         1.179866    1.255683   -0.232573
| 74> C         0.989539   -0.841280   -2.104188
| 75> H        -0.058869   -0.749994   -2.402206
| 76> H         1.404694   -1.738853   -2.554859
| 77> H         1.534944    0.034549   -2.458618
| 78> C         0.877927   -1.614302    1.811208
| 79> H         0.958949   -1.589564    2.895209
| 80> H         1.754098   -2.099463    1.385648
| 81> H        -0.012909   -2.176266    1.529214
| 82> C         2.572179    1.333197    0.041131
| 83> H         2.894915    2.302118   -0.329988
| 84> H         3.122423    0.542862   -0.471810
| 85> H         2.760746    1.267412    1.111609
| 86> *
| 87>
| 88>
| 89>
| 90>
| 91>                          ****END OF INPUT****
 Total Charge           Charge          ....    0
 Multiplicity           Mult            ....    1
 Number of Electrons    NEL             ....   96
MP2 TOTAL ENERGY:    -1326.650932922 Eh
FINAL SINGLE POINT ENERGY     -1326.650932921729
MP2 TOTAL ENERGY:    -1327.130857700 Eh
FINAL SINGLE POINT ENERGY     -1327.130857699907

CARTESIAN COORDINATES (ANGSTROEM)
---------------------------------
  Cl    -1.763624    1.761123    0.183687
  B     -1.012491    0.218177   -0.043394
  Cl    -2.010591   -1.200090   -0.244619
  C      0.579082    0.046373    0.048504
  O      1.118117   -0.997037   -0.705367
  O      0.796113   -0.254293    1.409025
  O      1.179866    1.255683   -0.232573
  C      0.989539   -0.841280   -2.104188
  H     -0.058869   -0.749994   -2.402206
  H      1.404694   -1.738853   -2.554859
  H      1.534944    0.034549   -2.458618
  C      0.877927   -1.614302    1.811208
  H      0.958949   -1.589564    2.895209
  H      1.754098   -2.099463    1.385648
  H     -0.012909   -2.176266    1.529214
  C      2.572179    1.333197    0.041131
  H      2.894915    2.302118   -0.329988
  H      3.122423    0.542862   -0.471810
  H      2.760746    1.267412    1.111609

 Multiplicity           Mult            ....    1
 Number of Electrons    NEL             ....   96
 Basis Dimension        Dim             .... 1222

ORBITAL ENERGIES
----------------

  NO   OCC          E(Eh)            E(eV)
   0   2.0000    -104.844000     -2852.9503
   1   2.0000    -104.839245     -2852.8209
   2   2.0000     -20.575341      -559.8835
   3   2.0000     -20.570529      -559.7525
   4   2.0000     -20.568352      -559.6933
   5   2.0000     -11.385251      -309.8084
   6   2.0000     -11.283203      -307.0316
   7   2.0000     -11.272617      -306.7435
   8   2.0000     -11.270097      -306.6749
   9   2.0000     -10.572037      -287.6797
  10   2.0000     -10.567122      -287.5460
  11   2.0000      -8.038866      -218.7487
  12   2.0000      -8.037816      -218.7201
  13   2.0000      -8.037531      -218.7123
  14   2.0000      -8.033971      -218.6155
  15   2.0000      -8.032885      -218.5859
  16   2.0000      -8.032573      -218.5774
  17   2.0000      -7.711157      -209.8313
  18   2.0000      -1.469106       -39.9764
  19   2.0000      -1.366131       -37.1743
  20   2.0000      -1.360413       -37.0187
  21   2.0000      -1.147066       -31.2132
  22   2.0000      -1.102106       -29.9898
  23   2.0000      -1.001035       -27.2396
  24   2.0000      -0.949086       -25.8259
  25   2.0000      -0.933832       -25.4109
  26   2.0000      -0.825269       -22.4567
  27   2.0000      -0.746785       -20.3211
  28   2.0000      -0.718983       -19.5645
  29   2.0000      -0.713568       -19.4172
  30   2.0000      -0.654946       -17.8220
  31   2.0000      -0.648355       -17.6426
  32   2.0000      -0.628581       -17.1046
  33   2.0000      -0.611478       -16.6392
  34   2.0000      -0.599456       -16.3120
  35   2.0000      -0.588736       -16.0203
  36   2.0000      -0.572211       -15.5706
  37   2.0000      -0.558139       -15.1877
  38   2.0000      -0.541278       -14.7289
  39   2.0000      -0.515651       -14.0316
  40   2.0000      -0.505265       -13.7489
  41   2.0000      -0.498960       -13.5774
  42   2.0000      -0.484180       -13.1752
  43   2.0000      -0.472215       -12.8496
  44   2.0000      -0.464906       -12.6507
  45   2.0000      -0.459010       -12.4903
  46   2.0000      -0.446277       -12.1438
  47   2.0000      -0.413559       -11.2535
  48   0.0000       0.022014         0.5990
  49   0.0000       0.031539         0.8582
  50   0.0000       0.032443         0.8828
  51   0.0000       0.032703         0.8899
  52   0.0000       0.046443         1.2638

MULLIKEN ATOMIC CHARGES
-----------------------
   0 Cl:   -0.283634
   1 B :    0.713295
   2 Cl:   -0.337066
   3 C :    2.135495
   4 O :   -0.898145
   5 O :   -0.985268
   6 O :   -0.963343
   7 C :   -0.830211
   8 H :    0.274712
   9 H :    0.394096
  10 H :    0.331853
  11 C :   -0.813407
  12 H :    0.428877
  13 H :    0.340183
  14 H :    0.298600
  15 C :   -0.797945
  16 H :    0.402653
  17 H :    0.265154
  18 H :    0.324101
Sum of atomic charges:    0.0000000

LOEWDIN ATOMIC CHARGES
----------------------
   0 Cl:    1.326093
   1 B :   -2.468643
   2 Cl:    1.355092
   3 C :   -1.502093
   4 O :    0.838990
   5 O :    0.835055
   6 O :    0.816474
   7 C :    0.562302
   8 H :   -0.339355
   9 H :   -0.306795
  10 H :   -0.311454
  11 C :    0.558155
  12 H :   -0.320981
  13 H :   -0.321603
  14 H :   -0.355416
  15 C :    0.586690
  16 H :   -0.317457
  17 H :   -0.319309
  18 H :   -0.315744

  Mayer bond orders larger than 0.100000
B(  0-Cl,  1-B ) :   0.9290 B(  1-B ,  2-Cl) :   0.9240 B(  1-B ,  3-C ) :   0.8770
B(  1-B ,  6-O ) :   0.1010 B(  3-C ,  4-O ) :   0.3003 B(  3-C ,  5-O ) :   0.2489
B(  3-C ,  6-O ) :   0.3327 B(  3-C ,  7-C ) :  -0.1589 B(  3-C , 15-C ) :  -0.1218
B(  4-O ,  5-O ) :   0.1186 B(  4-O ,  7-C ) :   0.9497 B(  5-O , 11-C ) :   0.9365
B(  6-O , 15-C ) :   0.9551 B(  7-C ,  8-H ) :   0.9056 B(  7-C ,  9-H ) :   0.8948
B(  7-C , 10-H ) :   0.8915 B( 11-C , 12-H ) :   0.8632 B( 11-C , 13-H ) :   0.8790
B( 11-C , 14-H ) :   0.9248 B( 15-C , 16-H ) :   0.8711 B( 15-C , 17-H ) :   0.9305
B( 15-C , 18-H ) :   0.8924

MP2 TOTAL ENERGY:    -1327.285922300 Eh
FINAL SINGLE POINT ENERGY     -1327.285922299938

DIPOLE MOMENT
-------------
                                X             Y             Z
Electronic contribution:    -19.22171       4.52158       0.73402
Nuclear contribution   :     19.90197      -5.00423      -1.12545
                        -----------------------------------------
Total Dipole Moment    :      0.68026      -0.48265      -0.39142
                        -----------------------------------------
Magnitude (a.u.)       :      0.92137
Magnitude (Debye)      :      2.34192

Rotational constants in cm-1:     0.036922     0.027059     0.022740
Rotational constants in MHz :  1106.884936   811.223119   681.740755

                             ****ORCA TERMINATED NORMALLY****
TOTAL RUN TIME: 0 days 5 hours 10 minutes 3 seconds 885 msec
