                         Program Version 5.0.4 -  RELEASE  -
|  1> ! ri-mp2 aug-cc-pvdz aug-cc-pvdz/c tightscf
|  2> %pal nprocs 16 end
|  3> %maxcore 3800
|  4> %base "DZ_P-N_26_AB"
|  5> %scf
|  6> STABPerform true
|  7> STABRestartUHFifUnstable true
|  8> end
|  9>
| 10> *xyz 0 1
| 11> C        -0.965521    0.137811    0.020172
| 12> N         1.787085   -0.298572    0.491350
| 13> O         2.424496    0.685456   -0.316924
| 14> C        -2.104148   -0.396653   -0.850657
| 15> H        -2.370717   -1.420862   -0.583795
| 16> H        -1.841854   -0.378877   -1.909902
| 17> C        -0.615521    1.558967   -0.410036
| 18> H        -0.228221    1.591668   -1.427956
| 19> H         0.130029    2.000595    0.250104
| 20> H        -1.507650    2.189476   -0.362241
| 21> H        -2.993408    0.223287   -0.718843
| 22> C        -1.390068    0.133614    1.488138
| 23> H        -2.222173    0.824982    1.640663
| 24> H        -0.569631    0.446172    2.135298
| 25> H        -1.711936   -0.858455    1.807255
| 26> P         0.421057   -1.086112   -0.175914
| 27> H         2.377309    1.491369    0.208072
| 28> H         0.661683   -0.860263   -1.555078
| 29> H         2.506704   -0.953477    0.765378
| 30> *
| 31>
| 32> $new_job
| 33> ! ri-mp2 aug-cc-pvtz aug-cc-pvtz/c tightscf
| 34> %pal nprocs 16 end
| 35> %maxcore 3800
| 36> %base "TZ_P-N_26_AB"
| 37>
| 38> *xyz 0 1
| 39> C        -0.965521    0.137811    0.020172
| 40> N         1.787085   -0.298572    0.491350
| 41> O         2.424496    0.685456   -0.316924
| 42> C        -2.104148   -0.396653   -0.850657
| 43> H        -2.370717   -1.420862   -0.583795
| 44> H        -1.841854   -0.378877   -1.909902
| 45> C        -0.615521    1.558967   -0.410036
| 46> H        -0.228221    1.591668   -1.427956
| 47> H         0.130029    2.000595    0.250104
| 48> H        -1.507650    2.189476   -0.362241
| 49> H        -2.993408    0.223287   -0.718843
| 50> C        -1.390068    0.133614    1.488138
| 51> H        -2.222173    0.824982    1.640663
| 52> H        -0.569631    0.446172    2.135298
| 53> H        -1.711936   -0.858455    1.807255
| 54> P         0.421057   -1.086112   -0.175914
| 55> H         2.377309    1.491369    0.208072
| 56> H         0.661683   -0.860263   -1.555078
| 57> H         2.506704   -0.953477    0.765378
| 58> *
| 59>
| 60> $new_job
| 61> ! ri-mp2 aug-cc-pvqz aug-cc-pvqz/c tightscf
| 62> %pal nprocs 16 end
| 63> %maxcore 3800
| 64> %base "QZ_P-N_26_AB"
| 65>
| 66> *xyz 0 1
| 67> C        -0.965521    0.137811    0.020172
| 68> N         1.787085   -0.298572    0.491350
| 69> O         2.424496    0.685456   -0.316924
| 70> C        -2.104148   -0.396653   -0.850657
| 71> H        -2.370717   -1.420862   -0.583795
| 72> H        -1.841854   -0.378877   -1.909902
| 73> C        -0.615521    1.558967   -0.410036
| 74> H        -0.228221    1.591668   -1.427956
| 75> H         0.130029    2.000595    0.250104
| 76> H        -1.507650    2.189476   -0.362241
| 77> H        -2.993408    0.223287   -0.718843
| 78> C        -1.390068    0.133614    1.488138
| 79> H        -2.222173    0.824982    1.640663
| 80> H        -0.569631    0.446172    2.135298
| 81> H        -1.711936   -0.858455    1.807255
| 82> P         0.421057   -1.086112   -0.175914
| 83> H         2.377309    1.491369    0.208072
| 84> H         0.661683   -0.860263   -1.555078
| 85> H         2.506704   -0.953477    0.765378
| 86> *
| 87>
| 88>
| 89>
| 90>
| 91>                          ****END OF INPUT****
 Total Charge           Charge          ....    0
 Multiplicity           Mult            ....    1
 Number of Electrons    NEL             ....   66
MP2 TOTAL ENERGY:     -629.604258969 Eh
FINAL SINGLE POINT ENERGY      -629.604258968564
MP2 TOTAL ENERGY:     -629.916749668 Eh
FINAL SINGLE POINT ENERGY      -629.916749668277

CARTESIAN COORDINATES (ANGSTROEM)
---------------------------------
  C     -0.965521    0.137811    0.020172
  N      1.787085   -0.298572    0.491350
  O      2.424496    0.685456   -0.316924
  C     -2.104148   -0.396653   -0.850657
  H     -2.370717   -1.420862   -0.583795
  H     -1.841854   -0.378877   -1.909902
  C     -0.615521    1.558967   -0.410036
  H     -0.228221    1.591668   -1.427956
  H      0.130029    2.000595    0.250104
  H     -1.507650    2.189476   -0.362241
  H     -2.993408    0.223287   -0.718843
  C     -1.390068    0.133614    1.488138
  H     -2.222173    0.824982    1.640663
  H     -0.569631    0.446172    2.135298
  H     -1.711936   -0.858455    1.807255
  P      0.421057   -1.086112   -0.175914
  H      2.377309    1.491369    0.208072
  H      0.661683   -0.860263   -1.555078
  H      2.506704   -0.953477    0.765378

 Multiplicity           Mult            ....    1
 Number of Electrons    NEL             ....   66
 Basis Dimension        Dim             .... 1116

ORBITAL ENERGIES
----------------

  NO   OCC          E(Eh)            E(eV)
   0   2.0000     -79.946036     -2175.4422
   1   2.0000     -20.594014      -560.3916
   2   2.0000     -15.603437      -424.5911
   3   2.0000     -11.236982      -305.7738
   4   2.0000     -11.217972      -305.2565
   5   2.0000     -11.214979      -305.1751
   6   2.0000     -11.213352      -305.1308
   7   2.0000      -7.486438      -203.7163
   8   2.0000      -5.380756      -146.4178
   9   2.0000      -5.380012      -146.3976
  10   2.0000      -5.379325      -146.3789
  11   2.0000      -1.405251       -38.2388
  12   2.0000      -1.111933       -30.2572
  13   2.0000      -1.081981       -29.4422
  14   2.0000      -0.938608       -25.5408
  15   2.0000      -0.935747       -25.4630
  16   2.0000      -0.836316       -22.7573
  17   2.0000      -0.729690       -19.8559
  18   2.0000      -0.700394       -19.0587
  19   2.0000      -0.658970       -17.9315
  20   2.0000      -0.628737       -17.1088
  21   2.0000      -0.607456       -16.5297
  22   2.0000      -0.600104       -16.3296
  23   2.0000      -0.576571       -15.6893
  24   2.0000      -0.546909       -14.8821
  25   2.0000      -0.539554       -14.6820
  26   2.0000      -0.518769       -14.1164
  27   2.0000      -0.496550       -13.5118
  28   2.0000      -0.476485       -12.9658
  29   2.0000      -0.470859       -12.8127
  30   2.0000      -0.442223       -12.0335
  31   2.0000      -0.403220       -10.9722
  32   2.0000      -0.348426        -9.4812
  33   0.0000       0.024630         0.6702
  34   0.0000       0.030167         0.8209
  35   0.0000       0.033855         0.9213
  36   0.0000       0.034912         0.9500
  37   0.0000       0.046502         1.2654

MULLIKEN ATOMIC CHARGES
-----------------------
   0 C :    1.099038
   1 N :   -0.543058
   2 O :   -0.663367
   3 C :   -1.173858
   4 H :    0.254485
   5 H :    0.229427
   6 C :   -1.143744
   7 H :    0.245639
   8 H :    0.304502
   9 H :    0.262980
  10 H :    0.262705
  11 C :   -1.085121
  12 H :    0.245599
  13 H :    0.244019
  14 H :    0.265089
  15 P :    0.724885
  16 H :    0.375812
  17 H :   -0.140382
  18 H :    0.235351
Sum of atomic charges:    0.0000000

LOEWDIN ATOMIC CHARGES
----------------------
   0 C :   -0.472037
   1 N :    0.336594
   2 O :    1.058017
   3 C :    0.810929
   4 H :   -0.287676
   5 H :   -0.286168
   6 C :    0.839500
   7 H :   -0.283886
   8 H :   -0.311709
   9 H :   -0.272565
  10 H :   -0.274005
  11 C :    0.824519
  12 H :   -0.273766
  13 H :   -0.288598
  14 H :   -0.289439
  15 P :    1.088634
  16 H :   -0.857558
  17 H :   -0.384544
  18 H :   -0.676241

  Mayer bond orders larger than 0.100000
B(  0-C ,  1-N ) :  -0.2305 B(  0-C ,  3-C ) :   0.4693 B(  0-C ,  4-H ) :  -0.1010
B(  0-C ,  5-H ) :  -0.1011 B(  0-C ,  6-C ) :   0.4446 B(  0-C ,  7-H ) :  -0.1056
B(  0-C ,  8-H ) :  -0.1143 B(  0-C , 11-C ) :   0.4185 B(  0-C , 13-H ) :  -0.1048
B(  0-C , 14-H ) :  -0.1048 B(  0-C , 15-P ) :   0.5707 B(  1-N ,  2-O ) :   0.7266
B(  1-N , 15-P ) :   0.7293 B(  1-N , 18-H ) :   0.9650 B(  2-O , 16-H ) :   0.8650
B(  3-C ,  4-H ) :   1.0148 B(  3-C ,  5-H ) :   1.0348 B(  3-C ,  6-C ) :   0.1178
B(  3-C , 10-H ) :   1.0052 B(  3-C , 11-C ) :   0.1221 B(  6-C ,  7-H ) :   1.0341
B(  6-C ,  8-H ) :   1.0099 B(  6-C ,  9-H ) :   0.9664 B(  6-C , 11-C ) :   0.1404
B( 11-C , 12-H ) :   1.0076 B( 11-C , 13-H ) :   1.0284 B( 11-C , 14-H ) :   1.0199
B( 15-P , 17-H ) :   0.9517

MP2 TOTAL ENERGY:     -630.014269190 Eh
FINAL SINGLE POINT ENERGY      -630.014269189989

DIPOLE MOMENT
-------------
                                X             Y             Z
Electronic contribution:      8.14373      -5.02009      -0.20054
Nuclear contribution   :     -8.31212       5.46392       0.42407
                        -----------------------------------------
Total Dipole Moment    :     -0.16840       0.44383       0.22353
                        -----------------------------------------
Magnitude (a.u.)       :      0.52470
Magnitude (Debye)      :      1.33367

Rotational constants in cm-1:     0.105694     0.049465     0.045211
Rotational constants in MHz :  3168.614374  1482.932767  1355.388718

                             ****ORCA TERMINATED NORMALLY****
TOTAL RUN TIME: 0 days 3 hours 36 minutes 8 seconds 79 msec
