                         Program Version 5.0.4 -  RELEASE  -
|  1> ! ri-mp2 aug-cc-pvdz aug-cc-pvdz/c tightscf
|  2> %pal nprocs 16 end
|  3> %maxcore 3800
|  4> %base "DZ_S-F_12_A"
|  5> %scf
|  6> STABPerform true
|  7> STABRestartUHFifUnstable true
|  8> end
|  9>
| 10> *xyz 0 2
| 11> S         1.457829   -0.194043   -0.000025
| 12> Si        -0.530511    0.486662    0.000015
| 13> F        -1.602824   -0.693719    0.000013
| 14> H        -0.736311    1.267415    1.232064
| 15> H        -0.736394    1.267472   -1.231983
| 16> *
| 17>
| 18> $new_job
| 19> ! ri-mp2 aug-cc-pvtz aug-cc-pvtz/c tightscf
| 20> %pal nprocs 16 end
| 21> %maxcore 3800
| 22> %base "TZ_S-F_12_A"
| 23>
| 24> *xyz 0 2
| 25> S         1.457829   -0.194043   -0.000025
| 26> Si        -0.530511    0.486662    0.000015
| 27> F        -1.602824   -0.693719    0.000013
| 28> H        -0.736311    1.267415    1.232064
| 29> H        -0.736394    1.267472   -1.231983
| 30> *
| 31>
| 32> $new_job
| 33> ! ri-mp2 aug-cc-pvqz aug-cc-pvqz/c tightscf
| 34> %pal nprocs 16 end
| 35> %maxcore 3800
| 36> %base "QZ_S-F_12_A"
| 37>
| 38> *xyz 0 2
| 39> S         1.457829   -0.194043   -0.000025
| 40> Si        -0.530511    0.486662    0.000015
| 41> F        -1.602824   -0.693719    0.000013
| 42> H        -0.736311    1.267415    1.232064
| 43> H        -0.736394    1.267472   -1.231983
| 44> *
| 45>
| 46>
| 47>
| 48>
| 49>                          ****END OF INPUT****
 Total Charge           Charge          ....    0
 Multiplicity           Mult            ....    2
 Number of Electrons    NEL             ....   41
MP2 TOTAL ENERGY:     -787.563655251 Eh
FINAL SINGLE POINT ENERGY      -787.563655251348
MP2 TOTAL ENERGY:     -787.736822040 Eh
FINAL SINGLE POINT ENERGY      -787.736822039669

CARTESIAN COORDINATES (ANGSTROEM)
---------------------------------
  S      1.457829   -0.194043   -0.000025
  Si    -0.530511    0.486662    0.000015
  F     -1.602824   -0.693719    0.000013
  H     -0.736311    1.267415    1.232064
  H     -0.736394    1.267472   -1.231983

 Multiplicity           Mult            ....    2
 Number of Electrons    NEL             ....   41
 Basis Dimension        Dim             ....  340

ORBITAL ENERGIES
----------------
                 SPIN UP ORBITALS
  NO   OCC          E(Eh)            E(eV)
   0   1.0000     -91.986313     -2503.0748
   1   1.0000     -68.842360     -1873.2959
   2   1.0000     -26.292282      -715.4494
   3   1.0000      -8.989983      -244.6299
   4   1.0000      -6.685571      -181.9236
   5   1.0000      -6.667173      -181.4230
   6   1.0000      -6.666319      -181.3998
   7   1.0000      -6.184068      -168.2770
   8   1.0000      -4.291279      -116.7716
   9   1.0000      -4.291031      -116.7649
  10   1.0000      -4.290384      -116.7473
  11   1.0000      -1.595856       -43.4255
  12   1.0000      -0.994334       -27.0572
  13   1.0000      -0.770825       -20.9752
  14   1.0000      -0.679761       -18.4972
  15   1.0000      -0.676149       -18.3989
  16   1.0000      -0.635237       -17.2857
  17   1.0000      -0.533195       -14.5090
  18   1.0000      -0.480004       -13.0616
  19   1.0000      -0.460154       -12.5214
  20   1.0000      -0.416253       -11.3268
  21   0.0000       0.029510         0.8030
  22   0.0000       0.037453         1.0192
  23   0.0000       0.040972         1.1149
  24   0.0000       0.041706         1.1349
  25   0.0000       0.063520         1.7285

                 SPIN DOWN ORBITALS
  NO   OCC          E(Eh)            E(eV)
   0   1.0000     -91.977545     -2502.8362
   1   1.0000     -68.842743     -1873.3063
   2   1.0000     -26.292501      -715.4553
   3   1.0000      -8.980380      -244.3686
   4   1.0000      -6.662396      -181.2930
   5   1.0000      -6.661142      -181.2589
   6   1.0000      -6.645709      -180.8389
   7   1.0000      -6.184635      -168.2925
   8   1.0000      -4.292025      -116.7919
   9   1.0000      -4.291456      -116.7765
  10   1.0000      -4.290956      -116.7628
  11   1.0000      -1.596440       -43.4413
  12   1.0000      -0.906470       -24.6663
  13   1.0000      -0.762623       -20.7520
  14   1.0000      -0.679298       -18.4846
  15   1.0000      -0.676342       -18.4042
  16   1.0000      -0.626823       -17.0567
  17   1.0000      -0.506362       -13.7788
  18   1.0000      -0.465005       -12.6534
  19   1.0000      -0.396225       -10.7818
  20   0.0000      -0.019069        -0.5189
  21   0.0000       0.029770         0.8101
  22   0.0000       0.038122         1.0373
  23   0.0000       0.041837         1.1384
  24   0.0000       0.042546         1.1577

MULLIKEN ATOMIC CHARGES AND SPIN POPULATIONS
--------------------------------------------
   0 S :   -0.370653    1.047360
   1 Si:    1.398083   -0.090717
   2 F :   -0.667123    0.001713
   3 H :   -0.180154    0.020822
   4 H :   -0.180153    0.020821
Sum of atomic charges         :    0.0000000

LOEWDIN ATOMIC CHARGES AND SPIN POPULATIONS
-------------------------------------------
   0 S :    0.747164    0.757157
   1 Si:   -0.420309    0.215467
   2 F :    0.342466   -0.003174
   3 H :   -0.334661    0.015276
   4 H :   -0.334659    0.015274

  Mayer bond orders larger than 0.100000
B(  0-S ,  1-Si) :   0.7960 B(  1-Si,  2-F ) :   0.4238 B(  1-Si,  3-H ) :   0.9169
B(  1-Si,  4-H ) :   0.9169

MP2 TOTAL ENERGY:     -787.794942354 Eh
FINAL SINGLE POINT ENERGY      -787.794942354349

DIPOLE MOMENT
-------------
                                X             Y             Z
Electronic contribution:     -0.02535      -2.53661      -0.00007
Nuclear contribution   :      0.09246       3.03264       0.00006
                        -----------------------------------------
Total Dipole Moment    :      0.06711       0.49603      -0.00000
                        -----------------------------------------
Magnitude (a.u.)       :      0.50055
Magnitude (Debye)      :      1.27230

Rotational constants in cm-1:     0.729908     0.130598     0.115419
Rotational constants in MHz : 21882.105613  3915.219343  3460.170936

                             ****ORCA TERMINATED NORMALLY****
TOTAL RUN TIME: 0 days 0 hours 6 minutes 45 seconds 159 msec
