                         Program Version 5.0.4 -  RELEASE  -
|  1> ! ri-mp2 aug-cc-pvdz aug-cc-pvdz/c tightscf
|  2> %pal nprocs 16 end
|  3> %maxcore 3800
|  4> %base "DZ_B-Si_22_AB"
|  5>
|  6> *xyz 0 1
|  7> Si        -0.064933   -0.103983   -0.999324
|  8> N         0.805414   -1.529032   -0.097112
|  9> B        -1.834709    0.085100   -0.029195
| 10> O         0.140017   -2.245291    0.649616
| 11> O         1.984687   -1.709365   -0.301343
| 12> O        -2.241639   -0.808721    0.893719
| 13> O        -2.600759    1.162377   -0.338656
| 14> C         1.103825    1.343343   -0.968085
| 15> C         1.082688    2.177997    0.315318
| 16> H         0.842534    1.968218   -1.827282
| 17> H         2.107950    0.959007   -1.165524
| 18> C         1.460443    1.388817    1.560157
| 19> H         0.090301    2.615844    0.446858
| 20> H         1.771163    3.017501    0.198682
| 21> H         0.732866    0.604266    1.782660
| 22> H         1.504551    2.035985    2.435717
| 23> H         2.433889    0.909872    1.445531
| 24> H        -3.430177    1.189827    0.154748
| 25> H        -1.590337   -1.520467    1.021454
| 26> H        -0.158200   -0.699520   -2.347576
| 27> *
| 28>
| 29> $new_job
| 30> ! ri-mp2 aug-cc-pvtz aug-cc-pvtz/c tightscf
| 31> %pal nprocs 16 end
| 32> %maxcore 3800
| 33> %base "TZ_B-Si_22_AB"
| 34>
| 35> *xyz 0 1
| 36> Si        -0.064933   -0.103983   -0.999324
| 37> N         0.805414   -1.529032   -0.097112
| 38> B        -1.834709    0.085100   -0.029195
| 39> O         0.140017   -2.245291    0.649616
| 40> O         1.984687   -1.709365   -0.301343
| 41> O        -2.241639   -0.808721    0.893719
| 42> O        -2.600759    1.162377   -0.338656
| 43> C         1.103825    1.343343   -0.968085
| 44> C         1.082688    2.177997    0.315318
| 45> H         0.842534    1.968218   -1.827282
| 46> H         2.107950    0.959007   -1.165524
| 47> C         1.460443    1.388817    1.560157
| 48> H         0.090301    2.615844    0.446858
| 49> H         1.771163    3.017501    0.198682
| 50> H         0.732866    0.604266    1.782660
| 51> H         1.504551    2.035985    2.435717
| 52> H         2.433889    0.909872    1.445531
| 53> H        -3.430177    1.189827    0.154748
| 54> H        -1.590337   -1.520467    1.021454
| 55> H        -0.158200   -0.699520   -2.347576
| 56> *
| 57>
| 58> $new_job
| 59> ! ri-mp2 aug-cc-pvqz aug-cc-pvqz/c tightscf
| 60> %pal nprocs 16 end
| 61> %maxcore 3800
| 62> %base "QZ_B-Si_22_AB"
| 63>
| 64> *xyz 0 1
| 65> Si        -0.064933   -0.103983   -0.999324
| 66> N         0.805414   -1.529032   -0.097112
| 67> B        -1.834709    0.085100   -0.029195
| 68> O         0.140017   -2.245291    0.649616
| 69> O         1.984687   -1.709365   -0.301343
| 70> O        -2.241639   -0.808721    0.893719
| 71> O        -2.600759    1.162377   -0.338656
| 72> C         1.103825    1.343343   -0.968085
| 73> C         1.082688    2.177997    0.315318
| 74> H         0.842534    1.968218   -1.827282
| 75> H         2.107950    0.959007   -1.165524
| 76> C         1.460443    1.388817    1.560157
| 77> H         0.090301    2.615844    0.446858
| 78> H         1.771163    3.017501    0.198682
| 79> H         0.732866    0.604266    1.782660
| 80> H         1.504551    2.035985    2.435717
| 81> H         2.433889    0.909872    1.445531
| 82> H        -3.430177    1.189827    0.154748
| 83> H        -1.590337   -1.520467    1.021454
| 84> H        -0.158200   -0.699520   -2.347576
| 85> *
| 86>
| 87>
| 88>
| 89>
| 90>                          ****END OF INPUT****
 Total Charge           Charge          ....    0
 Multiplicity           Mult            ....    1
 Number of Electrons    NEL             ....   86
MP2 TOTAL ENERGY:     -788.652446612 Eh
FINAL SINGLE POINT ENERGY      -788.652446611720
MP2 TOTAL ENERGY:     -789.121816537 Eh
FINAL SINGLE POINT ENERGY      -789.121816537207

CARTESIAN COORDINATES (ANGSTROEM)
---------------------------------
  Si    -0.064933   -0.103983   -0.999324
  N      0.805414   -1.529032   -0.097112
  B     -1.834709    0.085100   -0.029195
  O      0.140017   -2.245291    0.649616
  O      1.984687   -1.709365   -0.301343
  O     -2.241639   -0.808721    0.893719
  O     -2.600759    1.162377   -0.338656
  C      1.103825    1.343343   -0.968085
  C      1.082688    2.177997    0.315318
  H      0.842534    1.968218   -1.827282
  H      2.107950    0.959007   -1.165524
  C      1.460443    1.388817    1.560157
  H      0.090301    2.615844    0.446858
  H      1.771163    3.017501    0.198682
  H      0.732866    0.604266    1.782660
  H      1.504551    2.035985    2.435717
  H      2.433889    0.909872    1.445531
  H     -3.430177    1.189827    0.154748
  H     -1.590337   -1.520467    1.021454
  H     -0.158200   -0.699520   -2.347576

 Multiplicity           Mult            ....    1
 Number of Electrons    NEL             ....   86
 Basis Dimension        Dim             .... 1264

ORBITAL ENERGIES
----------------

  NO   OCC          E(Eh)            E(eV)
   0   2.0000     -68.810269     -1872.4226
   1   2.0000     -20.606676      -560.7362
   2   2.0000     -20.598879      -560.5240
   3   2.0000     -20.585264      -560.1535
   4   2.0000     -20.573677      -559.8382
   5   2.0000     -15.813744      -430.3138
   6   2.0000     -11.240159      -305.8603
   7   2.0000     -11.232786      -305.6596
   8   2.0000     -11.225374      -305.4580
   9   2.0000      -7.656543      -208.3451
  10   2.0000      -6.160254      -167.6290
  11   2.0000      -4.267039      -116.1120
  12   2.0000      -4.265498      -116.0701
  13   2.0000      -4.265069      -116.0584
  14   2.0000      -1.598477       -43.4968
  15   2.0000      -1.401301       -38.1313
  16   2.0000      -1.394394       -37.9434
  17   2.0000      -1.359652       -36.9980
  18   2.0000      -1.078870       -29.3575
  19   2.0000      -0.962964       -26.2036
  20   2.0000      -0.939455       -25.5639
  21   2.0000      -0.829593       -22.5744
  22   2.0000      -0.793783       -21.5999
  23   2.0000      -0.787106       -21.4183
  24   2.0000      -0.743232       -20.2244
  25   2.0000      -0.723356       -19.6835
  26   2.0000      -0.707133       -19.2421
  27   2.0000      -0.669862       -18.2279
  28   2.0000      -0.633212       -17.2306
  29   2.0000      -0.624408       -16.9910
  30   2.0000      -0.614577       -16.7235
  31   2.0000      -0.586918       -15.9709
  32   2.0000      -0.584730       -15.9113
  33   2.0000      -0.571819       -15.5600
  34   2.0000      -0.530639       -14.4394
  35   2.0000      -0.514764       -14.0075
  36   2.0000      -0.505500       -13.7554
  37   2.0000      -0.505081       -13.7440
  38   2.0000      -0.491987       -13.3877
  39   2.0000      -0.474157       -12.9025
  40   2.0000      -0.457745       -12.4559
  41   2.0000      -0.454670       -12.3722
  42   2.0000      -0.431613       -11.7448
  43   0.0000       0.018231         0.4961
  44   0.0000       0.026422         0.7190
  45   0.0000       0.028315         0.7705
  46   0.0000       0.034718         0.9447
  47   0.0000       0.041932         1.1410

MULLIKEN ATOMIC CHARGES
-----------------------
   0 Si:    1.443605
   1 N :    0.827249
   2 B :    1.367400
   3 O :   -0.732585
   4 O :   -0.668032
   5 O :   -1.261067
   6 O :   -1.063048
   7 C :   -0.551246
   8 C :   -0.387946
   9 H :    0.259909
  10 H :    0.282950
  11 C :   -0.918972
  12 H :    0.257779
  13 H :    0.262706
  14 H :    0.239439
  15 H :    0.305866
  16 H :    0.204628
  17 H :    0.321990
  18 H :    0.388087
  19 H :   -0.578709
Sum of atomic charges:    0.0000000

LOEWDIN ATOMIC CHARGES
----------------------
   0 Si:    0.503420
   1 N :   -0.820295
   2 B :   -1.175702
   3 O :    0.542666
   4 O :    0.478128
   5 O :    1.327364
   6 O :    1.297936
   7 C :    0.543498
   8 C :    0.463982
   9 H :   -0.323194
  10 H :   -0.336761
  11 C :    0.912714
  12 H :   -0.285416
  13 H :   -0.268847
  14 H :   -0.304693
  15 H :   -0.267919
  16 H :   -0.274410
  17 H :   -0.790026
  18 H :   -1.035757
  19 H :   -0.186685

  Mayer bond orders larger than 0.100000
B(  0-Si,  1-N ) :   0.3823 B(  0-Si,  2-B ) :   0.9173 B(  0-Si,  5-O ) :  -0.1503
B(  0-Si,  6-O ) :  -0.1243 B(  0-Si,  7-C ) :   0.8820 B(  0-Si, 19-H ) :   0.5863
B(  1-N ,  3-O ) :   1.0641 B(  1-N ,  4-O ) :   1.2322 B(  2-B ,  5-O ) :   0.5008
B(  2-B ,  6-O ) :   0.3473 B(  3-O ,  4-O ) :   0.1238 B(  5-O ,  6-O ) :  -0.1324
B(  5-O , 18-H ) :   0.8488 B(  6-O , 17-H ) :   0.9535 B(  7-C ,  8-C ) :   0.8673
B(  7-C ,  9-H ) :   0.9327 B(  7-C , 10-H ) :   0.8758 B(  8-C , 11-C ) :   0.9624
B(  8-C , 12-H ) :   0.9033 B(  8-C , 13-H ) :   0.9023 B( 11-C , 14-H ) :   0.9102
B( 11-C , 15-H ) :   0.9388 B( 11-C , 16-H ) :   0.9937

MP2 TOTAL ENERGY:     -789.274533447 Eh
FINAL SINGLE POINT ENERGY      -789.274533446714

DIPOLE MOMENT
-------------
                                X             Y             Z
Electronic contribution:     -6.17209      -9.49853      -2.63898
Nuclear contribution   :      5.69596      10.85190       2.22252
                        -----------------------------------------
Total Dipole Moment    :     -0.47613       1.35337      -0.41646
                        -----------------------------------------
Magnitude (a.u.)       :      1.49390
Magnitude (Debye)      :      3.79720

Rotational constants in cm-1:     0.038599     0.033598     0.023822
Rotational constants in MHz :  1157.172588  1007.254356   714.156873

                             ****ORCA TERMINATED NORMALLY****
TOTAL RUN TIME: 0 days 0 hours 51 minutes 4 seconds 993 msec
