                         Program Version 5.0.4 -  RELEASE  -
|  1> ! ri-mp2 aug-cc-pvdz aug-cc-pvdz/c tightscf
|  2> %pal nprocs 16 end
|  3> %maxcore 3800
|  4> %base "DZ_P-C_63_AB"
|  5> %scf
|  6> STABPerform true
|  7> STABRestartUHFifUnstable true
|  8> end
|  9>
| 10> *xyz 0 1
| 11> C        -1.114788    0.821044   -0.172761
| 12> P         0.433570   -0.028125    0.094596
| 13> O         0.687900   -0.607424    1.416060
| 14> O         0.454554   -1.112475   -1.079876
| 15> C        -2.325893   -0.068541    0.083652
| 16> H        -1.109713    1.206374   -1.193862
| 17> H        -1.109221    1.683163    0.496124
| 18> H        -2.347095   -0.909754   -0.608150
| 19> H        -3.247308    0.497497   -0.046377
| 20> H        -2.310382   -0.464336    1.098418
| 21> O         1.503891    1.071760   -0.343741
| 22> H         2.296824    1.039096    0.203711
| 23> H         0.796680   -1.960076   -0.773693
| 24> *
| 25>
| 26> $new_job
| 27> ! ri-mp2 aug-cc-pvtz aug-cc-pvtz/c tightscf
| 28> %pal nprocs 16 end
| 29> %maxcore 3800
| 30> %base "TZ_P-C_63_AB"
| 31>
| 32> *xyz 0 1
| 33> C        -1.114788    0.821044   -0.172761
| 34> P         0.433570   -0.028125    0.094596
| 35> O         0.687900   -0.607424    1.416060
| 36> O         0.454554   -1.112475   -1.079876
| 37> C        -2.325893   -0.068541    0.083652
| 38> H        -1.109713    1.206374   -1.193862
| 39> H        -1.109221    1.683163    0.496124
| 40> H        -2.347095   -0.909754   -0.608150
| 41> H        -3.247308    0.497497   -0.046377
| 42> H        -2.310382   -0.464336    1.098418
| 43> O         1.503891    1.071760   -0.343741
| 44> H         2.296824    1.039096    0.203711
| 45> H         0.796680   -1.960076   -0.773693
| 46> *
| 47>
| 48> $new_job
| 49> ! ri-mp2 aug-cc-pvqz aug-cc-pvqz/c tightscf
| 50> %pal nprocs 16 end
| 51> %maxcore 3800
| 52> %base "QZ_P-C_63_AB"
| 53>
| 54> *xyz 0 1
| 55> C        -1.114788    0.821044   -0.172761
| 56> P         0.433570   -0.028125    0.094596
| 57> O         0.687900   -0.607424    1.416060
| 58> O         0.454554   -1.112475   -1.079876
| 59> C        -2.325893   -0.068541    0.083652
| 60> H        -1.109713    1.206374   -1.193862
| 61> H        -1.109221    1.683163    0.496124
| 62> H        -2.347095   -0.909754   -0.608150
| 63> H        -3.247308    0.497497   -0.046377
| 64> H        -2.310382   -0.464336    1.098418
| 65> O         1.503891    1.071760   -0.343741
| 66> H         2.296824    1.039096    0.203711
| 67> H         0.796680   -1.960076   -0.773693
| 68> *
| 69>
| 70>
| 71>
| 72>
| 73>                          ****END OF INPUT****
 Total Charge           Charge          ....    0
 Multiplicity           Mult            ....    1
 Number of Electrons    NEL             ....   58
MP2 TOTAL ENERGY:     -646.295145434 Eh
FINAL SINGLE POINT ENERGY      -646.295145434472
MP2 TOTAL ENERGY:     -646.642738897 Eh
FINAL SINGLE POINT ENERGY      -646.642738896778

CARTESIAN COORDINATES (ANGSTROEM)
---------------------------------
  C     -1.114788    0.821044   -0.172761
  P      0.433570   -0.028125    0.094596
  O      0.687900   -0.607424    1.416060
  O      0.454554   -1.112475   -1.079876
  C     -2.325893   -0.068541    0.083652
  H     -1.109713    1.206374   -1.193862
  H     -1.109221    1.683163    0.496124
  H     -2.347095   -0.909754   -0.608150
  H     -3.247308    0.497497   -0.046377
  H     -2.310382   -0.464336    1.098418
  O      1.503891    1.071760   -0.343741
  H      2.296824    1.039096    0.203711
  H      0.796680   -1.960076   -0.773693

 Multiplicity           Mult            ....    1
 Number of Electrons    NEL             ....   58
 Basis Dimension        Dim             ....  806

ORBITAL ENERGIES
----------------

  NO   OCC          E(Eh)            E(eV)
   0   2.0000     -80.062429     -2178.6094
   1   2.0000     -20.595480      -560.4315
   2   2.0000     -20.594466      -560.4039
   3   2.0000     -20.502257      -557.8948
   4   2.0000     -11.241028      -305.8839
   5   2.0000     -11.229372      -305.5667
   6   2.0000      -7.585775      -206.4194
   7   2.0000      -5.483903      -149.2246
   8   2.0000      -5.483422      -149.2115
   9   2.0000      -5.482323      -149.1816
  10   2.0000      -1.432800       -38.9885
  11   2.0000      -1.382974       -37.6326
  12   2.0000      -1.294641       -35.2290
  13   2.0000      -1.057550       -28.7774
  14   2.0000      -0.900979       -24.5169
  15   2.0000      -0.814139       -22.1538
  16   2.0000      -0.740204       -20.1420
  17   2.0000      -0.678015       -18.4497
  18   2.0000      -0.655372       -17.8336
  19   2.0000      -0.632600       -17.2139
  20   2.0000      -0.625504       -17.0208
  21   2.0000      -0.583889       -15.8884
  22   2.0000      -0.554348       -15.0846
  23   2.0000      -0.543381       -14.7861
  24   2.0000      -0.526561       -14.3285
  25   2.0000      -0.514206       -13.9923
  26   2.0000      -0.505848       -13.7648
  27   2.0000      -0.463198       -12.6042
  28   2.0000      -0.448853       -12.2139
  29   0.0000       0.024092         0.6556
  30   0.0000       0.031083         0.8458
  31   0.0000       0.033194         0.9033
  32   0.0000       0.040938         1.1140
  33   0.0000       0.049099         1.3361

MULLIKEN ATOMIC CHARGES
-----------------------
   0 C :   -0.656161
   1 P :    2.432696
   2 O :   -1.193246
   3 O :   -0.920647
   4 C :   -0.817471
   5 H :    0.306597
   6 H :    0.281465
   7 H :    0.235706
   8 H :    0.294277
   9 H :    0.250705
  10 O :   -0.961016
  11 H :    0.370096
  12 H :    0.376998
Sum of atomic charges:   -0.0000000

LOEWDIN ATOMIC CHARGES
----------------------
   0 C :    0.458964
   1 P :   -0.634614
   2 O :    0.323526
   3 O :    1.112675
   4 C :    0.880892
   5 H :   -0.323333
   6 H :   -0.327704
   7 H :   -0.294766
   8 H :   -0.282268
   9 H :   -0.292976
  10 O :    1.108434
  11 H :   -0.864432
  12 H :   -0.864397

  Mayer bond orders larger than 0.100000
B(  0-C ,  1-P ) :   0.8965 B(  0-C ,  4-C ) :   0.9418 B(  0-C ,  5-H ) :   0.8653
B(  0-C ,  6-H ) :   0.8825 B(  1-P ,  2-O ) :   1.3540 B(  1-P ,  3-O ) :   0.6270
B(  1-P , 10-O ) :   0.5347 B(  3-O , 12-H ) :   0.9335 B(  4-C ,  7-H ) :   0.9440
B(  4-C ,  8-H ) :   0.9507 B(  4-C ,  9-H ) :   0.9360 B( 10-O , 11-H ) :   0.9303

MP2 TOTAL ENERGY:     -646.754021466 Eh
FINAL SINGLE POINT ENERGY      -646.754021466468

DIPOLE MOMENT
-------------
                                X             Y             Z
Electronic contribution:      7.18429      -0.88714       0.30303
Nuclear contribution   :     -7.32604       1.09724      -0.90473
                        -----------------------------------------
Total Dipole Moment    :     -0.14175       0.21011      -0.60170
                        -----------------------------------------
Magnitude (a.u.)       :      0.65291
Magnitude (Debye)      :      1.65955

Rotational constants in cm-1:     0.140379     0.076854     0.074806
Rotational constants in MHz :  4208.447534  2304.033912  2242.620952

                             ****ORCA TERMINATED NORMALLY****
TOTAL RUN TIME: 0 days 1 hours 15 minutes 28 seconds 254 msec
