                         Program Version 5.0.4 -  RELEASE  -
|  1> ! ri-mp2 aug-cc-pvdz aug-cc-pvdz/c tightscf
|  2> %pal nprocs 16 end
|  3> %maxcore 3800
|  4> %base "DZ_B-Cl_32_AB"
|  5> %scf
|  6> STABPerform true
|  7> STABRestartUHFifUnstable true
|  8> end
|  9>
| 10> *xyz 0 1
| 11> Cl         1.720733   -1.509711    0.112105
| 12> Cl         1.720736    1.509707    0.112136
| 13> B         0.879318    0.000001   -0.091031
| 14> C        -0.614736    0.000008   -0.584611
| 15> O        -0.679736    0.000026   -1.809277
| 16> N        -1.680973   -0.000002    0.235431
| 17> C        -1.546994   -0.000023    1.670593
| 18> H        -0.495893   -0.000023    1.953949
| 19> H        -2.015397   -0.886489    2.104289
| 20> H        -2.015402    0.886428    2.104315
| 21> C        -3.019780    0.000005   -0.309247
| 22> H        -2.950610    0.000023   -1.392940
| 23> H        -3.565253    0.887094    0.019631
| 24> H        -3.565250   -0.887098    0.019602
| 25> *
| 26>
| 27> $new_job
| 28> ! ri-mp2 aug-cc-pvtz aug-cc-pvtz/c tightscf
| 29> %pal nprocs 16 end
| 30> %maxcore 3800
| 31> %base "TZ_B-Cl_32_AB"
| 32>
| 33> *xyz 0 1
| 34> Cl         1.720733   -1.509711    0.112105
| 35> Cl         1.720736    1.509707    0.112136
| 36> B         0.879318    0.000001   -0.091031
| 37> C        -0.614736    0.000008   -0.584611
| 38> O        -0.679736    0.000026   -1.809277
| 39> N        -1.680973   -0.000002    0.235431
| 40> C        -1.546994   -0.000023    1.670593
| 41> H        -0.495893   -0.000023    1.953949
| 42> H        -2.015397   -0.886489    2.104289
| 43> H        -2.015402    0.886428    2.104315
| 44> C        -3.019780    0.000005   -0.309247
| 45> H        -2.950610    0.000023   -1.392940
| 46> H        -3.565253    0.887094    0.019631
| 47> H        -3.565250   -0.887098    0.019602
| 48> *
| 49>
| 50> $new_job
| 51> ! ri-mp2 aug-cc-pvqz aug-cc-pvqz/c tightscf
| 52> %pal nprocs 16 end
| 53> %maxcore 3800
| 54> %base "QZ_B-Cl_32_AB"
| 55>
| 56> *xyz 0 1
| 57> Cl         1.720733   -1.509711    0.112105
| 58> Cl         1.720736    1.509707    0.112136
| 59> B         0.879318    0.000001   -0.091031
| 60> C        -0.614736    0.000008   -0.584611
| 61> O        -0.679736    0.000026   -1.809277
| 62> N        -1.680973   -0.000002    0.235431
| 63> C        -1.546994   -0.000023    1.670593
| 64> H        -0.495893   -0.000023    1.953949
| 65> H        -2.015397   -0.886489    2.104289
| 66> H        -2.015402    0.886428    2.104315
| 67> C        -3.019780    0.000005   -0.309247
| 68> H        -2.950610    0.000023   -1.392940
| 69> H        -3.565253    0.887094    0.019631
| 70> H        -3.565250   -0.887098    0.019602
| 71> *
| 72>
| 73>
| 74>
| 75>
| 76>                          ****END OF INPUT****
 Total Charge           Charge          ....    0
 Multiplicity           Mult            ....    1
 Number of Electrons    NEL             ....   78
MP2 TOTAL ENERGY:    -1191.400989466 Eh
FINAL SINGLE POINT ENERGY     -1191.400989465598
MP2 TOTAL ENERGY:    -1191.758842834 Eh
FINAL SINGLE POINT ENERGY     -1191.758842833871

CARTESIAN COORDINATES (ANGSTROEM)
---------------------------------
  Cl     1.720733   -1.509711    0.112105
  Cl     1.720736    1.509707    0.112136
  B      0.879318    0.000001   -0.091031
  C     -0.614736    0.000008   -0.584611
  O     -0.679736    0.000026   -1.809277
  N     -1.680973   -0.000002    0.235431
  C     -1.546994   -0.000023    1.670593
  H     -0.495893   -0.000023    1.953949
  H     -2.015397   -0.886489    2.104289
  H     -2.015402    0.886428    2.104315
  C     -3.019780    0.000005   -0.309247
  H     -2.950610    0.000023   -1.392940
  H     -3.565253    0.887094    0.019631
  H     -3.565250   -0.887098    0.019602

 Multiplicity           Mult            ....    1
 Number of Electrons    NEL             ....   78
 Basis Dimension        Dim             ....  924

ORBITAL ENERGIES
----------------

  NO   OCC          E(Eh)            E(eV)
   0   2.0000    -104.852573     -2853.1836
   1   2.0000    -104.852573     -2853.1836
   2   2.0000     -20.527898      -558.5925
   3   2.0000     -15.603468      -424.5919
   4   2.0000     -11.342232      -308.6378
   5   2.0000     -11.284568      -307.0687
   6   2.0000     -11.264652      -306.5268
   7   2.0000     -10.580261      -287.9035
   8   2.0000     -10.580253      -287.9033
   9   2.0000      -8.047094      -218.9725
  10   2.0000      -8.047093      -218.9725
  11   2.0000      -8.045982      -218.9423
  12   2.0000      -8.045981      -218.9423
  13   2.0000      -8.045714      -218.9350
  14   2.0000      -8.045714      -218.9350
  15   2.0000      -7.726175      -210.2399
  16   2.0000      -1.391232       -37.8574
  17   2.0000      -1.268522       -34.5182
  18   2.0000      -1.155495       -31.4426
  19   2.0000      -1.112298       -30.2672
  20   2.0000      -0.997064       -27.1315
  21   2.0000      -0.961008       -26.1504
  22   2.0000      -0.804805       -21.8999
  23   2.0000      -0.732828       -19.9413
  24   2.0000      -0.673840       -18.3361
  25   2.0000      -0.668661       -18.1952
  26   2.0000      -0.654267       -17.8035
  27   2.0000      -0.595594       -16.2069
  28   2.0000      -0.588216       -16.0062
  29   2.0000      -0.579486       -15.7686
  30   2.0000      -0.576741       -15.6939
  31   2.0000      -0.551697       -15.0124
  32   2.0000      -0.532566       -14.4918
  33   2.0000      -0.526443       -14.3252
  34   2.0000      -0.498256       -13.5582
  35   2.0000      -0.477642       -12.9973
  36   2.0000      -0.465202       -12.6588
  37   2.0000      -0.413390       -11.2489
  38   2.0000      -0.388719       -10.5776
  39   0.0000       0.019631         0.5342
  40   0.0000       0.031153         0.8477
  41   0.0000       0.031656         0.8614
  42   0.0000       0.037708         1.0261
  43   0.0000       0.048070         1.3081

MULLIKEN ATOMIC CHARGES
-----------------------
   0 Cl:   -0.257153
   1 Cl:   -0.257153
   2 B :    0.699546
   3 C :    1.136937
   4 O :   -0.994102
   5 N :   -0.495865
   6 C :   -0.846186
   7 H :    0.283909
   8 H :    0.314601
   9 H :    0.314601
  10 C :   -0.790976
  11 H :    0.309780
  12 H :    0.291031
  13 H :    0.291031
Sum of atomic charges:    0.0000000

LOEWDIN ATOMIC CHARGES
----------------------
   0 Cl:    1.301108
   1 Cl:    1.301108
   2 B :   -2.492112
   3 C :   -0.943427
   4 O :    0.701517
   5 N :    0.378846
   6 C :    0.756062
   7 H :   -0.349113
   8 H :   -0.265278
   9 H :   -0.265278
  10 C :    0.772648
  11 H :   -0.350654
  12 H :   -0.272714
  13 H :   -0.272713

  Mayer bond orders larger than 0.100000
B(  0-Cl,  2-B ) :   0.9827 B(  1-Cl,  2-B ) :   0.9827 B(  2-B ,  3-C ) :   0.8944
B(  2-B ,  4-O ) :   0.1234 B(  3-C ,  4-O ) :   1.0426 B(  3-C ,  5-N ) :   1.2037
B(  4-O ,  5-N ) :   0.2609 B(  5-N ,  6-C ) :   0.7980 B(  5-N , 10-C ) :   0.8428
B(  6-C ,  7-H ) :   0.9246 B(  6-C ,  8-H ) :   0.9419 B(  6-C ,  9-H ) :   0.9419
B( 10-C , 11-H ) :   0.8970 B( 10-C , 12-H ) :   0.9592 B( 10-C , 13-H ) :   0.9592

MP2 TOTAL ENERGY:    -1191.876548292 Eh
FINAL SINGLE POINT ENERGY     -1191.876548292231

DIPOLE MOMENT
-------------
                                X             Y             Z
Electronic contribution:     18.44712       0.00004      -2.83716
Nuclear contribution   :    -19.29712      -0.00006       4.31864
                        -----------------------------------------
Total Dipole Moment    :     -0.84999      -0.00002       1.48148
                        -----------------------------------------
Magnitude (a.u.)       :      1.70800
Magnitude (Debye)      :      4.34140

Rotational constants in cm-1:     0.061940     0.030331     0.027491
Rotational constants in MHz :  1856.908531   909.289163   824.171866

                             ****ORCA TERMINATED NORMALLY****
TOTAL RUN TIME: 0 days 1 hours 22 minutes 20 seconds 182 msec
