                         Program Version 5.0.4 -  RELEASE  -
|  1> ! ri-mp2 aug-cc-pvdz aug-cc-pvdz/c tightscf
|  2> %pal nprocs 16 end
|  3> %maxcore 3800
|  4> %base "DZ_B-S_32_AB"
|  5> %scf
|  6> STABPerform true
|  7> STABRestartUHFifUnstable true
|  8> end
|  9>
| 10> *xyz 0 1
| 11> B         1.786949    0.096530   -0.007136
| 12> S         0.459992   -1.157233    0.011558
| 13> F         1.574594    1.382991    0.022879
| 14> F         3.012534   -0.369299   -0.021862
| 15> S        -1.231297    0.031873   -0.124009
| 16> O        -2.328730   -0.852348   -0.039805
| 17> O        -1.105372    1.014773   -1.129037
| 18> F        -1.156132    0.788941    1.241830
| 19> *
| 20>
| 21> $new_job
| 22> ! ri-mp2 aug-cc-pvtz aug-cc-pvtz/c tightscf
| 23> %pal nprocs 16 end
| 24> %maxcore 3800
| 25> %base "TZ_B-S_32_AB"
| 26>
| 27> *xyz 0 1
| 28> B         1.786949    0.096530   -0.007136
| 29> S         0.459992   -1.157233    0.011558
| 30> F         1.574594    1.382991    0.022879
| 31> F         3.012534   -0.369299   -0.021862
| 32> S        -1.231297    0.031873   -0.124009
| 33> O        -2.328730   -0.852348   -0.039805
| 34> O        -1.105372    1.014773   -1.129037
| 35> F        -1.156132    0.788941    1.241830
| 36> *
| 37>
| 38> $new_job
| 39> ! ri-mp2 aug-cc-pvqz aug-cc-pvqz/c tightscf
| 40> %pal nprocs 16 end
| 41> %maxcore 3800
| 42> %base "QZ_B-S_32_AB"
| 43>
| 44> *xyz 0 1
| 45> B         1.786949    0.096530   -0.007136
| 46> S         0.459992   -1.157233    0.011558
| 47> F         1.574594    1.382991    0.022879
| 48> F         3.012534   -0.369299   -0.021862
| 49> S        -1.231297    0.031873   -0.124009
| 50> O        -2.328730   -0.852348   -0.039805
| 51> O        -1.105372    1.014773   -1.129037
| 52> F        -1.156132    0.788941    1.241830
| 53> *
| 54>
| 55>
| 56>
| 57>
| 58>                          ****END OF INPUT****
 Total Charge           Charge          ....    0
 Multiplicity           Mult            ....    1
 Number of Electrons    NEL             ....   80
MP2 TOTAL ENERGY:    -1269.264406682 Eh
FINAL SINGLE POINT ENERGY     -1269.264406682010
MP2 TOTAL ENERGY:    -1269.818492601 Eh
FINAL SINGLE POINT ENERGY     -1269.818492600952

CARTESIAN COORDINATES (ANGSTROEM)
---------------------------------
  B      1.786949    0.096530   -0.007136
  S      0.459992   -1.157233    0.011558
  F      1.574594    1.382991    0.022879
  F      3.012534   -0.369299   -0.021862
  S     -1.231297    0.031873   -0.124009
  O     -2.328730   -0.852348   -0.039805
  O     -1.105372    1.014773   -1.129037
  F     -1.156132    0.788941    1.241830

 Multiplicity           Mult            ....    1
 Number of Electrons    NEL             ....   80
 Basis Dimension        Dim             ....  648

ORBITAL ENERGIES
----------------

  NO   OCC          E(Eh)            E(eV)
   0   2.0000     -92.279265     -2511.0465
   1   2.0000     -92.039362     -2504.5184
   2   2.0000     -26.383949      -717.9437
   3   2.0000     -26.358787      -717.2591
   4   2.0000     -26.357993      -717.2374
   5   2.0000     -20.607726      -560.7647
   6   2.0000     -20.607264      -560.7522
   7   2.0000      -9.240707      -251.4524
   8   2.0000      -9.043620      -246.0894
   9   2.0000      -7.787511      -211.9090
  10   2.0000      -6.927563      -188.5086
  11   2.0000      -6.925913      -188.4637
  12   2.0000      -6.924798      -188.4333
  13   2.0000      -6.724833      -182.9920
  14   2.0000      -6.723547      -182.9570
  15   2.0000      -6.722882      -182.9389
  16   2.0000      -1.716394       -46.7055
  17   2.0000      -1.693427       -46.0805
  18   2.0000      -1.664003       -45.2798
  19   2.0000      -1.512046       -41.1449
  20   2.0000      -1.419118       -38.6162
  21   2.0000      -1.090682       -29.6790
  22   2.0000      -0.928670       -25.2704
  23   2.0000      -0.863924       -23.5086
  24   2.0000      -0.819163       -22.2905
  25   2.0000      -0.805081       -21.9074
  26   2.0000      -0.778413       -21.1817
  27   2.0000      -0.776573       -21.1316
  28   2.0000      -0.762092       -20.7376
  29   2.0000      -0.753708       -20.5094
  30   2.0000      -0.706408       -19.2223
  31   2.0000      -0.702230       -19.1086
  32   2.0000      -0.684957       -18.6386
  33   2.0000      -0.680846       -18.5268
  34   2.0000      -0.603488       -16.4217
  35   2.0000      -0.581403       -15.8208
  36   2.0000      -0.543968       -14.8021
  37   2.0000      -0.533510       -14.5176
  38   2.0000      -0.515438       -14.0258
  39   2.0000      -0.465691       -12.6721
  40   0.0000       0.025718         0.6998
  41   0.0000       0.035823         0.9748
  42   0.0000       0.036605         0.9961
  43   0.0000       0.041413         1.1269
  44   0.0000       0.061043         1.6611

MULLIKEN ATOMIC CHARGES
-----------------------
   0 B :    1.511590
   1 S :    0.129840
   2 F :   -0.710241
   3 F :   -0.747897
   4 S :    2.505186
   5 O :   -1.069238
   6 O :   -1.021527
   7 F :   -0.597714
Sum of atomic charges:    0.0000000

LOEWDIN ATOMIC CHARGES
----------------------
   0 B :   -2.313003
   1 S :    1.152417
   2 F :    0.789674
   3 F :    0.752850
   4 S :   -1.217902
   5 O :    0.198152
   6 O :    0.222949
   7 F :    0.414864

  Mayer bond orders larger than 0.100000
B(  0-B ,  1-S ) :   1.1722 B(  0-B ,  2-F ) :   0.4609 B(  0-B ,  3-F ) :   0.4060
B(  1-S ,  4-S ) :   1.0132 B(  4-S ,  5-O ) :   1.2653 B(  4-S ,  6-O ) :   1.2974
B(  4-S ,  7-F ) :   0.4973

MP2 TOTAL ENERGY:    -1270.000015513 Eh
FINAL SINGLE POINT ENERGY     -1270.000015512718

DIPOLE MOMENT
-------------
                                X             Y             Z
Electronic contribution:      5.36305       1.24704       1.45006
Nuclear contribution   :     -4.45332      -1.66885      -1.13346
                        -----------------------------------------
Total Dipole Moment    :      0.90974      -0.42181       0.31660
                        -----------------------------------------
Magnitude (a.u.)       :      1.05156
Magnitude (Debye)      :      2.67286

Rotational constants in cm-1:     0.097942     0.034320     0.029948
Rotational constants in MHz :  2936.241197  1028.872930   897.806336

                             ****ORCA TERMINATED NORMALLY****
TOTAL RUN TIME: 0 days 0 hours 29 minutes 47 seconds 588 msec
