                         Program Version 5.0.4 -  RELEASE  -
|  1> ! ri-mp2 aug-cc-pvdz aug-cc-pvdz/c tightscf
|  2> %pal nprocs 16 end
|  3> %maxcore 3800
|  4> %base "DZ_B-Cl_14_AB"
|  5> %scf
|  6> STABPerform true
|  7> STABRestartUHFifUnstable true
|  8> end
|  9>
| 10> *xyz 0 1
| 11> Cl         0.301325    1.601859   -0.000004
| 12> Cl        -1.838831   -0.527585    0.000003
| 13> B        -0.154014   -0.067857    0.000005
| 14> C         0.906979   -1.218174    0.000005
| 15> F         2.215908   -0.766934   -0.000007
| 16> H         0.761309   -1.855965   -0.878191
| 17> H         0.761321   -1.855954    0.878211
| 18> *
| 19>
| 20> $new_job
| 21> ! ri-mp2 aug-cc-pvtz aug-cc-pvtz/c tightscf
| 22> %pal nprocs 16 end
| 23> %maxcore 3800
| 24> %base "TZ_B-Cl_14_AB"
| 25>
| 26> *xyz 0 1
| 27> Cl         0.301325    1.601859   -0.000004
| 28> Cl        -1.838831   -0.527585    0.000003
| 29> B        -0.154014   -0.067857    0.000005
| 30> C         0.906979   -1.218174    0.000005
| 31> F         2.215908   -0.766934   -0.000007
| 32> H         0.761309   -1.855965   -0.878191
| 33> H         0.761321   -1.855954    0.878211
| 34> *
| 35>
| 36> $new_job
| 37> ! ri-mp2 aug-cc-pvqz aug-cc-pvqz/c tightscf
| 38> %pal nprocs 16 end
| 39> %maxcore 3800
| 40> %base "QZ_B-Cl_14_AB"
| 41>
| 42> *xyz 0 1
| 43> Cl         0.301325    1.601859   -0.000004
| 44> Cl        -1.838831   -0.527585    0.000003
| 45> B        -0.154014   -0.067857    0.000005
| 46> C         0.906979   -1.218174    0.000005
| 47> F         2.215908   -0.766934   -0.000007
| 48> H         0.761309   -1.855965   -0.878191
| 49> H         0.761321   -1.855954    0.878211
| 50> *
| 51>
| 52>
| 53>
| 54>
| 55>                          ****END OF INPUT****
 Total Charge           Charge          ....    0
 Multiplicity           Mult            ....    1
 Number of Electrons    NEL             ....   56
MP2 TOTAL ENERGY:    -1082.986646558 Eh
FINAL SINGLE POINT ENERGY     -1082.986646557997
MP2 TOTAL ENERGY:    -1083.245554724 Eh
FINAL SINGLE POINT ENERGY     -1083.245554724217

CARTESIAN COORDINATES (ANGSTROEM)
---------------------------------
  Cl     0.301325    1.601859   -0.000004
  Cl    -1.838831   -0.527585    0.000003
  B     -0.154014   -0.067857    0.000005
  C      0.906979   -1.218174    0.000005
  F      2.215908   -0.766934   -0.000007
  H      0.761309   -1.855965   -0.878191
  H      0.761321   -1.855954    0.878211

 Multiplicity           Mult            ....    1
 Number of Electrons    NEL             ....   56
 Basis Dimension        Dim             ....  500

ORBITAL ENERGIES
----------------

  NO   OCC          E(Eh)            E(eV)
   0   2.0000    -104.855103     -2853.2524
   1   2.0000    -104.851877     -2853.1646
   2   2.0000     -26.287827      -715.3281
   3   2.0000     -11.312372      -307.8253
   4   2.0000     -10.582902      -287.9754
   5   2.0000     -10.579705      -287.8884
   6   2.0000      -8.049736      -219.0444
   7   2.0000      -8.048649      -219.0149
   8   2.0000      -8.048404      -219.0082
   9   2.0000      -8.046539      -218.9575
  10   2.0000      -8.045456      -218.9280
  11   2.0000      -8.045135      -218.9193
  12   2.0000      -7.721276      -210.1066
  13   2.0000      -1.599291       -43.5189
  14   2.0000      -1.158842       -31.5337
  15   2.0000      -1.113911       -30.3111
  16   2.0000      -0.974824       -26.5263
  17   2.0000      -0.728650       -19.8276
  18   2.0000      -0.711380       -19.3576
  19   2.0000      -0.701374       -19.0854
  20   2.0000      -0.654505       -17.8100
  21   2.0000      -0.579642       -15.7729
  22   2.0000      -0.559118       -15.2144
  23   2.0000      -0.550943       -14.9919
  24   2.0000      -0.514801       -14.0084
  25   2.0000      -0.478923       -13.0322
  26   2.0000      -0.469956       -12.7881
  27   2.0000      -0.465853       -12.6765
  28   0.0000       0.023914         0.6507
  29   0.0000       0.033906         0.9226
  30   0.0000       0.037407         1.0179
  31   0.0000       0.040892         1.1127
  32   0.0000       0.058592         1.5944

MULLIKEN ATOMIC CHARGES
-----------------------
   0 Cl:   -0.167079
   1 Cl:   -0.186291
   2 B :    0.487268
   3 C :   -0.036241
   4 F :   -0.675057
   5 H :    0.288700
   6 H :    0.288699
Sum of atomic charges:    0.0000000

LOEWDIN ATOMIC CHARGES
----------------------
   0 Cl:    1.282261
   1 Cl:    1.269980
   2 B :   -2.360571
   3 C :   -0.154210
   4 F :    0.734409
   5 H :   -0.385935
   6 H :   -0.385934

  Mayer bond orders larger than 0.100000
B(  0-Cl,  2-B ) :   1.1342 B(  1-Cl,  2-B ) :   1.0989 B(  2-B ,  3-C ) :   1.0153
B(  3-C ,  4-F ) :   0.5619 B(  3-C ,  5-H ) :   0.8680 B(  3-C ,  6-H ) :   0.8680

MP2 TOTAL ENERGY:    -1083.332217663 Eh
FINAL SINGLE POINT ENERGY     -1083.332217662658

DIPOLE MOMENT
-------------
                                X             Y             Z
Electronic contribution:     -1.90362       3.56472      -0.00001
Nuclear contribution   :      1.51970      -4.06673       0.00002
                        -----------------------------------------
Total Dipole Moment    :     -0.38392      -0.50201       0.00001
                        -----------------------------------------
Magnitude (a.u.)       :      0.63199
Magnitude (Debye)      :      1.60639

Rotational constants in cm-1:     0.122070     0.073506     0.046271
Rotational constants in MHz :  3659.558014  2203.669139  1387.169150

                             ****ORCA TERMINATED NORMALLY****
TOTAL RUN TIME: 0 days 0 hours 14 minutes 25 seconds 391 msec
