                         Program Version 5.0.4 -  RELEASE  -
|  1> ! ri-mp2 aug-cc-pvdz aug-cc-pvdz/c tightscf
|  2> %pal nprocs 16 end
|  3> %maxcore 3800
|  4> %base "DZ_Si-Si_72_AB"
|  5> %scf
|  6> STABPerform true
|  7> STABRestartUHFifUnstable true
|  8> end
|  9>
| 10> *xyz 0 1
| 11> Si        -2.502632   -0.469446   -0.395119
| 12> Si        -0.795910    0.938469    0.343373
| 13> C         0.837665   -0.060534    0.304021
| 14> H        -1.010444    1.373144    1.739670
| 15> H        -0.680997    2.149489   -0.510722
| 16> O         0.866457   -1.131300    0.888587
| 17> N         1.895550    0.438001   -0.378130
| 18> H        -2.167723   -0.982408   -1.742226
| 19> C         3.167305   -0.246720   -0.470053
| 20> H         3.046368   -1.229029   -0.022223
| 21> H         3.947919    0.292055    0.069110
| 22> H         3.469063   -0.361733   -1.511170
| 23> H        -3.772945    0.286658   -0.481329
| 24> H        -2.675228   -1.602183    0.535786
| 25> H         1.793241    1.335601   -0.818043
| 26> *
| 27>
| 28> $new_job
| 29> ! ri-mp2 aug-cc-pvtz aug-cc-pvtz/c tightscf
| 30> %pal nprocs 16 end
| 31> %maxcore 3800
| 32> %base "TZ_Si-Si_72_AB"
| 33>
| 34> *xyz 0 1
| 35> Si        -2.502632   -0.469446   -0.395119
| 36> Si        -0.795910    0.938469    0.343373
| 37> C         0.837665   -0.060534    0.304021
| 38> H        -1.010444    1.373144    1.739670
| 39> H        -0.680997    2.149489   -0.510722
| 40> O         0.866457   -1.131300    0.888587
| 41> N         1.895550    0.438001   -0.378130
| 42> H        -2.167723   -0.982408   -1.742226
| 43> C         3.167305   -0.246720   -0.470053
| 44> H         3.046368   -1.229029   -0.022223
| 45> H         3.947919    0.292055    0.069110
| 46> H         3.469063   -0.361733   -1.511170
| 47> H        -3.772945    0.286658   -0.481329
| 48> H        -2.675228   -1.602183    0.535786
| 49> H         1.793241    1.335601   -0.818043
| 50> *
| 51>
| 52> $new_job
| 53> ! ri-mp2 aug-cc-pvqz aug-cc-pvqz/c tightscf
| 54> %pal nprocs 16 end
| 55> %maxcore 3800
| 56> %base "QZ_Si-Si_72_AB"
| 57>
| 58> *xyz 0 1
| 59> Si        -2.502632   -0.469446   -0.395119
| 60> Si        -0.795910    0.938469    0.343373
| 61> C         0.837665   -0.060534    0.304021
| 62> H        -1.010444    1.373144    1.739670
| 63> H        -0.680997    2.149489   -0.510722
| 64> O         0.866457   -1.131300    0.888587
| 65> N         1.895550    0.438001   -0.378130
| 66> H        -2.167723   -0.982408   -1.742226
| 67> C         3.167305   -0.246720   -0.470053
| 68> H         3.046368   -1.229029   -0.022223
| 69> H         3.947919    0.292055    0.069110
| 70> H         3.469063   -0.361733   -1.511170
| 71> H        -3.772945    0.286658   -0.481329
| 72> H        -2.675228   -1.602183    0.535786
| 73> H         1.793241    1.335601   -0.818043
| 74> *
| 75>
| 76>
| 77>
| 78>
| 79>                          ****END OF INPUT****
 Total Charge           Charge          ....    0
 Multiplicity           Mult            ....    1
 Number of Electrons    NEL             ....   64
MP2 TOTAL ENERGY:     -789.045991925 Eh
FINAL SINGLE POINT ENERGY      -789.045991925335
MP2 TOTAL ENERGY:     -789.302035749 Eh
FINAL SINGLE POINT ENERGY      -789.302035749417

CARTESIAN COORDINATES (ANGSTROEM)
---------------------------------
  Si    -2.502632   -0.469446   -0.395119
  Si    -0.795910    0.938469    0.343373
  C      0.837665   -0.060534    0.304021
  H     -1.010444    1.373144    1.739670
  H     -0.680997    2.149489   -0.510722
  O      0.866457   -1.131300    0.888587
  N      1.895550    0.438001   -0.378130
  H     -2.167723   -0.982408   -1.742226
  C      3.167305   -0.246720   -0.470053
  H      3.046368   -1.229029   -0.022223
  H      3.947919    0.292055    0.069110
  H      3.469063   -0.361733   -1.511170
  H     -3.772945    0.286658   -0.481329
  H     -2.675228   -1.602183    0.535786
  H      1.793241    1.335601   -0.818043

 Multiplicity           Mult            ....    1
 Number of Electrons    NEL             ....   64
 Basis Dimension        Dim             ....  902

ORBITAL ENERGIES
----------------

  NO   OCC          E(Eh)            E(eV)
   0   2.0000     -68.777952     -1871.5432
   1   2.0000     -68.769425     -1871.3112
   2   2.0000     -20.519186      -558.3554
   3   2.0000     -15.590493      -424.2389
   4   2.0000     -11.333176      -308.3914
   5   2.0000     -11.259831      -306.3956
   6   2.0000      -6.129038      -166.7796
   7   2.0000      -6.120276      -166.5412
   8   2.0000      -4.235159      -115.2445
   9   2.0000      -4.234964      -115.2392
  10   2.0000      -4.234910      -115.2378
  11   2.0000      -4.226451      -115.0076
  12   2.0000      -4.226350      -115.0048
  13   2.0000      -4.226244      -115.0020
  14   2.0000      -1.379795       -37.5461
  15   2.0000      -1.233974       -33.5781
  16   2.0000      -0.963413       -26.2158
  17   2.0000      -0.805945       -21.9309
  18   2.0000      -0.774044       -21.0628
  19   2.0000      -0.712207       -19.3801
  20   2.0000      -0.645307       -17.5597
  21   2.0000      -0.642606       -17.4862
  22   2.0000      -0.626897       -17.0587
  23   2.0000      -0.557040       -15.1578
  24   2.0000      -0.550423       -14.9778
  25   2.0000      -0.541487       -14.7346
  26   2.0000      -0.501516       -13.6470
  27   2.0000      -0.485782       -13.2188
  28   2.0000      -0.476332       -12.9617
  29   2.0000      -0.414840       -11.2884
  30   2.0000      -0.395927       -10.7737
  31   2.0000      -0.392060       -10.6685
  32   0.0000       0.019655         0.5348
  33   0.0000       0.029060         0.7908
  34   0.0000       0.031696         0.8625
  35   0.0000       0.036886         1.0037
  36   0.0000       0.042852         1.1661

MULLIKEN ATOMIC CHARGES
-----------------------
   0 Si:    0.348434
   1 Si:    0.832614
   2 C :    0.779587
   3 H :   -0.191808
   4 H :   -0.228490
   5 O :   -0.887726
   6 N :   -0.614600
   7 H :   -0.125696
   8 C :   -0.739488
   9 H :    0.303179
  10 H :    0.282340
  11 H :    0.267535
  12 H :   -0.163690
  13 H :   -0.110432
  14 H :    0.248240
Sum of atomic charges:   -0.0000000

LOEWDIN ATOMIC CHARGES
----------------------
   0 Si:    1.047892
   1 Si:    0.678098
   2 C :   -0.925020
   3 H :   -0.271097
   4 H :   -0.269476
   5 O :    0.615839
   6 N :    0.746034
   7 H :   -0.310349
   8 C :    0.778415
   9 H :   -0.355407
  10 H :   -0.282657
  11 H :   -0.286171
  12 H :   -0.321034
  13 H :   -0.306705
  14 H :   -0.538361

  Mayer bond orders larger than 0.100000
B(  0-Si,  1-Si) :   0.7213 B(  0-Si,  7-H ) :   0.7563 B(  0-Si, 12-H ) :   0.7722
B(  0-Si, 13-H ) :   0.7760 B(  1-Si,  2-C ) :   0.7563 B(  1-Si,  3-H ) :   0.8065
B(  1-Si,  4-H ) :   0.8100 B(  2-C ,  5-O ) :   1.2862 B(  2-C ,  6-N ) :   1.1245
B(  5-O ,  6-N ) :   0.1819 B(  6-N ,  8-C ) :   0.8523 B(  6-N , 14-H ) :   0.9985
B(  8-C ,  9-H ) :   0.9194 B(  8-C , 10-H ) :   0.9482 B(  8-C , 11-H ) :   0.9626

MP2 TOTAL ENERGY:     -789.385509563 Eh
FINAL SINGLE POINT ENERGY      -789.385509563275

DIPOLE MOMENT
-------------
                                X             Y             Z
Electronic contribution:     -1.79647      -0.12060       1.94981
Nuclear contribution   :      2.19114       1.22730      -2.74735
                        -----------------------------------------
Total Dipole Moment    :      0.39467       1.10670      -0.79754
                        -----------------------------------------
Magnitude (a.u.)       :      1.42008
Magnitude (Debye)      :      3.60956

Rotational constants in cm-1:     0.161370     0.034473     0.032304
Rotational constants in MHz :  4837.754723  1033.480439   968.454822

                             ****ORCA TERMINATED NORMALLY****
TOTAL RUN TIME: 0 days 1 hours 12 minutes 23 seconds 711 msec
