                         Program Version 5.0.4 -  RELEASE  -
|  1> ! ri-mp2 aug-cc-pvdz aug-cc-pvdz/c tightscf
|  2> %pal nprocs 16 end
|  3> %maxcore 3800
|  4> %base "DZ_B-Cl_1_A"
|  5> %scf
|  6> STABPerform true
|  7> STABRestartUHFifUnstable true
|  8> end
|  9>
| 10> *xyz 0 2
| 11> Cl        -1.564095    0.092201   -0.000000
| 12> S         1.588986    0.026625   -0.000001
| 13> B        -0.021253   -0.666566    0.000004
| 14> H         1.272101    1.339399    0.000002
| 15> *
| 16>
| 17> $new_job
| 18> ! ri-mp2 aug-cc-pvtz aug-cc-pvtz/c tightscf
| 19> %pal nprocs 16 end
| 20> %maxcore 3800
| 21> %base "TZ_B-Cl_1_A"
| 22>
| 23> *xyz 0 2
| 24> Cl        -1.564095    0.092201   -0.000000
| 25> S         1.588986    0.026625   -0.000001
| 26> B        -0.021253   -0.666566    0.000004
| 27> H         1.272101    1.339399    0.000002
| 28> *
| 29>
| 30> $new_job
| 31> ! ri-mp2 aug-cc-pvqz aug-cc-pvqz/c tightscf
| 32> %pal nprocs 16 end
| 33> %maxcore 3800
| 34> %base "QZ_B-Cl_1_A"
| 35>
| 36> *xyz 0 2
| 37> Cl        -1.564095    0.092201   -0.000000
| 38> S         1.588986    0.026625   -0.000001
| 39> B        -0.021253   -0.666566    0.000004
| 40> H         1.272101    1.339399    0.000002
| 41> *
| 42>
| 43>
| 44>
| 45>
| 46>                          ****END OF INPUT****
 Total Charge           Charge          ....    0
 Multiplicity           Mult            ....    2
 Number of Electrons    NEL             ....   39
MP2 TOTAL ENERGY:     -882.668362689 Eh
FINAL SINGLE POINT ENERGY      -882.668362689095
MP2 TOTAL ENERGY:     -882.797349016 Eh
FINAL SINGLE POINT ENERGY      -882.797349015548

CARTESIAN COORDINATES (ANGSTROEM)
---------------------------------
  Cl    -1.564095    0.092201   -0.000000
  S      1.588986    0.026625   -0.000001
  B     -0.021253   -0.666566    0.000004
  H      1.272101    1.339399    0.000002

 Multiplicity           Mult            ....    2
 Number of Electrons    NEL             ....   39
 Basis Dimension        Dim             ....  294

ORBITAL ENERGIES
----------------
                 SPIN UP ORBITALS
  NO   OCC          E(Eh)            E(eV)
   0   1.0000    -104.853444     -2853.2073
   1   1.0000     -91.979552     -2502.8909
   2   1.0000     -10.580883      -287.9205
   3   1.0000      -8.984490      -244.4804
   4   1.0000      -8.048463      -219.0098
   5   1.0000      -8.046503      -218.9565
   6   1.0000      -8.046191      -218.9480
   7   1.0000      -7.704262      -209.6436
   8   1.0000      -6.665508      -181.3777
   9   1.0000      -6.664750      -181.3571
  10   1.0000      -6.663861      -181.3329
  11   1.0000      -1.138451       -30.9788
  12   1.0000      -1.010143       -27.4874
  13   1.0000      -0.682608       -18.5747
  14   1.0000      -0.604633       -16.4529
  15   1.0000      -0.541309       -14.7298
  16   1.0000      -0.510039       -13.8789
  17   1.0000      -0.476349       -12.9621
  18   1.0000      -0.411522       -11.1981
  19   1.0000      -0.352406        -9.5894
  20   0.0000       0.029242         0.7957
  21   0.0000       0.039715         1.0807
  22   0.0000       0.040510         1.1023
  23   0.0000       0.041240         1.1222
  24   0.0000       0.063423         1.7258

                 SPIN DOWN ORBITALS
  NO   OCC          E(Eh)            E(eV)
   0   1.0000    -104.852721     -2853.1876
   1   1.0000     -91.979578     -2502.8916
   2   1.0000     -10.580030      -287.8973
   3   1.0000      -8.984105      -244.4699
   4   1.0000      -8.047156      -218.9743
   5   1.0000      -8.046178      -218.9476
   6   1.0000      -8.044307      -218.8967
   7   1.0000      -7.683056      -209.0666
   8   1.0000      -6.666104      -181.3939
   9   1.0000      -6.664853      -181.3599
  10   1.0000      -6.664517      -181.3507
  11   1.0000      -1.129534       -30.7362
  12   1.0000      -1.001407       -27.2497
  13   1.0000      -0.644096       -17.5268
  14   1.0000      -0.591870       -16.1056
  15   1.0000      -0.516931       -14.0664
  16   1.0000      -0.507445       -13.8083
  17   1.0000      -0.464240       -12.6326
  18   1.0000      -0.413902       -11.2628
  19   0.0000       0.022513         0.6126
  20   0.0000       0.038211         1.0398
  21   0.0000       0.040380         1.0988
  22   0.0000       0.041804         1.1375
  23   0.0000       0.062032         1.6880

MULLIKEN ATOMIC CHARGES AND SPIN POPULATIONS
--------------------------------------------
   0 Cl:   -0.182183    0.021656
   1 S :   -0.113539   -0.087174
   2 B :    0.179995    1.004802
   3 H :    0.115727    0.060717
Sum of atomic charges         :   -0.0000000

LOEWDIN ATOMIC CHARGES AND SPIN POPULATIONS
-------------------------------------------
   0 Cl:    1.096730    0.177909
   1 S :    1.458462    0.167607
   2 B :   -1.725914    0.620456
   3 H :   -0.829277    0.034029

  Mayer bond orders larger than 0.100000
B(  0-Cl,  2-B ) :   1.1879 B(  1-S ,  2-B ) :   1.2973 B(  1-S ,  3-H ) :   0.9747

MP2 TOTAL ENERGY:     -882.841094985 Eh
FINAL SINGLE POINT ENERGY      -882.841094984680

DIPOLE MOMENT
-------------
                                X             Y             Z
Electronic contribution:     -3.07102      -1.22627       0.00000
Nuclear contribution   :      3.21106       1.61001      -0.00000
                        -----------------------------------------
Total Dipole Moment    :      0.14004       0.38374       0.00000
                        -----------------------------------------
Magnitude (a.u.)       :      0.40849
Magnitude (Debye)      :      1.03831

Rotational constants in cm-1:     2.452418     0.099638     0.095748
Rotational constants in MHz : 73521.641880  2987.075981  2870.453677

                             ****ORCA TERMINATED NORMALLY****
TOTAL RUN TIME: 0 days 0 hours 3 minutes 34 seconds 225 msec
