                         Program Version 5.0.4 -  RELEASE  -
|  1> ! ri-mp2 aug-cc-pvdz aug-cc-pvdz/c tightscf
|  2> %pal nprocs 16 end
|  3> %maxcore 3800
|  4> %base "DZ_S-Cl_55_A"
|  5> %scf
|  6> STABPerform true
|  7> STABRestartUHFifUnstable true
|  8> end
|  9>
| 10> *xyz 0 2
| 11> S        -1.314491   -1.175271   -0.075778
| 12> S        -0.162419    0.500774    0.052877
| 13> O         0.086642    0.644478    1.451170
| 14> O         1.182713    0.140845   -0.676702
| 15> C         2.079961   -0.787198   -0.045538
| 16> H         2.953458   -0.818547   -0.688228
| 17> H         1.617300   -1.772463    0.006982
| 18> H         2.344031   -0.434577    0.948007
| 19> O        -0.739854    1.532268   -0.727858
| 20> *
| 21>
| 22> $new_job
| 23> ! ri-mp2 aug-cc-pvtz aug-cc-pvtz/c tightscf
| 24> %pal nprocs 16 end
| 25> %maxcore 3800
| 26> %base "TZ_S-Cl_55_A"
| 27>
| 28> *xyz 0 2
| 29> S        -1.314491   -1.175271   -0.075778
| 30> S        -0.162419    0.500774    0.052877
| 31> O         0.086642    0.644478    1.451170
| 32> O         1.182713    0.140845   -0.676702
| 33> C         2.079961   -0.787198   -0.045538
| 34> H         2.953458   -0.818547   -0.688228
| 35> H         1.617300   -1.772463    0.006982
| 36> H         2.344031   -0.434577    0.948007
| 37> O        -0.739854    1.532268   -0.727858
| 38> *
| 39>
| 40> $new_job
| 41> ! ri-mp2 aug-cc-pvqz aug-cc-pvqz/c tightscf
| 42> %pal nprocs 16 end
| 43> %maxcore 3800
| 44> %base "QZ_S-Cl_55_A"
| 45>
| 46> *xyz 0 2
| 47> S        -1.314491   -1.175271   -0.075778
| 48> S        -0.162419    0.500774    0.052877
| 49> O         0.086642    0.644478    1.451170
| 50> O         1.182713    0.140845   -0.676702
| 51> C         2.079961   -0.787198   -0.045538
| 52> H         2.953458   -0.818547   -0.688228
| 53> H         1.617300   -1.772463    0.006982
| 54> H         2.344031   -0.434577    0.948007
| 55> O        -0.739854    1.532268   -0.727858
| 56> *
| 57>
| 58>
| 59>
| 60>
| 61>                          ****END OF INPUT****
 Total Charge           Charge          ....    0
 Multiplicity           Mult            ....    2
 Number of Electrons    NEL             ....   65
MP2 TOTAL ENERGY:    -1060.184013257 Eh
FINAL SINGLE POINT ENERGY     -1060.184013256925
MP2 TOTAL ENERGY:    -1060.561143426 Eh
FINAL SINGLE POINT ENERGY     -1060.561143425716

CARTESIAN COORDINATES (ANGSTROEM)
---------------------------------
  S     -1.314491   -1.175271   -0.075778
  S     -0.162419    0.500774    0.052877
  O      0.086642    0.644478    1.451170
  O      1.182713    0.140845   -0.676702
  C      2.079961   -0.787198   -0.045538
  H      2.953458   -0.818547   -0.688228
  H      1.617300   -1.772463    0.006982
  H      2.344031   -0.434577    0.948007
  O     -0.739854    1.532268   -0.727858

 Multiplicity           Mult            ....    2
 Number of Electrons    NEL             ....   65
 Basis Dimension        Dim             ....  626

ORBITAL ENERGIES
----------------
                 SPIN UP ORBITALS
  NO   OCC          E(Eh)            E(eV)
   0   1.0000     -92.238061     -2509.9252
   1   1.0000     -92.037879     -2504.4780
   2   1.0000     -20.641055      -561.6717
   3   1.0000     -20.579712      -560.0024
   4   1.0000     -20.575610      -559.8908
   5   1.0000     -11.317160      -307.9556
   6   1.0000      -9.200825      -250.3672
   7   1.0000      -9.039951      -245.9896
   8   1.0000      -6.887078      -187.4069
   9   1.0000      -6.886339      -187.3868
  10   1.0000      -6.885427      -187.3620
  11   1.0000      -6.735516      -183.2827
  12   1.0000      -6.716986      -182.7785
  13   1.0000      -6.715172      -182.7291
  14   1.0000      -1.538360       -41.8609
  15   1.0000      -1.418101       -38.5885
  16   1.0000      -1.387840       -37.7650
  17   1.0000      -1.072522       -29.1848
  18   1.0000      -1.003547       -27.3079
  19   1.0000      -0.840734       -22.8775
  20   1.0000      -0.748944       -20.3798
  21   1.0000      -0.725968       -19.7546
  22   1.0000      -0.710857       -19.3434
  23   1.0000      -0.660301       -17.9677
  24   1.0000      -0.647220       -17.6117
  25   1.0000      -0.587375       -15.9833
  26   1.0000      -0.564936       -15.3727
  27   1.0000      -0.547116       -14.8878
  28   1.0000      -0.530556       -14.4372
  29   1.0000      -0.510397       -13.8886
  30   1.0000      -0.492052       -13.3894
  31   1.0000      -0.483966       -13.1694
  32   1.0000      -0.442821       -12.0498
  33   0.0000       0.020957         0.5703
  34   0.0000       0.034229         0.9314
  35   0.0000       0.041834         1.1383
  36   0.0000       0.047841         1.3018
  37   0.0000       0.065744         1.7890

                 SPIN DOWN ORBITALS
  NO   OCC          E(Eh)            E(eV)
   0   1.0000     -92.238351     -2509.9331
   1   1.0000     -92.028601     -2504.2255
   2   1.0000     -20.641236      -561.6766
   3   1.0000     -20.577350      -559.9382
   4   1.0000     -20.574600      -559.8633
   5   1.0000     -11.317152      -307.9554
   6   1.0000      -9.201249      -250.3787
   7   1.0000      -9.029746      -245.7119
   8   1.0000      -6.887591      -187.4209
   9   1.0000      -6.886970      -187.4040
  10   1.0000      -6.885858      -187.3737
  11   1.0000      -6.712064      -182.6446
  12   1.0000      -6.709864      -182.5847
  13   1.0000      -6.693380      -182.1361
  14   1.0000      -1.537116       -41.8271
  15   1.0000      -1.416990       -38.5583
  16   1.0000      -1.383483       -37.6465
  17   1.0000      -1.026460       -27.9314
  18   1.0000      -0.981336       -26.7035
  19   1.0000      -0.825032       -22.4503
  20   1.0000      -0.741848       -20.1867
  21   1.0000      -0.714523       -19.4432
  22   1.0000      -0.707809       -19.2604
  23   1.0000      -0.654247       -17.8030
  24   1.0000      -0.643254       -17.5038
  25   1.0000      -0.584046       -15.8927
  26   1.0000      -0.548760       -14.9325
  27   1.0000      -0.530856       -14.4453
  28   1.0000      -0.527402       -14.3513
  29   1.0000      -0.504688       -13.7333
  30   1.0000      -0.477925       -13.0050
  31   1.0000      -0.423910       -11.5352
  32   0.0000      -0.033872        -0.9217
  33   0.0000       0.021249         0.5782
  34   0.0000       0.034910         0.9500
  35   0.0000       0.042554         1.1579
  36   0.0000       0.048842         1.3291

MULLIKEN ATOMIC CHARGES AND SPIN POPULATIONS
--------------------------------------------
   0 S :    0.039029    1.060355
   1 S :    2.502996   -0.102593
   2 O :   -1.081659    0.031517
   3 O :   -0.701223   -0.003009
   4 C :   -0.673417    0.004325
   5 H :    0.428680   -0.000235
   6 H :    0.321478   -0.000323
   7 H :    0.316078   -0.000749
   8 O :   -1.151962    0.010712
Sum of atomic charges         :   -0.0000000

LOEWDIN ATOMIC CHARGES AND SPIN POPULATIONS
-------------------------------------------
   0 S :    0.803329    0.774575
   1 S :   -1.240427    0.167023
   2 O :    0.229208    0.040709
   3 O :    0.532531   -0.001871
   4 C :    0.500373    0.001042
   5 H :   -0.325614   -0.000088
   6 H :   -0.357709    0.000757
   7 H :   -0.344928   -0.000210
   8 O :    0.203237    0.018063

  Mayer bond orders larger than 0.100000
B(  0-S ,  1-S ) :   0.9422 B(  1-S ,  2-O ) :   1.2834 B(  1-S ,  3-O ) :   0.7581
B(  1-S ,  8-O ) :   1.1270 B(  3-O ,  4-C ) :   0.8330 B(  4-C ,  5-H ) :   0.8209
B(  4-C ,  6-H ) :   0.8859 B(  4-C ,  7-H ) :   0.8872

MP2 TOTAL ENERGY:    -1060.684070684 Eh
FINAL SINGLE POINT ENERGY     -1060.684070684210

DIPOLE MOMENT
-------------
                                X             Y             Z
Electronic contribution:     -5.94267       1.27134      -0.41272
Nuclear contribution   :      6.69044      -2.84972       0.25749
                        -----------------------------------------
Total Dipole Moment    :      0.74778      -1.57837      -0.15522
                        -----------------------------------------
Magnitude (a.u.)       :      1.75343
Magnitude (Debye)      :      4.45687

Rotational constants in cm-1:     0.106312     0.081011     0.063780
Rotational constants in MHz :  3187.158013  2428.638177  1912.081691

                             ****ORCA TERMINATED NORMALLY****
TOTAL RUN TIME: 0 days 0 hours 58 minutes 17 seconds 915 msec
