                         Program Version 5.0.4 -  RELEASE  -
|  1> ! ri-mp2 aug-cc-pvdz aug-cc-pvdz/c tightscf
|  2> %pal nprocs 16 end
|  3> %maxcore 3800
|  4> %base "DZ_B-B_14_AB"
|  5> %scf
|  6> STABPerform true
|  7> STABRestartUHFifUnstable true
|  8> end
|  9>
| 10> *xyz 0 1
| 11> B        -1.899321   -0.256942   -0.000008
| 12> B        -0.525981    0.659684   -0.000015
| 13> Cl         1.026524   -0.156077    0.000010
| 14> H        -2.417201   -0.604998   -1.016460
| 15> H        -2.417176   -0.605018    1.016450
| 16> H        -0.490009    1.849613   -0.000040
| 17> *
| 18>
| 19> $new_job
| 20> ! ri-mp2 aug-cc-pvtz aug-cc-pvtz/c tightscf
| 21> %pal nprocs 16 end
| 22> %maxcore 3800
| 23> %base "TZ_B-B_14_AB"
| 24>
| 25> *xyz 0 1
| 26> B        -1.899321   -0.256942   -0.000008
| 27> B        -0.525981    0.659684   -0.000015
| 28> Cl         1.026524   -0.156077    0.000010
| 29> H        -2.417201   -0.604998   -1.016460
| 30> H        -2.417176   -0.605018    1.016450
| 31> H        -0.490009    1.849613   -0.000040
| 32> *
| 33>
| 34> $new_job
| 35> ! ri-mp2 aug-cc-pvqz aug-cc-pvqz/c tightscf
| 36> %pal nprocs 16 end
| 37> %maxcore 3800
| 38> %base "QZ_B-B_14_AB"
| 39>
| 40> *xyz 0 1
| 41> B        -1.899321   -0.256942   -0.000008
| 42> B        -0.525981    0.659684   -0.000015
| 43> Cl         1.026524   -0.156077    0.000010
| 44> H        -2.417201   -0.604998   -1.016460
| 45> H        -2.417176   -0.605018    1.016450
| 46> H        -0.490009    1.849613   -0.000040
| 47> *
| 48>
| 49>
| 50>
| 51>
| 52>                          ****END OF INPUT****
 Total Charge           Charge          ....    0
 Multiplicity           Mult            ....    1
 Number of Electrons    NEL             ....   30
MP2 TOTAL ENERGY:     -510.929932591 Eh
FINAL SINGLE POINT ENERGY      -510.929932591134
MP2 TOTAL ENERGY:     -511.036904853 Eh
FINAL SINGLE POINT ENERGY      -511.036904853467

CARTESIAN COORDINATES (ANGSTROEM)
---------------------------------
  B     -1.899321   -0.256942   -0.000008
  B     -0.525981    0.659684   -0.000015
  Cl     1.026524   -0.156077    0.000010
  H     -2.417201   -0.604998   -1.016460
  H     -2.417176   -0.605018    1.016450
  H     -0.490009    1.849613   -0.000040

 Multiplicity           Mult            ....    1
 Number of Electrons    NEL             ....   30
 Basis Dimension        Dim             ....  382

ORBITAL ENERGIES
----------------

  NO   OCC          E(Eh)            E(eV)
   0   2.0000    -104.835500     -2852.7190
   1   2.0000     -10.562931      -287.4320
   2   2.0000      -8.029733      -218.5001
   3   2.0000      -8.028828      -218.4755
   4   2.0000      -8.028418      -218.4644
   5   2.0000      -7.644781      -208.0251
   6   2.0000      -7.604272      -206.9228
   7   2.0000      -1.112381       -30.2694
   8   2.0000      -0.746379       -20.3100
   9   2.0000      -0.646524       -17.5928
  10   2.0000      -0.549450       -14.9513
  11   2.0000      -0.513183       -13.9644
  12   2.0000      -0.504757       -13.7351
  13   2.0000      -0.476754       -12.9731
  14   2.0000      -0.416171       -11.3246
  15   0.0000       0.027453         0.7470
  16   0.0000       0.029191         0.7943
  17   0.0000       0.031094         0.8461
  18   0.0000       0.033066         0.8998
  19   0.0000       0.048980         1.3328

MULLIKEN ATOMIC CHARGES
-----------------------
   0 B :    0.372606
   1 B :    0.369642
   2 Cl:   -0.230304
   3 H :   -0.167979
   4 H :   -0.167979
   5 H :   -0.175986
Sum of atomic charges:    0.0000000

LOEWDIN ATOMIC CHARGES
----------------------
   0 B :    0.325359
   1 B :   -0.841610
   2 Cl:    1.274559
   3 H :   -0.230024
   4 H :   -0.230024
   5 H :   -0.298260

  Mayer bond orders larger than 0.100000
B(  0-B ,  1-B ) :   1.0393 B(  0-B ,  3-H ) :   0.9509 B(  0-B ,  4-H ) :   0.9509
B(  1-B ,  2-Cl) :   1.1103 B(  1-B ,  5-H ) :   0.9209

MP2 TOTAL ENERGY:     -511.071944150 Eh
FINAL SINGLE POINT ENERGY      -511.071944150151

DIPOLE MOMENT
-------------
                                X             Y             Z
Electronic contribution:      4.12845      -0.31359       0.00004
Nuclear contribution   :     -4.53636       0.50472      -0.00004
                        -----------------------------------------
Total Dipole Moment    :     -0.40791       0.19113      -0.00000
                        -----------------------------------------
Magnitude (a.u.)       :      0.45047
Magnitude (Debye)      :      1.14500

Rotational constants in cm-1:     1.349419     0.181035     0.166175
Rotational constants in MHz : 40454.551657  5427.282664  4981.804419

                             ****ORCA TERMINATED NORMALLY****
TOTAL RUN TIME: 0 days 0 hours 5 minutes 2 seconds 712 msec
