                         Program Version 5.0.4 -  RELEASE  -
|  1> ! ri-mp2 aug-cc-pvdz aug-cc-pvdz/c tightscf
|  2> %pal nprocs 16 end
|  3> %maxcore 3800
|  4> %base "DZ_B-P_36_AB"
|  5> %scf
|  6> STABPerform true
|  7> STABRestartUHFifUnstable true
|  8> end
|  9>
| 10> *xyz 0 1
| 11> B        -2.702098    0.658538   -0.257984
| 12> C         0.265637   -0.019934   -0.404074
| 13> C         1.469762   -0.965607   -0.191229
| 14> C         1.068878    1.089548    0.311033
| 15> C         2.350698    0.279774    0.033652
| 16> H         0.836966    1.122269    1.375696
| 17> H         0.991924    2.096829   -0.094743
| 18> H         2.835906    0.598896   -0.888286
| 19> H         3.097208    0.231635    0.824054
| 20> H         1.725194   -1.640814   -1.005640
| 21> H         1.362188   -1.548518    0.724350
| 22> P        -1.388392   -0.536285    0.175392
| 23> H         0.155731    0.215397   -1.464038
| 24> H        -3.676012    0.727066    0.419631
| 25> H        -2.652400    1.224850   -1.303370
| 26> H        -1.270183   -0.578712    1.575099
| 27> *
| 28>
| 29> $new_job
| 30> ! ri-mp2 aug-cc-pvtz aug-cc-pvtz/c tightscf
| 31> %pal nprocs 16 end
| 32> %maxcore 3800
| 33> %base "TZ_B-P_36_AB"
| 34>
| 35> *xyz 0 1
| 36> B        -2.702098    0.658538   -0.257984
| 37> C         0.265637   -0.019934   -0.404074
| 38> C         1.469762   -0.965607   -0.191229
| 39> C         1.068878    1.089548    0.311033
| 40> C         2.350698    0.279774    0.033652
| 41> H         0.836966    1.122269    1.375696
| 42> H         0.991924    2.096829   -0.094743
| 43> H         2.835906    0.598896   -0.888286
| 44> H         3.097208    0.231635    0.824054
| 45> H         1.725194   -1.640814   -1.005640
| 46> H         1.362188   -1.548518    0.724350
| 47> P        -1.388392   -0.536285    0.175392
| 48> H         0.155731    0.215397   -1.464038
| 49> H        -3.676012    0.727066    0.419631
| 50> H        -2.652400    1.224850   -1.303370
| 51> H        -1.270183   -0.578712    1.575099
| 52> *
| 53>
| 54> $new_job
| 55> ! ri-mp2 aug-cc-pvqz aug-cc-pvqz/c tightscf
| 56> %pal nprocs 16 end
| 57> %maxcore 3800
| 58> %base "QZ_B-P_36_AB"
| 59>
| 60> *xyz 0 1
| 61> B        -2.702098    0.658538   -0.257984
| 62> C         0.265637   -0.019934   -0.404074
| 63> C         1.469762   -0.965607   -0.191229
| 64> C         1.068878    1.089548    0.311033
| 65> C         2.350698    0.279774    0.033652
| 66> H         0.836966    1.122269    1.375696
| 67> H         0.991924    2.096829   -0.094743
| 68> H         2.835906    0.598896   -0.888286
| 69> H         3.097208    0.231635    0.824054
| 70> H         1.725194   -1.640814   -1.005640
| 71> H         1.362188   -1.548518    0.724350
| 72> P        -1.388392   -0.536285    0.175392
| 73> H         0.155731    0.215397   -1.464038
| 74> H        -3.676012    0.727066    0.419631
| 75> H        -2.652400    1.224850   -1.303370
| 76> H        -1.270183   -0.578712    1.575099
| 77> *
| 78>
| 79>
| 80>
| 81>
| 82>                          ****END OF INPUT****
 Total Charge           Charge          ....    0
 Multiplicity           Mult            ....    1
 Number of Electrons    NEL             ....   54
MP2 TOTAL ENERGY:     -523.480894599 Eh
FINAL SINGLE POINT ENERGY      -523.480894598894
MP2 TOTAL ENERGY:     -523.695113861 Eh
FINAL SINGLE POINT ENERGY      -523.695113861281

CARTESIAN COORDINATES (ANGSTROEM)
---------------------------------
  B     -2.702098    0.658538   -0.257984
  C      0.265637   -0.019934   -0.404074
  C      1.469762   -0.965607   -0.191229
  C      1.068878    1.089548    0.311033
  C      2.350698    0.279774    0.033652
  H      0.836966    1.122269    1.375696
  H      0.991924    2.096829   -0.094743
  H      2.835906    0.598896   -0.888286
  H      3.097208    0.231635    0.824054
  H      1.725194   -1.640814   -1.005640
  H      1.362188   -1.548518    0.724350
  P     -1.388392   -0.536285    0.175392
  H      0.155731    0.215397   -1.464038
  H     -3.676012    0.727066    0.419631
  H     -2.652400    1.224850   -1.303370
  H     -1.270183   -0.578712    1.575099

 Multiplicity           Mult            ....    1
 Number of Electrons    NEL             ....   54
 Basis Dimension        Dim             ....  944

ORBITAL ENERGIES
----------------

  NO   OCC          E(Eh)            E(eV)
   0   2.0000     -79.918072     -2174.6813
   1   2.0000     -11.240712      -305.8753
   2   2.0000     -11.227573      -305.5178
   3   2.0000     -11.226932      -305.5004
   4   2.0000     -11.224064      -305.4223
   5   2.0000      -7.600465      -206.8192
   6   2.0000      -7.465193      -203.1382
   7   2.0000      -5.359857      -145.8491
   8   2.0000      -5.359778      -145.8470
   9   2.0000      -5.359211      -145.8315
  10   2.0000      -1.141834       -31.0709
  11   2.0000      -0.934334       -25.4245
  12   2.0000      -0.907135       -24.6844
  13   2.0000      -0.823550       -22.4099
  14   2.0000      -0.754179       -20.5222
  15   2.0000      -0.674834       -18.3632
  16   2.0000      -0.657455       -17.8903
  17   2.0000      -0.618452       -16.8289
  18   2.0000      -0.548975       -14.9384
  19   2.0000      -0.528344       -14.3770
  20   2.0000      -0.515920       -14.0389
  21   2.0000      -0.510560       -13.8931
  22   2.0000      -0.476378       -12.9629
  23   2.0000      -0.458965       -12.4891
  24   2.0000      -0.452980       -12.3262
  25   2.0000      -0.420367       -11.4388
  26   2.0000      -0.328691        -8.9441
  27   0.0000       0.023553         0.6409
  28   0.0000       0.028597         0.7782
  29   0.0000       0.030639         0.8337
  30   0.0000       0.033998         0.9251
  31   0.0000       0.041118         1.1189

MULLIKEN ATOMIC CHARGES
-----------------------
   0 B :    0.178794
   1 C :   -0.302829
   2 C :   -0.587718
   3 C :   -0.577175
   4 C :   -0.575421
   5 H :    0.232816
   6 H :    0.353489
   7 H :    0.247557
   8 H :    0.324265
   9 H :    0.352467
  10 H :    0.249483
  11 P :    0.292894
  12 H :    0.253056
  13 H :   -0.235726
  14 H :   -0.139258
  15 H :   -0.066695
Sum of atomic charges:    0.0000000

LOEWDIN ATOMIC CHARGES
----------------------
   0 B :    0.108271
   1 C :   -0.081132
   2 C :    0.483439
   3 C :    0.491868
   4 C :    0.544947
   5 H :   -0.285253
   6 H :   -0.249598
   7 H :   -0.268282
   8 H :   -0.254305
   9 H :   -0.251388
  10 H :   -0.282843
  11 P :    1.337771
  12 H :   -0.345665
  13 H :   -0.272378
  14 H :   -0.258842
  15 H :   -0.416610

  Mayer bond orders larger than 0.100000
B(  0-B , 11-P ) :   1.3497 B(  0-B , 13-H ) :   0.9565 B(  0-B , 14-H ) :   0.9302
B(  1-C ,  2-C ) :   0.9152 B(  1-C ,  3-C ) :   0.9109 B(  1-C ,  4-C ) :  -0.1755
B(  1-C , 11-P ) :   0.7121 B(  1-C , 12-H ) :   0.9149 B(  2-C ,  4-C ) :   1.0963
B(  2-C ,  9-H ) :   0.8172 B(  2-C , 10-H ) :   0.9067 B(  3-C ,  4-C ) :   1.0830
B(  3-C ,  5-H ) :   0.9302 B(  3-C ,  6-H ) :   0.8296 B(  4-C ,  7-H ) :   0.9032
B(  4-C ,  8-H ) :   0.8578 B( 11-P , 15-H ) :   0.9299

MP2 TOTAL ENERGY:     -523.761323283 Eh
FINAL SINGLE POINT ENERGY      -523.761323283028

DIPOLE MOMENT
-------------
                                X             Y             Z
Electronic contribution:     -6.36199      -2.19742      -0.12697
Nuclear contribution   :      7.01038       2.46565       0.20667
                        -----------------------------------------
Total Dipole Moment    :      0.64839       0.26823       0.07970
                        -----------------------------------------
Magnitude (a.u.)       :      0.70619
Magnitude (Debye)      :      1.79499

Rotational constants in cm-1:     0.239788     0.054636     0.048808
Rotational constants in MHz :  7188.656293  1637.947576  1463.214918

                             ****ORCA TERMINATED NORMALLY****
TOTAL RUN TIME: 0 days 1 hours 39 minutes 6 seconds 950 msec
