                         Program Version 5.0.4 -  RELEASE  -
|  1> ! ri-mp2 aug-cc-pvdz aug-cc-pvdz/c tightscf
|  2> %pal nprocs 16 end
|  3> %maxcore 3800
|  4> %base "DZ_B-P_18_AB"
|  5> %scf
|  6> STABPerform true
|  7> STABRestartUHFifUnstable true
|  8> end
|  9>
| 10> *xyz 0 1
| 11> P         0.080228   -1.146947   -0.223470
| 12> B         1.582281    0.035201    0.025933
| 13> O         1.436975    1.368317    0.080700
| 14> C        -1.250902   -0.109243    0.447150
| 15> C        -1.818680    0.867176   -0.251164
| 16> H        -1.572546   -0.281601    1.468508
| 17> H        -1.560347    1.054147   -1.288117
| 18> H        -2.588022    1.496886    0.177114
| 19> H         0.510931    1.653781    0.093524
| 20> H         2.687289   -0.410133    0.062912
| 21> H         0.329561   -1.979015    0.886935
| 22> *
| 23>
| 24> $new_job
| 25> ! ri-mp2 aug-cc-pvtz aug-cc-pvtz/c tightscf
| 26> %pal nprocs 16 end
| 27> %maxcore 3800
| 28> %base "TZ_B-P_18_AB"
| 29>
| 30> *xyz 0 1
| 31> P         0.080228   -1.146947   -0.223470
| 32> B         1.582281    0.035201    0.025933
| 33> O         1.436975    1.368317    0.080700
| 34> C        -1.250902   -0.109243    0.447150
| 35> C        -1.818680    0.867176   -0.251164
| 36> H        -1.572546   -0.281601    1.468508
| 37> H        -1.560347    1.054147   -1.288117
| 38> H        -2.588022    1.496886    0.177114
| 39> H         0.510931    1.653781    0.093524
| 40> H         2.687289   -0.410133    0.062912
| 41> H         0.329561   -1.979015    0.886935
| 42> *
| 43>
| 44> $new_job
| 45> ! ri-mp2 aug-cc-pvqz aug-cc-pvqz/c tightscf
| 46> %pal nprocs 16 end
| 47> %maxcore 3800
| 48> %base "QZ_B-P_18_AB"
| 49>
| 50> *xyz 0 1
| 51> P         0.080228   -1.146947   -0.223470
| 52> B         1.582281    0.035201    0.025933
| 53> O         1.436975    1.368317    0.080700
| 54> C        -1.250902   -0.109243    0.447150
| 55> C        -1.818680    0.867176   -0.251164
| 56> H        -1.572546   -0.281601    1.468508
| 57> H        -1.560347    1.054147   -1.288117
| 58> H        -2.588022    1.496886    0.177114
| 59> H         0.510931    1.653781    0.093524
| 60> H         2.687289   -0.410133    0.062912
| 61> H         0.329561   -1.979015    0.886935
| 62> *
| 63>
| 64>
| 65>
| 66>
| 67>                          ****END OF INPUT****
 Total Charge           Charge          ....    0
 Multiplicity           Mult            ....    1
 Number of Electrons    NEL             ....   46
MP2 TOTAL ENERGY:     -520.248697256 Eh
FINAL SINGLE POINT ENERGY      -520.248697255738
MP2 TOTAL ENERGY:     -520.452848555 Eh
FINAL SINGLE POINT ENERGY      -520.452848555273

CARTESIAN COORDINATES (ANGSTROEM)
---------------------------------
  P      0.080228   -1.146947   -0.223470
  B      1.582281    0.035201    0.025933
  O      1.436975    1.368317    0.080700
  C     -1.250902   -0.109243    0.447150
  C     -1.818680    0.867176   -0.251164
  H     -1.572546   -0.281601    1.468508
  H     -1.560347    1.054147   -1.288117
  H     -2.588022    1.496886    0.177114
  H      0.510931    1.653781    0.093524
  H      2.687289   -0.410133    0.062912
  H      0.329561   -1.979015    0.886935

 Multiplicity           Mult            ....    1
 Number of Electrons    NEL             ....   46
 Basis Dimension        Dim             ....  680

ORBITAL ENERGIES
----------------

  NO   OCC          E(Eh)            E(eV)
   0   2.0000     -79.929192     -2174.9839
   1   2.0000     -20.579204      -559.9886
   2   2.0000     -11.254315      -306.2455
   3   2.0000     -11.245040      -305.9931
   4   2.0000      -7.630920      -207.6479
   5   2.0000      -7.474847      -203.4009
   6   2.0000      -5.369175      -146.1027
   7   2.0000      -5.368689      -146.0894
   8   2.0000      -5.368313      -146.0792
   9   2.0000      -1.376640       -37.4603
  10   2.0000      -1.066612       -29.0240
  11   2.0000      -0.877099       -23.8671
  12   2.0000      -0.774515       -21.0756
  13   2.0000      -0.754618       -20.5342
  14   2.0000      -0.653079       -17.7712
  15   2.0000      -0.624650       -16.9976
  16   2.0000      -0.593567       -16.1518
  17   2.0000      -0.559632       -15.2284
  18   2.0000      -0.549222       -14.9451
  19   2.0000      -0.502393       -13.6708
  20   2.0000      -0.442013       -12.0278
  21   2.0000      -0.419811       -11.4236
  22   2.0000      -0.338954        -9.2234
  23   0.0000       0.022087         0.6010
  24   0.0000       0.029054         0.7906
  25   0.0000       0.032193         0.8760
  26   0.0000       0.038824         1.0565
  27   0.0000       0.044371         1.2074

MULLIKEN ATOMIC CHARGES
-----------------------
   0 P :    0.426468
   1 B :    0.840846
   2 O :   -1.017838
   3 C :   -0.642887
   4 C :   -0.764534
   5 H :    0.369209
   6 H :    0.347851
   7 H :    0.396243
   8 H :    0.413956
   9 H :   -0.296617
  10 H :   -0.072697
Sum of atomic charges:   -0.0000000

LOEWDIN ATOMIC CHARGES
----------------------
   0 P :    1.298114
   1 B :   -0.656452
   2 O :    1.292984
   3 C :    0.089449
   4 C :    0.676436
   5 H :   -0.396052
   6 H :   -0.358061
   7 H :   -0.347434
   8 H :   -0.885450
   9 H :   -0.247531
  10 H :   -0.466002

  Mayer bond orders larger than 0.100000
B(  0-P ,  1-B ) :   1.0640 B(  0-P ,  3-C ) :   0.6644 B(  0-P , 10-H ) :   0.9437
B(  1-B ,  2-O ) :   0.6375 B(  1-B ,  9-H ) :   0.8971 B(  2-O ,  8-H ) :   0.8763
B(  3-C ,  4-C ) :   1.8027 B(  3-C ,  5-H ) :   0.8853 B(  4-C ,  6-H ) :   0.8797
B(  4-C ,  7-H ) :   0.9015

MP2 TOTAL ENERGY:     -520.518236683 Eh
FINAL SINGLE POINT ENERGY      -520.518236682518

DIPOLE MOMENT
-------------
                                X             Y             Z
Electronic contribution:      2.81420      -2.42528      -1.21167
Nuclear contribution   :     -3.46330       2.57601       1.56756
                        -----------------------------------------
Total Dipole Moment    :     -0.64910       0.15073       0.35589
                        -----------------------------------------
Magnitude (a.u.)       :      0.75545
Magnitude (Debye)      :      1.92021

Rotational constants in cm-1:     0.170488     0.113819     0.073836
Rotational constants in MHz :  5111.106437  3412.220813  2213.536552

                             ****ORCA TERMINATED NORMALLY****
TOTAL RUN TIME: 0 days 0 hours 27 minutes 6 seconds 761 msec
