                         Program Version 5.0.4 -  RELEASE  -
|  1> ! ri-mp2 aug-cc-pvdz aug-cc-pvdz/c tightscf
|  2> %pal nprocs 16 end
|  3> %maxcore 3800
|  4> %base "DZ_B-P_84_A"
|  5> %scf
|  6> STABPerform true
|  7> STABRestartUHFifUnstable true
|  8> end
|  9>
| 10> *xyz 0 2
| 11> C        -3.073166   -0.480265    0.000000
| 12> C        -1.819403    0.379732    0.000002
| 13> H        -3.112711   -1.124143   -0.880851
| 14> H        -3.972602    0.135297    0.000001
| 15> H        -3.112711   -1.124145    0.880849
| 16> C        -0.552274   -0.454996    0.000002
| 17> H        -1.812780    1.038515    0.869701
| 18> H        -1.812779    1.038516   -0.869696
| 19> C         0.719528    0.359230    0.000001
| 20> H        -0.519517   -1.120969   -0.868825
| 21> H        -0.519517   -1.120967    0.868830
| 22> O         0.718346    1.567039    0.000003
| 23> P         2.373360   -0.484563   -0.000005
| 24> H         1.867338   -1.812179    0.000008
| 25> *
| 26>
| 27> $new_job
| 28> ! ri-mp2 aug-cc-pvtz aug-cc-pvtz/c tightscf
| 29> %pal nprocs 16 end
| 30> %maxcore 3800
| 31> %base "TZ_B-P_84_A"
| 32>
| 33> *xyz 0 2
| 34> C        -3.073166   -0.480265    0.000000
| 35> C        -1.819403    0.379732    0.000002
| 36> H        -3.112711   -1.124143   -0.880851
| 37> H        -3.972602    0.135297    0.000001
| 38> H        -3.112711   -1.124145    0.880849
| 39> C        -0.552274   -0.454996    0.000002
| 40> H        -1.812780    1.038515    0.869701
| 41> H        -1.812779    1.038516   -0.869696
| 42> C         0.719528    0.359230    0.000001
| 43> H        -0.519517   -1.120969   -0.868825
| 44> H        -0.519517   -1.120967    0.868830
| 45> O         0.718346    1.567039    0.000003
| 46> P         2.373360   -0.484563   -0.000005
| 47> H         1.867338   -1.812179    0.000008
| 48> *
| 49>
| 50> $new_job
| 51> ! ri-mp2 aug-cc-pvqz aug-cc-pvqz/c tightscf
| 52> %pal nprocs 16 end
| 53> %maxcore 3800
| 54> %base "QZ_B-P_84_A"
| 55>
| 56> *xyz 0 2
| 57> C        -3.073166   -0.480265    0.000000
| 58> C        -1.819403    0.379732    0.000002
| 59> H        -3.112711   -1.124143   -0.880851
| 60> H        -3.972602    0.135297    0.000001
| 61> H        -3.112711   -1.124145    0.880849
| 62> C        -0.552274   -0.454996    0.000002
| 63> H        -1.812780    1.038515    0.869701
| 64> H        -1.812779    1.038516   -0.869696
| 65> C         0.719528    0.359230    0.000001
| 66> H        -0.519517   -1.120969   -0.868825
| 67> H        -0.519517   -1.120967    0.868830
| 68> O         0.718346    1.567039    0.000003
| 69> P         2.373360   -0.484563   -0.000005
| 70> H         1.867338   -1.812179    0.000008
| 71> *
| 72>
| 73>
| 74>
| 75>
| 76>                          ****END OF INPUT****
 Total Charge           Charge          ....    0
 Multiplicity           Mult            ....    2
 Number of Electrons    NEL             ....   55
MP2 TOTAL ENERGY:     -572.604837425 Eh
FINAL SINGLE POINT ENERGY      -572.604837424818
MP2 TOTAL ENERGY:     -572.850224659 Eh
FINAL SINGLE POINT ENERGY      -572.850224658980

CARTESIAN COORDINATES (ANGSTROEM)
---------------------------------
  C     -3.073166   -0.480265    0.000000
  C     -1.819403    0.379732    0.000002
  H     -3.112711   -1.124143   -0.880851
  H     -3.972602    0.135297    0.000001
  H     -3.112711   -1.124145    0.880849
  C     -0.552274   -0.454996    0.000002
  H     -1.812780    1.038515    0.869701
  H     -1.812779    1.038516   -0.869696
  C      0.719528    0.359230    0.000001
  H     -0.519517   -1.120969   -0.868825
  H     -0.519517   -1.120967    0.868830
  O      0.718346    1.567039    0.000003
  P      2.373360   -0.484563   -0.000005
  H      1.867338   -1.812179    0.000008

 Multiplicity           Mult            ....    2
 Number of Electrons    NEL             ....   55
 Basis Dimension        Dim             ....  852

ORBITAL ENERGIES
----------------
                 SPIN UP ORBITALS
  NO   OCC          E(Eh)            E(eV)
   0   1.0000     -79.967194     -2176.0180
   1   1.0000     -20.573961      -559.8459
   2   1.0000     -11.330965      -308.3312
   3   1.0000     -11.242815      -305.9325
   4   1.0000     -11.225432      -305.4595
   5   1.0000     -11.218705      -305.2765
   6   1.0000      -7.510640      -204.3749
   7   1.0000      -5.414709      -147.3417
   8   1.0000      -5.401378      -146.9790
   9   1.0000      -5.399691      -146.9331
  10   1.0000      -1.421376       -38.6776
  11   1.0000      -1.084927       -29.5224
  12   1.0000      -0.983715       -26.7682
  13   1.0000      -0.898562       -24.4511
  14   1.0000      -0.818731       -22.2788
  15   1.0000      -0.736588       -20.0436
  16   1.0000      -0.658130       -17.9086
  17   1.0000      -0.654742       -17.8164
  18   1.0000      -0.614794       -16.7294
  19   1.0000      -0.589045       -16.0287
  20   1.0000      -0.566268       -15.4089
  21   1.0000      -0.539577       -14.6826
  22   1.0000      -0.520444       -14.1620
  23   1.0000      -0.495842       -13.4925
  24   1.0000      -0.483181       -13.1480
  25   1.0000      -0.457829       -12.4582
  26   1.0000      -0.388877       -10.5819
  27   1.0000      -0.384829       -10.4717
  28   0.0000       0.022304         0.6069
  29   0.0000       0.030602         0.8327
  30   0.0000       0.034284         0.9329
  31   0.0000       0.038357         1.0438
  32   0.0000       0.047373         1.2891

                 SPIN DOWN ORBITALS
  NO   OCC          E(Eh)            E(eV)
   0   1.0000     -79.960348     -2175.8317
   1   1.0000     -20.561017      -559.4937
   2   1.0000     -11.338225      -308.5288
   3   1.0000     -11.242269      -305.9177
   4   1.0000     -11.225502      -305.4614
   5   1.0000     -11.218693      -305.2762
   6   1.0000      -7.502259      -204.1468
   7   1.0000      -5.396567      -146.8481
   8   1.0000      -5.395917      -146.8304
   9   1.0000      -5.382927      -146.4769
  10   1.0000      -1.393797       -37.9271
  11   1.0000      -1.084121       -29.5004
  12   1.0000      -0.980408       -26.6783
  13   1.0000      -0.869332       -23.6557
  14   1.0000      -0.803142       -21.8546
  15   1.0000      -0.723783       -19.6951
  16   1.0000      -0.653606       -17.7855
  17   1.0000      -0.653426       -17.7806
  18   1.0000      -0.607082       -16.5195
  19   1.0000      -0.571089       -15.5401
  20   1.0000      -0.565036       -15.3754
  21   1.0000      -0.518954       -14.1215
  22   1.0000      -0.494845       -13.4654
  23   1.0000      -0.493741       -13.4354
  24   1.0000      -0.475498       -12.9390
  25   1.0000      -0.438640       -11.9360
  26   1.0000      -0.380645       -10.3579
  27   0.0000       0.009994         0.2720
  28   0.0000       0.022612         0.6153
  29   0.0000       0.030848         0.8394
  30   0.0000       0.036211         0.9854
  31   0.0000       0.038564         1.0494

MULLIKEN ATOMIC CHARGES AND SPIN POPULATIONS
--------------------------------------------
   0 C :   -0.829805    0.000693
   1 C :   -0.322596   -0.008855
   2 H :    0.228078   -0.000041
   3 H :    0.250560    0.000023
   4 H :    0.228044   -0.000041
   5 C :   -0.305407    0.020980
   6 H :    0.249873    0.001539
   7 H :    0.249839    0.001538
   8 C :    0.325958   -0.346987
   9 H :    0.241309   -0.010594
  10 H :    0.241348   -0.010594
  11 O :   -0.761689    0.314410
  12 P :    0.329174    1.093178
  13 H :   -0.124686   -0.055249
Sum of atomic charges         :    0.0000000

LOEWDIN ATOMIC CHARGES AND SPIN POPULATIONS
-------------------------------------------
   0 C :    0.925934   -0.000274
   1 C :    0.463544   -0.003135
   2 H :   -0.283579   -0.000077
   3 H :   -0.281650   -0.000004
   4 H :   -0.283580   -0.000077
   5 C :    0.340534   -0.013207
   6 H :   -0.280990   -0.000647
   7 H :   -0.280991   -0.000647
   8 C :   -0.988929    0.110145
   9 H :   -0.309106   -0.000568
  10 H :   -0.309107   -0.000568
  11 O :    0.624707    0.186816
  12 P :    1.274123    0.546620
  13 H :   -0.610908    0.175621

  Mayer bond orders larger than 0.100000
B(  0-C ,  1-C ) :   0.9911 B(  0-C ,  2-H ) :   0.9436 B(  0-C ,  3-H ) :   1.0241
B(  0-C ,  4-H ) :   0.9436 B(  1-C ,  5-C ) :   0.8860 B(  1-C ,  6-H ) :   0.8724
B(  1-C ,  7-H ) :   0.8725 B(  1-C ,  8-C ) :  -0.1313 B(  5-C ,  8-C ) :   0.8404
B(  5-C ,  9-H ) :   0.8994 B(  5-C , 10-H ) :   0.8993 B(  5-C , 11-O ) :   0.2357
B(  5-C , 12-P ) :  -0.2028 B(  8-C , 11-O ) :   1.1982 B(  8-C , 12-P ) :   1.0877
B( 12-P , 13-H ) :   0.9381

MP2 TOTAL ENERGY:     -572.927870839 Eh
FINAL SINGLE POINT ENERGY      -572.927870839197

DIPOLE MOMENT
-------------
                                X             Y             Z
Electronic contribution:     14.76300       2.50728      -0.00002
Nuclear contribution   :    -15.27578      -3.61133       0.00002
                        -----------------------------------------
Total Dipole Moment    :     -0.51278      -1.10405       0.00000
                        -----------------------------------------
Magnitude (a.u.)       :      1.21732
Magnitude (Debye)      :      3.09418

Rotational constants in cm-1:     0.240290     0.042750     0.037029
Rotational constants in MHz :  7203.704950  1281.625901  1110.088324

                             ****ORCA TERMINATED NORMALLY****
TOTAL RUN TIME: 0 days 3 hours 1 minutes 29 seconds 591 msec
