                         Program Version 5.0.4 -  RELEASE  -
|  1> ! ri-mp2 aug-cc-pvdz aug-cc-pvdz/c tightscf
|  2> %pal nprocs 16 end
|  3> %maxcore 3800
|  4> %base "DZ_Si-Cl_73_AB"
|  5> %scf
|  6> STABPerform true
|  7> STABRestartUHFifUnstable true
|  8> end
|  9>
| 10> *xyz 0 1
| 11> Si         0.000000    0.000258    0.000000
| 12> S         1.507858    1.286458    0.725202
| 13> Cl         0.775502   -1.233500   -1.434882
| 14> Cl        -0.775492   -1.233506    1.434882
| 15> H         2.487815    0.384533    0.571025
| 16> S        -1.507868    1.286446   -0.725203
| 17> H        -2.487819    0.384515   -0.571022
| 18> *
| 19>
| 20> $new_job
| 21> ! ri-mp2 aug-cc-pvtz aug-cc-pvtz/c tightscf
| 22> %pal nprocs 16 end
| 23> %maxcore 3800
| 24> %base "TZ_Si-Cl_73_AB"
| 25>
| 26> *xyz 0 1
| 27> Si         0.000000    0.000258    0.000000
| 28> S         1.507858    1.286458    0.725202
| 29> Cl         0.775502   -1.233500   -1.434882
| 30> Cl        -0.775492   -1.233506    1.434882
| 31> H         2.487815    0.384533    0.571025
| 32> S        -1.507868    1.286446   -0.725203
| 33> H        -2.487819    0.384515   -0.571022
| 34> *
| 35>
| 36> $new_job
| 37> ! ri-mp2 aug-cc-pvqz aug-cc-pvqz/c tightscf
| 38> %pal nprocs 16 end
| 39> %maxcore 3800
| 40> %base "QZ_Si-Cl_73_AB"
| 41>
| 42> *xyz 0 1
| 43> Si         0.000000    0.000258    0.000000
| 44> S         1.507858    1.286458    0.725202
| 45> Cl         0.775502   -1.233500   -1.434882
| 46> Cl        -0.775492   -1.233506    1.434882
| 47> H         2.487815    0.384533    0.571025
| 48> S        -1.507868    1.286446   -0.725203
| 49> H        -2.487819    0.384515   -0.571022
| 50> *
| 51>
| 52>
| 53>
| 54>
| 55>                          ****END OF INPUT****
 Total Charge           Charge          ....    0
 Multiplicity           Mult            ....    1
 Number of Electrons    NEL             ....   82
MP2 TOTAL ENERGY:    -2005.019888789 Eh
FINAL SINGLE POINT ENERGY     -2005.019888789043
MP2 TOTAL ENERGY:    -2005.288724120 Eh
FINAL SINGLE POINT ENERGY     -2005.288724119974

CARTESIAN COORDINATES (ANGSTROEM)
---------------------------------
  Si     0.000000    0.000258    0.000000
  S      1.507858    1.286458    0.725202
  Cl     0.775502   -1.233500   -1.434882
  Cl    -0.775492   -1.233506    1.434882
  H      2.487815    0.384533    0.571025
  S     -1.507868    1.286446   -0.725203
  H     -2.487819    0.384515   -0.571022

 Multiplicity           Mult            ....    1
 Number of Electrons    NEL             ....   82
 Basis Dimension        Dim             ....  512

ORBITAL ENERGIES
----------------

  NO   OCC          E(Eh)            E(eV)
   0   2.0000    -104.846963     -2853.0309
   1   2.0000    -104.846963     -2853.0309
   2   2.0000     -91.975189     -2502.7721
   3   2.0000     -91.975189     -2502.7721
   4   2.0000     -68.906561     -1875.0429
   5   2.0000     -10.574547      -287.7480
   6   2.0000     -10.574540      -287.7479
   7   2.0000      -8.980032      -244.3591
   8   2.0000      -8.980028      -244.3590
   9   2.0000      -8.041294      -218.8147
  10   2.0000      -8.041293      -218.8147
  11   2.0000      -8.040107      -218.7824
  12   2.0000      -8.040106      -218.7824
  13   2.0000      -8.040084      -218.7818
  14   2.0000      -8.040083      -218.7818
  15   2.0000      -6.661373      -181.2652
  16   2.0000      -6.661373      -181.2652
  17   2.0000      -6.660712      -181.2472
  18   2.0000      -6.660708      -181.2471
  19   2.0000      -6.659796      -181.2223
  20   2.0000      -6.659794      -181.2222
  21   2.0000      -6.241118      -169.8295
  22   2.0000      -4.348341      -118.3244
  23   2.0000      -4.348075      -118.3171
  24   2.0000      -4.348052      -118.3165
  25   2.0000      -1.138672       -30.9848
  26   2.0000      -1.103690       -30.0329
  27   2.0000      -1.008708       -27.4484
  28   2.0000      -0.983281       -26.7564
  29   2.0000      -0.695562       -18.9272
  30   2.0000      -0.606895       -16.5144
  31   2.0000      -0.577455       -15.7134
  32   2.0000      -0.547411       -14.8958
  33   2.0000      -0.539025       -14.6676
  34   2.0000      -0.526234       -14.3196
  35   2.0000      -0.492580       -13.4038
  36   2.0000      -0.472780       -12.8650
  37   2.0000      -0.471398       -12.8274
  38   2.0000      -0.448449       -12.2029
  39   2.0000      -0.407784       -11.0964
  40   2.0000      -0.402362       -10.9488
  41   0.0000       0.026410         0.7186
  42   0.0000       0.035413         0.9636
  43   0.0000       0.041510         1.1295
  44   0.0000       0.044627         1.2144
  45   0.0000       0.060654         1.6505

MULLIKEN ATOMIC CHARGES
-----------------------
   0 Si:    1.864601
   1 S :   -0.431696
   2 Cl:   -0.593548
   3 Cl:   -0.593548
   4 H :    0.092944
   5 S :   -0.431697
   6 H :    0.092945
Sum of atomic charges:    0.0000000

LOEWDIN ATOMIC CHARGES
----------------------
   0 Si:   -2.582810
   1 S :    1.341612
   2 Cl:    0.851827
   3 Cl:    0.851827
   4 H :   -0.902034
   5 S :    1.341611
   6 H :   -0.902034

  Mayer bond orders larger than 0.100000
B(  0-Si,  1-S ) :   0.8606 B(  0-Si,  2-Cl) :   0.5180 B(  0-Si,  3-Cl) :   0.5180
B(  0-Si,  5-S ) :   0.8606 B(  1-S ,  4-H ) :   1.0251 B(  5-S ,  6-H ) :   1.0251

MP2 TOTAL ENERGY:    -2005.378754855 Eh
FINAL SINGLE POINT ENERGY     -2005.378754855236

DIPOLE MOMENT
-------------
                                X             Y             Z
Electronic contribution:      0.00002      -4.02447      -0.00000
Nuclear contribution   :     -0.00002       3.93480       0.00000
                        -----------------------------------------
Total Dipole Moment    :     -0.00000      -0.08967       0.00000
                        -----------------------------------------
Magnitude (a.u.)       :      0.08967
Magnitude (Debye)      :      0.22791

Rotational constants in cm-1:     0.044214     0.042897     0.040457
Rotational constants in MHz :  1325.504877  1286.033785  1212.859652

                             ****ORCA TERMINATED NORMALLY****
TOTAL RUN TIME: 0 days 0 hours 24 minutes 15 seconds 151 msec
