                         Program Version 5.0.4 -  RELEASE  -
|  1> ! ri-mp2 aug-cc-pvdz aug-cc-pvdz/c tightscf
|  2> %pal nprocs 16 end
|  3> %maxcore 3800
|  4> %base "DZ_S-F_93_AB"
|  5>
|  6> *xyz 0 1
|  7> F        -1.534515   -1.230016    0.000000
|  8> F         1.077827    1.427683    0.000000
|  9> F         1.077827   -0.458602    1.070291
| 10> F         1.077827   -0.458602   -1.070291
| 11> C         0.611931    0.175508    0.000000
| 12> S        -1.185142    0.338924    0.000000
| 13> *
| 14>
| 15> $new_job
| 16> ! ri-mp2 aug-cc-pvtz aug-cc-pvtz/c tightscf
| 17> %pal nprocs 16 end
| 18> %maxcore 3800
| 19> %base "TZ_S-F_93_AB"
| 20>
| 21> *xyz 0 1
| 22> F        -1.534515   -1.230016    0.000000
| 23> F         1.077827    1.427683    0.000000
| 24> F         1.077827   -0.458602    1.070291
| 25> F         1.077827   -0.458602   -1.070291
| 26> C         0.611931    0.175508    0.000000
| 27> S        -1.185142    0.338924    0.000000
| 28> *
| 29>
| 30> $new_job
| 31> ! ri-mp2 aug-cc-pvqz aug-cc-pvqz/c tightscf
| 32> %pal nprocs 16 end
| 33> %maxcore 3800
| 34> %base "QZ_S-F_93_AB"
| 35>
| 36> *xyz 0 1
| 37> F        -1.534515   -1.230016    0.000000
| 38> F         1.077827    1.427683    0.000000
| 39> F         1.077827   -0.458602    1.070291
| 40> F         1.077827   -0.458602   -1.070291
| 41> C         0.611931    0.175508    0.000000
| 42> S        -1.185142    0.338924    0.000000
| 43> *
| 44>
| 45>
| 46>
| 47>
| 48>                          ****END OF INPUT****
 Total Charge           Charge          ....    0
 Multiplicity           Mult            ....    1
 Number of Electrons    NEL             ....   58
MP2 TOTAL ENERGY:     -834.246860397 Eh
FINAL SINGLE POINT ENERGY      -834.246860396853
MP2 TOTAL ENERGY:     -834.664207479 Eh
FINAL SINGLE POINT ENERGY      -834.664207478951

CARTESIAN COORDINATES (ANGSTROEM)
---------------------------------
  F     -1.534515   -1.230016    0.000000
  F      1.077827    1.427683    0.000000
  F      1.077827   -0.458602    1.070291
  F      1.077827   -0.458602   -1.070291
  C      0.611931    0.175508    0.000000
  S     -1.185142    0.338924    0.000000

 Multiplicity           Mult            ....    1
 Number of Electrons    NEL             ....   58
 Basis Dimension        Dim             ....  484

ORBITAL ENERGIES
----------------

  NO   OCC          E(Eh)            E(eV)
   0   2.0000     -92.077892     -2505.5668
   1   2.0000     -26.371274      -717.5989
   2   2.0000     -26.363181      -717.3786
   3   2.0000     -26.363158      -717.3780
   4   2.0000     -26.347289      -716.9462
   5   2.0000     -11.554911      -314.4251
   6   2.0000      -9.072602      -246.8780
   7   2.0000      -6.753937      -183.7840
   8   2.0000      -6.752186      -183.7363
   9   2.0000      -6.750652      -183.6946
  10   2.0000      -1.763332       -47.9827
  11   2.0000      -1.669615       -45.4325
  12   2.0000      -1.662710       -45.2446
  13   2.0000      -1.648527       -44.8587
  14   2.0000      -1.079747       -29.3814
  15   2.0000      -0.954876       -25.9835
  16   2.0000      -0.857784       -23.3415
  17   2.0000      -0.854502       -23.2522
  18   2.0000      -0.830329       -22.5944
  19   2.0000      -0.743129       -20.2216
  20   2.0000      -0.741792       -20.1852
  21   2.0000      -0.722770       -19.6676
  22   2.0000      -0.720644       -19.6097
  23   2.0000      -0.694761       -18.9054
  24   2.0000      -0.691465       -18.8157
  25   2.0000      -0.678897       -18.4737
  26   2.0000      -0.676733       -18.4149
  27   2.0000      -0.535336       -14.5672
  28   2.0000      -0.424825       -11.5601
  29   0.0000       0.043104         1.1729
  30   0.0000       0.049137         1.3371
  31   0.0000       0.058604         1.5947
  32   0.0000       0.069771         1.8986
  33   0.0000       0.084057         2.2873

MULLIKEN ATOMIC CHARGES
-----------------------
   0 F :   -0.585014
   1 F :   -0.524846
   2 F :   -0.521011
   3 F :   -0.521011
   4 C :    1.506897
   5 S :    0.644986
Sum of atomic charges:   -0.0000000

LOEWDIN ATOMIC CHARGES
----------------------
   0 F :    0.073986
   1 F :    0.666639
   2 F :    0.681067
   3 F :    0.681067
   4 C :   -2.677170
   5 S :    0.574411

  Mayer bond orders larger than 0.100000
B(  0-F ,  5-S ) :   0.6592 B(  1-F ,  4-C ) :   0.6048 B(  2-F ,  4-C ) :   0.6175
B(  3-F ,  4-C ) :   0.6175 B(  4-C ,  5-S ) :   1.0008

MP2 TOTAL ENERGY:     -834.802482463 Eh
FINAL SINGLE POINT ENERGY      -834.802482463374

DIPOLE MOMENT
-------------
                                X             Y             Z
Electronic contribution:      1.21241      -0.24604       0.00000
Nuclear contribution   :     -1.48909       0.63522       0.00000
                        -----------------------------------------
Total Dipole Moment    :     -0.27668       0.38918       0.00000
                        -----------------------------------------
Magnitude (a.u.)       :      0.47750
Magnitude (Debye)      :      1.21372

Rotational constants in cm-1:     0.153014     0.077743     0.070253
Rotational constants in MHz :  4587.235905  2330.686493  2106.121553

                             ****ORCA TERMINATED NORMALLY****
TOTAL RUN TIME: 0 days 0 hours 2 minutes 31 seconds 192 msec
