                         Program Version 5.0.4 -  RELEASE  -
|  1> ! ri-mp2 aug-cc-pvdz aug-cc-pvdz/c tightscf
|  2> %pal nprocs 16 end
|  3> %maxcore 3800
|  4> %base "DZ_B-Cl_73_A"
|  5> %scf
|  6> STABPerform true
|  7> STABRestartUHFifUnstable true
|  8> end
|  9>
| 10> *xyz 0 2
| 11> N        -1.219165   -0.837473   -0.023625
| 12> N         1.219163   -0.837475   -0.023623
| 13> C        -1.263933    0.601592    0.210832
| 14> C         0.000001    1.254853   -0.331435
| 15> C         1.263935    0.601591    0.210830
| 16> B        -0.000001   -1.517200   -0.118517
| 17> H        -2.101805   -1.312769   -0.052044
| 18> H         2.101802   -1.312774   -0.052037
| 19> H         2.136279    1.029600   -0.286965
| 20> H         1.363319    0.820518    1.280347
| 21> H         0.000002    2.316613   -0.080270
| 22> H        -0.000000    1.171108   -1.420465
| 23> H        -1.363313    0.820517    1.280350
| 24> H        -2.136278    1.029605   -0.286959
| 25> *
| 26>
| 27> $new_job
| 28> ! ri-mp2 aug-cc-pvtz aug-cc-pvtz/c tightscf
| 29> %pal nprocs 16 end
| 30> %maxcore 3800
| 31> %base "TZ_B-Cl_73_A"
| 32>
| 33> *xyz 0 2
| 34> N        -1.219165   -0.837473   -0.023625
| 35> N         1.219163   -0.837475   -0.023623
| 36> C        -1.263933    0.601592    0.210832
| 37> C         0.000001    1.254853   -0.331435
| 38> C         1.263935    0.601591    0.210830
| 39> B        -0.000001   -1.517200   -0.118517
| 40> H        -2.101805   -1.312769   -0.052044
| 41> H         2.101802   -1.312774   -0.052037
| 42> H         2.136279    1.029600   -0.286965
| 43> H         1.363319    0.820518    1.280347
| 44> H         0.000002    2.316613   -0.080270
| 45> H        -0.000000    1.171108   -1.420465
| 46> H        -1.363313    0.820517    1.280350
| 47> H        -2.136278    1.029605   -0.286959
| 48> *
| 49>
| 50> $new_job
| 51> ! ri-mp2 aug-cc-pvqz aug-cc-pvqz/c tightscf
| 52> %pal nprocs 16 end
| 53> %maxcore 3800
| 54> %base "QZ_B-Cl_73_A"
| 55>
| 56> *xyz 0 2
| 57> N        -1.219165   -0.837473   -0.023625
| 58> N         1.219163   -0.837475   -0.023623
| 59> C        -1.263933    0.601592    0.210832
| 60> C         0.000001    1.254853   -0.331435
| 61> C         1.263935    0.601591    0.210830
| 62> B        -0.000001   -1.517200   -0.118517
| 63> H        -2.101805   -1.312769   -0.052044
| 64> H         2.101802   -1.312774   -0.052037
| 65> H         2.136279    1.029600   -0.286965
| 66> H         1.363319    0.820518    1.280347
| 67> H         0.000002    2.316613   -0.080270
| 68> H        -0.000000    1.171108   -1.420465
| 69> H        -1.363313    0.820517    1.280350
| 70> H        -2.136278    1.029605   -0.286959
| 71> *
| 72>
| 73>
| 74>
| 75>
| 76>                          ****END OF INPUT****
 Total Charge           Charge          ....    0
 Multiplicity           Mult            ....    2
 Number of Electrons    NEL             ....   45
MP2 TOTAL ENERGY:     -252.741177634 Eh
FINAL SINGLE POINT ENERGY      -252.741177634407
MP2 TOTAL ENERGY:     -252.969318131 Eh
FINAL SINGLE POINT ENERGY      -252.969318130674

CARTESIAN COORDINATES (ANGSTROEM)
---------------------------------
  N     -1.219165   -0.837473   -0.023625
  N      1.219163   -0.837475   -0.023623
  C     -1.263933    0.601592    0.210832
  C      0.000001    1.254853   -0.331435
  C      1.263935    0.601591    0.210830
  B     -0.000001   -1.517200   -0.118517
  H     -2.101805   -1.312769   -0.052044
  H      2.101802   -1.312774   -0.052037
  H      2.136279    1.029600   -0.286965
  H      1.363319    0.820518    1.280347
  H      0.000002    2.316613   -0.080270
  H     -0.000000    1.171108   -1.420465
  H     -1.363313    0.820517    1.280350
  H     -2.136278    1.029605   -0.286959

 Multiplicity           Mult            ....    2
 Number of Electrons    NEL             ....   45
 Basis Dimension        Dim             ....  848

ORBITAL ENERGIES
----------------
                 SPIN UP ORBITALS
  NO   OCC          E(Eh)            E(eV)
   0   1.0000     -15.530091      -422.5953
   1   1.0000     -15.530074      -422.5948
   2   1.0000     -11.252951      -306.2084
   3   1.0000     -11.252947      -306.2083
   4   1.0000     -11.220594      -305.3279
   5   1.0000      -7.593358      -206.6258
   6   1.0000      -1.211958       -32.9791
   7   1.0000      -1.154138       -31.4057
   8   1.0000      -1.023994       -27.8643
   9   1.0000      -0.895242       -24.3608
  10   1.0000      -0.809218       -22.0199
  11   1.0000      -0.733365       -19.9559
  12   1.0000      -0.660253       -17.9664
  13   1.0000      -0.623189       -16.9578
  14   1.0000      -0.603615       -16.4252
  15   1.0000      -0.597664       -16.2633
  16   1.0000      -0.584715       -15.9109
  17   1.0000      -0.527391       -14.3510
  18   1.0000      -0.505982       -13.7685
  19   1.0000      -0.470090       -12.7918
  20   1.0000      -0.418980       -11.4010
  21   1.0000      -0.349255        -9.5037
  22   1.0000      -0.315471        -8.5844
  23   0.0000       0.023922         0.6509
  24   0.0000       0.030718         0.8359
  25   0.0000       0.034486         0.9384
  26   0.0000       0.034747         0.9455
  27   0.0000       0.047856         1.3022

                 SPIN DOWN ORBITALS
  NO   OCC          E(Eh)            E(eV)
   0   1.0000     -15.530393      -422.6035
   1   1.0000     -15.530375      -422.6030
   2   1.0000     -11.251698      -306.1743
   3   1.0000     -11.251693      -306.1741
   4   1.0000     -11.220769      -305.3327
   5   1.0000      -7.574114      -206.1021
   6   1.0000      -1.207109       -32.8471
   7   1.0000      -1.152512       -31.3615
   8   1.0000      -1.020768       -27.7765
   9   1.0000      -0.891391       -24.2560
  10   1.0000      -0.800629       -21.7862
  11   1.0000      -0.727091       -19.7852
  12   1.0000      -0.652872       -17.7655
  13   1.0000      -0.619657       -16.8617
  14   1.0000      -0.591004       -16.0820
  15   1.0000      -0.590629       -16.0718
  16   1.0000      -0.583590       -15.8803
  17   1.0000      -0.521613       -14.1938
  18   1.0000      -0.503616       -13.7041
  19   1.0000      -0.468265       -12.7422
  20   1.0000      -0.416394       -11.3306
  21   1.0000      -0.357582        -9.7303
  22   0.0000       0.023773         0.6469
  23   0.0000       0.030772         0.8374
  24   0.0000       0.032842         0.8937
  25   0.0000       0.034913         0.9500
  26   0.0000       0.047370         1.2890

MULLIKEN ATOMIC CHARGES AND SPIN POPULATIONS
--------------------------------------------
   0 N :   -0.617064   -0.088559
   1 N :   -0.617063   -0.088561
   2 C :   -0.226328    0.040011
   3 C :   -0.619094   -0.013977
   4 C :   -0.226329    0.040012
   5 B :    0.397471    1.146501
   6 H :    0.131823   -0.012565
   7 H :    0.131822   -0.012565
   8 H :    0.324488   -0.001974
   9 H :    0.199487   -0.004060
  10 H :    0.361650    0.001533
  11 H :    0.235163    0.000238
  12 H :    0.199486   -0.004060
  13 H :    0.324488   -0.001974
Sum of atomic charges         :   -0.0000000

LOEWDIN ATOMIC CHARGES AND SPIN POPULATIONS
-------------------------------------------
   0 N :    0.917317    0.153536
   1 N :    0.917317    0.153536
   2 C :    0.361158    0.025279
   3 C :    0.502266    0.011308
   4 C :    0.361159    0.025279
   5 B :   -0.390509    0.542585
   6 H :   -0.530072    0.036903
   7 H :   -0.530071    0.036904
   8 H :   -0.273694    0.003773
   9 H :   -0.266462    0.002781
  10 H :   -0.261647    0.000937
  11 H :   -0.266607    0.000628
  12 H :   -0.266462    0.002781
  13 H :   -0.273693    0.003773

  Mayer bond orders larger than 0.100000
B(  0-N ,  2-C ) :   0.7564 B(  0-N ,  5-B ) :   0.9934 B(  0-N ,  6-H ) :   1.1303
B(  1-N ,  4-C ) :   0.7564 B(  1-N ,  5-B ) :   0.9934 B(  1-N ,  7-H ) :   1.1303
B(  2-C ,  3-C ) :   0.9849 B(  2-C , 12-H ) :   0.9615 B(  2-C , 13-H ) :   0.9058
B(  3-C ,  4-C ) :   0.9849 B(  3-C , 10-H ) :   0.8263 B(  3-C , 11-H ) :   0.9169
B(  4-C ,  8-H ) :   0.9058 B(  4-C ,  9-H ) :   0.9615

MP2 TOTAL ENERGY:     -253.041378222 Eh
FINAL SINGLE POINT ENERGY      -253.041378222051

DIPOLE MOMENT
-------------
                                X             Y             Z
Electronic contribution:     -0.00000      -5.21256      -0.36994
Nuclear contribution   :      0.00001       5.88605       0.48634
                        -----------------------------------------
Total Dipole Moment    :      0.00000       0.67349       0.11640
                        -----------------------------------------
Magnitude (a.u.)       :      0.68347
Magnitude (Debye)      :      1.73725

Rotational constants in cm-1:     0.180160     0.153342     0.089969
Rotational constants in MHz :  5401.048633  4597.062836  2697.208687

                             ****ORCA TERMINATED NORMALLY****
TOTAL RUN TIME: 0 days 2 hours 55 minutes 50 seconds 217 msec
