                         Program Version 5.0.4 -  RELEASE  -
|  1> ! ri-mp2 aug-cc-pvdz aug-cc-pvdz/c tightscf
|  2> %pal nprocs 16 end
|  3> %maxcore 3800
|  4> %base "DZ_Si-Si_127_AB"
|  5>
|  6> *xyz 0 1
|  7> Si         1.023827    1.338470   -0.613353
|  8> Si        -0.655356    1.028884    0.980771
|  9> C        -1.570862   -0.559855    0.563038
| 10> H        -1.611330    2.154473    0.913947
| 11> H        -0.074576    0.958481    2.340150
| 12> S        -2.543497   -0.677590   -0.712208
| 13> H        -1.411496   -1.435663    1.191090
| 14> C         2.140494   -0.179632   -0.587937
| 15> H         1.863329    2.530610   -0.342571
| 16> H         0.470872    1.474356   -1.980495
| 17> S         1.866811   -1.459396    0.345049
| 18> H         3.013795   -0.196518   -1.242039
| 19> *
| 20>
| 21> $new_job
| 22> ! ri-mp2 aug-cc-pvtz aug-cc-pvtz/c tightscf
| 23> %pal nprocs 16 end
| 24> %maxcore 3800
| 25> %base "TZ_Si-Si_127_AB"
| 26>
| 27> *xyz 0 1
| 28> Si         1.023827    1.338470   -0.613353
| 29> Si        -0.655356    1.028884    0.980771
| 30> C        -1.570862   -0.559855    0.563038
| 31> H        -1.611330    2.154473    0.913947
| 32> H        -0.074576    0.958481    2.340150
| 33> S        -2.543497   -0.677590   -0.712208
| 34> H        -1.411496   -1.435663    1.191090
| 35> C         2.140494   -0.179632   -0.587937
| 36> H         1.863329    2.530610   -0.342571
| 37> H         0.470872    1.474356   -1.980495
| 38> S         1.866811   -1.459396    0.345049
| 39> H         3.013795   -0.196518   -1.242039
| 40> *
| 41>
| 42> $new_job
| 43> ! ri-mp2 aug-cc-pvqz aug-cc-pvqz/c tightscf
| 44> %pal nprocs 16 end
| 45> %maxcore 3800
| 46> %base "QZ_Si-Si_127_AB"
| 47>
| 48> *xyz 0 1
| 49> Si         1.023827    1.338470   -0.613353
| 50> Si        -0.655356    1.028884    0.980771
| 51> C        -1.570862   -0.559855    0.563038
| 52> H        -1.611330    2.154473    0.913947
| 53> H        -0.074576    0.958481    2.340150
| 54> S        -2.543497   -0.677590   -0.712208
| 55> H        -1.411496   -1.435663    1.191090
| 56> C         2.140494   -0.179632   -0.587937
| 57> H         1.863329    2.530610   -0.342571
| 58> H         0.470872    1.474356   -1.980495
| 59> S         1.866811   -1.459396    0.345049
| 60> H         3.013795   -0.196518   -1.242039
| 61> *
| 62>
| 63>
| 64>
| 65>
| 66>                          ****END OF INPUT****
 Total Charge           Charge          ....    0
 Multiplicity           Mult            ....    1
 Number of Electrons    NEL             ....   78
MP2 TOTAL ENERGY:    -1452.864066505 Eh
FINAL SINGLE POINT ENERGY     -1452.864066505258
MP2 TOTAL ENERGY:    -1453.100190031 Eh
FINAL SINGLE POINT ENERGY     -1453.100190031164

CARTESIAN COORDINATES (ANGSTROEM)
---------------------------------
  Si     1.023827    1.338470   -0.613353
  Si    -0.655356    1.028884    0.980771
  C     -1.570862   -0.559855    0.563038
  H     -1.611330    2.154473    0.913947
  H     -0.074576    0.958481    2.340150
  S     -2.543497   -0.677590   -0.712208
  H     -1.411496   -1.435663    1.191090
  C      2.140494   -0.179632   -0.587937
  H      1.863329    2.530610   -0.342571
  H      0.470872    1.474356   -1.980495
  S      1.866811   -1.459396    0.345049
  H      3.013795   -0.196518   -1.242039

 Multiplicity           Mult            ....    1
 Number of Electrons    NEL             ....   78
 Basis Dimension        Dim             ....  772

ORBITAL ENERGIES
----------------

  NO   OCC          E(Eh)            E(eV)
   0   2.0000     -91.963496     -2502.4539
   1   2.0000     -91.949921     -2502.0845
   2   2.0000     -68.788335     -1871.8258
   3   2.0000     -68.783961     -1871.7067
   4   2.0000     -11.309425      -307.7451
   5   2.0000     -11.300477      -307.5016
   6   2.0000      -8.966856      -244.0006
   7   2.0000      -8.953233      -243.6298
   8   2.0000      -6.647629      -180.8912
   9   2.0000      -6.647527      -180.8884
  10   2.0000      -6.645664      -180.8377
  11   2.0000      -6.634069      -180.5222
  12   2.0000      -6.633894      -180.5174
  13   2.0000      -6.632062      -180.4676
  14   2.0000      -6.138976      -167.0500
  15   2.0000      -6.134525      -166.9289
  16   2.0000      -4.245039      -115.5134
  17   2.0000      -4.244958      -115.5112
  18   2.0000      -4.244877      -115.5090
  19   2.0000      -4.240633      -115.3935
  20   2.0000      -4.240549      -115.3912
  21   2.0000      -4.240499      -115.3899
  22   2.0000      -1.072546       -29.1855
  23   2.0000      -1.059669       -28.8350
  24   2.0000      -0.819851       -22.3093
  25   2.0000      -0.806728       -21.9522
  26   2.0000      -0.734164       -19.9776
  27   2.0000      -0.676334       -18.4040
  28   2.0000      -0.588326       -16.0092
  29   2.0000      -0.576940       -15.6993
  30   2.0000      -0.523409       -14.2427
  31   2.0000      -0.515825       -14.0363
  32   2.0000      -0.502522       -13.6743
  33   2.0000      -0.487937       -13.2774
  34   2.0000      -0.446441       -12.1483
  35   2.0000      -0.424064       -11.5394
  36   2.0000      -0.394013       -10.7216
  37   2.0000      -0.349662        -9.5148
  38   2.0000      -0.337397        -9.1810
  39   0.0000       0.021046         0.5727
  40   0.0000       0.022786         0.6200
  41   0.0000       0.026977         0.7341
  42   0.0000       0.029294         0.7971
  43   0.0000       0.035809         0.9744

MULLIKEN ATOMIC CHARGES
-----------------------
   0 Si:    0.696815
   1 Si:    0.953634
   2 C :   -0.740337
   3 H :   -0.285299
   4 H :   -0.240502
   5 S :   -0.032265
   6 H :    0.398437
   7 C :   -0.849817
   8 H :   -0.224424
   9 H :   -0.160362
  10 S :    0.004000
  11 H :    0.480119
Sum of atomic charges:   -0.0000000

LOEWDIN ATOMIC CHARGES
----------------------
   0 Si:    0.556659
   1 Si:    0.465858
   2 C :   -0.546833
   3 H :   -0.275672
   4 H :   -0.269525
   5 S :    1.058960
   6 H :   -0.543543
   7 C :   -0.474144
   8 H :   -0.272884
   9 H :   -0.265993
  10 S :    1.098579
  11 H :   -0.531464

  Mayer bond orders larger than 0.100000
B(  0-Si,  1-Si) :   0.8089 B(  0-Si,  7-C ) :   0.7569 B(  0-Si,  8-H ) :   0.7870
B(  0-Si,  9-H ) :   0.7941 B(  1-Si,  2-C ) :   0.7225 B(  1-Si,  3-H ) :   0.7970
B(  1-Si,  4-H ) :   0.8147 B(  2-C ,  5-S ) :   1.7324 B(  2-C ,  6-H ) :   0.7870
B(  7-C , 10-S ) :   1.7686 B(  7-C , 11-H ) :   0.7109

MP2 TOTAL ENERGY:    -1453.178924010 Eh
FINAL SINGLE POINT ENERGY     -1453.178924009628

DIPOLE MOMENT
-------------
                                X             Y             Z
Electronic contribution:     -1.50207      -4.66988      -0.65570
Nuclear contribution   :      2.19118       5.26869       0.84672
                        -----------------------------------------
Total Dipole Moment    :      0.68911       0.59881       0.19102
                        -----------------------------------------
Magnitude (a.u.)       :      0.93270
Magnitude (Debye)      :      2.37074

Rotational constants in cm-1:     0.064297     0.031111     0.026081
Rotational constants in MHz :  1927.588661   932.693916   781.876996

                             ****ORCA TERMINATED NORMALLY****
TOTAL RUN TIME: 0 days 0 hours 11 minutes 44 seconds 506 msec
