                         Program Version 5.0.4 -  RELEASE  -
|  1> ! ri-mp2 aug-cc-pvdz aug-cc-pvdz/c tightscf
|  2> %pal nprocs 16 end
|  3> %maxcore 3800
|  4> %base "DZ_Si-Si_64_A"
|  5> %scf
|  6> STABPerform true
|  7> STABRestartUHFifUnstable true
|  8> end
|  9>
| 10> *xyz 0 2
| 11> Si         1.791235   -0.175503    0.000003
| 12> O         0.190677   -0.698277    0.000001
| 13> H         2.075477    0.596104   -1.230046
| 14> H         2.075460    0.596158    1.230021
| 15> C        -0.837298    0.175739    0.000000
| 16> O        -0.657965    1.361122   -0.000003
| 17> C        -2.167809   -0.505731    0.000001
| 18> H        -2.248919   -1.146205   -0.877802
| 19> H        -2.961457    0.234420    0.000021
| 20> H        -2.248905   -1.146239    0.877781
| 21> *
| 22>
| 23> $new_job
| 24> ! ri-mp2 aug-cc-pvtz aug-cc-pvtz/c tightscf
| 25> %pal nprocs 16 end
| 26> %maxcore 3800
| 27> %base "TZ_Si-Si_64_A"
| 28>
| 29> *xyz 0 2
| 30> Si         1.791235   -0.175503    0.000003
| 31> O         0.190677   -0.698277    0.000001
| 32> H         2.075477    0.596104   -1.230046
| 33> H         2.075460    0.596158    1.230021
| 34> C        -0.837298    0.175739    0.000000
| 35> O        -0.657965    1.361122   -0.000003
| 36> C        -2.167809   -0.505731    0.000001
| 37> H        -2.248919   -1.146205   -0.877802
| 38> H        -2.961457    0.234420    0.000021
| 39> H        -2.248905   -1.146239    0.877781
| 40> *
| 41>
| 42> $new_job
| 43> ! ri-mp2 aug-cc-pvqz aug-cc-pvqz/c tightscf
| 44> %pal nprocs 16 end
| 45> %maxcore 3800
| 46> %base "QZ_Si-Si_64_A"
| 47>
| 48> *xyz 0 2
| 49> Si         1.791235   -0.175503    0.000003
| 50> O         0.190677   -0.698277    0.000001
| 51> H         2.075477    0.596104   -1.230046
| 52> H         2.075460    0.596158    1.230021
| 53> C        -0.837298    0.175739    0.000000
| 54> O        -0.657965    1.361122   -0.000003
| 55> C        -2.167809   -0.505731    0.000001
| 56> H        -2.248919   -1.146205   -0.877802
| 57> H        -2.961457    0.234420    0.000021
| 58> H        -2.248905   -1.146239    0.877781
| 59> *
| 60>
| 61>
| 62>
| 63>
| 64>                          ****END OF INPUT****
 Total Charge           Charge          ....    0
 Multiplicity           Mult            ....    2
 Number of Electrons    NEL             ....   47
MP2 TOTAL ENERGY:     -518.100229897 Eh
FINAL SINGLE POINT ENERGY      -518.100229896684
MP2 TOTAL ENERGY:     -518.335156258 Eh
FINAL SINGLE POINT ENERGY      -518.335156257961

CARTESIAN COORDINATES (ANGSTROEM)
---------------------------------
  Si     1.791235   -0.175503    0.000003
  O      0.190677   -0.698277    0.000001
  H      2.075477    0.596104   -1.230046
  H      2.075460    0.596158    1.230021
  C     -0.837298    0.175739    0.000000
  O     -0.657965    1.361122   -0.000003
  C     -2.167809   -0.505731    0.000001
  H     -2.248919   -1.146205   -0.877802
  H     -2.961457    0.234420    0.000021
  H     -2.248905   -1.146239    0.877781

 Multiplicity           Mult            ....    2
 Number of Electrons    NEL             ....   47
 Basis Dimension        Dim             ....  634

ORBITAL ENERGIES
----------------
                 SPIN UP ORBITALS
  NO   OCC          E(Eh)            E(eV)
   0   1.0000     -68.816540     -1872.5933
   1   1.0000     -20.592413      -560.3481
   2   1.0000     -20.551395      -559.2319
   3   1.0000     -11.390768      -309.9586
   4   1.0000     -11.245198      -305.9974
   5   1.0000      -6.162108      -167.6795
   6   1.0000      -4.274586      -116.3174
   7   1.0000      -4.265470      -116.0693
   8   1.0000      -4.264483      -116.0425
   9   1.0000      -1.460609       -39.7452
  10   1.0000      -1.358294       -36.9611
  11   1.0000      -1.029422       -28.0120
  12   1.0000      -0.837399       -22.7868
  13   1.0000      -0.715436       -19.4680
  14   1.0000      -0.694288       -18.8925
  15   1.0000      -0.660599       -17.9758
  16   1.0000      -0.653079       -17.7712
  17   1.0000      -0.583747       -15.8846
  18   1.0000      -0.572472       -15.5778
  19   1.0000      -0.537563       -14.6278
  20   1.0000      -0.506572       -13.7845
  21   1.0000      -0.475048       -12.9267
  22   1.0000      -0.460277       -12.5248
  23   1.0000      -0.347966        -9.4686
  24   0.0000       0.022670         0.6169
  25   0.0000       0.032337         0.8799
  26   0.0000       0.037106         1.0097
  27   0.0000       0.040896         1.1128
  28   0.0000       0.049682         1.3519

                 SPIN DOWN ORBITALS
  NO   OCC          E(Eh)            E(eV)
   0   1.0000     -68.810663     -1872.4333
   1   1.0000     -20.591177      -560.3144
   2   1.0000     -20.551621      -559.2380
   3   1.0000     -11.389976      -309.9370
   4   1.0000     -11.245201      -305.9975
   5   1.0000      -6.152808      -167.4264
   6   1.0000      -4.261657      -115.9656
   7   1.0000      -4.260817      -115.9427
   8   1.0000      -4.252435      -115.7146
   9   1.0000      -1.458985       -39.7010
  10   1.0000      -1.356632       -36.9158
  11   1.0000      -1.028466       -27.9860
  12   1.0000      -0.823955       -22.4209
  13   1.0000      -0.705725       -19.2037
  14   1.0000      -0.689837       -18.7714
  15   1.0000      -0.659588       -17.9483
  16   1.0000      -0.630240       -17.1497
  17   1.0000      -0.582420       -15.8485
  18   1.0000      -0.570892       -15.5348
  19   1.0000      -0.531258       -14.4563
  20   1.0000      -0.502037       -13.6611
  21   1.0000      -0.467299       -12.7159
  22   1.0000      -0.460134       -12.5209
  23   0.0000       0.020393         0.5549
  24   0.0000       0.029638         0.8065
  25   0.0000       0.037357         1.0165
  26   0.0000       0.037702         1.0259
  27   0.0000       0.045501         1.2381

MULLIKEN ATOMIC CHARGES AND SPIN POPULATIONS
--------------------------------------------
   0 Si:    0.710768    0.980671
   1 O :   -0.801204   -0.067015
   2 H :   -0.150932    0.037188
   3 H :   -0.150931    0.037188
   4 C :    0.908126    0.018056
   5 O :   -0.682526   -0.006778
   6 C :   -0.738785   -0.000658
   7 H :    0.294652    0.000179
   8 H :    0.316182    0.000990
   9 H :    0.294649    0.000178
Sum of atomic charges         :    0.0000000

LOEWDIN ATOMIC CHARGES AND SPIN POPULATIONS
-------------------------------------------
   0 Si:    0.742105    0.584041
   1 O :    0.548124    0.118493
   2 H :   -0.340876    0.134765
   3 H :   -0.340876    0.134764
   4 C :   -1.228678    0.021044
   5 O :    0.685099    0.004087
   6 C :    0.859446    0.001972
   7 H :   -0.302337    0.000170
   8 H :   -0.319670    0.000494
   9 H :   -0.302337    0.000170

  Mayer bond orders larger than 0.100000
B(  0-Si,  1-O ) :   0.4471 B(  0-Si,  2-H ) :   0.8965 B(  0-Si,  3-H ) :   0.8965
B(  1-O ,  4-C ) :   1.0171 B(  4-C ,  5-O ) :   1.5319 B(  4-C ,  6-C ) :   0.9032
B(  6-C ,  7-H ) :   0.9165 B(  6-C ,  8-H ) :   0.9441 B(  6-C ,  9-H ) :   0.9165

MP2 TOTAL ENERGY:     -518.411351974 Eh
FINAL SINGLE POINT ENERGY      -518.411351973758

DIPOLE MOMENT
-------------
                                X             Y             Z
Electronic contribution:      3.14460       0.04000       0.00003
Nuclear contribution   :     -3.39078      -0.83635      -0.00003
                        -----------------------------------------
Total Dipole Moment    :     -0.24618      -0.79636       0.00000
                        -----------------------------------------
Magnitude (a.u.)       :      0.83354
Magnitude (Debye)      :      2.11869

Rotational constants in cm-1:     0.341004     0.086444     0.071661
Rotational constants in MHz : 10223.057239  2591.528617  2148.354157

                             ****ORCA TERMINATED NORMALLY****
TOTAL RUN TIME: 0 days 1 hours 17 minutes 46 seconds 395 msec
