                         Program Version 5.0.4 -  RELEASE  -
|  1> ! ri-mp2 aug-cc-pvdz aug-cc-pvdz/c tightscf
|  2> %pal nprocs 16 end
|  3> %maxcore 3800
|  4> %base "DZ_S-Cl_72_AB"
|  5> %scf
|  6> STABPerform true
|  7> STABRestartUHFifUnstable true
|  8> end
|  9>
| 10> *xyz 0 1
| 11> Cl         2.548611   -0.217008    0.883844
| 12> S         1.669764    0.361270   -0.847650
| 13> O         0.144594    0.701631   -0.369366
| 14> C        -0.762551   -0.360629   -0.270018
| 15> O        -0.455039   -1.492629   -0.508673
| 16> N        -1.967752    0.088253    0.122721
| 17> C        -2.297650    1.471484    0.397208
| 18> H        -1.419678    2.098828    0.314769
| 19> H        -2.702002    1.559112    1.407782
| 20> H        -3.055382    1.824907   -0.306184
| 21> C        -3.046158   -0.866764    0.267662
| 22> H        -3.430734   -0.846315    1.289443
| 23> H        -2.676080   -1.860778    0.042357
| 24> H        -3.862751   -0.621271   -0.414970
| 25> *
| 26>
| 27> $new_job
| 28> ! ri-mp2 aug-cc-pvtz aug-cc-pvtz/c tightscf
| 29> %pal nprocs 16 end
| 30> %maxcore 3800
| 31> %base "TZ_S-Cl_72_AB"
| 32>
| 33> *xyz 0 1
| 34> Cl         2.548611   -0.217008    0.883844
| 35> S         1.669764    0.361270   -0.847650
| 36> O         0.144594    0.701631   -0.369366
| 37> C        -0.762551   -0.360629   -0.270018
| 38> O        -0.455039   -1.492629   -0.508673
| 39> N        -1.967752    0.088253    0.122721
| 40> C        -2.297650    1.471484    0.397208
| 41> H        -1.419678    2.098828    0.314769
| 42> H        -2.702002    1.559112    1.407782
| 43> H        -3.055382    1.824907   -0.306184
| 44> C        -3.046158   -0.866764    0.267662
| 45> H        -3.430734   -0.846315    1.289443
| 46> H        -2.676080   -1.860778    0.042357
| 47> H        -3.862751   -0.621271   -0.414970
| 48> *
| 49>
| 50> $new_job
| 51> ! ri-mp2 aug-cc-pvqz aug-cc-pvqz/c tightscf
| 52> %pal nprocs 16 end
| 53> %maxcore 3800
| 54> %base "QZ_S-Cl_72_AB"
| 55>
| 56> *xyz 0 1
| 57> Cl         2.548611   -0.217008    0.883844
| 58> S         1.669764    0.361270   -0.847650
| 59> O         0.144594    0.701631   -0.369366
| 60> C        -0.762551   -0.360629   -0.270018
| 61> O        -0.455039   -1.492629   -0.508673
| 62> N        -1.967752    0.088253    0.122721
| 63> C        -2.297650    1.471484    0.397208
| 64> H        -1.419678    2.098828    0.314769
| 65> H        -2.702002    1.559112    1.407782
| 66> H        -3.055382    1.824907   -0.306184
| 67> C        -3.046158   -0.866764    0.267662
| 68> H        -3.430734   -0.846315    1.289443
| 69> H        -2.676080   -1.860778    0.042357
| 70> H        -3.862751   -0.621271   -0.414970
| 71> *
| 72>
| 73>
| 74>
| 75>
| 76>                          ****END OF INPUT****
 Total Charge           Charge          ....    0
 Multiplicity           Mult            ....    1
 Number of Electrons    NEL             ....   80
MP2 TOTAL ENERGY:    -1179.607286453 Eh
FINAL SINGLE POINT ENERGY     -1179.607286452787
MP2 TOTAL ENERGY:    -1180.009841046 Eh
FINAL SINGLE POINT ENERGY     -1180.009841046272

CARTESIAN COORDINATES (ANGSTROEM)
---------------------------------
  Cl     2.548611   -0.217008    0.883844
  S      1.669764    0.361270   -0.847650
  O      0.144594    0.701631   -0.369366
  C     -0.762551   -0.360629   -0.270018
  O     -0.455039   -1.492629   -0.508673
  N     -1.967752    0.088253    0.122721
  C     -2.297650    1.471484    0.397208
  H     -1.419678    2.098828    0.314769
  H     -2.702002    1.559112    1.407782
  H     -3.055382    1.824907   -0.306184
  C     -3.046158   -0.866764    0.267662
  H     -3.430734   -0.846315    1.289443
  H     -2.676080   -1.860778    0.042357
  H     -3.862751   -0.621271   -0.414970

 Multiplicity           Mult            ....    1
 Number of Electrons    NEL             ....   80
 Basis Dimension        Dim             ....  924

ORBITAL ENERGIES
----------------

  NO   OCC          E(Eh)            E(eV)
   0   2.0000    -104.856728     -2853.2966
   1   2.0000     -92.060654     -2505.0977
   2   2.0000     -20.638036      -561.5895
   3   2.0000     -20.537406      -558.8512
   4   2.0000     -15.605942      -424.6593
   5   2.0000     -11.415737      -310.6380
   6   2.0000     -11.274076      -306.7832
   7   2.0000     -11.267745      -306.6109
   8   2.0000     -10.581215      -287.9295
   9   2.0000      -9.052660      -246.3354
  10   2.0000      -8.048174      -219.0020
  11   2.0000      -8.046340      -218.9520
  12   2.0000      -8.046015      -218.9432
  13   2.0000      -6.733570      -183.2297
  14   2.0000      -6.732171      -183.1917
  15   2.0000      -6.730250      -183.1394
  16   2.0000      -1.483356       -40.3642
  17   2.0000      -1.381604       -37.5953
  18   2.0000      -1.275923       -34.7196
  19   2.0000      -1.140636       -31.0383
  20   2.0000      -0.995163       -27.0798
  21   2.0000      -0.983560       -26.7640
  22   2.0000      -0.906010       -24.6538
  23   2.0000      -0.769845       -20.9485
  24   2.0000      -0.742625       -20.2079
  25   2.0000      -0.697842       -18.9893
  26   2.0000      -0.692760       -18.8509
  27   2.0000      -0.640165       -17.4198
  28   2.0000      -0.623224       -16.9588
  29   2.0000      -0.611820       -16.6485
  30   2.0000      -0.579000       -15.7554
  31   2.0000      -0.572964       -15.5911
  32   2.0000      -0.550437       -14.9782
  33   2.0000      -0.546717       -14.8769
  34   2.0000      -0.512010       -13.9325
  35   2.0000      -0.487145       -13.2559
  36   2.0000      -0.477529       -12.9942
  37   2.0000      -0.465494       -12.6667
  38   2.0000      -0.396892       -10.8000
  39   2.0000      -0.365476        -9.9451
  40   0.0000       0.021117         0.5746
  41   0.0000       0.032880         0.8947
  42   0.0000       0.034281         0.9328
  43   0.0000       0.042149         1.1469
  44   0.0000       0.051244         1.3944

MULLIKEN ATOMIC CHARGES
-----------------------
   0 Cl:   -0.265215
   1 S :    0.425911
   2 O :   -0.562451
   3 C :    1.336758
   4 O :   -0.721664
   5 N :   -0.400446
   6 C :   -0.838938
   7 H :    0.342691
   8 H :    0.302367
   9 H :    0.317043
  10 C :   -0.797500
  11 H :    0.286076
  12 H :    0.293232
  13 H :    0.282134
Sum of atomic charges:    0.0000000

LOEWDIN ATOMIC CHARGES
----------------------
   0 Cl:    0.451043
   1 S :    0.049229
   2 O :    0.190658
   3 C :   -1.419312
   4 O :    0.662176
   5 N :    0.356604
   6 C :    0.766802
   7 H :   -0.362128
   8 H :   -0.279581
   9 H :   -0.274964
  10 C :    0.761180
  11 H :   -0.275845
  12 H :   -0.352017
  13 H :   -0.273845

  Mayer bond orders larger than 0.100000
B(  0-Cl,  1-S ) :   1.0507 B(  0-Cl,  2-O ) :  -0.1169 B(  1-S ,  2-O ) :   0.7066
B(  2-O ,  3-C ) :   0.9694 B(  2-O ,  5-N ) :  -0.1090 B(  3-C ,  4-O ) :   1.3919
B(  3-C ,  5-N ) :   1.3154 B(  4-O ,  5-N ) :   0.2408 B(  5-N ,  6-C ) :   0.7720
B(  5-N , 10-C ) :   0.8022 B(  6-C ,  7-H ) :   0.8907 B(  6-C ,  8-H ) :   0.9460
B(  6-C ,  9-H ) :   0.9399 B( 10-C , 11-H ) :   0.9611 B( 10-C , 12-H ) :   0.9317
B( 10-C , 13-H ) :   0.9650

MP2 TOTAL ENERGY:    -1180.139996318 Eh
FINAL SINGLE POINT ENERGY     -1180.139996318359

DIPOLE MOMENT
-------------
                                X             Y             Z
Electronic contribution:     18.88655      -1.46723      -0.86693
Nuclear contribution   :    -20.14309       2.35784       1.04454
                        -----------------------------------------
Total Dipole Moment    :     -1.25654       0.89061       0.17761
                        -----------------------------------------
Magnitude (a.u.)       :      1.55036
Magnitude (Debye)      :      3.94071

Rotational constants in cm-1:     0.101770     0.024996     0.023720
Rotational constants in MHz :  3050.979083   749.360199   711.108788

                             ****ORCA TERMINATED NORMALLY****
TOTAL RUN TIME: 0 days 1 hours 32 minutes 26 seconds 140 msec
