                         Program Version 5.0.4 -  RELEASE  -
|  1> ! ri-mp2 aug-cc-pvdz aug-cc-pvdz/c tightscf
|  2> %pal nprocs 16 end
|  3> %maxcore 3800
|  4> %base "DZ_B-S_25_AB"
|  5> %scf
|  6> STABPerform true
|  7> STABRestartUHFifUnstable true
|  8> end
|  9>
| 10> *xyz 0 1
| 11> C        -1.846795    0.108764   -0.163249
| 12> S        -0.435054   -1.045192    0.040032
| 13> B         1.040534   -0.040216   -0.043572
| 14> S         2.654945   -0.826463    0.148146
| 15> S         0.968683    1.742645   -0.331161
| 16> C        -3.015598   -0.685495   -0.722830
| 17> H        -3.309408   -1.481473   -0.036561
| 18> H        -2.768507   -1.137275   -1.682318
| 19> C        -2.197375    0.790700    1.147746
| 20> H        -1.539437    0.851933   -0.898567
| 21> H        -3.031715    1.478799    0.996753
| 22> H        -1.357340    1.358205    1.543531
| 23> H        -2.494341    0.054082    1.895153
| 24> H        -3.875439   -0.028641   -0.861747
| 25> H         2.288962    1.969849   -0.345569
| 26> H         2.225974   -2.084055    0.324912
| 27> *
| 28>
| 29> $new_job
| 30> ! ri-mp2 aug-cc-pvtz aug-cc-pvtz/c tightscf
| 31> %pal nprocs 16 end
| 32> %maxcore 3800
| 33> %base "TZ_B-S_25_AB"
| 34>
| 35> *xyz 0 1
| 36> C        -1.846795    0.108764   -0.163249
| 37> S        -0.435054   -1.045192    0.040032
| 38> B         1.040534   -0.040216   -0.043572
| 39> S         2.654945   -0.826463    0.148146
| 40> S         0.968683    1.742645   -0.331161
| 41> C        -3.015598   -0.685495   -0.722830
| 42> H        -3.309408   -1.481473   -0.036561
| 43> H        -2.768507   -1.137275   -1.682318
| 44> C        -2.197375    0.790700    1.147746
| 45> H        -1.539437    0.851933   -0.898567
| 46> H        -3.031715    1.478799    0.996753
| 47> H        -1.357340    1.358205    1.543531
| 48> H        -2.494341    0.054082    1.895153
| 49> H        -3.875439   -0.028641   -0.861747
| 50> H         2.288962    1.969849   -0.345569
| 51> H         2.225974   -2.084055    0.324912
| 52> *
| 53>
| 54> $new_job
| 55> ! ri-mp2 aug-cc-pvqz aug-cc-pvqz/c tightscf
| 56> %pal nprocs 16 end
| 57> %maxcore 3800
| 58> %base "QZ_B-S_25_AB"
| 59>
| 60> *xyz 0 1
| 61> C        -1.846795    0.108764   -0.163249
| 62> S        -0.435054   -1.045192    0.040032
| 63> B         1.040534   -0.040216   -0.043572
| 64> S         2.654945   -0.826463    0.148146
| 65> S         0.968683    1.742645   -0.331161
| 66> C        -3.015598   -0.685495   -0.722830
| 67> H        -3.309408   -1.481473   -0.036561
| 68> H        -2.768507   -1.137275   -1.682318
| 69> C        -2.197375    0.790700    1.147746
| 70> H        -1.539437    0.851933   -0.898567
| 71> H        -3.031715    1.478799    0.996753
| 72> H        -1.357340    1.358205    1.543531
| 73> H        -2.494341    0.054082    1.895153
| 74> H        -3.875439   -0.028641   -0.861747
| 75> H         2.288962    1.969849   -0.345569
| 76> H         2.225974   -2.084055    0.324912
| 77> *
| 78>
| 79>
| 80>
| 81>
| 82>                          ****END OF INPUT****
 Total Charge           Charge          ....    0
 Multiplicity           Mult            ....    1
 Number of Electrons    NEL             ....   80
MP2 TOTAL ENERGY:    -1337.212718135 Eh
FINAL SINGLE POINT ENERGY     -1337.212718134735
MP2 TOTAL ENERGY:    -1337.501994479 Eh
FINAL SINGLE POINT ENERGY     -1337.501994478870

CARTESIAN COORDINATES (ANGSTROEM)
---------------------------------
  C     -1.846795    0.108764   -0.163249
  S     -0.435054   -1.045192    0.040032
  B      1.040534   -0.040216   -0.043572
  S      2.654945   -0.826463    0.148146
  S      0.968683    1.742645   -0.331161
  C     -3.015598   -0.685495   -0.722830
  H     -3.309408   -1.481473   -0.036561
  H     -2.768507   -1.137275   -1.682318
  C     -2.197375    0.790700    1.147746
  H     -1.539437    0.851933   -0.898567
  H     -3.031715    1.478799    0.996753
  H     -1.357340    1.358205    1.543531
  H     -2.494341    0.054082    1.895153
  H     -3.875439   -0.028641   -0.861747
  H      2.288962    1.969849   -0.345569
  H      2.225974   -2.084055    0.324912

 Multiplicity           Mult            ....    1
 Number of Electrons    NEL             ....   80
 Basis Dimension        Dim             ....  986

ORBITAL ENERGIES
----------------

  NO   OCC          E(Eh)            E(eV)
   0   2.0000     -91.960225     -2502.3649
   1   2.0000     -91.956572     -2502.2655
   2   2.0000     -91.946834     -2502.0006
   3   2.0000     -11.272378      -306.7370
   4   2.0000     -11.227396      -305.5130
   5   2.0000     -11.223471      -305.4062
   6   2.0000      -8.965350      -243.9596
   7   2.0000      -8.961556      -243.8563
   8   2.0000      -8.952001      -243.5963
   9   2.0000      -7.672348      -208.7752
  10   2.0000      -6.646934      -180.8723
  11   2.0000      -6.645992      -180.8466
  12   2.0000      -6.645457      -180.8321
  13   2.0000      -6.643135      -180.7689
  14   2.0000      -6.642207      -180.7436
  15   2.0000      -6.641648      -180.7284
  16   2.0000      -6.633452      -180.5054
  17   2.0000      -6.632593      -180.4820
  18   2.0000      -6.632238      -180.4724
  19   2.0000      -1.107477       -30.1360
  20   2.0000      -1.022859       -27.8334
  21   2.0000      -0.965887       -26.2831
  22   2.0000      -0.947490       -25.7825
  23   2.0000      -0.944871       -25.7112
  24   2.0000      -0.790950       -21.5229
  25   2.0000      -0.669848       -18.2275
  26   2.0000      -0.628669       -17.1069
  27   2.0000      -0.609600       -16.5881
  28   2.0000      -0.593362       -16.1462
  29   2.0000      -0.571546       -15.5526
  30   2.0000      -0.551112       -14.9965
  31   2.0000      -0.522456       -14.2168
  32   2.0000      -0.507809       -13.8182
  33   2.0000      -0.503571       -13.7029
  34   2.0000      -0.472328       -12.8527
  35   2.0000      -0.448804       -12.2126
  36   2.0000      -0.444302       -12.0901
  37   2.0000      -0.423193       -11.5157
  38   2.0000      -0.374132       -10.1806
  39   2.0000      -0.357594        -9.7306
  40   0.0000       0.023895         0.6502
  41   0.0000       0.031011         0.8439
  42   0.0000       0.032800         0.8925
  43   0.0000       0.034012         0.9255
  44   0.0000       0.043943         1.1957

MULLIKEN ATOMIC CHARGES
-----------------------
   0 C :    0.213082
   1 S :   -0.069241
   2 B :   -0.002629
   3 S :   -0.139992
   4 S :    0.003891
   5 C :   -0.955174
   6 H :    0.244141
   7 H :    0.287391
   8 C :   -0.983438
   9 H :    0.296973
  10 H :    0.280365
  11 H :    0.318339
  12 H :    0.260966
  13 H :    0.294664
  14 H :   -0.085059
  15 H :    0.035722
Sum of atomic charges:   -0.0000000

LOEWDIN ATOMIC CHARGES
----------------------
   0 C :   -0.296122
   1 S :    1.361106
   2 B :   -2.142684
   3 S :    1.575647
   4 S :    1.634736
   5 C :    0.829102
   6 H :   -0.294586
   7 H :   -0.294372
   8 C :    0.829865
   9 H :   -0.410767
  10 H :   -0.275386
  11 H :   -0.325886
  12 H :   -0.291083
  13 H :   -0.280384
  14 H :   -0.804318
  15 H :   -0.814865

  Mayer bond orders larger than 0.100000
B(  0-C ,  1-S ) :   0.7023 B(  0-C ,  5-C ) :   0.6625 B(  0-C ,  8-C ) :   0.8515
B(  0-C ,  9-H ) :   0.8811 B(  1-S ,  2-B ) :   1.3288 B(  2-B ,  3-S ) :   1.0659
B(  2-B ,  4-S ) :   1.1738 B(  2-B , 14-H ) :  -0.1043 B(  3-S , 15-H ) :   1.0715
B(  4-S , 14-H ) :   1.1267 B(  5-C ,  6-H ) :   0.9992 B(  5-C ,  7-H ) :   0.9666
B(  5-C , 13-H ) :   0.9648 B(  8-C , 10-H ) :   0.9228 B(  8-C , 11-H ) :   0.9396
B(  8-C , 12-H ) :   0.9529

MP2 TOTAL ENERGY:    -1337.593977438 Eh
FINAL SINGLE POINT ENERGY     -1337.593977437688

DIPOLE MOMENT
-------------
                                X             Y             Z
Electronic contribution:     14.07713      -0.84446      -0.99025
Nuclear contribution   :    -14.61819       1.00544       0.96325
                        -----------------------------------------
Total Dipole Moment    :     -0.54106       0.16098      -0.02700
                        -----------------------------------------
Magnitude (a.u.)       :      0.56514
Magnitude (Debye)      :      1.43648

Rotational constants in cm-1:     0.075744     0.028923     0.023129
Rotational constants in MHz :  2270.735764   867.085109   693.398654

                             ****ORCA TERMINATED NORMALLY****
TOTAL RUN TIME: 0 days 2 hours 15 minutes 23 seconds 488 msec
