                         Program Version 5.0.4 -  RELEASE  -
|  1> ! ri-mp2 aug-cc-pvdz aug-cc-pvdz/c tightscf
|  2> %pal nprocs 16 end
|  3> %maxcore 3800
|  4> %base "DZ_P-N_62_AB"
|  5>
|  6> *xyz 0 1
|  7> C         2.299161    1.286085   -0.189937
|  8> C         1.021667    1.203337    0.333553
|  9> C         3.004104    0.129757   -0.482348
| 10> C         2.426701   -1.108311   -0.256831
| 11> C         1.143185   -1.190438    0.256583
| 12> C         0.424883   -0.035638    0.559784
| 13> H         0.693700   -2.160812    0.423308
| 14> H         4.006249    0.194003   -0.885138
| 15> H         2.975541   -2.012858   -0.482908
| 16> H         2.749059    2.254407   -0.363927
| 17> H         0.475778    2.108205    0.568442
| 18> N        -2.252085   -0.151252   -0.238620
| 19> O        -2.263317    1.147506   -0.798246
| 20> O        -1.799118   -1.035599   -1.214252
| 21> H        -0.889391   -0.771551   -1.438235
| 22> H        -3.156074    1.240301   -1.151055
| 23> P        -1.277466   -0.062910    1.222021
| 24> H        -1.347009   -1.453284    1.444690
| 25> *
| 26>
| 27> $new_job
| 28> ! ri-mp2 aug-cc-pvtz aug-cc-pvtz/c tightscf
| 29> %pal nprocs 16 end
| 30> %maxcore 3800
| 31> %base "TZ_P-N_62_AB"
| 32>
| 33> *xyz 0 1
| 34> C         2.299161    1.286085   -0.189937
| 35> C         1.021667    1.203337    0.333553
| 36> C         3.004104    0.129757   -0.482348
| 37> C         2.426701   -1.108311   -0.256831
| 38> C         1.143185   -1.190438    0.256583
| 39> C         0.424883   -0.035638    0.559784
| 40> H         0.693700   -2.160812    0.423308
| 41> H         4.006249    0.194003   -0.885138
| 42> H         2.975541   -2.012858   -0.482908
| 43> H         2.749059    2.254407   -0.363927
| 44> H         0.475778    2.108205    0.568442
| 45> N        -2.252085   -0.151252   -0.238620
| 46> O        -2.263317    1.147506   -0.798246
| 47> O        -1.799118   -1.035599   -1.214252
| 48> H        -0.889391   -0.771551   -1.438235
| 49> H        -3.156074    1.240301   -1.151055
| 50> P        -1.277466   -0.062910    1.222021
| 51> H        -1.347009   -1.453284    1.444690
| 52> *
| 53>
| 54> $new_job
| 55> ! ri-mp2 aug-cc-pvqz aug-cc-pvqz/c tightscf
| 56> %pal nprocs 16 end
| 57> %maxcore 3800
| 58> %base "QZ_P-N_62_AB"
| 59>
| 60> *xyz 0 1
| 61> C         2.299161    1.286085   -0.189937
| 62> C         1.021667    1.203337    0.333553
| 63> C         3.004104    0.129757   -0.482348
| 64> C         2.426701   -1.108311   -0.256831
| 65> C         1.143185   -1.190438    0.256583
| 66> C         0.424883   -0.035638    0.559784
| 67> H         0.693700   -2.160812    0.423308
| 68> H         4.006249    0.194003   -0.885138
| 69> H         2.975541   -2.012858   -0.482908
| 70> H         2.749059    2.254407   -0.363927
| 71> H         0.475778    2.108205    0.568442
| 72> N        -2.252085   -0.151252   -0.238620
| 73> O        -2.263317    1.147506   -0.798246
| 74> O        -1.799118   -1.035599   -1.214252
| 75> H        -0.889391   -0.771551   -1.438235
| 76> H        -3.156074    1.240301   -1.151055
| 77> P        -1.277466   -0.062910    1.222021
| 78> H        -1.347009   -1.453284    1.444690
| 79> *
| 80>
| 81>
| 82>
| 83>
| 84>                          ****END OF INPUT****
 Total Charge           Charge          ....    0
 Multiplicity           Mult            ....    1
 Number of Electrons    NEL             ....   82
MP2 TOTAL ENERGY:     -778.235327307 Eh
FINAL SINGLE POINT ENERGY      -778.235327307313
MP2 TOTAL ENERGY:     -778.655520476 Eh
FINAL SINGLE POINT ENERGY      -778.655520475895

CARTESIAN COORDINATES (ANGSTROEM)
---------------------------------
  C      2.299161    1.286085   -0.189937
  C      1.021667    1.203337    0.333553
  C      3.004104    0.129757   -0.482348
  C      2.426701   -1.108311   -0.256831
  C      1.143185   -1.190438    0.256583
  C      0.424883   -0.035638    0.559784
  H      0.693700   -2.160812    0.423308
  H      4.006249    0.194003   -0.885138
  H      2.975541   -2.012858   -0.482908
  H      2.749059    2.254407   -0.363927
  H      0.475778    2.108205    0.568442
  N     -2.252085   -0.151252   -0.238620
  O     -2.263317    1.147506   -0.798246
  O     -1.799118   -1.035599   -1.214252
  H     -0.889391   -0.771551   -1.438235
  H     -3.156074    1.240301   -1.151055
  P     -1.277466   -0.062910    1.222021
  H     -1.347009   -1.453284    1.444690

 Multiplicity           Mult            ....    1
 Number of Electrons    NEL             ....   82
 Basis Dimension        Dim             .... 1172

ORBITAL ENERGIES
----------------

  NO   OCC          E(Eh)            E(eV)
   0   2.0000     -79.966601     -2176.0019
   1   2.0000     -20.599928      -560.5525
   2   2.0000     -20.595927      -560.4437
   3   2.0000     -15.663643      -426.2294
   4   2.0000     -11.251247      -306.1620
   5   2.0000     -11.249546      -306.1157
   6   2.0000     -11.249280      -306.1085
   7   2.0000     -11.245802      -306.0138
   8   2.0000     -11.244791      -305.9863
   9   2.0000     -11.243778      -305.9588
  10   2.0000      -7.506513      -204.2626
  11   2.0000      -5.400267      -146.9487
  12   2.0000      -5.400026      -146.9422
  13   2.0000      -5.398957      -146.9131
  14   2.0000      -1.471166       -40.0325
  15   2.0000      -1.349434       -36.7200
  16   2.0000      -1.172014       -31.8921
  17   2.0000      -1.054756       -28.7014
  18   2.0000      -1.032861       -28.1056
  19   2.0000      -1.022279       -27.8176
  20   2.0000      -0.864925       -23.5358
  21   2.0000      -0.842642       -22.9295
  22   2.0000      -0.796550       -21.6752
  23   2.0000      -0.753134       -20.4938
  24   2.0000      -0.713605       -19.4182
  25   2.0000      -0.661149       -17.9908
  26   2.0000      -0.647016       -17.6062
  27   2.0000      -0.644460       -17.5367
  28   2.0000      -0.630245       -17.1498
  29   2.0000      -0.625582       -17.0229
  30   2.0000      -0.602714       -16.4007
  31   2.0000      -0.565011       -15.3747
  32   2.0000      -0.522942       -14.2300
  33   2.0000      -0.510119       -13.8811
  34   2.0000      -0.500849       -13.6288
  35   2.0000      -0.497847       -13.5471
  36   2.0000      -0.490121       -13.3369
  37   2.0000      -0.408031       -11.1031
  38   2.0000      -0.385142       -10.4803
  39   2.0000      -0.353767        -9.6265
  40   2.0000      -0.347739        -9.4624
  41   0.0000       0.021381         0.5818
  42   0.0000       0.028403         0.7729
  43   0.0000       0.031268         0.8508
  44   0.0000       0.039117         1.0644
  45   0.0000       0.043548         1.1850

MULLIKEN ATOMIC CHARGES
-----------------------
   0 C :   -0.372624
   1 C :   -0.204321
   2 C :   -0.344668
   3 C :   -0.314770
   4 C :   -0.283736
   5 C :   -0.120831
   6 H :    0.357330
   7 H :    0.350390
   8 H :    0.247149
   9 H :    0.228462
  10 H :    0.401299
  11 N :   -0.031628
  12 O :   -0.612929
  13 O :   -0.627037
  14 H :    0.371313
  15 H :    0.354642
  16 P :    0.733655
  17 H :   -0.131694
Sum of atomic charges:   -0.0000000

LOEWDIN ATOMIC CHARGES
----------------------
   0 C :    0.343536
   1 C :    0.239589
   2 C :    0.339328
   3 C :    0.344115
   4 C :    0.244274
   5 C :   -0.305391
   6 H :   -0.340644
   7 H :   -0.316892
   8 H :   -0.318790
   9 H :   -0.318765
  10 H :   -0.338612
  11 N :   -0.421568
  12 O :    0.986438
  13 O :    1.008605
  14 H :   -0.903821
  15 H :   -0.848334
  16 P :    1.052043
  17 H :   -0.445112

  Mayer bond orders larger than 0.100000
B(  0-C ,  1-C ) :   1.3262 B(  0-C ,  2-C ) :   1.1372 B(  0-C ,  3-C ) :  -0.1058
B(  0-C ,  4-C ) :   0.1332 B(  0-C ,  5-C ) :  -0.2140 B(  0-C ,  9-H ) :   1.1393
B(  1-C ,  3-C ) :   0.1292 B(  1-C ,  5-C ) :   0.9629 B(  1-C ,  9-H ) :  -0.1187
B(  1-C , 10-H ) :   0.8698 B(  1-C , 16-P ) :  -0.2391 B(  2-C ,  3-C ) :   1.1252
B(  2-C ,  4-C ) :   0.1224 B(  2-C ,  7-H ) :   0.9799 B(  3-C ,  4-C ) :   1.3382
B(  3-C ,  5-C ) :  -0.2599 B(  3-C ,  8-H ) :   1.1314 B(  4-C ,  5-C ) :   0.8173
B(  4-C ,  6-H ) :   0.9468 B(  4-C ,  8-H ) :  -0.1364 B(  4-C , 16-P ) :  -0.1088
B(  5-C , 10-H ) :  -0.1459 B(  5-C , 16-P ) :   0.9666 B(  5-C , 17-H ) :  -0.1196
B( 11-N , 12-O ) :   0.7240 B( 11-N , 13-O ) :   0.6179 B( 11-N , 16-P ) :   0.5666
B( 12-O , 15-H ) :   0.9008 B( 13-O , 14-H ) :   0.7903 B( 16-P , 17-H ) :   0.9634

MP2 TOTAL ENERGY:     -778.791908503 Eh
FINAL SINGLE POINT ENERGY      -778.791908502596

DIPOLE MOMENT
-------------
                                X             Y             Z
Electronic contribution:     -5.65177       0.62751       2.83391
Nuclear contribution   :      6.51576      -0.53010      -3.02082
                        -----------------------------------------
Total Dipole Moment    :      0.86399       0.09740      -0.18691
                        -----------------------------------------
Magnitude (a.u.)       :      0.88933
Magnitude (Debye)      :      2.26048

Rotational constants in cm-1:     0.073775     0.025089     0.023914
Rotational constants in MHz :  2211.719747   752.136883   716.917658

                             ****ORCA TERMINATED NORMALLY****
TOTAL RUN TIME: 0 days 0 hours 56 minutes 2 seconds 958 msec
