                         Program Version 5.0.4 -  RELEASE  -
|  1> ! ri-mp2 aug-cc-pvdz aug-cc-pvdz/c tightscf
|  2> %pal nprocs 16 end
|  3> %maxcore 3800
|  4> %base "DZ_B-Cl_7_AB"
|  5> %scf
|  6> STABPerform true
|  7> STABRestartUHFifUnstable true
|  8> end
|  9>
| 10> *xyz 0 1
| 11> Cl        -2.106251   -0.795551    0.000010
| 12> Cl        -0.380618    1.665656   -0.000034
| 13> B        -0.518704   -0.059618    0.000003
| 14> C         0.702178   -1.037063    0.000028
| 15> Cl         2.316601   -0.287986    0.000008
| 16> H         0.637499   -1.687804   -0.872536
| 17> H         0.637498   -1.687756    0.872628
| 18> *
| 19>
| 20> $new_job
| 21> ! ri-mp2 aug-cc-pvtz aug-cc-pvtz/c tightscf
| 22> %pal nprocs 16 end
| 23> %maxcore 3800
| 24> %base "TZ_B-Cl_7_AB"
| 25>
| 26> *xyz 0 1
| 27> Cl        -2.106251   -0.795551    0.000010
| 28> Cl        -0.380618    1.665656   -0.000034
| 29> B        -0.518704   -0.059618    0.000003
| 30> C         0.702178   -1.037063    0.000028
| 31> Cl         2.316601   -0.287986    0.000008
| 32> H         0.637499   -1.687804   -0.872536
| 33> H         0.637498   -1.687756    0.872628
| 34> *
| 35>
| 36> $new_job
| 37> ! ri-mp2 aug-cc-pvqz aug-cc-pvqz/c tightscf
| 38> %pal nprocs 16 end
| 39> %maxcore 3800
| 40> %base "QZ_B-Cl_7_AB"
| 41>
| 42> *xyz 0 1
| 43> Cl        -2.106251   -0.795551    0.000010
| 44> Cl        -0.380618    1.665656   -0.000034
| 45> B        -0.518704   -0.059618    0.000003
| 46> C         0.702178   -1.037063    0.000028
| 47> Cl         2.316601   -0.287986    0.000008
| 48> H         0.637499   -1.687804   -0.872536
| 49> H         0.637498   -1.687756    0.872628
| 50> *
| 51>
| 52>
| 53>
| 54>
| 55>                          ****END OF INPUT****
 Total Charge           Charge          ....    0
 Multiplicity           Mult            ....    1
 Number of Electrons    NEL             ....   64
MP2 TOTAL ENERGY:    -1442.997303150 Eh
FINAL SINGLE POINT ENERGY     -1442.997303149723
MP2 TOTAL ENERGY:    -1443.235710939 Eh
FINAL SINGLE POINT ENERGY     -1443.235710938613

CARTESIAN COORDINATES (ANGSTROEM)
---------------------------------
  Cl    -2.106251   -0.795551    0.000010
  Cl    -0.380618    1.665656   -0.000034
  B     -0.518704   -0.059618    0.000003
  C      0.702178   -1.037063    0.000028
  Cl     2.316601   -0.287986    0.000008
  H      0.637499   -1.687804   -0.872536
  H      0.637498   -1.687756    0.872628

 Multiplicity           Mult            ....    1
 Number of Electrons    NEL             ....   64
 Basis Dimension        Dim             ....  504

ORBITAL ENERGIES
----------------

  NO   OCC          E(Eh)            E(eV)
   0   2.0000    -104.854057     -2853.2239
   1   2.0000    -104.852520     -2853.1821
   2   2.0000    -104.834784     -2852.6995
   3   2.0000     -11.294817      -307.3476
   4   2.0000     -10.581874      -287.9474
   5   2.0000     -10.580431      -287.9082
   6   2.0000     -10.560295      -287.3602
   7   2.0000      -8.048695      -219.0161
   8   2.0000      -8.047612      -218.9867
   9   2.0000      -8.047366      -218.9800
  10   2.0000      -8.047250      -218.9768
  11   2.0000      -8.046173      -218.9475
  12   2.0000      -8.045859      -218.9390
  13   2.0000      -8.027413      -218.4370
  14   2.0000      -8.025636      -218.3887
  15   2.0000      -8.025632      -218.3886
  16   2.0000      -7.726442      -210.2472
  17   2.0000      -1.166594       -31.7446
  18   2.0000      -1.133307       -30.8388
  19   2.0000      -1.113412       -30.2975
  20   2.0000      -0.935840       -25.4655
  21   2.0000      -0.696283       -18.9468
  22   2.0000      -0.638394       -17.3716
  23   2.0000      -0.616366       -16.7722
  24   2.0000      -0.597106       -16.2481
  25   2.0000      -0.545960       -14.8563
  26   2.0000      -0.523498       -14.2451
  27   2.0000      -0.483908       -13.1678
  28   2.0000      -0.480049       -13.0628
  29   2.0000      -0.466589       -12.6965
  30   2.0000      -0.445006       -12.1092
  31   2.0000      -0.437406       -11.9024
  32   0.0000       0.023759         0.6465
  33   0.0000       0.033643         0.9155
  34   0.0000       0.037040         1.0079
  35   0.0000       0.040276         1.0960
  36   0.0000       0.058385         1.5887

MULLIKEN ATOMIC CHARGES
-----------------------
   0 Cl:   -0.189478
   1 Cl:   -0.178993
   2 B :    0.559595
   3 C :   -0.557347
   4 Cl:   -0.269643
   5 H :    0.317934
   6 H :    0.317932
Sum of atomic charges:    0.0000000

LOEWDIN ATOMIC CHARGES
----------------------
   0 Cl:    1.272454
   1 Cl:    1.265146
   2 B :   -2.477907
   3 C :   -0.272370
   4 Cl:    1.119612
   5 H :   -0.453468
   6 H :   -0.453467

  Mayer bond orders larger than 0.100000
B(  0-Cl,  2-B ) :   1.0882 B(  1-Cl,  2-B ) :   1.1181 B(  2-B ,  3-C ) :   0.9917
B(  3-C ,  4-Cl) :   0.9029 B(  3-C ,  5-H ) :   0.8434 B(  3-C ,  6-H ) :   0.8434

MP2 TOTAL ENERGY:    -1443.315492190 Eh
FINAL SINGLE POINT ENERGY     -1443.315492190118

DIPOLE MOMENT
-------------
                                X             Y             Z
Electronic contribution:     -2.06179       3.30057      -0.00009
Nuclear contribution   :      1.77420      -3.81153       0.00010
                        -----------------------------------------
Total Dipole Moment    :     -0.28759      -0.51097       0.00002
                        -----------------------------------------
Magnitude (a.u.)       :      0.58634
Magnitude (Debye)      :      1.49035

Rotational constants in cm-1:     0.117223     0.046329     0.033407
Rotational constants in MHz :  3514.243311  1388.898850  1001.525778

                             ****ORCA TERMINATED NORMALLY****
TOTAL RUN TIME: 0 days 0 hours 12 minutes 46 seconds 514 msec
