                         Program Version 5.0.4 -  RELEASE  -
|  1> ! ri-mp2 aug-cc-pvdz aug-cc-pvdz/c tightscf
|  2> %pal nprocs 16 end
|  3> %maxcore 3800
|  4> %base "DZ_P-Cl_14_AB"
|  5>
|  6> *xyz 0 1
|  7> C         0.872380   -1.149569    0.594452
|  8> C        -1.056344   -0.375924    0.123757
|  9> C        -2.702258    0.961762    1.241775
| 10> C        -3.166265    0.078403   -1.018801
| 11> H        -3.549148    1.045868   -1.346875
| 12> H        -2.674273   -0.408690   -1.853125
| 13> H        -3.267203    1.842441    0.936317
| 14> H        -1.854788    1.266184    1.848707
| 15> N        -0.243425   -0.443003    1.114659
| 16> N         0.531444   -1.555835   -0.767953
| 17> N        -0.577634   -1.085465   -1.047055
| 18> P         2.424827   -0.097994    0.617723
| 19> N        -2.226877    0.271475    0.064840
| 20> Cl         1.883126    1.382014   -0.709222
| 21> H        -4.013184   -0.535921   -0.698002
| 22> H        -3.352144    0.321980    1.847065
| 23> H         3.115018   -0.911450   -0.311559
| 24> H         1.140547   -2.042980    1.169862
| 25> *
| 26>
| 27> $new_job
| 28> ! ri-mp2 aug-cc-pvtz aug-cc-pvtz/c tightscf
| 29> %pal nprocs 16 end
| 30> %maxcore 3800
| 31> %base "TZ_P-Cl_14_AB"
| 32>
| 33> *xyz 0 1
| 34> C         0.872380   -1.149569    0.594452
| 35> C        -1.056344   -0.375924    0.123757
| 36> C        -2.702258    0.961762    1.241775
| 37> C        -3.166265    0.078403   -1.018801
| 38> H        -3.549148    1.045868   -1.346875
| 39> H        -2.674273   -0.408690   -1.853125
| 40> H        -3.267203    1.842441    0.936317
| 41> H        -1.854788    1.266184    1.848707
| 42> N        -0.243425   -0.443003    1.114659
| 43> N         0.531444   -1.555835   -0.767953
| 44> N        -0.577634   -1.085465   -1.047055
| 45> P         2.424827   -0.097994    0.617723
| 46> N        -2.226877    0.271475    0.064840
| 47> Cl         1.883126    1.382014   -0.709222
| 48> H        -4.013184   -0.535921   -0.698002
| 49> H        -3.352144    0.321980    1.847065
| 50> H         3.115018   -0.911450   -0.311559
| 51> H         1.140547   -2.042980    1.169862
| 52> *
| 53>
| 54> $new_job
| 55> ! ri-mp2 aug-cc-pvqz aug-cc-pvqz/c tightscf
| 56> %pal nprocs 16 end
| 57> %maxcore 3800
| 58> %base "QZ_P-Cl_14_AB"
| 59>
| 60> *xyz 0 1
| 61> C         0.872380   -1.149569    0.594452
| 62> C        -1.056344   -0.375924    0.123757
| 63> C        -2.702258    0.961762    1.241775
| 64> C        -3.166265    0.078403   -1.018801
| 65> H        -3.549148    1.045868   -1.346875
| 66> H        -2.674273   -0.408690   -1.853125
| 67> H        -3.267203    1.842441    0.936317
| 68> H        -1.854788    1.266184    1.848707
| 69> N        -0.243425   -0.443003    1.114659
| 70> N         0.531444   -1.555835   -0.767953
| 71> N        -0.577634   -1.085465   -1.047055
| 72> P         2.424827   -0.097994    0.617723
| 73> N        -2.226877    0.271475    0.064840
| 74> Cl         1.883126    1.382014   -0.709222
| 75> H        -4.013184   -0.535921   -0.698002
| 76> H        -3.352144    0.321980    1.847065
| 77> H         3.115018   -0.911450   -0.311559
| 78> H         1.140547   -2.042980    1.169862
| 79> *
| 80>
| 81>
| 82>
| 83>
| 84>                          ****END OF INPUT****
 Total Charge           Charge          ....    0
 Multiplicity           Mult            ....    1
 Number of Electrons    NEL             ....   92
MP2 TOTAL ENERGY:    -1175.698933786 Eh
FINAL SINGLE POINT ENERGY     -1175.698933785526
MP2 TOTAL ENERGY:    -1176.126615788 Eh
FINAL SINGLE POINT ENERGY     -1176.126615788392

CARTESIAN COORDINATES (ANGSTROEM)
---------------------------------
  C      0.872380   -1.149569    0.594452
  C     -1.056344   -0.375924    0.123757
  C     -2.702258    0.961762    1.241775
  C     -3.166265    0.078403   -1.018801
  H     -3.549148    1.045868   -1.346875
  H     -2.674273   -0.408690   -1.853125
  H     -3.267203    1.842441    0.936317
  H     -1.854788    1.266184    1.848707
  N     -0.243425   -0.443003    1.114659
  N      0.531444   -1.555835   -0.767953
  N     -0.577634   -1.085465   -1.047055
  P      2.424827   -0.097994    0.617723
  N     -2.226877    0.271475    0.064840
  Cl     1.883126    1.382014   -0.709222
  H     -4.013184   -0.535921   -0.698002
  H     -3.352144    0.321980    1.847065
  H      3.115018   -0.911450   -0.311559
  H      1.140547   -2.042980    1.169862

 Multiplicity           Mult            ....    1
 Number of Electrons    NEL             ....   92
 Basis Dimension        Dim             .... 1176

ORBITAL ENERGIES
----------------

  NO   OCC          E(Eh)            E(eV)
   0   2.0000    -104.832751     -2852.6442
   1   2.0000     -80.001853     -2176.9611
   2   2.0000     -15.645940      -425.7477
   3   2.0000     -15.634911      -425.4476
   4   2.0000     -15.598134      -424.4468
   5   2.0000     -15.545156      -423.0052
   6   2.0000     -11.348696      -308.8137
   7   2.0000     -11.307141      -307.6829
   8   2.0000     -11.267973      -306.6171
   9   2.0000     -11.263844      -306.5048
  10   2.0000     -10.559071      -287.3269
  11   2.0000      -8.025961      -218.3975
  12   2.0000      -8.024519      -218.3583
  13   2.0000      -8.024401      -218.3550
  14   2.0000      -7.539576      -205.1623
  15   2.0000      -5.433001      -147.8395
  16   2.0000      -5.432139      -147.8160
  17   2.0000      -5.431119      -147.7883
  18   2.0000      -1.432117       -38.9699
  19   2.0000      -1.295890       -35.2630
  20   2.0000      -1.210919       -32.9508
  21   2.0000      -1.113329       -30.2952
  22   2.0000      -1.055151       -28.7121
  23   2.0000      -0.989564       -26.9274
  24   2.0000      -0.934075       -25.4175
  25   2.0000      -0.871460       -23.7136
  26   2.0000      -0.799786       -21.7633
  27   2.0000      -0.775580       -21.1046
  28   2.0000      -0.723881       -19.6978
  29   2.0000      -0.679243       -18.4831
  30   2.0000      -0.652861       -17.7652
  31   2.0000      -0.633386       -17.2353
  32   2.0000      -0.607891       -16.5416
  33   2.0000      -0.578747       -15.7485
  34   2.0000      -0.568446       -15.4682
  35   2.0000      -0.564200       -15.3527
  36   2.0000      -0.550936       -14.9917
  37   2.0000      -0.546954       -14.8834
  38   2.0000      -0.507559       -13.8114
  39   2.0000      -0.492165       -13.3925
  40   2.0000      -0.468768       -12.7558
  41   2.0000      -0.455699       -12.4002
  42   2.0000      -0.451559       -12.2875
  43   2.0000      -0.431741       -11.7483
  44   2.0000      -0.379409       -10.3242
  45   2.0000      -0.346464        -9.4278
  46   0.0000       0.022735         0.6187
  47   0.0000       0.027552         0.7497
  48   0.0000       0.034808         0.9472
  49   0.0000       0.036386         0.9901
  50   0.0000       0.044550         1.2123

MULLIKEN ATOMIC CHARGES
-----------------------
   0 C :    0.171534
   1 C :    0.884979
   2 C :   -0.960542
   3 C :   -0.923572
   4 H :    0.298040
   5 H :    0.345120
   6 H :    0.316884
   7 H :    0.305178
   8 N :   -0.716753
   9 N :   -0.164265
  10 N :   -0.332653
  11 P :    0.611960
  12 N :   -0.338897
  13 Cl:   -0.493214
  14 H :    0.321764
  15 H :    0.326907
  16 H :   -0.086626
  17 H :    0.434158
Sum of atomic charges:   -0.0000000

LOEWDIN ATOMIC CHARGES
----------------------
   0 C :   -0.712837
   1 C :   -0.826035
   2 C :    0.768294
   3 C :    0.774468
   4 H :   -0.281786
   5 H :   -0.352344
   6 H :   -0.286123
   7 H :   -0.326332
   8 N :    0.489342
   9 N :    0.272773
  10 N :    0.350984
  11 P :    0.454234
  12 N :    0.407012
  13 Cl:    0.730970
  14 H :   -0.266694
  15 H :   -0.261303
  16 H :   -0.527011
  17 H :   -0.407610

  Mayer bond orders larger than 0.100000
B(  0-C ,  8-N ) :   0.8772 B(  0-C ,  9-N ) :   0.8320 B(  0-C , 11-P ) :   0.7191
B(  0-C , 13-Cl) :  -0.1862 B(  0-C , 17-H ) :   0.7611 B(  1-C ,  8-N ) :   1.4791
B(  1-C , 10-N ) :   0.9773 B(  1-C , 12-N ) :   1.0243 B(  1-C , 13-Cl) :   0.1412
B(  2-C ,  6-H ) :   0.9460 B(  2-C ,  7-H ) :   0.9080 B(  2-C , 12-N ) :   0.8004
B(  2-C , 15-H ) :   0.9456 B(  3-C ,  4-H ) :   0.9689 B(  3-C ,  5-H ) :   0.8905
B(  3-C , 12-N ) :   0.8082 B(  3-C , 14-H ) :   0.9394 B(  8-N ,  9-N ) :   0.1219
B(  8-N , 12-N ) :   0.1121 B(  9-N , 10-N ) :   1.2500 B( 11-P , 13-Cl) :   0.7796
B( 11-P , 16-H ) :   0.9513

MP2 TOTAL ENERGY:    -1176.265428298 Eh
FINAL SINGLE POINT ENERGY     -1176.265428297949

DIPOLE MOMENT
-------------
                                X             Y             Z
Electronic contribution:     17.93961       1.12914      -1.65633
Nuclear contribution   :    -18.84301      -1.28011       1.94978
                        -----------------------------------------
Total Dipole Moment    :     -0.90340      -0.15097       0.29345
                        -----------------------------------------
Magnitude (a.u.)       :      0.96179
Magnitude (Debye)      :      2.44467

Rotational constants in cm-1:     0.059525     0.020823     0.019806
Rotational constants in MHz :  1784.501788   624.252884   593.767615

                             ****ORCA TERMINATED NORMALLY****
TOTAL RUN TIME: 0 days 0 hours 44 minutes 8 seconds 639 msec
