                         Program Version 5.0.4 -  RELEASE  -
|  1> ! ri-mp2 aug-cc-pvdz aug-cc-pvdz/c tightscf
|  2> %pal nprocs 16 end
|  3> %maxcore 3800
|  4> %base "DZ_B-Si_76_AB"
|  5>
|  6> *xyz 0 1
|  7> C         0.193597   -0.455490    0.262987
|  8> B        -2.831679    0.375956   -0.293270
|  9> N        -2.289960    1.502927   -0.886139
| 10> H        -1.297046    1.670614   -0.939355
| 11> H        -2.844707    2.229409   -1.308546
| 12> C         1.013342   -1.063205   -0.686173
| 13> C         2.306828   -0.619682   -0.908734
| 14> C         2.808220    0.447494   -0.183444
| 15> C         2.010941    1.067322    0.764717
| 16> C         0.719100    0.618947    0.981910
| 17> H         0.112341    1.112934    1.732707
| 18> H         0.638281   -1.902253   -1.259786
| 19> H         2.925802   -1.110579   -1.648526
| 20> H         3.819049    0.794028   -0.353962
| 21> H         2.398212    1.898999    1.338996
| 22> Si        -1.589139   -0.990183    0.511257
| 23> H        -1.847809   -1.147381    1.965606
| 24> H        -1.758578   -2.324347   -0.117843
| 25> H        -4.021652    0.268562   -0.285134
| 26> *
| 27>
| 28> $new_job
| 29> ! ri-mp2 aug-cc-pvtz aug-cc-pvtz/c tightscf
| 30> %pal nprocs 16 end
| 31> %maxcore 3800
| 32> %base "TZ_B-Si_76_AB"
| 33>
| 34> *xyz 0 1
| 35> C         0.193597   -0.455490    0.262987
| 36> B        -2.831679    0.375956   -0.293270
| 37> N        -2.289960    1.502927   -0.886139
| 38> H        -1.297046    1.670614   -0.939355
| 39> H        -2.844707    2.229409   -1.308546
| 40> C         1.013342   -1.063205   -0.686173
| 41> C         2.306828   -0.619682   -0.908734
| 42> C         2.808220    0.447494   -0.183444
| 43> C         2.010941    1.067322    0.764717
| 44> C         0.719100    0.618947    0.981910
| 45> H         0.112341    1.112934    1.732707
| 46> H         0.638281   -1.902253   -1.259786
| 47> H         2.925802   -1.110579   -1.648526
| 48> H         3.819049    0.794028   -0.353962
| 49> H         2.398212    1.898999    1.338996
| 50> Si        -1.589139   -0.990183    0.511257
| 51> H        -1.847809   -1.147381    1.965606
| 52> H        -1.758578   -2.324347   -0.117843
| 53> H        -4.021652    0.268562   -0.285134
| 54> *
| 55>
| 56> $new_job
| 57> ! ri-mp2 aug-cc-pvqz aug-cc-pvqz/c tightscf
| 58> %pal nprocs 16 end
| 59> %maxcore 3800
| 60> %base "QZ_B-Si_76_AB"
| 61>
| 62> *xyz 0 1
| 63> C         0.193597   -0.455490    0.262987
| 64> B        -2.831679    0.375956   -0.293270
| 65> N        -2.289960    1.502927   -0.886139
| 66> H        -1.297046    1.670614   -0.939355
| 67> H        -2.844707    2.229409   -1.308546
| 68> C         1.013342   -1.063205   -0.686173
| 69> C         2.306828   -0.619682   -0.908734
| 70> C         2.808220    0.447494   -0.183444
| 71> C         2.010941    1.067322    0.764717
| 72> C         0.719100    0.618947    0.981910
| 73> H         0.112341    1.112934    1.732707
| 74> H         0.638281   -1.902253   -1.259786
| 75> H         2.925802   -1.110579   -1.648526
| 76> H         3.819049    0.794028   -0.353962
| 77> H         2.398212    1.898999    1.338996
| 78> Si        -1.589139   -0.990183    0.511257
| 79> H        -1.847809   -1.147381    1.965606
| 80> H        -1.758578   -2.324347   -0.117843
| 81> H        -4.021652    0.268562   -0.285134
| 82> *
| 83>
| 84>
| 85>
| 86>
| 87>                          ****END OF INPUT****
 Total Charge           Charge          ....    0
 Multiplicity           Mult            ....    1
 Number of Electrons    NEL             ....   72
MP2 TOTAL ENERGY:     -602.351693441 Eh
FINAL SINGLE POINT ENERGY      -602.351693440950
MP2 TOTAL ENERGY:     -602.664700028 Eh
FINAL SINGLE POINT ENERGY      -602.664700027670

CARTESIAN COORDINATES (ANGSTROEM)
---------------------------------
  C      0.193597   -0.455490    0.262987
  B     -2.831679    0.375956   -0.293270
  N     -2.289960    1.502927   -0.886139
  H     -1.297046    1.670614   -0.939355
  H     -2.844707    2.229409   -1.308546
  C      1.013342   -1.063205   -0.686173
  C      2.306828   -0.619682   -0.908734
  C      2.808220    0.447494   -0.183444
  C      2.010941    1.067322    0.764717
  C      0.719100    0.618947    0.981910
  H      0.112341    1.112934    1.732707
  H      0.638281   -1.902253   -1.259786
  H      2.925802   -1.110579   -1.648526
  H      3.819049    0.794028   -0.353962
  H      2.398212    1.898999    1.338996
  Si    -1.589139   -0.990183    0.511257
  H     -1.847809   -1.147381    1.965606
  H     -1.758578   -2.324347   -0.117843
  H     -4.021652    0.268562   -0.285134

 Multiplicity           Mult            ....    1
 Number of Electrons    NEL             ....   72
 Basis Dimension        Dim             .... 1184

ORBITAL ENERGIES
----------------

  NO   OCC          E(Eh)            E(eV)
   0   2.0000     -68.742489     -1870.5782
   1   2.0000     -15.559969      -423.4083
   2   2.0000     -11.235670      -305.7381
   3   2.0000     -11.235326      -305.7288
   4   2.0000     -11.234341      -305.7020
   5   2.0000     -11.233088      -305.6679
   6   2.0000     -11.232130      -305.6418
   7   2.0000     -11.218367      -305.2673
   8   2.0000      -7.581854      -206.3127
   9   2.0000      -6.094130      -165.8297
  10   2.0000      -4.200560      -114.3031
  11   2.0000      -4.200275      -114.2953
  12   2.0000      -4.199817      -114.2828
  13   2.0000      -1.165606       -31.7177
  14   2.0000      -1.154565       -31.4173
  15   2.0000      -1.018127       -27.7046
  16   2.0000      -1.015935       -27.6450
  17   2.0000      -0.826505       -22.4903
  18   2.0000      -0.825806       -22.4713
  19   2.0000      -0.741194       -20.1689
  20   2.0000      -0.708870       -19.2893
  21   2.0000      -0.688701       -18.7405
  22   2.0000      -0.661461       -17.9993
  23   2.0000      -0.626238       -17.0408
  24   2.0000      -0.624958       -17.0060
  25   2.0000      -0.588467       -16.0130
  26   2.0000      -0.553386       -15.0584
  27   2.0000      -0.527791       -14.3619
  28   2.0000      -0.509127       -13.8540
  29   2.0000      -0.493279       -13.4228
  30   2.0000      -0.469732       -12.7821
  31   2.0000      -0.444889       -12.1060
  32   2.0000      -0.439345       -11.9552
  33   2.0000      -0.399836       -10.8801
  34   2.0000      -0.340776        -9.2730
  35   2.0000      -0.333442        -9.0734
  36   0.0000       0.020433         0.5560
  37   0.0000       0.026022         0.7081
  38   0.0000       0.028969         0.7883
  39   0.0000       0.032172         0.8755
  40   0.0000       0.037428         1.0185

MULLIKEN ATOMIC CHARGES
-----------------------
   0 C :    0.149213
   1 B :    0.707356
   2 N :   -0.822407
   3 H :    0.385250
   4 H :    0.158873
   5 C :   -0.522633
   6 C :   -0.301047
   7 C :   -0.415779
   8 C :   -0.242209
   9 C :   -0.376141
  10 H :    0.323690
  11 H :    0.335850
  12 H :    0.255768
  13 H :    0.352383
  14 H :    0.248059
  15 Si:    0.668481
  16 H :   -0.190290
  17 H :   -0.247963
  18 H :   -0.466456
Sum of atomic charges:   -0.0000000

LOEWDIN ATOMIC CHARGES
----------------------
   0 C :   -0.126134
   1 B :   -0.216623
   2 N :    1.295967
   3 H :   -0.531222
   4 H :   -0.494997
   5 C :    0.255829
   6 C :    0.336973
   7 C :    0.332826
   8 C :    0.337273
   9 C :    0.246513
  10 H :   -0.328566
  11 H :   -0.341091
  12 H :   -0.320116
  13 H :   -0.320556
  14 H :   -0.319723
  15 Si:    0.871336
  16 H :   -0.227515
  17 H :   -0.225754
  18 H :   -0.224422

  Mayer bond orders larger than 0.100000
B(  0-C ,  5-C ) :   0.8530 B(  0-C ,  6-C ) :  -0.3132 B(  0-C ,  8-C ) :  -0.2721
B(  0-C ,  9-C ) :   0.9617 B(  0-C , 10-H ) :  -0.1372 B(  0-C , 11-H ) :  -0.1262
B(  0-C , 15-Si) :   0.9527 B(  0-C , 17-H ) :  -0.1275 B(  1-B ,  2-N ) :   1.1702
B(  1-B , 15-Si) :   0.7465 B(  1-B , 18-H ) :   0.7571 B(  2-N ,  3-H ) :   0.8384
B(  2-N ,  4-H ) :   1.0796 B(  5-C ,  6-C ) :   1.3548 B(  5-C ,  7-C ) :   0.1770
B(  5-C ,  8-C ) :   0.1418 B(  5-C , 11-H ) :   0.9282 B(  5-C , 12-H ) :  -0.1496
B(  5-C , 15-Si) :  -0.1683 B(  6-C ,  7-C ) :   1.1538 B(  6-C ,  8-C ) :  -0.1138
B(  6-C ,  9-C ) :   0.1475 B(  6-C , 12-H ) :   1.1179 B(  7-C ,  8-C ) :   1.1508
B(  7-C ,  9-C ) :   0.1252 B(  7-C , 13-H ) :   0.9682 B(  8-C ,  9-C ) :   1.2533
B(  8-C , 14-H ) :   1.1256 B(  9-C , 10-H ) :   0.9508 B(  9-C , 14-H ) :  -0.1456
B(  9-C , 15-Si) :  -0.1625 B( 15-Si, 16-H ) :   0.6881 B( 15-Si, 17-H ) :   0.6811

MP2 TOTAL ENERGY:     -602.764501118 Eh
FINAL SINGLE POINT ENERGY      -602.764501117892

DIPOLE MOMENT
-------------
                                X             Y             Z
Electronic contribution:     -0.19095      -0.53719       0.27058
Nuclear contribution   :      0.48932       1.25757      -0.67663
                        -----------------------------------------
Total Dipole Moment    :      0.29837       0.72038      -0.40604
                        -----------------------------------------
Magnitude (a.u.)       :      0.87912
Magnitude (Debye)      :      2.23454

Rotational constants in cm-1:     0.085260     0.028570     0.026066
Rotational constants in MHz :  2556.031996   856.514985   781.426660

                             ****ORCA TERMINATED NORMALLY****
TOTAL RUN TIME: 0 days 0 hours 42 minutes 17 seconds 746 msec
