                         Program Version 5.0.4 -  RELEASE  -
|  1> ! ri-mp2 aug-cc-pvdz aug-cc-pvdz/c tightscf
|  2> %pal nprocs 16 end
|  3> %maxcore 3800
|  4> %base "DZ_B-Si_43_AB"
|  5> %scf
|  6> STABPerform true
|  7> STABRestartUHFifUnstable true
|  8> end
|  9>
| 10> *xyz 0 1
| 11> C         1.227580   -0.343257    0.484478
| 12> B        -1.822590    0.295290   -0.015696
| 13> O        -3.138477   -0.033762   -0.034944
| 14> O        -1.496523    1.622125   -0.012289
| 15> C         2.220317   -0.061757   -0.353823
| 16> C         3.506488    0.603962    0.008790
| 17> H         2.119543   -0.340287   -1.400997
| 18> H         3.540690    0.857626    1.067834
| 19> H         3.650531    1.518005   -0.572040
| 20> H         4.354316   -0.046493   -0.218284
| 21> H        -3.717460    0.738378   -0.050809
| 22> H        -0.549338    1.787546    0.002672
| 23> Si        -0.383396   -1.135130   -0.017967
| 24> H        -0.212894   -1.688630   -1.384547
| 25> H        -0.715925   -2.250434    0.899361
| 26> H         1.364721   -0.060931    1.528020
| 27> *
| 28>
| 29> $new_job
| 30> ! ri-mp2 aug-cc-pvtz aug-cc-pvtz/c tightscf
| 31> %pal nprocs 16 end
| 32> %maxcore 3800
| 33> %base "TZ_B-Si_43_AB"
| 34>
| 35> *xyz 0 1
| 36> C         1.227580   -0.343257    0.484478
| 37> B        -1.822590    0.295290   -0.015696
| 38> O        -3.138477   -0.033762   -0.034944
| 39> O        -1.496523    1.622125   -0.012289
| 40> C         2.220317   -0.061757   -0.353823
| 41> C         3.506488    0.603962    0.008790
| 42> H         2.119543   -0.340287   -1.400997
| 43> H         3.540690    0.857626    1.067834
| 44> H         3.650531    1.518005   -0.572040
| 45> H         4.354316   -0.046493   -0.218284
| 46> H        -3.717460    0.738378   -0.050809
| 47> H        -0.549338    1.787546    0.002672
| 48> Si        -0.383396   -1.135130   -0.017967
| 49> H        -0.212894   -1.688630   -1.384547
| 50> H        -0.715925   -2.250434    0.899361
| 51> H         1.364721   -0.060931    1.528020
| 52> *
| 53>
| 54> $new_job
| 55> ! ri-mp2 aug-cc-pvqz aug-cc-pvqz/c tightscf
| 56> %pal nprocs 16 end
| 57> %maxcore 3800
| 58> %base "QZ_B-Si_43_AB"
| 59>
| 60> *xyz 0 1
| 61> C         1.227580   -0.343257    0.484478
| 62> B        -1.822590    0.295290   -0.015696
| 63> O        -3.138477   -0.033762   -0.034944
| 64> O        -1.496523    1.622125   -0.012289
| 65> C         2.220317   -0.061757   -0.353823
| 66> C         3.506488    0.603962    0.008790
| 67> H         2.119543   -0.340287   -1.400997
| 68> H         3.540690    0.857626    1.067834
| 69> H         3.650531    1.518005   -0.572040
| 70> H         4.354316   -0.046493   -0.218284
| 71> H        -3.717460    0.738378   -0.050809
| 72> H        -0.549338    1.787546    0.002672
| 73> Si        -0.383396   -1.135130   -0.017967
| 74> H        -0.212894   -1.688630   -1.384547
| 75> H        -0.715925   -2.250434    0.899361
| 76> H         1.364721   -0.060931    1.528020
| 77> *
| 78>
| 79>
| 80>
| 81>
| 82>                          ****END OF INPUT****
 Total Charge           Charge          ....    0
 Multiplicity           Mult            ....    1
 Number of Electrons    NEL             ....   62
MP2 TOTAL ENERGY:     -583.325914530 Eh
FINAL SINGLE POINT ENERGY      -583.325914529652
MP2 TOTAL ENERGY:     -583.626841377 Eh
FINAL SINGLE POINT ENERGY      -583.626841377111

CARTESIAN COORDINATES (ANGSTROEM)
---------------------------------
  C      1.227580   -0.343257    0.484478
  B     -1.822590    0.295290   -0.015696
  O     -3.138477   -0.033762   -0.034944
  O     -1.496523    1.622125   -0.012289
  C      2.220317   -0.061757   -0.353823
  C      3.506488    0.603962    0.008790
  H      2.119543   -0.340287   -1.400997
  H      3.540690    0.857626    1.067834
  H      3.650531    1.518005   -0.572040
  H      4.354316   -0.046493   -0.218284
  H     -3.717460    0.738378   -0.050809
  H     -0.549338    1.787546    0.002672
  Si    -0.383396   -1.135130   -0.017967
  H     -0.212894   -1.688630   -1.384547
  H     -0.715925   -2.250434    0.899361
  H      1.364721   -0.060931    1.528020

 Multiplicity           Mult            ....    1
 Number of Electrons    NEL             ....   62
 Basis Dimension        Dim             ....  978

ORBITAL ENERGIES
----------------

  NO   OCC          E(Eh)            E(eV)
   0   2.0000     -68.748323     -1870.7370
   1   2.0000     -20.570061      -559.7398
   2   2.0000     -20.563791      -559.5692
   3   2.0000     -11.248250      -306.0804
   4   2.0000     -11.228623      -305.5464
   5   2.0000     -11.211750      -305.0872
   6   2.0000      -7.632928      -207.7025
   7   2.0000      -6.099796      -165.9839
   8   2.0000      -4.206249      -114.4579
   9   2.0000      -4.205994      -114.4509
  10   2.0000      -4.205656      -114.4417
  11   2.0000      -1.385476       -37.7007
  12   2.0000      -1.344559       -36.5873
  13   2.0000      -1.076599       -29.2957
  14   2.0000      -0.942188       -25.6382
  15   2.0000      -0.778635       -21.1877
  16   2.0000      -0.765175       -20.8215
  17   2.0000      -0.736214       -20.0334
  18   2.0000      -0.697358       -18.9761
  19   2.0000      -0.613232       -16.6869
  20   2.0000      -0.596389       -16.2286
  21   2.0000      -0.587678       -15.9915
  22   2.0000      -0.577421       -15.7124
  23   2.0000      -0.572845       -15.5879
  24   2.0000      -0.562976       -15.3194
  25   2.0000      -0.520317       -14.1585
  26   2.0000      -0.501433       -13.6447
  27   2.0000      -0.469265       -12.7693
  28   2.0000      -0.451056       -12.2738
  29   2.0000      -0.420838       -11.4516
  30   2.0000      -0.361957        -9.8493
  31   0.0000       0.021437         0.5833
  32   0.0000       0.028515         0.7759
  33   0.0000       0.031083         0.8458
  34   0.0000       0.033228         0.9042
  35   0.0000       0.041719         1.1352

MULLIKEN ATOMIC CHARGES
-----------------------
   0 C :   -0.806513
   1 B :    1.367962
   2 O :   -1.056092
   3 O :   -1.136037
   4 C :   -0.265108
   5 C :   -0.709845
   6 H :    0.422505
   7 H :    0.221560
   8 H :    0.246642
   9 H :    0.262409
  10 H :    0.333153
  11 H :    0.397388
  12 Si:    0.702921
  13 H :   -0.161796
  14 H :   -0.182807
  15 H :    0.363658
Sum of atomic charges:   -0.0000000

LOEWDIN ATOMIC CHARGES
----------------------
   0 C :    0.313419
   1 B :   -1.192894
   2 O :    1.273604
   3 O :    1.311861
   4 C :    0.280366
   5 C :    0.891978
   6 H :   -0.344998
   7 H :   -0.315712
   8 H :   -0.293658
   9 H :   -0.292562
  10 H :   -0.809255
  11 H :   -0.836460
  12 Si:    0.888424
  13 H :   -0.230158
  14 H :   -0.242952
  15 H :   -0.401004

  Mayer bond orders larger than 0.100000
B(  0-C ,  4-C ) :   1.4864 B(  0-C , 12-Si) :   0.8941 B(  0-C , 15-H ) :   0.8360
B(  1-B ,  2-O ) :   0.4525 B(  1-B ,  3-O ) :   0.4243 B(  1-B , 12-Si) :   0.7246
B(  2-O ,  3-O ) :  -0.1351 B(  2-O , 10-H ) :   0.9311 B(  2-O , 12-Si) :  -0.1258
B(  3-O , 11-H ) :   0.8775 B(  4-C ,  5-C ) :   0.8131 B(  4-C ,  6-H ) :   0.7725
B(  4-C , 12-Si) :  -0.1479 B(  5-C ,  7-H ) :   0.9598 B(  5-C ,  8-H ) :   0.9790
B(  5-C ,  9-H ) :   0.9877 B( 12-Si, 13-H ) :   0.7479 B( 12-Si, 14-H ) :   0.7270

MP2 TOTAL ENERGY:     -583.723466099 Eh
FINAL SINGLE POINT ENERGY      -583.723466098612

DIPOLE MOMENT
-------------
                                X             Y             Z
Electronic contribution:    -10.55955       0.22542       0.11089
Nuclear contribution   :     11.29587       0.37220      -0.11624
                        -----------------------------------------
Total Dipole Moment    :      0.73632       0.59761      -0.00535
                        -----------------------------------------
Magnitude (a.u.)       :      0.94833
Magnitude (Debye)      :      2.41047

Rotational constants in cm-1:     0.149312     0.031403     0.027025
Rotational constants in MHz :  4476.255899   941.451550   810.176305

                             ****ORCA TERMINATED NORMALLY****
TOTAL RUN TIME: 0 days 1 hours 50 minutes 7 seconds 440 msec
