                         Program Version 5.0.4 -  RELEASE  -
|  1> ! ri-mp2 aug-cc-pvdz aug-cc-pvdz/c tightscf
|  2> %pal nprocs 16 end
|  3> %maxcore 3800
|  4> %base "DZ_B-Cl_78_AB"
|  5> %scf
|  6> STABPerform true
|  7> STABRestartUHFifUnstable true
|  8> end
|  9>
| 10> *xyz 0 1
| 11> Cl         1.709525    1.525395    0.000002
| 12> Cl         1.709526   -1.525395    0.000002
| 13> N        -0.542784   -0.000000   -0.000005
| 14> C        -2.575519    0.000001    1.277278
| 15> C        -1.787404   -0.000000   -0.000002
| 16> C        -2.575523   -0.000001   -1.277280
| 17> B         0.806562   -0.000000   -0.000000
| 18> H        -1.915899    0.000000    2.139946
| 19> H        -3.223671   -0.877570    1.314142
| 20> H        -3.223669    0.877573    1.314142
| 21> H        -1.915906   -0.000001   -2.139950
| 22> H        -3.223675    0.877570   -1.314143
| 23> H        -3.223674   -0.877573   -1.314142
| 24> *
| 25>
| 26> $new_job
| 27> ! ri-mp2 aug-cc-pvtz aug-cc-pvtz/c tightscf
| 28> %pal nprocs 16 end
| 29> %maxcore 3800
| 30> %base "TZ_B-Cl_78_AB"
| 31>
| 32> *xyz 0 1
| 33> Cl         1.709525    1.525395    0.000002
| 34> Cl         1.709526   -1.525395    0.000002
| 35> N        -0.542784   -0.000000   -0.000005
| 36> C        -2.575519    0.000001    1.277278
| 37> C        -1.787404   -0.000000   -0.000002
| 38> C        -2.575523   -0.000001   -1.277280
| 39> B         0.806562   -0.000000   -0.000000
| 40> H        -1.915899    0.000000    2.139946
| 41> H        -3.223671   -0.877570    1.314142
| 42> H        -3.223669    0.877573    1.314142
| 43> H        -1.915906   -0.000001   -2.139950
| 44> H        -3.223675    0.877570   -1.314143
| 45> H        -3.223674   -0.877573   -1.314142
| 46> *
| 47>
| 48> $new_job
| 49> ! ri-mp2 aug-cc-pvqz aug-cc-pvqz/c tightscf
| 50> %pal nprocs 16 end
| 51> %maxcore 3800
| 52> %base "QZ_B-Cl_78_AB"
| 53>
| 54> *xyz 0 1
| 55> Cl         1.709525    1.525395    0.000002
| 56> Cl         1.709526   -1.525395    0.000002
| 57> N        -0.542784   -0.000000   -0.000005
| 58> C        -2.575519    0.000001    1.277278
| 59> C        -1.787404   -0.000000   -0.000002
| 60> C        -2.575523   -0.000001   -1.277280
| 61> B         0.806562   -0.000000   -0.000000
| 62> H        -1.915899    0.000000    2.139946
| 63> H        -3.223671   -0.877570    1.314142
| 64> H        -3.223669    0.877573    1.314142
| 65> H        -1.915906   -0.000001   -2.139950
| 66> H        -3.223675    0.877570   -1.314143
| 67> H        -3.223674   -0.877573   -1.314142
| 68> *
| 69>
| 70>
| 71>
| 72>
| 73>                          ****END OF INPUT****
 Total Charge           Charge          ....    0
 Multiplicity           Mult            ....    1
 Number of Electrons    NEL             ....   70
MP2 TOTAL ENERGY:    -1116.355875766 Eh
FINAL SINGLE POINT ENERGY     -1116.355875765555
MP2 TOTAL ENERGY:    -1116.654518852 Eh
FINAL SINGLE POINT ENERGY     -1116.654518851768

CARTESIAN COORDINATES (ANGSTROEM)
---------------------------------
  Cl     1.709525    1.525395    0.000002
  Cl     1.709526   -1.525395    0.000002
  N     -0.542784   -0.000000   -0.000005
  C     -2.575519    0.000001    1.277278
  C     -1.787404   -0.000000   -0.000002
  C     -2.575523   -0.000001   -1.277280
  B      0.806562   -0.000000   -0.000000
  H     -1.915899    0.000000    2.139946
  H     -3.223671   -0.877570    1.314142
  H     -3.223669    0.877573    1.314142
  H     -1.915906   -0.000001   -2.139950
  H     -3.223675    0.877570   -1.314143
  H     -3.223674   -0.877573   -1.314142

 Multiplicity           Mult            ....    1
 Number of Electrons    NEL             ....   70
 Basis Dimension        Dim             ....  844

ORBITAL ENERGIES
----------------

  NO   OCC          E(Eh)            E(eV)
   0   2.0000    -104.816624     -2852.2054
   1   2.0000    -104.816624     -2852.2053
   2   2.0000     -15.563010      -423.4910
   3   2.0000     -11.333968      -308.4129
   4   2.0000     -11.247689      -306.0652
   5   2.0000     -11.247668      -306.0646
   6   2.0000     -10.544250      -286.9236
   7   2.0000     -10.544242      -286.9234
   8   2.0000      -8.011153      -217.9946
   9   2.0000      -8.011152      -217.9945
  10   2.0000      -8.009983      -217.9627
  11   2.0000      -8.009981      -217.9627
  12   2.0000      -8.009873      -217.9597
  13   2.0000      -8.009872      -217.9597
  14   2.0000      -7.697914      -209.4709
  15   2.0000      -1.255744       -34.1705
  16   2.0000      -1.116276       -30.3754
  17   2.0000      -1.074821       -29.2474
  18   2.0000      -1.042578       -28.3700
  19   2.0000      -0.980677       -26.6856
  20   2.0000      -0.848052       -23.0767
  21   2.0000      -0.690398       -18.7867
  22   2.0000      -0.644300       -17.5323
  23   2.0000      -0.637251       -17.3405
  24   2.0000      -0.613431       -16.6923
  25   2.0000      -0.580111       -15.7856
  26   2.0000      -0.571540       -15.5524
  27   2.0000      -0.566341       -15.4109
  28   2.0000      -0.547885       -14.9087
  29   2.0000      -0.504000       -13.7145
  30   2.0000      -0.466095       -12.6831
  31   2.0000      -0.452837       -12.3223
  32   2.0000      -0.448162       -12.1951
  33   2.0000      -0.425237       -11.5713
  34   2.0000      -0.391617       -10.6564
  35   0.0000       0.018217         0.4957
  36   0.0000       0.028320         0.7706
  37   0.0000       0.031730         0.8634
  38   0.0000       0.037584         1.0227
  39   0.0000       0.050381         1.3709

MULLIKEN ATOMIC CHARGES
-----------------------
   0 Cl:   -0.304743
   1 Cl:   -0.304744
   2 N :   -0.831943
   3 C :   -0.821201
   4 C :    0.722719
   5 C :   -0.821201
   6 B :    0.708809
   7 H :    0.291100
   8 H :    0.267525
   9 H :    0.267526
  10 H :    0.291100
  11 H :    0.267527
  12 H :    0.267527
Sum of atomic charges:    0.0000000

LOEWDIN ATOMIC CHARGES
----------------------
   0 Cl:    1.171585
   1 Cl:    1.171584
   2 N :    0.445955
   3 C :    0.919890
   4 C :   -0.308261
   5 C :    0.919890
   6 B :   -2.593532
   7 H :   -0.300074
   8 H :   -0.281741
   9 H :   -0.281741
  10 H :   -0.300075
  11 H :   -0.281741
  12 H :   -0.281740

  Mayer bond orders larger than 0.100000
B(  0-Cl,  2-N ) :   0.1112 B(  0-Cl,  6-B ) :   0.9066 B(  1-Cl,  2-N ) :   0.1112
B(  1-Cl,  6-B ) :   0.9066 B(  2-N ,  4-C ) :   1.5829 B(  2-N ,  6-B ) :   1.3820
B(  3-C ,  4-C ) :   0.7958 B(  3-C ,  7-H ) :   0.9757 B(  3-C ,  8-H ) :   0.9263
B(  3-C ,  9-H ) :   0.9263 B(  4-C ,  5-C ) :   0.7958 B(  5-C , 10-H ) :   0.9757
B(  5-C , 11-H ) :   0.9263 B(  5-C , 12-H ) :   0.9263

MP2 TOTAL ENERGY:    -1116.751633718 Eh
FINAL SINGLE POINT ENERGY     -1116.751633718123

DIPOLE MOMENT
-------------
                                X             Y             Z
Electronic contribution:     19.22220       0.00000       0.00001
Nuclear contribution   :    -21.24664      -0.00000      -0.00001
                        -----------------------------------------
Total Dipole Moment    :     -2.02443       0.00000       0.00000
                        -----------------------------------------
Magnitude (a.u.)       :      2.02443
Magnitude (Debye)      :      5.14570

Rotational constants in cm-1:     0.075433     0.032592     0.026761
Rotational constants in MHz :  2261.438132   977.088654   802.271626

                             ****ORCA TERMINATED NORMALLY****
TOTAL RUN TIME: 0 days 0 hours 46 minutes 19 seconds 969 msec
