                         Program Version 5.0.4 -  RELEASE  -
|  1> ! ri-mp2 aug-cc-pvdz aug-cc-pvdz/c tightscf
|  2> %pal nprocs 16 end
|  3> %maxcore 3800
|  4> %base "DZ_P-Si_26_AB"
|  5> %scf
|  6> STABPerform true
|  7> STABRestartUHFifUnstable true
|  8> end
|  9>
| 10> *xyz 0 1
| 11> Si        -0.657597    0.014275    0.861081
| 12> C         0.464483   -1.474004    0.662477
| 13> C         1.413340   -1.290373   -0.530004
| 14> C         2.244019   -0.009423   -0.461101
| 15> C         1.428464    1.280036   -0.547996
| 16> C         0.477405    1.489472    0.637230
| 17> P        -2.328458   -0.109734   -0.656529
| 18> H        -0.111543   -2.395315    0.559524
| 19> H         1.052740   -1.579180    1.579556
| 20> H         0.838860   -1.288088   -1.461867
| 21> H         2.086689   -2.147977   -0.596018
| 22> H         2.973642   -0.019281   -1.273582
| 23> H         2.822207   -0.006986    0.469438
| 24> H         0.855932    1.272325   -1.480697
| 25> H         2.111705    2.129102   -0.622637
| 26> H         1.062271    1.603306    1.556102
| 27> H        -0.091204    2.413243    0.517369
| 28> H        -1.528381    0.246021   -1.768195
| 29> H        -2.785452    1.211530   -0.438093
| 30> H        -1.320511    0.033212    2.188271
| 31> *
| 32>
| 33> $new_job
| 34> ! ri-mp2 aug-cc-pvtz aug-cc-pvtz/c tightscf
| 35> %pal nprocs 16 end
| 36> %maxcore 3800
| 37> %base "TZ_P-Si_26_AB"
| 38>
| 39> *xyz 0 1
| 40> Si        -0.657597    0.014275    0.861081
| 41> C         0.464483   -1.474004    0.662477
| 42> C         1.413340   -1.290373   -0.530004
| 43> C         2.244019   -0.009423   -0.461101
| 44> C         1.428464    1.280036   -0.547996
| 45> C         0.477405    1.489472    0.637230
| 46> P        -2.328458   -0.109734   -0.656529
| 47> H        -0.111543   -2.395315    0.559524
| 48> H         1.052740   -1.579180    1.579556
| 49> H         0.838860   -1.288088   -1.461867
| 50> H         2.086689   -2.147977   -0.596018
| 51> H         2.973642   -0.019281   -1.273582
| 52> H         2.822207   -0.006986    0.469438
| 53> H         0.855932    1.272325   -1.480697
| 54> H         2.111705    2.129102   -0.622637
| 55> H         1.062271    1.603306    1.556102
| 56> H        -0.091204    2.413243    0.517369
| 57> H        -1.528381    0.246021   -1.768195
| 58> H        -2.785452    1.211530   -0.438093
| 59> H        -1.320511    0.033212    2.188271
| 60> *
| 61>
| 62> $new_job
| 63> ! ri-mp2 aug-cc-pvqz aug-cc-pvqz/c tightscf
| 64> %pal nprocs 16 end
| 65> %maxcore 3800
| 66> %base "QZ_P-Si_26_AB"
| 67>
| 68> *xyz 0 1
| 69> Si        -0.657597    0.014275    0.861081
| 70> C         0.464483   -1.474004    0.662477
| 71> C         1.413340   -1.290373   -0.530004
| 72> C         2.244019   -0.009423   -0.461101
| 73> C         1.428464    1.280036   -0.547996
| 74> C         0.477405    1.489472    0.637230
| 75> P        -2.328458   -0.109734   -0.656529
| 76> H        -0.111543   -2.395315    0.559524
| 77> H         1.052740   -1.579180    1.579556
| 78> H         0.838860   -1.288088   -1.461867
| 79> H         2.086689   -2.147977   -0.596018
| 80> H         2.973642   -0.019281   -1.273582
| 81> H         2.822207   -0.006986    0.469438
| 82> H         0.855932    1.272325   -1.480697
| 83> H         2.111705    2.129102   -0.622637
| 84> H         1.062271    1.603306    1.556102
| 85> H        -0.091204    2.413243    0.517369
| 86> H        -1.528381    0.246021   -1.768195
| 87> H        -2.785452    1.211530   -0.438093
| 88> H        -1.320511    0.033212    2.188271
| 89> *
| 90>
| 91>
| 92>
| 93>
| 94>                          ****END OF INPUT****
 Total Charge           Charge          ....    0
 Multiplicity           Mult            ....    1
 Number of Electrons    NEL             ....   72
MP2 TOTAL ENERGY:     -827.597105824 Eh
FINAL SINGLE POINT ENERGY      -827.597105824180
MP2 TOTAL ENERGY:     -827.865525392 Eh
FINAL SINGLE POINT ENERGY      -827.865525392307

CARTESIAN COORDINATES (ANGSTROEM)
---------------------------------
  Si    -0.657597    0.014275    0.861081
  C      0.464483   -1.474004    0.662477
  C      1.413340   -1.290373   -0.530004
  C      2.244019   -0.009423   -0.461101
  C      1.428464    1.280036   -0.547996
  C      0.477405    1.489472    0.637230
  P     -2.328458   -0.109734   -0.656529
  H     -0.111543   -2.395315    0.559524
  H      1.052740   -1.579180    1.579556
  H      0.838860   -1.288088   -1.461867
  H      2.086689   -2.147977   -0.596018
  H      2.973642   -0.019281   -1.273582
  H      2.822207   -0.006986    0.469438
  H      0.855932    1.272325   -1.480697
  H      2.111705    2.129102   -0.622637
  H      1.062271    1.603306    1.556102
  H     -0.091204    2.413243    0.517369
  H     -1.528381    0.246021   -1.768195
  H     -2.785452    1.211530   -0.438093
  H     -1.320511    0.033212    2.188271

 Multiplicity           Mult            ....    1
 Number of Electrons    NEL             ....   72
 Basis Dimension        Dim             .... 1166

ORBITAL ENERGIES
----------------

  NO   OCC          E(Eh)            E(eV)
   0   2.0000     -79.921545     -2174.7758
   1   2.0000     -68.759262     -1871.0346
   2   2.0000     -11.223498      -305.4069
   3   2.0000     -11.223094      -305.3959
   4   2.0000     -11.218345      -305.2667
   5   2.0000     -11.205160      -304.9079
   6   2.0000     -11.204250      -304.8831
   7   2.0000      -7.466617      -203.1770
   8   2.0000      -6.109183      -166.2393
   9   2.0000      -5.360559      -145.8682
  10   2.0000      -5.360171      -145.8577
  11   2.0000      -5.359582      -145.8416
  12   2.0000      -4.215705      -114.7152
  13   2.0000      -4.215188      -114.7011
  14   2.0000      -4.214880      -114.6927
  15   2.0000      -1.092441       -29.7268
  16   2.0000      -1.007037       -27.4029
  17   2.0000      -0.938639       -25.5417
  18   2.0000      -0.839723       -22.8500
  19   2.0000      -0.829096       -22.5609
  20   2.0000      -0.778750       -21.1909
  21   2.0000      -0.666942       -18.1484
  22   2.0000      -0.630570       -17.1587
  23   2.0000      -0.602470       -16.3941
  24   2.0000      -0.594603       -16.1800
  25   2.0000      -0.556856       -15.1528
  26   2.0000      -0.540819       -14.7164
  27   2.0000      -0.521302       -14.1853
  28   2.0000      -0.501889       -13.6571
  29   2.0000      -0.487225       -13.2581
  30   2.0000      -0.483980       -13.1698
  31   2.0000      -0.467906       -12.7324
  32   2.0000      -0.432053       -11.7568
  33   2.0000      -0.429673       -11.6920
  34   2.0000      -0.397940       -10.8285
  35   2.0000      -0.352858        -9.6017
  36   0.0000       0.021562         0.5867
  37   0.0000       0.029826         0.8116
  38   0.0000       0.030268         0.8236
  39   0.0000       0.033335         0.9071
  40   0.0000       0.044672         1.2156

MULLIKEN ATOMIC CHARGES
-----------------------
   0 Si:    1.335333
   1 C :   -0.798881
   2 C :   -0.399833
   3 C :   -0.440456
   4 C :   -0.410906
   5 C :   -0.683695
   6 P :    0.031563
   7 H :    0.244952
   8 H :    0.179178
   9 H :    0.219096
  10 H :    0.259078
  11 H :    0.242590
  12 H :    0.222689
  13 H :    0.211639
  14 H :    0.259040
  15 H :    0.150113
  16 H :    0.251535
  17 H :   -0.077722
  18 H :   -0.098798
  19 H :   -0.696514
Sum of atomic charges:   -0.0000000

LOEWDIN ATOMIC CHARGES
----------------------
   0 Si:    0.236413
   1 C :    0.527071
   2 C :    0.465229
   3 C :    0.511362
   4 C :    0.464970
   5 C :    0.539593
   6 P :    1.492672
   7 H :   -0.328213
   8 H :   -0.324533
   9 H :   -0.284777
  10 H :   -0.264765
  11 H :   -0.263832
  12 H :   -0.265797
  13 H :   -0.290760
  14 H :   -0.264730
  15 H :   -0.324391
  16 H :   -0.326928
  17 H :   -0.541876
  18 H :   -0.545311
  19 H :   -0.211398

  Mayer bond orders larger than 0.100000
B(  0-Si,  1-C ) :   0.7312 B(  0-Si,  5-C ) :   0.7757 B(  0-Si,  6-P ) :   0.8847
B(  0-Si, 19-H ) :   0.3550 B(  1-C ,  2-C ) :   0.9038 B(  1-C ,  7-H ) :   0.9947
B(  1-C ,  8-H ) :   0.9843 B(  2-C ,  3-C ) :   0.8459 B(  2-C ,  9-H ) :   0.9345
B(  2-C , 10-H ) :   0.9403 B(  3-C ,  4-C ) :   0.8584 B(  3-C , 11-H ) :   0.9694
B(  3-C , 12-H ) :   0.9499 B(  4-C ,  5-C ) :   0.9100 B(  4-C , 13-H ) :   0.9281
B(  4-C , 14-H ) :   0.9378 B(  5-C , 15-H ) :   1.0035 B(  5-C , 16-H ) :   0.9725
B(  6-P , 17-H ) :   0.9109 B(  6-P , 18-H ) :   0.9137

MP2 TOTAL ENERGY:     -827.947452160 Eh
FINAL SINGLE POINT ENERGY      -827.947452159606

DIPOLE MOMENT
-------------
                                X             Y             Z
Electronic contribution:     -9.82018      -1.38102       0.25757
Nuclear contribution   :     10.45660       1.61133      -0.20234
                        -----------------------------------------
Total Dipole Moment    :      0.63642       0.23031       0.05524
                        -----------------------------------------
Magnitude (a.u.)       :      0.67906
Magnitude (Debye)      :      1.72603

Rotational constants in cm-1:     0.085142     0.041148     0.036743
Rotational constants in MHz :  2552.495591  1233.585468  1101.514024

                             ****ORCA TERMINATED NORMALLY****
TOTAL RUN TIME: 0 days 3 hours 41 minutes 8 seconds 869 msec
