                         Program Version 5.0.4 -  RELEASE  -
|  1> ! ri-mp2 aug-cc-pvdz aug-cc-pvdz/c tightscf
|  2> %pal nprocs 16 end
|  3> %maxcore 3800
|  4> %base "DZ_B-Cl_33_A"
|  5> %scf
|  6> STABPerform true
|  7> STABRestartUHFifUnstable true
|  8> end
|  9>
| 10> *xyz 0 2
| 11> Cl         0.000000    0.000000    1.682021
| 12> B         0.000000    0.000000   -0.001929
| 13> N         0.000000    0.000000   -1.253882
| 14> O         0.000000    0.000000   -2.475941
| 15> *
| 16>
| 17> $new_job
| 18> ! ri-mp2 aug-cc-pvtz aug-cc-pvtz/c tightscf
| 19> %pal nprocs 16 end
| 20> %maxcore 3800
| 21> %base "TZ_B-Cl_33_A"
| 22>
| 23> *xyz 0 2
| 24> Cl         0.000000    0.000000    1.682021
| 25> B         0.000000    0.000000   -0.001929
| 26> N         0.000000    0.000000   -1.253882
| 27> O         0.000000    0.000000   -2.475941
| 28> *
| 29>
| 30> $new_job
| 31> ! ri-mp2 aug-cc-pvqz aug-cc-pvqz/c tightscf
| 32> %pal nprocs 16 end
| 33> %maxcore 3800
| 34> %base "QZ_B-Cl_33_A"
| 35>
| 36> *xyz 0 2
| 37> Cl         0.000000    0.000000    1.682021
| 38> B         0.000000    0.000000   -0.001929
| 39> N         0.000000    0.000000   -1.253882
| 40> O         0.000000    0.000000   -2.475941
| 41> *
| 42>
| 43>
| 44>
| 45>
| 46>                          ****END OF INPUT****
 Total Charge           Charge          ....    0
 Multiplicity           Mult            ....    2
 Number of Electrons    NEL             ....   37
MP2 TOTAL ENERGY:     -614.015501833 Eh
FINAL SINGLE POINT ENERGY      -614.015501833452
MP2 TOTAL ENERGY:     -614.200121644 Eh
FINAL SINGLE POINT ENERGY      -614.200121643595

CARTESIAN COORDINATES (ANGSTROEM)
---------------------------------
  Cl     0.000000    0.000000    1.682021
  B      0.000000    0.000000   -0.001929
  N      0.000000    0.000000   -1.253882
  O      0.000000    0.000000   -2.475941

 Multiplicity           Mult            ....    2
 Number of Electrons    NEL             ....   37
 Basis Dimension        Dim             ....  324

ORBITAL ENERGIES
----------------
                 SPIN UP ORBITALS
  NO   OCC          E(Eh)            E(eV)
   0   1.0000    -104.890291     -2854.2099
   1   1.0000     -20.664798      -562.3178
   2   1.0000     -15.644297      -425.7030
   3   1.0000     -10.617089      -288.9057
   4   1.0000      -8.083805      -219.9715
   5   1.0000      -8.083275      -219.9571
   6   1.0000      -8.082482      -219.9355
   7   1.0000      -7.699938      -209.5260
   8   1.0000      -1.530455       -41.6458
   9   1.0000      -1.169548       -31.8250
  10   1.0000      -1.083520       -29.4841
  11   1.0000      -0.763339       -20.7715
  12   1.0000      -0.731212       -19.8973
  13   1.0000      -0.676327       -18.4038
  14   1.0000      -0.657303       -17.8861
  15   1.0000      -0.548604       -14.9283
  16   1.0000      -0.541474       -14.7343
  17   1.0000      -0.416392       -11.3306
  18   1.0000      -0.383388       -10.4325
  19   0.0000       0.026717         0.7270
  20   0.0000       0.036787         1.0010
  21   0.0000       0.037649         1.0245
  22   0.0000       0.041485         1.1289
  23   0.0000       0.086532         2.3546

                 SPIN DOWN ORBITALS
  NO   OCC          E(Eh)            E(eV)
   0   1.0000    -104.890079     -2854.2042
   1   1.0000     -20.629959      -561.3697
   2   1.0000     -15.646209      -425.7550
   3   1.0000     -10.616864      -288.8996
   4   1.0000      -8.084344      -219.9862
   5   1.0000      -8.082344      -219.9318
   6   1.0000      -8.081791      -219.9167
   7   1.0000      -7.695940      -209.4172
   8   1.0000      -1.457319       -39.6557
   9   1.0000      -1.167038       -31.7567
  10   1.0000      -1.034163       -28.1410
  11   1.0000      -0.725318       -19.7369
  12   1.0000      -0.657370       -17.8879
  13   1.0000      -0.654228       -17.8025
  14   1.0000      -0.560000       -15.2384
  15   1.0000      -0.538459       -14.6522
  16   1.0000      -0.512378       -13.9425
  17   1.0000      -0.366975        -9.9859
  18   0.0000       0.027156         0.7390
  19   0.0000       0.036702         0.9987
  20   0.0000       0.037627         1.0239
  21   0.0000       0.041647         1.1333
  22   0.0000       0.048236         1.3126

MULLIKEN ATOMIC CHARGES AND SPIN POPULATIONS
--------------------------------------------
   0 Cl:   -0.214633    0.015527
   1 B :    0.540771    0.196930
   2 N :    0.176387   -0.027328
   3 O :   -0.502525    0.814870
Sum of atomic charges         :   -0.0000000

LOEWDIN ATOMIC CHARGES AND SPIN POPULATIONS
-------------------------------------------
   0 Cl:    1.271692    0.044726
   1 B :   -1.480694    0.131211
   2 N :   -0.179218    0.215676
   3 O :    0.388220    0.608387

  Mayer bond orders larger than 0.100000
B(  0-Cl,  1-B ) :   1.1829 B(  1-B ,  2-N ) :   2.0868 B(  1-B ,  3-O ) :   0.1793
B(  2-N ,  3-O ) :   1.0234

MP2 TOTAL ENERGY:     -614.262617301 Eh
FINAL SINGLE POINT ENERGY      -614.262617300613

DIPOLE MOMENT
-------------
                                X             Y             Z
Electronic contribution:     -0.00000       0.00000       3.10548
Nuclear contribution   :      0.00000       0.00000      -2.23331
                        -----------------------------------------
Total Dipole Moment    :     -0.00000       0.00000       0.87216
                        -----------------------------------------
Magnitude (a.u.)       :      0.87216
Magnitude (Debye)      :      2.21686

Rotational constants in cm-1:     0.000000     0.076512     0.076512
Rotational constants in MHz :     0.000000  2293.778798  2293.778798

                             ****ORCA TERMINATED NORMALLY****
TOTAL RUN TIME: 0 days 0 hours 4 minutes 58 seconds 30 msec
