                         Program Version 5.0.4 -  RELEASE  -
|  1> ! ri-mp2 aug-cc-pvdz aug-cc-pvdz/c tightscf
|  2> %pal nprocs 16 end
|  3> %maxcore 3800
|  4> %base "DZ_B-S_18_A"
|  5> %scf
|  6> STABPerform true
|  7> STABRestartUHFifUnstable true
|  8> end
|  9>
| 10> *xyz 0 2
| 11> B         0.139997   -0.394069   -0.200280
| 12> C        -1.129833    0.483083   -0.105286
| 13> C        -2.455103   -0.249872    0.107457
| 14> H        -2.456368   -0.792377    1.052978
| 15> H        -2.631183   -0.976268   -0.685461
| 16> H        -3.294596    0.446057    0.122088
| 17> S         1.844185   -0.099771    0.029873
| 18> H        -1.166220    1.037602   -1.052619
| 19> H        -0.990849    1.249204    0.667771
| 20> H         1.841887    1.203197    0.405637
| 21> *
| 22>
| 23> $new_job
| 24> ! ri-mp2 aug-cc-pvtz aug-cc-pvtz/c tightscf
| 25> %pal nprocs 16 end
| 26> %maxcore 3800
| 27> %base "TZ_B-S_18_A"
| 28>
| 29> *xyz 0 2
| 30> B         0.139997   -0.394069   -0.200280
| 31> C        -1.129833    0.483083   -0.105286
| 32> C        -2.455103   -0.249872    0.107457
| 33> H        -2.456368   -0.792377    1.052978
| 34> H        -2.631183   -0.976268   -0.685461
| 35> H        -3.294596    0.446057    0.122088
| 36> S         1.844185   -0.099771    0.029873
| 37> H        -1.166220    1.037602   -1.052619
| 38> H        -0.990849    1.249204    0.667771
| 39> H         1.841887    1.203197    0.405637
| 40> *
| 41>
| 42> $new_job
| 43> ! ri-mp2 aug-cc-pvqz aug-cc-pvqz/c tightscf
| 44> %pal nprocs 16 end
| 45> %maxcore 3800
| 46> %base "QZ_B-S_18_A"
| 47>
| 48> *xyz 0 2
| 49> B         0.139997   -0.394069   -0.200280
| 50> C        -1.129833    0.483083   -0.105286
| 51> C        -2.455103   -0.249872    0.107457
| 52> H        -2.456368   -0.792377    1.052978
| 53> H        -2.631183   -0.976268   -0.685461
| 54> H        -3.294596    0.446057    0.122088
| 55> S         1.844185   -0.099771    0.029873
| 56> H        -1.166220    1.037602   -1.052619
| 57> H        -0.990849    1.249204    0.667771
| 58> H         1.841887    1.203197    0.405637
| 59> *
| 60>
| 61>
| 62>
| 63>
| 64>                          ****END OF INPUT****
 Total Charge           Charge          ....    0
 Multiplicity           Mult            ....    2
 Number of Electrons    NEL             ....   39
MP2 TOTAL ENERGY:     -501.937305572 Eh
FINAL SINGLE POINT ENERGY      -501.937305571712
MP2 TOTAL ENERGY:     -502.085832427 Eh
FINAL SINGLE POINT ENERGY      -502.085832426827

CARTESIAN COORDINATES (ANGSTROEM)
---------------------------------
  B      0.139997   -0.394069   -0.200280
  C     -1.129833    0.483083   -0.105286
  C     -2.455103   -0.249872    0.107457
  H     -2.456368   -0.792377    1.052978
  H     -2.631183   -0.976268   -0.685461
  H     -3.294596    0.446057    0.122088
  S      1.844185   -0.099771    0.029873
  H     -1.166220    1.037602   -1.052619
  H     -0.990849    1.249204    0.667771
  H      1.841887    1.203197    0.405637

 Multiplicity           Mult            ....    2
 Number of Electrons    NEL             ....   39
 Basis Dimension        Dim             ....  600

ORBITAL ENERGIES
----------------
                 SPIN UP ORBITALS
  NO   OCC          E(Eh)            E(eV)
   0   1.0000     -91.960553     -2502.3739
   1   1.0000     -11.218838      -305.2801
   2   1.0000     -11.215952      -305.2016
   3   1.0000      -8.965425      -243.9616
   4   1.0000      -7.635611      -207.7755
   5   1.0000      -6.646105      -180.8497
   6   1.0000      -6.645566      -180.8351
   7   1.0000      -6.645008      -180.8199
   8   1.0000      -1.037003       -28.2183
   9   1.0000      -0.991171       -26.9711
  10   1.0000      -0.856993       -23.3200
  11   1.0000      -0.654272       -17.8036
  12   1.0000      -0.611221       -16.6322
  13   1.0000      -0.594480       -16.1766
  14   1.0000      -0.543512       -14.7897
  15   1.0000      -0.504764       -13.7353
  16   1.0000      -0.502063       -13.6618
  17   1.0000      -0.451234       -12.2787
  18   1.0000      -0.400436       -10.8964
  19   1.0000      -0.322344        -8.7714
  20   0.0000       0.024520         0.6672
  21   0.0000       0.032723         0.8904
  22   0.0000       0.035129         0.9559
  23   0.0000       0.035549         0.9673
  24   0.0000       0.050940         1.3862

                 SPIN DOWN ORBITALS
  NO   OCC          E(Eh)            E(eV)
   0   1.0000     -91.960918     -2502.3838
   1   1.0000     -11.218243      -305.2639
   2   1.0000     -11.216141      -305.2067
   3   1.0000      -8.965389      -243.9606
   4   1.0000      -7.617439      -207.2810
   5   1.0000      -6.647803      -180.8959
   6   1.0000      -6.646143      -180.8508
   7   1.0000      -6.645916      -180.8446
   8   1.0000      -1.031325       -28.0638
   9   1.0000      -0.983476       -26.7617
  10   1.0000      -0.853494       -23.2248
  11   1.0000      -0.616341       -16.7715
  12   1.0000      -0.609510       -16.5856
  13   1.0000      -0.584700       -15.9105
  14   1.0000      -0.533778       -14.5248
  15   1.0000      -0.501036       -13.6339
  16   1.0000      -0.496036       -13.4978
  17   1.0000      -0.444795       -12.1035
  18   1.0000      -0.401476       -10.9247
  19   0.0000       0.020945         0.5699
  20   0.0000       0.033141         0.9018
  21   0.0000       0.035202         0.9579
  22   0.0000       0.035358         0.9621
  23   0.0000       0.050689         1.3793

MULLIKEN ATOMIC CHARGES AND SPIN POPULATIONS
--------------------------------------------
   0 B :    0.082538    1.073167
   1 C :   -0.556537   -0.054367
   2 C :   -0.799627   -0.006064
   3 H :    0.256766   -0.007211
   4 H :    0.263821   -0.004273
   5 H :    0.262724    0.004403
   6 S :   -0.131493   -0.120646
   7 H :    0.269180   -0.004774
   8 H :    0.272798    0.030619
   9 H :    0.079828    0.089146
Sum of atomic charges         :   -0.0000000

LOEWDIN ATOMIC CHARGES AND SPIN POPULATIONS
-------------------------------------------
   0 B :   -0.689913    0.533001
   1 C :    0.488219    0.158461
   2 C :    0.877460    0.036998
   3 H :   -0.292200    0.008177
   4 H :   -0.297924    0.014969
   5 H :   -0.285971    0.002842
   6 S :    1.627789    0.170126
   7 H :   -0.325588    0.017243
   8 H :   -0.327889    0.019793
   9 H :   -0.773983    0.038390

  Mayer bond orders larger than 0.100000
B(  0-B ,  1-C ) :   1.0244 B(  0-B ,  6-S ) :   1.2922 B(  1-C ,  2-C ) :   0.9639
B(  1-C ,  7-H ) :   0.8554 B(  1-C ,  8-H ) :   0.8580 B(  2-C ,  3-H ) :   0.9314
B(  2-C ,  4-H ) :   0.9292 B(  2-C ,  5-H ) :   0.9473 B(  6-S ,  9-H ) :   0.9791

MP2 TOTAL ENERGY:     -502.132187053 Eh
FINAL SINGLE POINT ENERGY      -502.132187052960

DIPOLE MOMENT
-------------
                                X             Y             Z
Electronic contribution:      8.57119      -1.91751      -0.55952
Nuclear contribution   :     -8.90410       2.49843       0.67366
                        -----------------------------------------
Total Dipole Moment    :     -0.33291       0.58092       0.11414
                        -----------------------------------------
Magnitude (a.u.)       :      0.67921
Magnitude (Debye)      :      1.72642

Rotational constants in cm-1:     1.093607     0.073361     0.071107
Rotational constants in MHz : 32785.509140  2199.303593  2131.734947

                             ****ORCA TERMINATED NORMALLY****
TOTAL RUN TIME: 0 days 0 hours 50 minutes 23 seconds 324 msec
