                         Program Version 5.0.4 -  RELEASE  -
|  1> ! ri-mp2 aug-cc-pvdz aug-cc-pvdz/c tightscf
|  2> %pal nprocs 16 end
|  3> %maxcore 3800
|  4> %base "DZ_Si-S_15_AB"
|  5>
|  6> *xyz 0 1
|  7> S         2.079258   -0.220361    0.076446
|  8> C         1.745614   -0.299379    1.820528
|  9> O         3.382225    0.381659   -0.089075
| 10> O         1.830254   -1.541668   -0.462361
| 11> H         1.880062    0.687124    2.258175
| 12> H         2.476856   -0.996063    2.228641
| 13> H         0.736902   -0.674142    1.977307
| 14> C        -1.123860    0.443939   -0.377354
| 15> C        -1.486252   -0.859881   -0.720569
| 16> C        -2.034681    1.228462    0.328437
| 17> C        -2.726941   -1.358817   -0.369595
| 18> C        -3.278041    0.729248    0.677367
| 19> C        -3.623791   -0.564487    0.327570
| 20> H        -0.785152   -1.494106   -1.248086
| 21> H        -2.995355   -2.371575   -0.638867
| 22> H        -1.773573    2.241554    0.609484
| 23> H        -3.976150    1.350051    1.222885
| 24> H        -4.594505   -0.957046    0.600401
| 25> Si         0.542695    1.114414   -0.816925
| 26> H         0.895886    1.037943   -2.244127
| 27> H         0.737045    2.465789   -0.258818
| 28> *
| 29>
| 30> $new_job
| 31> ! ri-mp2 aug-cc-pvtz aug-cc-pvtz/c tightscf
| 32> %pal nprocs 16 end
| 33> %maxcore 3800
| 34> %base "TZ_Si-S_15_AB"
| 35>
| 36> *xyz 0 1
| 37> S         2.079258   -0.220361    0.076446
| 38> C         1.745614   -0.299379    1.820528
| 39> O         3.382225    0.381659   -0.089075
| 40> O         1.830254   -1.541668   -0.462361
| 41> H         1.880062    0.687124    2.258175
| 42> H         2.476856   -0.996063    2.228641
| 43> H         0.736902   -0.674142    1.977307
| 44> C        -1.123860    0.443939   -0.377354
| 45> C        -1.486252   -0.859881   -0.720569
| 46> C        -2.034681    1.228462    0.328437
| 47> C        -2.726941   -1.358817   -0.369595
| 48> C        -3.278041    0.729248    0.677367
| 49> C        -3.623791   -0.564487    0.327570
| 50> H        -0.785152   -1.494106   -1.248086
| 51> H        -2.995355   -2.371575   -0.638867
| 52> H        -1.773573    2.241554    0.609484
| 53> H        -3.976150    1.350051    1.222885
| 54> H        -4.594505   -0.957046    0.600401
| 55> Si         0.542695    1.114414   -0.816925
| 56> H         0.895886    1.037943   -2.244127
| 57> H         0.737045    2.465789   -0.258818
| 58> *
| 59>
| 60> $new_job
| 61> ! ri-mp2 aug-cc-pvqz aug-cc-pvqz/c tightscf
| 62> %pal nprocs 16 end
| 63> %maxcore 3800
| 64> %base "QZ_Si-S_15_AB"
| 65>
| 66> *xyz 0 1
| 67> S         2.079258   -0.220361    0.076446
| 68> C         1.745614   -0.299379    1.820528
| 69> O         3.382225    0.381659   -0.089075
| 70> O         1.830254   -1.541668   -0.462361
| 71> H         1.880062    0.687124    2.258175
| 72> H         2.476856   -0.996063    2.228641
| 73> H         0.736902   -0.674142    1.977307
| 74> C        -1.123860    0.443939   -0.377354
| 75> C        -1.486252   -0.859881   -0.720569
| 76> C        -2.034681    1.228462    0.328437
| 77> C        -2.726941   -1.358817   -0.369595
| 78> C        -3.278041    0.729248    0.677367
| 79> C        -3.623791   -0.564487    0.327570
| 80> H        -0.785152   -1.494106   -1.248086
| 81> H        -2.995355   -2.371575   -0.638867
| 82> H        -1.773573    2.241554    0.609484
| 83> H        -3.976150    1.350051    1.222885
| 84> H        -4.594505   -0.957046    0.600401
| 85> Si         0.542695    1.114414   -0.816925
| 86> H         0.895886    1.037943   -2.244127
| 87> H         0.737045    2.465789   -0.258818
| 88> *
| 89>
| 90>
| 91>
| 92>
| 93>                          ****END OF INPUT****
 Total Charge           Charge          ....    0
 Multiplicity           Mult            ....    1
 Number of Electrons    NEL             ....   98
MP2 TOTAL ENERGY:    -1108.676701550 Eh
FINAL SINGLE POINT ENERGY     -1108.676701549567
MP2 TOTAL ENERGY:    -1109.171682589 Eh
FINAL SINGLE POINT ENERGY     -1109.171682589411

CARTESIAN COORDINATES (ANGSTROEM)
---------------------------------
  S      2.079258   -0.220361    0.076446
  C      1.745614   -0.299379    1.820528
  O      3.382225    0.381659   -0.089075
  O      1.830254   -1.541668   -0.462361
  H      1.880062    0.687124    2.258175
  H      2.476856   -0.996063    2.228641
  H      0.736902   -0.674142    1.977307
  C     -1.123860    0.443939   -0.377354
  C     -1.486252   -0.859881   -0.720569
  C     -2.034681    1.228462    0.328437
  C     -2.726941   -1.358817   -0.369595
  C     -3.278041    0.729248    0.677367
  C     -3.623791   -0.564487    0.327570
  H     -0.785152   -1.494106   -1.248086
  H     -2.995355   -2.371575   -0.638867
  H     -1.773573    2.241554    0.609484
  H     -3.976150    1.350051    1.222885
  H     -4.594505   -0.957046    0.600401
  Si     0.542695    1.114414   -0.816925
  H      0.895886    1.037943   -2.244127
  H      0.737045    2.465789   -0.258818

 Multiplicity           Mult            ....    1
 Number of Electrons    NEL             ....   98
 Basis Dimension        Dim             .... 1348

ORBITAL ENERGIES
----------------

  NO   OCC          E(Eh)            E(eV)
   0   2.0000     -92.143046     -2507.3398
   1   2.0000     -68.810613     -1872.4320
   2   2.0000     -20.530319      -558.6584
   3   2.0000     -20.529844      -558.6455
   4   2.0000     -11.264261      -306.5161
   5   2.0000     -11.261014      -306.4278
   6   2.0000     -11.256765      -306.3122
   7   2.0000     -11.255491      -306.2775
   8   2.0000     -11.250595      -306.1442
   9   2.0000     -11.248789      -306.0951
  10   2.0000     -11.245109      -305.9950
  11   2.0000      -9.117016      -248.0866
  12   2.0000      -6.801910      -185.0894
  13   2.0000      -6.801243      -185.0712
  14   2.0000      -6.801203      -185.0701
  15   2.0000      -6.160296      -167.6302
  16   2.0000      -4.266846      -116.1068
  17   2.0000      -4.266183      -116.0887
  18   2.0000      -4.265749      -116.0769
  19   2.0000      -1.436860       -39.0990
  20   2.0000      -1.326656       -36.1002
  21   2.0000      -1.176343       -32.0099
  22   2.0000      -1.041686       -28.3457
  23   2.0000      -1.038925       -28.2706
  24   2.0000      -1.033990       -28.1363
  25   2.0000      -0.864643       -23.5281
  26   2.0000      -0.847537       -23.0627
  27   2.0000      -0.834135       -22.6980
  28   2.0000      -0.751617       -20.4525
  29   2.0000      -0.710680       -19.3386
  30   2.0000      -0.660233       -17.9658
  31   2.0000      -0.653613       -17.7857
  32   2.0000      -0.649450       -17.6724
  33   2.0000      -0.643685       -17.5156
  34   2.0000      -0.637144       -17.3376
  35   2.0000      -0.609110       -16.5747
  36   2.0000      -0.594689       -16.1823
  37   2.0000      -0.585118       -15.9219
  38   2.0000      -0.569984       -15.5101
  39   2.0000      -0.533170       -14.5083
  40   2.0000      -0.516641       -14.0585
  41   2.0000      -0.512866       -13.9558
  42   2.0000      -0.493279       -13.4228
  43   2.0000      -0.483145       -13.1470
  44   2.0000      -0.476295       -12.9606
  45   2.0000      -0.461241       -12.5510
  46   2.0000      -0.404710       -11.0127
  47   2.0000      -0.360514        -9.8101
  48   2.0000      -0.358292        -9.7496
  49   0.0000       0.015312         0.4167
  50   0.0000       0.023913         0.6507
  51   0.0000       0.028548         0.7768
  52   0.0000       0.031464         0.8562
  53   0.0000       0.039911         1.0860

MULLIKEN ATOMIC CHARGES
-----------------------
   0 S :    2.227848
   1 C :   -1.176958
   2 O :   -1.394838
   3 O :   -1.306498
   4 H :    0.334279
   5 H :    0.422549
   6 H :    0.402548
   7 C :    0.005585
   8 C :   -0.377728
   9 C :   -0.463755
  10 C :   -0.264085
  11 C :   -0.352875
  12 C :   -0.390786
  13 H :    0.404060
  14 H :    0.251130
  15 H :    0.326292
  16 H :    0.254667
  17 H :    0.350413
  18 Si:    1.496726
  19 H :   -0.372215
  20 H :   -0.376359
Sum of atomic charges:   -0.0000000

LOEWDIN ATOMIC CHARGES
----------------------
   0 S :   -0.264333
   1 C :    0.768204
   2 O :    0.229847
   3 O :    0.248267
   4 H :   -0.332514
   5 H :   -0.333909
   6 H :   -0.338381
   7 C :   -0.127610
   8 C :    0.254341
   9 C :    0.249191
  10 C :    0.352735
  11 C :    0.344865
  12 C :    0.344026
  13 H :   -0.345906
  14 H :   -0.315156
  15 H :   -0.341375
  16 H :   -0.318172
  17 H :   -0.314194
  18 Si:    0.675979
  19 H :   -0.221171
  20 H :   -0.214734

  Mayer bond orders larger than 0.100000
B(  0-S ,  1-C ) :   0.8650 B(  0-S ,  2-O ) :   0.8825 B(  0-S ,  3-O ) :   0.9680
B(  0-S , 18-Si) :   0.6303 B(  1-C ,  4-H ) :   0.8948 B(  1-C ,  5-H ) :   0.8033
B(  1-C ,  6-H ) :   0.8299 B(  7-C ,  8-C ) :   1.0056 B(  7-C ,  9-C ) :   0.8320
B(  7-C , 10-C ) :  -0.3156 B(  7-C , 11-C ) :  -0.3253 B(  7-C , 13-H ) :  -0.1538
B(  7-C , 15-H ) :  -0.1476 B(  7-C , 18-Si) :   1.0893 B(  7-C , 20-H ) :  -0.1491
B(  8-C , 10-C ) :   1.2421 B(  8-C , 11-C ) :   0.1204 B(  8-C , 13-H ) :   0.8559
B(  8-C , 14-H ) :  -0.1431 B(  8-C , 18-Si) :  -0.1226 B(  9-C , 10-C ) :   0.1385
B(  9-C , 11-C ) :   1.3409 B(  9-C , 12-C ) :   0.1542 B(  9-C , 15-H ) :   0.9181
B(  9-C , 16-H ) :  -0.1496 B(  9-C , 18-Si) :  -0.1284 B( 10-C , 12-C ) :   1.1754
B( 10-C , 14-H ) :   1.1197 B( 11-C , 12-C ) :   1.1736 B( 11-C , 16-H ) :   1.1236
B( 12-C , 17-H ) :   0.9778 B( 18-Si, 19-H ) :   0.6603 B( 18-Si, 20-H ) :   0.6996

MP2 TOTAL ENERGY:    -1109.331278016 Eh
FINAL SINGLE POINT ENERGY     -1109.331278015501

DIPOLE MOMENT
-------------
                                X             Y             Z
Electronic contribution:      5.16831      -0.45269      -3.53177
Nuclear contribution   :     -7.32340       1.19577       4.49064
                        -----------------------------------------
Total Dipole Moment    :     -2.15508       0.74308       0.95887
                        -----------------------------------------
Magnitude (a.u.)       :      2.47306
Magnitude (Debye)      :      6.28601

Rotational constants in cm-1:     0.062947     0.016019     0.015138
Rotational constants in MHz :  1887.114450   480.233530   453.832096

                             ****ORCA TERMINATED NORMALLY****
TOTAL RUN TIME: 0 days 1 hours 11 minutes 32 seconds 218 msec
