                         Program Version 5.0.4 -  RELEASE  -
|  1> ! ri-mp2 aug-cc-pvdz aug-cc-pvdz/c tightscf
|  2> %pal nprocs 16 end
|  3> %maxcore 3800
|  4> %base "DZ_P-F_32_AB"
|  5>
|  6> *xyz 0 1
|  7> C         0.815731    0.491802   -0.354448
|  8> C         1.591556   -0.276395   -1.212552
|  9> H         1.225255   -0.515604   -2.202802
| 10> C         2.830995   -0.738010   -0.802598
| 11> H         3.429825   -1.340887   -1.471746
| 12> C         3.305302   -0.415895    0.456470
| 13> H         4.276802   -0.770087    0.774568
| 14> C         2.539992    0.363877    1.311057
| 15> H         2.912601    0.615854    2.294791
| 16> C         1.295693    0.811257    0.912430
| 17> H         0.695064    1.414173    1.580978
| 18> P        -0.810829    1.058785   -0.933766
| 19> F        -0.926091    2.458757   -0.175891
| 20> C        -1.824311    0.091251    0.314435
| 21> O        -2.479679    0.611624    1.169197
| 22> C        -1.842647   -1.436390    0.181134
| 23> F        -1.430732   -1.791437   -1.064626
| 24> F        -0.973929   -1.965042    1.071464
| 25> H        -2.836778   -1.847692    0.363033
| 26> *
| 27>
| 28> $new_job
| 29> ! ri-mp2 aug-cc-pvtz aug-cc-pvtz/c tightscf
| 30> %pal nprocs 16 end
| 31> %maxcore 3800
| 32> %base "TZ_P-F_32_AB"
| 33>
| 34> *xyz 0 1
| 35> C         0.815731    0.491802   -0.354448
| 36> C         1.591556   -0.276395   -1.212552
| 37> H         1.225255   -0.515604   -2.202802
| 38> C         2.830995   -0.738010   -0.802598
| 39> H         3.429825   -1.340887   -1.471746
| 40> C         3.305302   -0.415895    0.456470
| 41> H         4.276802   -0.770087    0.774568
| 42> C         2.539992    0.363877    1.311057
| 43> H         2.912601    0.615854    2.294791
| 44> C         1.295693    0.811257    0.912430
| 45> H         0.695064    1.414173    1.580978
| 46> P        -0.810829    1.058785   -0.933766
| 47> F        -0.926091    2.458757   -0.175891
| 48> C        -1.824311    0.091251    0.314435
| 49> O        -2.479679    0.611624    1.169197
| 50> C        -1.842647   -1.436390    0.181134
| 51> F        -1.430732   -1.791437   -1.064626
| 52> F        -0.973929   -1.965042    1.071464
| 53> H        -2.836778   -1.847692    0.363033
| 54> *
| 55>
| 56> $new_job
| 57> ! ri-mp2 aug-cc-pvqz aug-cc-pvqz/c tightscf
| 58> %pal nprocs 16 end
| 59> %maxcore 3800
| 60> %base "QZ_P-F_32_AB"
| 61>
| 62> *xyz 0 1
| 63> C         0.815731    0.491802   -0.354448
| 64> C         1.591556   -0.276395   -1.212552
| 65> H         1.225255   -0.515604   -2.202802
| 66> C         2.830995   -0.738010   -0.802598
| 67> H         3.429825   -1.340887   -1.471746
| 68> C         3.305302   -0.415895    0.456470
| 69> H         4.276802   -0.770087    0.774568
| 70> C         2.539992    0.363877    1.311057
| 71> H         2.912601    0.615854    2.294791
| 72> C         1.295693    0.811257    0.912430
| 73> H         0.695064    1.414173    1.580978
| 74> P        -0.810829    1.058785   -0.933766
| 75> F        -0.926091    2.458757   -0.175891
| 76> C        -1.824311    0.091251    0.314435
| 77> O        -2.479679    0.611624    1.169197
| 78> C        -1.842647   -1.436390    0.181134
| 79> F        -1.430732   -1.791437   -1.064626
| 80> F        -0.973929   -1.965042    1.071464
| 81> H        -2.836778   -1.847692    0.363033
| 82> *
| 83>
| 84>
| 85>
| 86>
| 87>                          ****END OF INPUT****
 Total Charge           Charge          ....    0
 Multiplicity           Mult            ....    1
 Number of Electrons    NEL             ....  104
MP2 TOTAL ENERGY:    -1022.434119235 Eh
FINAL SINGLE POINT ENERGY     -1022.434119235217
MP2 TOTAL ENERGY:    -1023.053465945 Eh
FINAL SINGLE POINT ENERGY     -1023.053465944778

CARTESIAN COORDINATES (ANGSTROEM)
---------------------------------
  C      0.815731    0.491802   -0.354448
  C      1.591556   -0.276395   -1.212552
  H      1.225255   -0.515604   -2.202802
  C      2.830995   -0.738010   -0.802598
  H      3.429825   -1.340887   -1.471746
  C      3.305302   -0.415895    0.456470
  H      4.276802   -0.770087    0.774568
  C      2.539992    0.363877    1.311057
  H      2.912601    0.615854    2.294791
  C      1.295693    0.811257    0.912430
  H      0.695064    1.414173    1.580978
  P     -0.810829    1.058785   -0.933766
  F     -0.926091    2.458757   -0.175891
  C     -1.824311    0.091251    0.314435
  O     -2.479679    0.611624    1.169197
  C     -1.842647   -1.436390    0.181134
  F     -1.430732   -1.791437   -1.064626
  F     -0.973929   -1.965042    1.071464
  H     -2.836778   -1.847692    0.363033

 Multiplicity           Mult            ....    1
 Number of Electrons    NEL             ....  104
 Basis Dimension        Dim             .... 1320

ORBITAL ENERGIES
----------------

  NO   OCC          E(Eh)            E(eV)
   0   2.0000     -80.023614     -2177.5532
   1   2.0000     -26.335103      -716.6146
   2   2.0000     -26.329950      -716.4744
   3   2.0000     -26.306076      -715.8247
   4   2.0000     -20.593466      -560.3767
   5   2.0000     -11.431567      -311.0688
   6   2.0000     -11.359077      -309.0962
   7   2.0000     -11.257932      -306.3439
   8   2.0000     -11.256326      -306.3002
   9   2.0000     -11.255016      -306.2646
  10   2.0000     -11.253948      -306.2355
  11   2.0000     -11.248214      -306.0795
  12   2.0000     -11.247893      -306.0707
  13   2.0000      -7.558140      -205.6674
  14   2.0000      -5.452342      -148.3658
  15   2.0000      -5.451232      -148.3356
  16   2.0000      -5.450271      -148.3094
  17   2.0000      -1.687154       -45.9098
  18   2.0000      -1.624711       -44.2106
  19   2.0000      -1.615813       -43.9685
  20   2.0000      -1.436317       -39.0842
  21   2.0000      -1.178536       -32.0696
  22   2.0000      -1.052674       -28.6447
  23   2.0000      -1.038580       -28.2612
  24   2.0000      -1.024911       -27.8892
  25   2.0000      -0.922070       -25.0908
  26   2.0000      -0.849293       -23.1104
  27   2.0000      -0.846872       -23.0445
  28   2.0000      -0.814612       -22.1667
  29   2.0000      -0.801445       -21.8084
  30   2.0000      -0.782877       -21.3032
  31   2.0000      -0.742355       -20.2005
  32   2.0000      -0.731151       -19.8956
  33   2.0000      -0.706269       -19.2186
  34   2.0000      -0.694969       -18.9111
  35   2.0000      -0.688734       -18.7414
  36   2.0000      -0.672353       -18.2957
  37   2.0000      -0.657222       -17.8839
  38   2.0000      -0.654150       -17.8003
  39   2.0000      -0.645365       -17.5613
  40   2.0000      -0.640822       -17.4376
  41   2.0000      -0.608364       -16.5544
  42   2.0000      -0.594040       -16.1646
  43   2.0000      -0.589960       -16.0536
  44   2.0000      -0.561542       -15.2803
  45   2.0000      -0.528127       -14.3711
  46   2.0000      -0.527637       -14.3577
  47   2.0000      -0.514302       -13.9949
  48   2.0000      -0.445348       -12.1185
  49   2.0000      -0.398980       -10.8568
  50   2.0000      -0.357504        -9.7282
  51   2.0000      -0.350493        -9.5374
  52   0.0000       0.021320         0.5801
  53   0.0000       0.027652         0.7524
  54   0.0000       0.029581         0.8050
  55   0.0000       0.035701         0.9715
  56   0.0000       0.044359         1.2071

MULLIKEN ATOMIC CHARGES
-----------------------
   0 C :   -0.198988
   1 C :   -0.187168
   2 H :    0.385884
   3 C :   -0.322969
   4 H :    0.251383
   5 C :   -0.337596
   6 H :    0.358813
   7 C :   -0.242250
   8 H :    0.245799
   9 C :   -0.424443
  10 H :    0.359099
  11 P :    1.228204
  12 F :   -0.758573
  13 C :    0.397616
  14 O :   -0.816176
  15 C :    0.844064
  16 F :   -0.714647
  17 F :   -0.662048
  18 H :    0.593995
Sum of atomic charges:   -0.0000000

LOEWDIN ATOMIC CHARGES
----------------------
   0 C :   -0.310698
   1 C :    0.230298
   2 H :   -0.339664
   3 C :    0.346284
   4 H :   -0.317858
   5 C :    0.345469
   6 H :   -0.314699
   7 C :    0.351690
   8 H :   -0.316371
   9 C :    0.251724
  10 H :   -0.336105
  11 P :    0.372843
  12 F :    0.337710
  13 C :   -0.907253
  14 O :    0.644717
  15 C :   -1.181421
  16 F :    0.770565
  17 F :    0.784959
  18 H :   -0.412192

  Mayer bond orders larger than 0.100000
B(  0-C ,  1-C ) :   0.8013 B(  0-C ,  2-H ) :  -0.1350 B(  0-C ,  3-C ) :  -0.2378
B(  0-C ,  7-C ) :  -0.3119 B(  0-C ,  9-C ) :   0.9522 B(  0-C , 11-P ) :   0.8278
B(  0-C , 12-F ) :  -0.1325 B(  1-C ,  2-H ) :   0.9006 B(  1-C ,  3-C ) :   1.3457
B(  1-C ,  4-H ) :  -0.1268 B(  1-C ,  5-C ) :   0.1354 B(  1-C ,  7-C ) :   0.1292
B(  1-C , 11-P ) :  -0.1532 B(  3-C ,  4-H ) :   1.1181 B(  3-C ,  5-C ) :   1.1276
B(  3-C ,  7-C ) :  -0.1076 B(  3-C ,  9-C ) :   0.1317 B(  5-C ,  6-H ) :   0.9745
B(  5-C ,  7-C ) :   1.1026 B(  5-C ,  9-C ) :   0.1340 B(  7-C ,  8-H ) :   1.1382
B(  7-C ,  9-C ) :   1.3033 B(  8-H ,  9-C ) :  -0.1518 B(  9-C , 10-H ) :   0.9140
B( 11-P , 12-F ) :   0.4565 B( 11-P , 13-C ) :   0.7030 B( 13-C , 14-O ) :   1.3192
B( 13-C , 15-C ) :   0.9550 B( 15-C , 16-F ) :   0.5142 B( 15-C , 17-F ) :   0.4901
B( 15-C , 18-H ) :   0.6296

MP2 TOTAL ENERGY:    -1023.256293613 Eh
FINAL SINGLE POINT ENERGY     -1023.256293613194

DIPOLE MOMENT
-------------
                                X             Y             Z
Electronic contribution:    -12.24555       1.35380      -2.61139
Nuclear contribution   :     13.00719      -2.04826       2.28723
                        -----------------------------------------
Total Dipole Moment    :      0.76164      -0.69446      -0.32416
                        -----------------------------------------
Magnitude (a.u.)       :      1.08049
Magnitude (Debye)      :      2.74639

Rotational constants in cm-1:     0.032718     0.019737     0.016370
Rotational constants in MHz :   980.857440   591.713822   490.760539

                             ****ORCA TERMINATED NORMALLY****
TOTAL RUN TIME: 0 days 1 hours 6 minutes 15 seconds 384 msec
