                         Program Version 5.0.4 -  RELEASE  -
|  1> ! ri-mp2 aug-cc-pvdz aug-cc-pvdz/c tightscf
|  2> %pal nprocs 16 end
|  3> %maxcore 3800
|  4> %base "DZ_Si-Cl_44_AB"
|  5>
|  6> *xyz 0 1
|  7> C         0.157683    1.727578    0.092428
|  8> C        -1.115920    2.134067   -0.262706
|  9> C        -2.150375    1.216720   -0.322266
| 10> C        -1.893910   -0.108494   -0.022125
| 11> C        -0.625215   -0.525971    0.333226
| 12> C         0.419261    0.392558    0.392392
| 13> H         0.954615    2.459418    0.136176
| 14> H        -1.310452    3.172639   -0.494139
| 15> Si         2.129822   -0.162608    0.846512
| 16> Cl        -3.185854   -1.264099   -0.089632
| 17> H        -3.149949    1.522245   -0.596607
| 18> H        -0.461192   -1.570494    0.563237
| 19> Cl         3.214475   -0.609695   -0.847793
| 20> H         2.065674   -1.387632    1.662821
| 21> H         2.848093    0.916092    1.547887
| 22> *
| 23>
| 24> $new_job
| 25> ! ri-mp2 aug-cc-pvtz aug-cc-pvtz/c tightscf
| 26> %pal nprocs 16 end
| 27> %maxcore 3800
| 28> %base "TZ_Si-Cl_44_AB"
| 29>
| 30> *xyz 0 1
| 31> C         0.157683    1.727578    0.092428
| 32> C        -1.115920    2.134067   -0.262706
| 33> C        -2.150375    1.216720   -0.322266
| 34> C        -1.893910   -0.108494   -0.022125
| 35> C        -0.625215   -0.525971    0.333226
| 36> C         0.419261    0.392558    0.392392
| 37> H         0.954615    2.459418    0.136176
| 38> H        -1.310452    3.172639   -0.494139
| 39> Si         2.129822   -0.162608    0.846512
| 40> Cl        -3.185854   -1.264099   -0.089632
| 41> H        -3.149949    1.522245   -0.596607
| 42> H        -0.461192   -1.570494    0.563237
| 43> Cl         3.214475   -0.609695   -0.847793
| 44> H         2.065674   -1.387632    1.662821
| 45> H         2.848093    0.916092    1.547887
| 46> *
| 47>
| 48> $new_job
| 49> ! ri-mp2 aug-cc-pvqz aug-cc-pvqz/c tightscf
| 50> %pal nprocs 16 end
| 51> %maxcore 3800
| 52> %base "QZ_Si-Cl_44_AB"
| 53>
| 54> *xyz 0 1
| 55> C         0.157683    1.727578    0.092428
| 56> C        -1.115920    2.134067   -0.262706
| 57> C        -2.150375    1.216720   -0.322266
| 58> C        -1.893910   -0.108494   -0.022125
| 59> C        -0.625215   -0.525971    0.333226
| 60> C         0.419261    0.392558    0.392392
| 61> H         0.954615    2.459418    0.136176
| 62> H        -1.310452    3.172639   -0.494139
| 63> Si         2.129822   -0.162608    0.846512
| 64> Cl        -3.185854   -1.264099   -0.089632
| 65> H        -3.149949    1.522245   -0.596607
| 66> H        -0.461192   -1.570494    0.563237
| 67> Cl         3.214475   -0.609695   -0.847793
| 68> H         2.065674   -1.387632    1.662821
| 69> H         2.848093    0.916092    1.547887
| 70> *
| 71>
| 72>
| 73>
| 74>
| 75>                          ****END OF INPUT****
 Total Charge           Charge          ....    0
 Multiplicity           Mult            ....    1
 Number of Electrons    NEL             ....   90
MP2 TOTAL ENERGY:    -1439.926360746 Eh
FINAL SINGLE POINT ENERGY     -1439.926360746373
MP2 TOTAL ENERGY:    -1440.286663876 Eh
FINAL SINGLE POINT ENERGY     -1440.286663876154

CARTESIAN COORDINATES (ANGSTROEM)
---------------------------------
  C      0.157683    1.727578    0.092428
  C     -1.115920    2.134067   -0.262706
  C     -2.150375    1.216720   -0.322266
  C     -1.893910   -0.108494   -0.022125
  C     -0.625215   -0.525971    0.333226
  C      0.419261    0.392558    0.392392
  H      0.954615    2.459418    0.136176
  H     -1.310452    3.172639   -0.494139
  Si     2.129822   -0.162608    0.846512
  Cl    -3.185854   -1.264099   -0.089632
  H     -3.149949    1.522245   -0.596607
  H     -0.461192   -1.570494    0.563237
  Cl     3.214475   -0.609695   -0.847793
  H      2.065674   -1.387632    1.662821
  H      2.848093    0.916092    1.547887

 Multiplicity           Mult            ....    1
 Number of Electrons    NEL             ....   90
 Basis Dimension        Dim             .... 1008

ORBITAL ENERGIES
----------------

  NO   OCC          E(Eh)            E(eV)
   0   2.0000    -104.845392     -2852.9882
   1   2.0000    -104.825161     -2852.4376
   2   2.0000     -68.817903     -1872.6304
   3   2.0000     -11.308926      -307.7315
   4   2.0000     -11.261486      -306.4406
   5   2.0000     -11.260085      -306.4025
   6   2.0000     -11.257322      -306.3273
   7   2.0000     -11.254524      -306.2512
   8   2.0000     -11.244081      -305.9670
   9   2.0000     -10.571000      -287.6515
  10   2.0000     -10.552669      -287.1527
  11   2.0000      -8.038158      -218.7294
  12   2.0000      -8.036393      -218.6814
  13   2.0000      -8.036340      -218.6799
  14   2.0000      -8.019457      -218.2205
  15   2.0000      -8.018356      -218.1906
  16   2.0000      -8.018347      -218.1903
  17   2.0000      -6.163570      -167.7193
  18   2.0000      -4.270514      -116.2066
  19   2.0000      -4.269695      -116.1843
  20   2.0000      -4.269435      -116.1772
  21   2.0000      -1.203973       -32.7618
  22   2.0000      -1.130396       -30.7596
  23   2.0000      -1.095726       -29.8162
  24   2.0000      -1.043635       -28.3988
  25   2.0000      -1.008730       -27.4489
  26   2.0000      -0.858384       -23.3578
  27   2.0000      -0.833157       -22.6714
  28   2.0000      -0.738418       -20.0934
  29   2.0000      -0.699249       -19.0275
  30   2.0000      -0.664849       -18.0915
  31   2.0000      -0.638336       -17.3700
  32   2.0000      -0.601143       -16.3579
  33   2.0000      -0.581133       -15.8134
  34   2.0000      -0.560724       -15.2581
  35   2.0000      -0.530536       -14.4366
  36   2.0000      -0.528564       -14.3830
  37   2.0000      -0.519909       -14.1474
  38   2.0000      -0.501302       -13.6411
  39   2.0000      -0.477797       -13.0015
  40   2.0000      -0.465239       -12.6598
  41   2.0000      -0.450619       -12.2620
  42   2.0000      -0.444237       -12.0883
  43   2.0000      -0.365049        -9.9335
  44   2.0000      -0.347569        -9.4578
  45   0.0000       0.020686         0.5629
  46   0.0000       0.028313         0.7704
  47   0.0000       0.031721         0.8632
  48   0.0000       0.037713         1.0262
  49   0.0000       0.041408         1.1268

MULLIKEN ATOMIC CHARGES
-----------------------
   0 C :   -0.344202
   1 C :   -0.338155
   2 C :   -0.173106
   3 C :   -0.472667
   4 C :   -0.161147
   5 C :    0.040440
   6 H :    0.295700
   7 H :    0.249825
   8 Si:    1.442049
   9 Cl:   -0.336138
  10 H :    0.472973
  11 H :    0.450788
  12 Cl:   -0.615776
  13 H :   -0.264505
  14 H :   -0.246079
Sum of atomic charges:   -0.0000000

LOEWDIN ATOMIC CHARGES
----------------------
   0 C :    0.244311
   1 C :    0.337643
   2 C :    0.203285
   3 C :   -0.859195
   4 C :    0.102029
   5 C :   -0.176576
   6 H :   -0.337069
   7 H :   -0.315755
   8 Si:   -0.029833
   9 Cl:    1.207951
  10 H :   -0.351570
  11 H :   -0.376815
  12 Cl:    0.896596
  13 H :   -0.271844
  14 H :   -0.273160

  Mayer bond orders larger than 0.100000
B(  0-C ,  1-C ) :   1.2069 B(  0-C ,  3-C ) :   0.1052 B(  0-C ,  5-C ) :   0.9519
B(  0-C ,  6-H ) :   0.9524 B(  0-C ,  7-H ) :  -0.1394 B(  1-C ,  2-C ) :   1.2684
B(  1-C ,  4-C ) :   0.1159 B(  1-C ,  5-C ) :  -0.2874 B(  1-C ,  7-H ) :   1.1115
B(  2-C ,  3-C ) :   1.1959 B(  2-C ,  7-H ) :  -0.1105 B(  2-C ,  9-Cl) :  -0.2134
B(  2-C , 10-H ) :   0.8033 B(  3-C ,  4-C ) :   1.3170 B(  3-C ,  5-C ) :  -0.3200
B(  3-C ,  9-Cl) :   1.1744 B(  4-C ,  5-C ) :   1.0027 B(  4-C ,  8-Si) :  -0.1810
B(  4-C ,  9-Cl) :  -0.2266 B(  4-C , 11-H ) :   0.7913 B(  5-C ,  6-H ) :  -0.1164
B(  5-C ,  8-Si) :   1.0562 B(  5-C , 11-H ) :  -0.1506 B(  5-C , 14-H ) :  -0.1161
B(  8-Si, 12-Cl) :   0.3621 B(  8-Si, 13-H ) :   0.7512 B(  8-Si, 14-H ) :   0.7565

MP2 TOTAL ENERGY:    -1440.404721020 Eh
FINAL SINGLE POINT ENERGY     -1440.404721020191

DIPOLE MOMENT
-------------
                                X             Y             Z
Electronic contribution:     -0.91171      -6.70386      -3.54184
Nuclear contribution   :      0.74112       7.44693       3.92166
                        -----------------------------------------
Total Dipole Moment    :     -0.17059       0.74307       0.37983
                        -----------------------------------------
Magnitude (a.u.)       :      0.85177
Magnitude (Debye)      :      2.16503

Rotational constants in cm-1:     0.063675     0.015951     0.013959
Rotational constants in MHz :  1908.913960   478.190983   418.475943

                             ****ORCA TERMINATED NORMALLY****
TOTAL RUN TIME: 0 days 0 hours 29 minutes 39 seconds 520 msec
