                         Program Version 5.0.4 -  RELEASE  -
|  1> ! ri-mp2 aug-cc-pvdz aug-cc-pvdz/c tightscf
|  2> %pal nprocs 16 end
|  3> %maxcore 3800
|  4> %base "DZ_S-Cl_81_AB"
|  5>
|  6> *xyz 0 1
|  7> Cl        -3.178824   -0.584103    0.927461
|  8> S        -2.293842   -0.350921   -0.901621
|  9> C        -0.740349    0.344296   -0.434577
| 10> C         0.373015   -0.475672   -0.334606
| 11> C         1.584993    0.099893   -0.013731
| 12> C         1.723124    1.453685    0.217850
| 13> C        -0.621387    1.712244   -0.211767
| 14> H        -1.498585    2.338404   -0.297451
| 15> C         0.604206    2.261439    0.117852
| 16> H         0.691686    3.324531    0.292380
| 17> H         2.693808    1.853292    0.468256
| 18> N         2.773276   -0.763885    0.088329
| 19> O         2.626862   -1.945321   -0.132778
| 20> O         3.822708   -0.237217    0.386739
| 21> H         0.303460   -1.539551   -0.500189
| 22> *
| 23>
| 24> $new_job
| 25> ! ri-mp2 aug-cc-pvtz aug-cc-pvtz/c tightscf
| 26> %pal nprocs 16 end
| 27> %maxcore 3800
| 28> %base "TZ_S-Cl_81_AB"
| 29>
| 30> *xyz 0 1
| 31> Cl        -3.178824   -0.584103    0.927461
| 32> S        -2.293842   -0.350921   -0.901621
| 33> C        -0.740349    0.344296   -0.434577
| 34> C         0.373015   -0.475672   -0.334606
| 35> C         1.584993    0.099893   -0.013731
| 36> C         1.723124    1.453685    0.217850
| 37> C        -0.621387    1.712244   -0.211767
| 38> H        -1.498585    2.338404   -0.297451
| 39> C         0.604206    2.261439    0.117852
| 40> H         0.691686    3.324531    0.292380
| 41> H         2.693808    1.853292    0.468256
| 42> N         2.773276   -0.763885    0.088329
| 43> O         2.626862   -1.945321   -0.132778
| 44> O         3.822708   -0.237217    0.386739
| 45> H         0.303460   -1.539551   -0.500189
| 46> *
| 47>
| 48> $new_job
| 49> ! ri-mp2 aug-cc-pvqz aug-cc-pvqz/c tightscf
| 50> %pal nprocs 16 end
| 51> %maxcore 3800
| 52> %base "QZ_S-Cl_81_AB"
| 53>
| 54> *xyz 0 1
| 55> Cl        -3.178824   -0.584103    0.927461
| 56> S        -2.293842   -0.350921   -0.901621
| 57> C        -0.740349    0.344296   -0.434577
| 58> C         0.373015   -0.475672   -0.334606
| 59> C         1.584993    0.099893   -0.013731
| 60> C         1.723124    1.453685    0.217850
| 61> C        -0.621387    1.712244   -0.211767
| 62> H        -1.498585    2.338404   -0.297451
| 63> C         0.604206    2.261439    0.117852
| 64> H         0.691686    3.324531    0.292380
| 65> H         2.693808    1.853292    0.468256
| 66> N         2.773276   -0.763885    0.088329
| 67> O         2.626862   -1.945321   -0.132778
| 68> O         3.822708   -0.237217    0.386739
| 69> H         0.303460   -1.539551   -0.500189
| 70> *
| 71>
| 72>
| 73>
| 74>
| 75>                          ****END OF INPUT****
 Total Charge           Charge          ....    0
 Multiplicity           Mult            ....    1
 Number of Electrons    NEL             ....   96
MP2 TOTAL ENERGY:    -1292.337494836 Eh
FINAL SINGLE POINT ENERGY     -1292.337494836149
MP2 TOTAL ENERGY:    -1292.814213615 Eh
FINAL SINGLE POINT ENERGY     -1292.814213615205

CARTESIAN COORDINATES (ANGSTROEM)
---------------------------------
  Cl    -3.178824   -0.584103    0.927461
  S     -2.293842   -0.350921   -0.901621
  C     -0.740349    0.344296   -0.434577
  C      0.373015   -0.475672   -0.334606
  C      1.584993    0.099893   -0.013731
  C      1.723124    1.453685    0.217850
  C     -0.621387    1.712244   -0.211767
  H     -1.498585    2.338404   -0.297451
  C      0.604206    2.261439    0.117852
  H      0.691686    3.324531    0.292380
  H      2.693808    1.853292    0.468256
  N      2.773276   -0.763885    0.088329
  O      2.626862   -1.945321   -0.132778
  O      3.822708   -0.237217    0.386739
  H      0.303460   -1.539551   -0.500189

 Multiplicity           Mult            ....    1
 Number of Electrons    NEL             ....   96
 Basis Dimension        Dim             .... 1072

ORBITAL ENERGIES
----------------

  NO   OCC          E(Eh)            E(eV)
   0   2.0000    -104.860642     -2853.4031
   1   2.0000     -92.026475     -2504.1677
   2   2.0000     -20.609456      -560.8118
   3   2.0000     -20.609110      -560.8024
   4   2.0000     -15.863117      -431.6574
   5   2.0000     -11.321693      -308.0789
   6   2.0000     -11.303157      -307.5745
   7   2.0000     -11.292726      -307.2907
   8   2.0000     -11.291457      -307.2562
   9   2.0000     -11.289540      -307.2040
  10   2.0000     -11.276396      -306.8463
  11   2.0000     -10.584949      -288.0311
  12   2.0000      -9.024387      -245.5660
  13   2.0000      -8.051924      -219.1040
  14   2.0000      -8.049980      -219.0511
  15   2.0000      -8.049788      -219.0459
  16   2.0000      -6.705612      -182.4690
  17   2.0000      -6.704202      -182.4306
  18   2.0000      -6.702995      -182.3978
  19   2.0000      -1.628372       -44.3103
  20   2.0000      -1.418938       -38.6113
  21   2.0000      -1.227568       -33.4038
  22   2.0000      -1.158454       -31.5231
  23   2.0000      -1.109870       -30.2011
  24   2.0000      -1.078391       -29.3445
  25   2.0000      -0.978516       -26.6268
  26   2.0000      -0.948945       -25.8221
  27   2.0000      -0.867090       -23.5947
  28   2.0000      -0.831386       -22.6232
  29   2.0000      -0.782433       -21.2911
  30   2.0000      -0.743528       -20.2324
  31   2.0000      -0.738499       -20.0956
  32   2.0000      -0.725950       -19.7541
  33   2.0000      -0.685520       -18.6540
  34   2.0000      -0.655885       -17.8475
  35   2.0000      -0.623070       -16.9546
  36   2.0000      -0.580464       -15.7952
  37   2.0000      -0.573650       -15.6098
  38   2.0000      -0.552315       -15.0292
  39   2.0000      -0.527453       -14.3527
  40   2.0000      -0.520578       -14.1657
  41   2.0000      -0.506808       -13.7909
  42   2.0000      -0.506438       -13.7809
  43   2.0000      -0.467451       -12.7200
  44   2.0000      -0.456767       -12.4293
  45   2.0000      -0.397169       -10.8075
  46   2.0000      -0.388697       -10.5770
  47   2.0000      -0.376527       -10.2458
  48   0.0000       0.018027         0.4905
  49   0.0000       0.021551         0.5864
  50   0.0000       0.030111         0.8194
  51   0.0000       0.033638         0.9153
  52   0.0000       0.039082         1.0635

MULLIKEN ATOMIC CHARGES
-----------------------
   0 Cl:   -0.316635
   1 S :    0.129369
   2 C :   -0.391807
   3 C :    0.008389
   4 C :    0.009036
   5 C :   -0.053285
   6 C :   -0.092975
   7 H :    0.404566
   8 C :   -0.335734
   9 H :    0.218990
  10 H :    0.397840
  11 N :    0.772843
  12 O :   -0.596196
  13 O :   -0.600478
  14 H :    0.446078
Sum of atomic charges:    0.0000000

LOEWDIN ATOMIC CHARGES
----------------------
   0 Cl:    0.492627
   1 S :    0.471449
   2 C :   -0.664364
   3 C :    0.186003
   4 C :   -0.302667
   5 C :    0.326417
   6 C :    0.224031
   7 H :   -0.340102
   8 C :    0.368983
   9 H :   -0.313476
  10 H :   -0.343938
  11 N :   -0.844072
  12 O :    0.558867
  13 O :    0.556356
  14 H :   -0.376114

  Mayer bond orders larger than 0.100000
B(  0-Cl,  1-S ) :   0.9949 B(  0-Cl,  2-C ) :  -0.1693 B(  1-S ,  2-C ) :   1.3183
B(  1-S ,  3-C ) :  -0.4085 B(  1-S ,  6-C ) :  -0.3066 B(  2-C ,  3-C ) :   1.2870
B(  2-C ,  4-C ) :  -0.2998 B(  2-C ,  6-C ) :   1.1019 B(  2-C ,  8-C ) :  -0.2013
B(  3-C ,  4-C ) :   1.3312 B(  3-C ,  8-C ) :   0.1332 B(  3-C , 12-O ) :  -0.1049
B(  3-C , 14-H ) :   0.7561 B(  4-C ,  5-C ) :   1.1213 B(  4-C ,  6-C ) :   0.1009
B(  4-C ,  8-C ) :  -0.3227 B(  4-C , 11-N ) :   0.8244 B(  4-C , 12-O ) :   0.2080
B(  4-C , 13-O ) :   0.2418 B(  4-C , 14-H ) :  -0.1008 B(  5-C ,  8-C ) :   1.2138
B(  5-C ,  9-H ) :  -0.1504 B(  5-C , 10-H ) :   0.8134 B(  5-C , 11-N ) :  -0.1406
B(  6-C ,  7-H ) :   0.8776 B(  6-C ,  8-C ) :   1.2402 B(  8-C ,  9-H ) :   1.1713
B( 11-N , 12-O ) :   1.1853 B( 11-N , 13-O ) :   1.1706

MP2 TOTAL ENERGY:    -1292.971942314 Eh
FINAL SINGLE POINT ENERGY     -1292.971942313764

DIPOLE MOMENT
-------------
                                X             Y             Z
Electronic contribution:     -7.23190      -4.94337       1.06091
Nuclear contribution   :      6.58639       6.45077      -1.26608
                        -----------------------------------------
Total Dipole Moment    :     -0.64551       1.50739      -0.20518
                        -----------------------------------------
Magnitude (a.u.)       :      1.65258
Magnitude (Debye)      :      4.20052

Rotational constants in cm-1:     0.056371     0.014830     0.012906
Rotational constants in MHz :  1689.968547   444.597027   386.918931

                             ****ORCA TERMINATED NORMALLY****
TOTAL RUN TIME: 0 days 0 hours 37 minutes 58 seconds 668 msec
