                         Program Version 5.0.4 -  RELEASE  -
|  1> ! ri-mp2 aug-cc-pvdz aug-cc-pvdz/c tightscf
|  2> %pal nprocs 16 end
|  3> %maxcore 3800
|  4> %base "DZ_S-F_59_AB"
|  5> %scf
|  6> STABPerform true
|  7> STABRestartUHFifUnstable true
|  8> end
|  9>
| 10> *xyz 0 1
| 11> F        -1.495219    0.976930    0.164347
| 12> S        -0.991637   -0.464095   -0.292357
| 13> C         1.479348   -0.011648    0.092882
| 14> N         2.450280    0.449983   -0.304115
| 15> O         0.411890   -0.555854    0.596262
| 16> *
| 17>
| 18> $new_job
| 19> ! ri-mp2 aug-cc-pvtz aug-cc-pvtz/c tightscf
| 20> %pal nprocs 16 end
| 21> %maxcore 3800
| 22> %base "TZ_S-F_59_AB"
| 23>
| 24> *xyz 0 1
| 25> F        -1.495219    0.976930    0.164347
| 26> S        -0.991637   -0.464095   -0.292357
| 27> C         1.479348   -0.011648    0.092882
| 28> N         2.450280    0.449983   -0.304115
| 29> O         0.411890   -0.555854    0.596262
| 30> *
| 31>
| 32> $new_job
| 33> ! ri-mp2 aug-cc-pvqz aug-cc-pvqz/c tightscf
| 34> %pal nprocs 16 end
| 35> %maxcore 3800
| 36> %base "QZ_S-F_59_AB"
| 37>
| 38> *xyz 0 1
| 39> F        -1.495219    0.976930    0.164347
| 40> S        -0.991637   -0.464095   -0.292357
| 41> C         1.479348   -0.011648    0.092882
| 42> N         2.450280    0.449983   -0.304115
| 43> O         0.411890   -0.555854    0.596262
| 44> *
| 45>
| 46>
| 47>
| 48>
| 49>                          ****END OF INPUT****
 Total Charge           Charge          ....    0
 Multiplicity           Mult            ....    1
 Number of Electrons    NEL             ....   46
MP2 TOTAL ENERGY:     -664.901854770 Eh
FINAL SINGLE POINT ENERGY      -664.901854770396
MP2 TOTAL ENERGY:     -665.179695550 Eh
FINAL SINGLE POINT ENERGY      -665.179695549961

CARTESIAN COORDINATES (ANGSTROEM)
---------------------------------
  F     -1.495219    0.976930    0.164347
  S     -0.991637   -0.464095   -0.292357
  C      1.479348   -0.011648    0.092882
  N      2.450280    0.449983   -0.304115
  O      0.411890   -0.555854    0.596262

 Multiplicity           Mult            ....    1
 Number of Electrons    NEL             ....   46
 Basis Dimension        Dim             ....  404

ORBITAL ENERGIES
----------------

  NO   OCC          E(Eh)            E(eV)
   0   2.0000     -92.136757     -2507.1686
   1   2.0000     -26.367192      -717.4878
   2   2.0000     -20.713157      -563.6337
   3   2.0000     -15.589609      -424.2148
   4   2.0000     -11.354996      -308.9851
   5   2.0000      -9.124692      -248.2955
   6   2.0000      -6.805600      -185.1898
   7   2.0000      -6.804130      -185.1498
   8   2.0000      -6.801635      -185.0819
   9   2.0000      -1.674956       -45.5779
  10   2.0000      -1.524943       -41.4958
  11   2.0000      -1.244167       -33.8555
  12   2.0000      -1.035679       -28.1823
  13   2.0000      -0.849197       -23.1078
  14   2.0000      -0.766824       -20.8663
  15   2.0000      -0.759594       -20.6696
  16   2.0000      -0.735556       -20.0155
  17   2.0000      -0.682542       -18.5729
  18   2.0000      -0.630053       -17.1446
  19   2.0000      -0.584329       -15.9004
  20   2.0000      -0.485913       -13.2224
  21   2.0000      -0.476929       -12.9779
  22   2.0000      -0.432015       -11.7557
  23   0.0000       0.033118         0.9012
  24   0.0000       0.037758         1.0275
  25   0.0000       0.048607         1.3227
  26   0.0000       0.061897         1.6843
  27   0.0000       0.074775         2.0347

MULLIKEN ATOMIC CHARGES
-----------------------
   0 F :   -0.552052
   1 S :    0.948743
   2 C :    0.788370
   3 N :   -0.585047
   4 O :   -0.600014
Sum of atomic charges:   -0.0000000

LOEWDIN ATOMIC CHARGES
----------------------
   0 F :    0.080496
   1 S :    0.382981
   2 C :   -0.965313
   3 N :    0.312034
   4 O :    0.189803

  Mayer bond orders larger than 0.100000
B(  0-F ,  1-S ) :   0.6948 B(  1-S ,  4-O ) :   0.7553 B(  2-C ,  3-N ) :   2.6990
B(  2-C ,  4-O ) :   1.1278

MP2 TOTAL ENERGY:     -665.271357067 Eh
FINAL SINGLE POINT ENERGY      -665.271357067059

DIPOLE MOMENT
-------------
                                X             Y             Z
Electronic contribution:     -2.62450       0.15379       0.11737
Nuclear contribution   :      1.41840      -0.88791      -0.13521
                        -----------------------------------------
Total Dipole Moment    :     -1.20609      -0.73412      -0.01785
                        -----------------------------------------
Magnitude (a.u.)       :      1.41206
Magnitude (Debye)      :      3.58918

Rotational constants in cm-1:     0.390808     0.085389     0.076667
Rotational constants in MHz : 11716.132842  2559.883128  2298.427240

                             ****ORCA TERMINATED NORMALLY****
TOTAL RUN TIME: 0 days 0 hours 5 minutes 25 seconds 948 msec
