                         Program Version 5.0.4 -  RELEASE  -
|  1> ! ri-mp2 aug-cc-pvdz aug-cc-pvdz/c tightscf
|  2> %pal nprocs 16 end
|  3> %maxcore 3800
|  4> %base "DZ_B-P_86_AB"
|  5> %scf
|  6> STABPerform true
|  7> STABRestartUHFifUnstable true
|  8> end
|  9>
| 10> *xyz 0 1
| 11> B         0.499745    0.000000    0.010685
| 12> P        -1.440198    0.000000   -0.119699
| 13> N         1.188945    1.229469    0.007762
| 14> N         1.188945   -1.229469    0.007761
| 15> H         0.723306   -2.117637    0.015550
| 16> H         2.191586   -1.302929   -0.008222
| 17> H         0.723307    2.117637    0.015550
| 18> H         2.191586    1.302929   -0.008222
| 19> H        -1.685384    1.036869    0.809374
| 20> H        -1.685384   -1.036870    0.809372
| 21> *
| 22>
| 23> $new_job
| 24> ! ri-mp2 aug-cc-pvtz aug-cc-pvtz/c tightscf
| 25> %pal nprocs 16 end
| 26> %maxcore 3800
| 27> %base "TZ_B-P_86_AB"
| 28>
| 29> *xyz 0 1
| 30> B         0.499745    0.000000    0.010685
| 31> P        -1.440198    0.000000   -0.119699
| 32> N         1.188945    1.229469    0.007762
| 33> N         1.188945   -1.229469    0.007761
| 34> H         0.723306   -2.117637    0.015550
| 35> H         2.191586   -1.302929   -0.008222
| 36> H         0.723307    2.117637    0.015550
| 37> H         2.191586    1.302929   -0.008222
| 38> H        -1.685384    1.036869    0.809374
| 39> H        -1.685384   -1.036870    0.809372
| 40> *
| 41>
| 42> $new_job
| 43> ! ri-mp2 aug-cc-pvqz aug-cc-pvqz/c tightscf
| 44> %pal nprocs 16 end
| 45> %maxcore 3800
| 46> %base "QZ_B-P_86_AB"
| 47>
| 48> *xyz 0 1
| 49> B         0.499745    0.000000    0.010685
| 50> P        -1.440198    0.000000   -0.119699
| 51> N         1.188945    1.229469    0.007762
| 52> N         1.188945   -1.229469    0.007761
| 53> H         0.723306   -2.117637    0.015550
| 54> H         2.191586   -1.302929   -0.008222
| 55> H         0.723307    2.117637    0.015550
| 56> H         2.191586    1.302929   -0.008222
| 57> H        -1.685384    1.036869    0.809374
| 58> H        -1.685384   -1.036870    0.809372
| 59> *
| 60>
| 61>
| 62>
| 63>
| 64>                          ****END OF INPUT****
 Total Charge           Charge          ....    0
 Multiplicity           Mult            ....    1
 Number of Electrons    NEL             ....   40
MP2 TOTAL ENERGY:     -478.507668115 Eh
FINAL SINGLE POINT ENERGY      -478.507668114571
MP2 TOTAL ENERGY:     -478.675765344 Eh
FINAL SINGLE POINT ENERGY      -478.675765343610

CARTESIAN COORDINATES (ANGSTROEM)
---------------------------------
  B      0.499745    0.000000    0.010685
  P     -1.440198    0.000000   -0.119699
  N      1.188945    1.229469    0.007762
  N      1.188945   -1.229469    0.007761
  H      0.723306   -2.117637    0.015550
  H      2.191586   -1.302929   -0.008222
  H      0.723307    2.117637    0.015550
  H      2.191586    1.302929   -0.008222
  H     -1.685384    1.036869    0.809374
  H     -1.685384   -1.036870    0.809372

 Multiplicity           Mult            ....    1
 Number of Electrons    NEL             ....   40
 Basis Dimension        Dim             ....  600

ORBITAL ENERGIES
----------------

  NO   OCC          E(Eh)            E(eV)
   0   2.0000     -79.908283     -2174.4149
   1   2.0000     -15.538852      -422.8336
   2   2.0000     -15.538836      -422.8332
   3   2.0000      -7.603182      -206.8931
   4   2.0000      -7.453944      -202.8321
   5   2.0000      -5.348209      -145.5322
   6   2.0000      -5.347729      -145.5191
   7   2.0000      -5.347089      -145.5017
   8   2.0000      -1.171748       -31.8849
   9   2.0000      -1.130413       -30.7601
  10   2.0000      -0.837335       -22.7850
  11   2.0000      -0.714350       -19.4384
  12   2.0000      -0.675452       -18.3800
  13   2.0000      -0.665275       -18.1030
  14   2.0000      -0.600671       -16.3451
  15   2.0000      -0.502763       -13.6809
  16   2.0000      -0.486103       -13.2275
  17   2.0000      -0.441350       -12.0097
  18   2.0000      -0.390078       -10.6146
  19   2.0000      -0.348276        -9.4771
  20   0.0000       0.020826         0.5667
  21   0.0000       0.034160         0.9295
  22   0.0000       0.036523         0.9938
  23   0.0000       0.039823         1.0836
  24   0.0000       0.051228         1.3940

MULLIKEN ATOMIC CHARGES
-----------------------
   0 B :    0.682202
   1 P :    0.079006
   2 N :   -0.697437
   3 N :   -0.697437
   4 H :    0.207877
   5 H :    0.200712
   6 H :    0.207876
   7 H :    0.200711
   8 H :   -0.091755
   9 H :   -0.091755
Sum of atomic charges:    0.0000000

LOEWDIN ATOMIC CHARGES
----------------------
   0 B :   -1.107774
   1 P :    1.593880
   2 N :    1.302360
   3 N :    1.302360
   4 H :   -0.533415
   5 H :   -0.505037
   6 H :   -0.533416
   7 H :   -0.505037
   8 H :   -0.506960
   9 H :   -0.506961

  Mayer bond orders larger than 0.100000
B(  0-B ,  1-P ) :   0.9177 B(  0-B ,  2-N ) :   1.0955 B(  0-B ,  3-N ) :   1.0955
B(  1-P ,  8-H ) :   0.9302 B(  1-P ,  9-H ) :   0.9302 B(  2-N ,  6-H ) :   1.0040
B(  2-N ,  7-H ) :   1.0130 B(  3-N ,  4-H ) :   1.0040 B(  3-N ,  5-H ) :   1.0130

MP2 TOTAL ENERGY:     -478.729834268 Eh
FINAL SINGLE POINT ENERGY      -478.729834268315

DIPOLE MOMENT
-------------
                                X             Y             Z
Electronic contribution:     -2.50509       0.00000      -1.46415
Nuclear contribution   :      3.40907      -0.00000       1.72230
                        -----------------------------------------
Total Dipole Moment    :      0.90398      -0.00000       0.25815
                        -----------------------------------------
Magnitude (a.u.)       :      0.94012
Magnitude (Debye)      :      2.38959

Rotational constants in cm-1:     0.287480     0.135312     0.093707
Rotational constants in MHz :  8618.430385  4056.539265  2809.274983

                             ****ORCA TERMINATED NORMALLY****
TOTAL RUN TIME: 0 days 0 hours 22 minutes 3 seconds 75 msec
