                         Program Version 5.0.4 -  RELEASE  -
|  1> ! ri-mp2 aug-cc-pvdz aug-cc-pvdz/c tightscf
|  2> %pal nprocs 16 end
|  3> %maxcore 3800
|  4> %base "DZ_Si-Si_50_AB"
|  5> %scf
|  6> STABPerform true
|  7> STABRestartUHFifUnstable true
|  8> end
|  9>
| 10> *xyz 0 1
| 11> Si         0.067498    1.507900    0.213602
| 12> Si        -1.806156    0.415284   -0.651746
| 13> C         1.447847    0.196729    0.431898
| 14> O         2.180768   -0.002131    1.321581
| 15> H        -0.159672    2.139163    1.526542
| 16> H         0.624582    2.487402   -0.740943
| 17> Cl         1.564215   -0.836562   -1.100267
| 18> C        -1.926221   -1.196612    0.388105
| 19> H        -1.700291    0.109675   -2.092720
| 20> H        -3.043946    1.195921   -0.418850
| 21> O        -1.239360   -1.326447    1.370368
| 22> H        -2.632138   -2.007249    0.108924
| 23> *
| 24>
| 25> $new_job
| 26> ! ri-mp2 aug-cc-pvtz aug-cc-pvtz/c tightscf
| 27> %pal nprocs 16 end
| 28> %maxcore 3800
| 29> %base "TZ_Si-Si_50_AB"
| 30>
| 31> *xyz 0 1
| 32> Si         0.067498    1.507900    0.213602
| 33> Si        -1.806156    0.415284   -0.651746
| 34> C         1.447847    0.196729    0.431898
| 35> O         2.180768   -0.002131    1.321581
| 36> H        -0.159672    2.139163    1.526542
| 37> H         0.624582    2.487402   -0.740943
| 38> Cl         1.564215   -0.836562   -1.100267
| 39> C        -1.926221   -1.196612    0.388105
| 40> H        -1.700291    0.109675   -2.092720
| 41> H        -3.043946    1.195921   -0.418850
| 42> O        -1.239360   -1.326447    1.370368
| 43> H        -2.632138   -2.007249    0.108924
| 44> *
| 45>
| 46> $new_job
| 47> ! ri-mp2 aug-cc-pvqz aug-cc-pvqz/c tightscf
| 48> %pal nprocs 16 end
| 49> %maxcore 3800
| 50> %base "QZ_Si-Si_50_AB"
| 51>
| 52> *xyz 0 1
| 53> Si         0.067498    1.507900    0.213602
| 54> Si        -1.806156    0.415284   -0.651746
| 55> C         1.447847    0.196729    0.431898
| 56> O         2.180768   -0.002131    1.321581
| 57> H        -0.159672    2.139163    1.526542
| 58> H         0.624582    2.487402   -0.740943
| 59> Cl         1.564215   -0.836562   -1.100267
| 60> C        -1.926221   -1.196612    0.388105
| 61> H        -1.700291    0.109675   -2.092720
| 62> H        -3.043946    1.195921   -0.418850
| 63> O        -1.239360   -1.326447    1.370368
| 64> H        -2.632138   -2.007249    0.108924
| 65> *
| 66>
| 67>
| 68>
| 69>
| 70>                          ****END OF INPUT****
 Total Charge           Charge          ....    0
 Multiplicity           Mult            ....    1
 Number of Electrons    NEL             ....   78
MP2 TOTAL ENERGY:    -1266.750150828 Eh
FINAL SINGLE POINT ENERGY     -1266.750150827761
MP2 TOTAL ENERGY:    -1267.067407683 Eh
FINAL SINGLE POINT ENERGY     -1267.067407682878

CARTESIAN COORDINATES (ANGSTROEM)
---------------------------------
  Si     0.067498    1.507900    0.213602
  Si    -1.806156    0.415284   -0.651746
  C      1.447847    0.196729    0.431898
  O      2.180768   -0.002131    1.321581
  H     -0.159672    2.139163    1.526542
  H      0.624582    2.487402   -0.740943
  Cl     1.564215   -0.836562   -1.100267
  C     -1.926221   -1.196612    0.388105
  H     -1.700291    0.109675   -2.092720
  H     -3.043946    1.195921   -0.418850
  O     -1.239360   -1.326447    1.370368
  H     -2.632138   -2.007249    0.108924

 Multiplicity           Mult            ....    1
 Number of Electrons    NEL             ....   78
 Basis Dimension        Dim             ....  802

ORBITAL ENERGIES
----------------

  NO   OCC          E(Eh)            E(eV)
   0   2.0000    -104.835302     -2852.7136
   1   2.0000     -68.809989     -1872.4150
   2   2.0000     -68.801363     -1872.1803
   3   2.0000     -20.604842      -560.6863
   4   2.0000     -20.586111      -560.1766
   5   2.0000     -11.394883      -310.0705
   6   2.0000     -11.338106      -308.5255
   7   2.0000     -10.561602      -287.3958
   8   2.0000      -8.028292      -218.4609
   9   2.0000      -8.026879      -218.4225
  10   2.0000      -8.026836      -218.4213
  11   2.0000      -6.160331      -167.6311
  12   2.0000      -6.152500      -167.4180
  13   2.0000      -4.266582      -116.0996
  14   2.0000      -4.266163      -116.0882
  15   2.0000      -4.266050      -116.0851
  16   2.0000      -4.258527      -115.8804
  17   2.0000      -4.258427      -115.8777
  18   2.0000      -4.258307      -115.8744
  19   2.0000      -1.460620       -39.7455
  20   2.0000      -1.418427       -38.5974
  21   2.0000      -1.110728       -30.2244
  22   2.0000      -0.869409       -23.6578
  23   2.0000      -0.842145       -22.9159
  24   2.0000      -0.757556       -20.6142
  25   2.0000      -0.714813       -19.4510
  26   2.0000      -0.674142       -18.3443
  27   2.0000      -0.659596       -17.9485
  28   2.0000      -0.631566       -17.1858
  29   2.0000      -0.605178       -16.4677
  30   2.0000      -0.598312       -16.2809
  31   2.0000      -0.559620       -15.2280
  32   2.0000      -0.522169       -14.2089
  33   2.0000      -0.503652       -13.7051
  34   2.0000      -0.468685       -12.7536
  35   2.0000      -0.461724       -12.5641
  36   2.0000      -0.444170       -12.0865
  37   2.0000      -0.419279       -11.4092
  38   2.0000      -0.408274       -11.1097
  39   0.0000       0.018266         0.4970
  40   0.0000       0.024841         0.6760
  41   0.0000       0.033602         0.9144
  42   0.0000       0.035184         0.9574
  43   0.0000       0.044982         1.2240

MULLIKEN ATOMIC CHARGES
-----------------------
   0 Si:    0.864284
   1 Si:    0.786979
   2 C :    0.580344
   3 O :   -0.680497
   4 H :   -0.194408
   5 H :   -0.235214
   6 Cl:   -0.317128
   7 C :   -0.118274
   8 H :   -0.165360
   9 H :   -0.261376
  10 O :   -0.793379
  11 H :    0.534029
Sum of atomic charges:   -0.0000000

LOEWDIN ATOMIC CHARGES
----------------------
   0 Si:    0.541361
   1 Si:    0.674209
   2 C :   -1.415351
   3 O :    0.513444
   4 H :   -0.266179
   5 H :   -0.278835
   6 Cl:    0.934271
   7 C :   -0.337714
   8 H :   -0.277969
   9 H :   -0.279938
  10 O :    0.617318
  11 H :   -0.424617

  Mayer bond orders larger than 0.100000
B(  0-Si,  1-Si) :   0.8361 B(  0-Si,  2-C ) :   0.5874 B(  0-Si,  4-H ) :   0.8393
B(  0-Si,  5-H ) :   0.7858 B(  1-Si,  7-C ) :   0.7882 B(  1-Si,  8-H ) :   0.8397
B(  1-Si,  9-H ) :   0.8120 B(  2-C ,  3-O ) :   1.6454 B(  2-C ,  6-Cl) :   0.8380
B(  7-C , 10-O ) :   1.6828 B(  7-C , 11-H ) :   0.6498

MP2 TOTAL ENERGY:    -1267.174357801 Eh
FINAL SINGLE POINT ENERGY     -1267.174357801338

DIPOLE MOMENT
-------------
                                X             Y             Z
Electronic contribution:      7.18271      -3.88638      -0.89360
Nuclear contribution   :     -8.66257       4.78182       0.02503
                        -----------------------------------------
Total Dipole Moment    :     -1.47986       0.89544      -0.86857
                        -----------------------------------------
Magnitude (a.u.)       :      1.93551
Magnitude (Debye)      :      4.91969

Rotational constants in cm-1:     0.060000     0.034141     0.032187
Rotational constants in MHz :  1798.757431  1023.509420   964.943753

                             ****ORCA TERMINATED NORMALLY****
TOTAL RUN TIME: 0 days 1 hours 3 minutes 25 seconds 382 msec
