                         Program Version 5.0.4 -  RELEASE  -
|  1> ! ri-mp2 aug-cc-pvdz aug-cc-pvdz/c tightscf
|  2> %pal nprocs 16 end
|  3> %maxcore 3800
|  4> %base "DZ_P-Si_59_A"
|  5> %scf
|  6> STABPerform true
|  7> STABRestartUHFifUnstable true
|  8> end
|  9>
| 10> *xyz 0 2
| 11> C        -3.004510   -0.030753   -0.173612
| 12> C        -1.511661    0.006942   -0.465184
| 13> H        -3.276949   -0.941642    0.363038
| 14> H        -3.590168    0.002578   -1.093516
| 15> H        -3.303907    0.818045    0.444014
| 16> C        -0.663666   -0.036977    0.809251
| 17> H        -1.268781    0.910785   -1.026841
| 18> H        -1.242912   -0.832916   -1.109989
| 19> Si         1.179738   -0.006337    0.473301
| 20> H        -0.893750   -0.935677    1.389186
| 21> H        -0.902678    0.812155    1.455789
| 22> O         1.451165    1.388378   -0.355359
| 23> H         2.268040    1.464982   -0.853315
| 24> O         1.655996   -1.235391   -0.530087
| 25> H         1.916521   -2.068773   -0.133741
| 26> *
| 27>
| 28> $new_job
| 29> ! ri-mp2 aug-cc-pvtz aug-cc-pvtz/c tightscf
| 30> %pal nprocs 16 end
| 31> %maxcore 3800
| 32> %base "TZ_P-Si_59_A"
| 33>
| 34> *xyz 0 2
| 35> C        -3.004510   -0.030753   -0.173612
| 36> C        -1.511661    0.006942   -0.465184
| 37> H        -3.276949   -0.941642    0.363038
| 38> H        -3.590168    0.002578   -1.093516
| 39> H        -3.303907    0.818045    0.444014
| 40> C        -0.663666   -0.036977    0.809251
| 41> H        -1.268781    0.910785   -1.026841
| 42> H        -1.242912   -0.832916   -1.109989
| 43> Si         1.179738   -0.006337    0.473301
| 44> H        -0.893750   -0.935677    1.389186
| 45> H        -0.902678    0.812155    1.455789
| 46> O         1.451165    1.388378   -0.355359
| 47> H         2.268040    1.464982   -0.853315
| 48> O         1.655996   -1.235391   -0.530087
| 49> H         1.916521   -2.068773   -0.133741
| 50> *
| 51>
| 52> $new_job
| 53> ! ri-mp2 aug-cc-pvqz aug-cc-pvqz/c tightscf
| 54> %pal nprocs 16 end
| 55> %maxcore 3800
| 56> %base "QZ_P-Si_59_A"
| 57>
| 58> *xyz 0 2
| 59> C        -3.004510   -0.030753   -0.173612
| 60> C        -1.511661    0.006942   -0.465184
| 61> H        -3.276949   -0.941642    0.363038
| 62> H        -3.590168    0.002578   -1.093516
| 63> H        -3.303907    0.818045    0.444014
| 64> C        -0.663666   -0.036977    0.809251
| 65> H        -1.268781    0.910785   -1.026841
| 66> H        -1.242912   -0.832916   -1.109989
| 67> Si         1.179738   -0.006337    0.473301
| 68> H        -0.893750   -0.935677    1.389186
| 69> H        -0.902678    0.812155    1.455789
| 70> O         1.451165    1.388378   -0.355359
| 71> H         2.268040    1.464982   -0.853315
| 72> O         1.655996   -1.235391   -0.530087
| 73> H         1.916521   -2.068773   -0.133741
| 74> *
| 75>
| 76>
| 77>
| 78>
| 79>                          ****END OF INPUT****
 Total Charge           Charge          ....    0
 Multiplicity           Mult            ....    2
 Number of Electrons    NEL             ....   57
MP2 TOTAL ENERGY:     -558.539299185 Eh
FINAL SINGLE POINT ENERGY      -558.539299184816
MP2 TOTAL ENERGY:     -558.830213293 Eh
FINAL SINGLE POINT ENERGY      -558.830213292795

CARTESIAN COORDINATES (ANGSTROEM)
---------------------------------
  C     -3.004510   -0.030753   -0.173612
  C     -1.511661    0.006942   -0.465184
  H     -3.276949   -0.941642    0.363038
  H     -3.590168    0.002578   -1.093516
  H     -3.303907    0.818045    0.444014
  C     -0.663666   -0.036977    0.809251
  H     -1.268781    0.910785   -1.026841
  H     -1.242912   -0.832916   -1.109989
  Si     1.179738   -0.006337    0.473301
  H     -0.893750   -0.935677    1.389186
  H     -0.902678    0.812155    1.455789
  O      1.451165    1.388378   -0.355359
  H      2.268040    1.464982   -0.853315
  O      1.655996   -1.235391   -0.530087
  H      1.916521   -2.068773   -0.133741

 Multiplicity           Mult            ....    2
 Number of Electrons    NEL             ....   57
 Basis Dimension        Dim             ....  898

ORBITAL ENERGIES
----------------
                 SPIN UP ORBITALS
  NO   OCC          E(Eh)            E(eV)
   0   1.0000     -68.801525     -1872.1847
   1   1.0000     -20.558634      -559.4289
   2   1.0000     -20.553559      -559.2908
   3   1.0000     -11.217398      -305.2409
   4   1.0000     -11.206988      -304.9576
   5   1.0000     -11.206686      -304.9494
   6   1.0000      -6.144226      -167.1929
   7   1.0000      -4.255858      -115.8078
   8   1.0000      -4.248463      -115.6065
   9   1.0000      -4.247323      -115.5755
  10   1.0000      -1.356287       -36.9064
  11   1.0000      -1.331972       -36.2448
  12   1.0000      -1.055902       -28.7325
  13   1.0000      -0.928857       -25.2755
  14   1.0000      -0.804982       -21.9047
  15   1.0000      -0.754651       -20.5351
  16   1.0000      -0.702485       -19.1156
  17   1.0000      -0.627945       -17.0873
  18   1.0000      -0.605444       -16.4750
  19   1.0000      -0.587373       -15.9832
  20   1.0000      -0.567755       -15.4494
  21   1.0000      -0.546832       -14.8800
  22   1.0000      -0.536773       -14.6063
  23   1.0000      -0.529234       -14.4012
  24   1.0000      -0.513266       -13.9667
  25   1.0000      -0.481680       -13.1072
  26   1.0000      -0.469281       -12.7698
  27   1.0000      -0.454280       -12.3616
  28   1.0000      -0.313950        -8.5430
  29   0.0000       0.022867         0.6222
  30   0.0000       0.031848         0.8666
  31   0.0000       0.032740         0.8909
  32   0.0000       0.035366         0.9624
  33   0.0000       0.047985         1.3057

                 SPIN DOWN ORBITALS
  NO   OCC          E(Eh)            E(eV)
   0   1.0000     -68.796548     -1872.0492
   1   1.0000     -20.554973      -559.3292
   2   1.0000     -20.550220      -559.1999
   3   1.0000     -11.216874      -305.2266
   4   1.0000     -11.206777      -304.9519
   5   1.0000     -11.203142      -304.8530
   6   1.0000      -6.136048      -166.9704
   7   1.0000      -4.245434      -115.5241
   8   1.0000      -4.244679      -115.5036
   9   1.0000      -4.237300      -115.3028
  10   1.0000      -1.345825       -36.6217
  11   1.0000      -1.321860       -35.9696
  12   1.0000      -1.051929       -28.6244
  13   1.0000      -0.922099       -25.0916
  14   1.0000      -0.801062       -21.7980
  15   1.0000      -0.745628       -20.2896
  16   1.0000      -0.698669       -19.0118
  17   1.0000      -0.626113       -17.0374
  18   1.0000      -0.586305       -15.9542
  19   1.0000      -0.566227       -15.4078
  20   1.0000      -0.561911       -15.2904
  21   1.0000      -0.539509       -14.6808
  22   1.0000      -0.533111       -14.5067
  23   1.0000      -0.510494       -13.8912
  24   1.0000      -0.507395       -13.8069
  25   1.0000      -0.476209       -12.9583
  26   1.0000      -0.468449       -12.7471
  27   1.0000      -0.431341       -11.7374
  28   0.0000       0.018446         0.5019
  29   0.0000       0.031741         0.8637
  30   0.0000       0.033136         0.9017
  31   0.0000       0.035238         0.9589
  32   0.0000       0.047860         1.3023

MULLIKEN ATOMIC CHARGES AND SPIN POPULATIONS
--------------------------------------------
   0 C :   -0.838937   -0.000958
   1 C :   -0.382117    0.021285
   2 H :    0.226512   -0.001097
   3 H :    0.263979    0.003781
   4 H :    0.227550   -0.001184
   5 C :   -0.532713    0.062623
   6 H :    0.239988   -0.000657
   7 H :    0.250645   -0.001426
   8 Si:    1.350191    0.888223
   9 H :    0.238295   -0.022606
  10 H :    0.198123   -0.003254
  11 O :   -0.978297    0.053548
  12 H :    0.351501   -0.019312
  13 O :   -0.972217    0.047665
  14 H :    0.357495   -0.026633
Sum of atomic charges         :   -0.0000000

LOEWDIN ATOMIC CHARGES AND SPIN POPULATIONS
-------------------------------------------
   0 C :    0.919219    0.004599
   1 C :    0.432504    0.020370
   2 H :   -0.287135    0.000883
   3 H :   -0.282798    0.001893
   4 H :   -0.286463    0.000952
   5 C :    0.504282    0.131364
   6 H :   -0.290921    0.002664
   7 H :   -0.287669    0.002793
   8 Si:   -0.024548    0.516504
   9 H :   -0.356480    0.019948
  10 H :   -0.352858    0.018931
  11 O :    1.066980    0.109333
  12 H :   -0.904827    0.018256
  13 O :    1.068998    0.116987
  14 H :   -0.918286    0.034523

  Mayer bond orders larger than 0.100000
B(  0-C ,  1-C ) :   0.9395 B(  0-C ,  2-H ) :   0.9580 B(  0-C ,  3-H ) :   0.9856
B(  0-C ,  4-H ) :   0.9608 B(  1-C ,  5-C ) :   0.9074 B(  1-C ,  6-H ) :   0.8752
B(  1-C ,  7-H ) :   0.8571 B(  5-C ,  8-Si) :   0.8763 B(  5-C ,  9-H ) :   0.9358
B(  5-C , 10-H ) :   0.9536 B(  5-C , 11-O ) :  -0.1180 B(  8-Si, 11-O ) :   0.6451
B(  8-Si, 13-O ) :   0.6168 B( 11-O , 12-H ) :   0.9177 B( 13-O , 14-H ) :   0.9117

MP2 TOTAL ENERGY:     -558.921464940 Eh
FINAL SINGLE POINT ENERGY      -558.921464939845

DIPOLE MOMENT
-------------
                                X             Y             Z
Electronic contribution:     10.73363       0.29408       0.82809
Nuclear contribution   :    -10.49977      -0.78125      -0.61882
                        -----------------------------------------
Total Dipole Moment    :      0.23386      -0.48716       0.20927
                        -----------------------------------------
Magnitude (a.u.)       :      0.57949
Magnitude (Debye)      :      1.47295

Rotational constants in cm-1:     0.170773     0.049933     0.045343
Rotational constants in MHz :  5119.656599  1496.957026  1359.362723

                             ****ORCA TERMINATED NORMALLY****
TOTAL RUN TIME: 0 days 1 hours 52 minutes 19 seconds 977 msec
