                         Program Version 5.0.4 -  RELEASE  -
|  1> ! ri-mp2 aug-cc-pvdz aug-cc-pvdz/c tightscf
|  2> %pal nprocs 16 end
|  3> %maxcore 3800
|  4> %base "DZ_B-Cl_56_AB"
|  5> %scf
|  6> STABPerform true
|  7> STABRestartUHFifUnstable true
|  8> end
|  9>
| 10> *xyz 0 1
| 11> Cl        -1.556512    1.502375    0.721886
| 12> B        -1.316201   -0.047360   -0.045422
| 13> Cl        -2.678211   -1.116831   -0.300132
| 14> O        -0.103029   -0.510735   -0.400546
| 15> C         1.050682    0.248277   -0.529393
| 16> O         1.055451    1.267005   -1.160398
| 17> N         2.102281   -0.331487    0.075777
| 18> C         2.048484   -1.555337    0.846536
| 19> H         2.229382   -1.350538    1.904653
| 20> H         2.821064   -2.241230    0.494355
| 21> H         1.083513   -2.034207    0.737942
| 22> C         3.390849    0.324660    0.003017
| 23> H         4.125900   -0.341273   -0.453283
| 24> H         3.736893    0.589716    1.004373
| 25> H         3.299125    1.224731   -0.594597
| 26> *
| 27>
| 28> $new_job
| 29> ! ri-mp2 aug-cc-pvtz aug-cc-pvtz/c tightscf
| 30> %pal nprocs 16 end
| 31> %maxcore 3800
| 32> %base "TZ_B-Cl_56_AB"
| 33>
| 34> *xyz 0 1
| 35> Cl        -1.556512    1.502375    0.721886
| 36> B        -1.316201   -0.047360   -0.045422
| 37> Cl        -2.678211   -1.116831   -0.300132
| 38> O        -0.103029   -0.510735   -0.400546
| 39> C         1.050682    0.248277   -0.529393
| 40> O         1.055451    1.267005   -1.160398
| 41> N         2.102281   -0.331487    0.075777
| 42> C         2.048484   -1.555337    0.846536
| 43> H         2.229382   -1.350538    1.904653
| 44> H         2.821064   -2.241230    0.494355
| 45> H         1.083513   -2.034207    0.737942
| 46> C         3.390849    0.324660    0.003017
| 47> H         4.125900   -0.341273   -0.453283
| 48> H         3.736893    0.589716    1.004373
| 49> H         3.299125    1.224731   -0.594597
| 50> *
| 51>
| 52> $new_job
| 53> ! ri-mp2 aug-cc-pvqz aug-cc-pvqz/c tightscf
| 54> %pal nprocs 16 end
| 55> %maxcore 3800
| 56> %base "QZ_B-Cl_56_AB"
| 57>
| 58> *xyz 0 1
| 59> Cl        -1.556512    1.502375    0.721886
| 60> B        -1.316201   -0.047360   -0.045422
| 61> Cl        -2.678211   -1.116831   -0.300132
| 62> O        -0.103029   -0.510735   -0.400546
| 63> C         1.050682    0.248277   -0.529393
| 64> O         1.055451    1.267005   -1.160398
| 65> N         2.102281   -0.331487    0.075777
| 66> C         2.048484   -1.555337    0.846536
| 67> H         2.229382   -1.350538    1.904653
| 68> H         2.821064   -2.241230    0.494355
| 69> H         1.083513   -2.034207    0.737942
| 70> C         3.390849    0.324660    0.003017
| 71> H         4.125900   -0.341273   -0.453283
| 72> H         3.736893    0.589716    1.004373
| 73> H         3.299125    1.224731   -0.594597
| 74> *
| 75>
| 76>
| 77>
| 78>
| 79>                          ****END OF INPUT****
 Total Charge           Charge          ....    0
 Multiplicity           Mult            ....    1
 Number of Electrons    NEL             ....   86
MP2 TOTAL ENERGY:    -1266.527488027 Eh
FINAL SINGLE POINT ENERGY     -1266.527488027441
MP2 TOTAL ENERGY:    -1266.952121629 Eh
FINAL SINGLE POINT ENERGY     -1266.952121628798

CARTESIAN COORDINATES (ANGSTROEM)
---------------------------------
  Cl    -1.556512    1.502375    0.721886
  B     -1.316201   -0.047360   -0.045422
  Cl    -2.678211   -1.116831   -0.300132
  O     -0.103029   -0.510735   -0.400546
  C      1.050682    0.248277   -0.529393
  O      1.055451    1.267005   -1.160398
  N      2.102281   -0.331487    0.075777
  C      2.048484   -1.555337    0.846536
  H      2.229382   -1.350538    1.904653
  H      2.821064   -2.241230    0.494355
  H      1.083513   -2.034207    0.737942
  C      3.390849    0.324660    0.003017
  H      4.125900   -0.341273   -0.453283
  H      3.736893    0.589716    1.004373
  H      3.299125    1.224731   -0.594597

 Multiplicity           Mult            ....    1
 Number of Electrons    NEL             ....   86
 Basis Dimension        Dim             .... 1004

ORBITAL ENERGIES
----------------

  NO   OCC          E(Eh)            E(eV)
   0   2.0000    -104.843432     -2852.9348
   1   2.0000    -104.842743     -2852.9161
   2   2.0000     -20.620445      -561.1108
   3   2.0000     -20.537893      -558.8645
   4   2.0000     -15.609185      -424.7475
   5   2.0000     -11.422123      -310.8118
   6   2.0000     -11.277952      -306.8887
   7   2.0000     -11.269581      -306.6609
   8   2.0000     -10.571312      -287.6600
   9   2.0000     -10.570585      -287.6402
  10   2.0000      -8.038195      -218.7304
  11   2.0000      -8.037474      -218.7108
  12   2.0000      -8.037003      -218.6980
  13   2.0000      -8.036813      -218.6928
  14   2.0000      -8.036305      -218.6790
  15   2.0000      -8.036112      -218.6737
  16   2.0000      -7.748013      -210.8341
  17   2.0000      -1.483950       -40.3803
  18   2.0000      -1.380901       -37.5762
  19   2.0000      -1.277813       -34.7711
  20   2.0000      -1.143099       -31.1053
  21   2.0000      -1.105401       -30.0795
  22   2.0000      -0.994354       -27.0577
  23   2.0000      -0.976955       -26.5843
  24   2.0000      -0.847309       -23.0565
  25   2.0000      -0.747070       -20.3288
  26   2.0000      -0.719246       -19.5717
  27   2.0000      -0.696347       -18.9486
  28   2.0000      -0.662282       -18.0216
  29   2.0000      -0.640739       -17.4354
  30   2.0000      -0.626436       -17.0462
  31   2.0000      -0.606110       -16.4931
  32   2.0000      -0.582321       -15.8458
  33   2.0000      -0.576231       -15.6800
  34   2.0000      -0.561245       -15.2723
  35   2.0000      -0.551518       -15.0076
  36   2.0000      -0.530308       -14.4304
  37   2.0000      -0.499874       -13.6023
  38   2.0000      -0.491883       -13.3848
  39   2.0000      -0.474139       -12.9020
  40   2.0000      -0.463193       -12.6041
  41   2.0000      -0.456558       -12.4236
  42   2.0000      -0.398266       -10.8374
  43   0.0000       0.019714         0.5365
  44   0.0000       0.031576         0.8592
  45   0.0000       0.032016         0.8712
  46   0.0000       0.037567         1.0223
  47   0.0000       0.047287         1.2867

MULLIKEN ATOMIC CHARGES
-----------------------
   0 Cl:   -0.248331
   1 B :    1.082664
   2 Cl:   -0.197246
   3 O :   -1.120441
   4 C :    1.540849
   5 O :   -0.835303
   6 N :   -0.423475
   7 C :   -0.832647
   8 H :    0.328067
   9 H :    0.297807
  10 H :    0.333102
  11 C :   -0.795738
  12 H :    0.290007
  13 H :    0.284261
  14 H :    0.296424
Sum of atomic charges:    0.0000000

LOEWDIN ATOMIC CHARGES
----------------------
   0 Cl:    1.269604
   1 B :   -2.766341
   2 Cl:    1.215878
   3 O :    0.731514
   4 C :   -1.300357
   5 O :    0.710629
   6 N :    0.382611
   7 C :    0.778076
   8 H :   -0.269323
   9 H :   -0.278646
  10 H :   -0.345229
  11 C :    0.767994
  12 H :   -0.275001
  13 H :   -0.271539
  14 H :   -0.349871

  Mayer bond orders larger than 0.100000
B(  0-Cl,  1-B ) :   1.0176 B(  1-B ,  2-Cl) :   0.9617 B(  1-B ,  3-O ) :   0.4735
B(  3-O ,  4-C ) :   0.8835 B(  3-O ,  6-N ) :  -0.1398 B(  3-O ,  7-C ) :  -0.1026
B(  4-C ,  5-O ) :   1.2003 B(  4-C ,  6-N ) :   1.2446 B(  5-O ,  6-N ) :   0.2816
B(  6-N ,  7-C ) :   0.7928 B(  6-N , 11-C ) :   0.8002 B(  7-C ,  8-H ) :   0.9310
B(  7-C ,  9-H ) :   0.9485 B(  7-C , 10-H ) :   0.8945 B( 11-C , 12-H ) :   0.9610
B( 11-C , 13-H ) :   0.9699 B( 11-C , 14-H ) :   0.9152

MP2 TOTAL ENERGY:    -1267.091167610 Eh
FINAL SINGLE POINT ENERGY     -1267.091167610217

DIPOLE MOMENT
-------------
                                X             Y             Z
Electronic contribution:    -22.10073       3.49806      -1.56681
Nuclear contribution   :     23.24927      -4.42898       2.38036
                        -----------------------------------------
Total Dipole Moment    :      1.14854      -0.93092       0.81355
                        -----------------------------------------
Magnitude (a.u.)       :      1.68749
Magnitude (Debye)      :      4.28926

Rotational constants in cm-1:     0.064028     0.022266     0.018864
Rotational constants in MHz :  1919.500053   667.505746   565.523112

                             ****ORCA TERMINATED NORMALLY****
TOTAL RUN TIME: 0 days 2 hours 15 minutes 49 seconds 792 msec
