                         Program Version 5.0.4 -  RELEASE  -
|  1> ! ri-mp2 aug-cc-pvdz aug-cc-pvdz/c tightscf
|  2> %pal nprocs 16 end
|  3> %maxcore 3800
|  4> %base "DZ_P-Cl_23_A"
|  5> %scf
|  6> STABPerform true
|  7> STABRestartUHFifUnstable true
|  8> end
|  9>
| 10> *xyz 0 2
| 11> P         0.000000   -1.635857   -0.218385
| 12> C         1.400618   -0.568302    0.355177
| 13> C         1.264021    0.869642   -0.146320
| 14> C         0.000000    1.585640    0.316926
| 15> C         2.736401   -1.177704   -0.052505
| 16> C         0.000000    3.033565   -0.151999
| 17> H         2.847358   -2.193740    0.327413
| 18> H         2.829846   -1.219014   -1.139414
| 19> H         3.566913   -0.581315    0.330485
| 20> H         0.882266    3.566082    0.205903
| 21> H        -0.882266    3.566081    0.205903
| 22> C        -1.264021    0.869642   -0.146320
| 23> C        -1.400618   -0.568302    0.355177
| 24> C        -2.736401   -1.177704   -0.052505
| 25> H        -2.847358   -2.193740    0.327413
| 26> H        -2.829846   -1.219014   -1.139414
| 27> H        -3.566913   -0.581315    0.330485
| 28> H         0.000000    3.085959   -1.243233
| 29> H         1.345965   -0.549115    1.450693
| 30> H         1.296631    0.874041   -1.241850
| 31> H         2.138726    1.437945    0.186488
| 32> H         0.000000    1.583277    1.413780
| 33> H        -1.296632    0.874041   -1.241850
| 34> H        -2.138726    1.437945    0.186488
| 35> H        -1.345965   -0.549115    1.450693
| 36> *
| 37>
| 38> $new_job
| 39> ! ri-mp2 aug-cc-pvtz aug-cc-pvtz/c tightscf
| 40> %pal nprocs 16 end
| 41> %maxcore 3800
| 42> %base "TZ_P-Cl_23_A"
| 43>
| 44> *xyz 0 2
| 45> P         0.000000   -1.635857   -0.218385
| 46> C         1.400618   -0.568302    0.355177
| 47> C         1.264021    0.869642   -0.146320
| 48> C         0.000000    1.585640    0.316926
| 49> C         2.736401   -1.177704   -0.052505
| 50> C         0.000000    3.033565   -0.151999
| 51> H         2.847358   -2.193740    0.327413
| 52> H         2.829846   -1.219014   -1.139414
| 53> H         3.566913   -0.581315    0.330485
| 54> H         0.882266    3.566082    0.205903
| 55> H        -0.882266    3.566081    0.205903
| 56> C        -1.264021    0.869642   -0.146320
| 57> C        -1.400618   -0.568302    0.355177
| 58> C        -2.736401   -1.177704   -0.052505
| 59> H        -2.847358   -2.193740    0.327413
| 60> H        -2.829846   -1.219014   -1.139414
| 61> H        -3.566913   -0.581315    0.330485
| 62> H         0.000000    3.085959   -1.243233
| 63> H         1.345965   -0.549115    1.450693
| 64> H         1.296631    0.874041   -1.241850
| 65> H         2.138726    1.437945    0.186488
| 66> H         0.000000    1.583277    1.413780
| 67> H        -1.296632    0.874041   -1.241850
| 68> H        -2.138726    1.437945    0.186488
| 69> H        -1.345965   -0.549115    1.450693
| 70> *
| 71>
| 72> $new_job
| 73> ! ri-mp2 aug-cc-pvqz aug-cc-pvqz/c tightscf
| 74> %pal nprocs 16 end
| 75> %maxcore 3800
| 76> %base "QZ_P-Cl_23_A"
| 77>
| 78> *xyz 0 2
| 79> P         0.000000   -1.635857   -0.218385
| 80> C         1.400618   -0.568302    0.355177
| 81> C         1.264021    0.869642   -0.146320
| 82> C         0.000000    1.585640    0.316926
| 83> C         2.736401   -1.177704   -0.052505
| 84> C         0.000000    3.033565   -0.151999
| 85> H         2.847358   -2.193740    0.327413
| 86> H         2.829846   -1.219014   -1.139414
| 87> H         3.566913   -0.581315    0.330485
| 88> H         0.882266    3.566082    0.205903
| 89> H        -0.882266    3.566081    0.205903
| 90> C        -1.264021    0.869642   -0.146320
| 91> C        -1.400618   -0.568302    0.355177
| 92> C        -2.736401   -1.177704   -0.052505
| 93> H        -2.847358   -2.193740    0.327413
| 94> H        -2.829846   -1.219014   -1.139414
| 95> H        -3.566913   -0.581315    0.330485
| 96> H         0.000000    3.085959   -1.243233
| 97> H         1.345965   -0.549115    1.450693
| 98> H         1.296631    0.874041   -1.241850
| 99> H         2.138726    1.437945    0.186488
|100> H         0.000000    1.583277    1.413780
|101> H        -1.296632    0.874041   -1.241850
|102> H        -2.138726    1.437945    0.186488
|103> H        -1.345965   -0.549115    1.450693
|104> *
|105>
|106>
|107>
|108>
|109>                          ****END OF INPUT****
 Total Charge           Charge          ....    0
 Multiplicity           Mult            ....    2
 Number of Electrons    NEL             ....   79
MP2 TOTAL ENERGY:     -654.323247303 Eh
FINAL SINGLE POINT ENERGY      -654.323247303288
MP2 TOTAL ENERGY:     -654.659302504 Eh
FINAL SINGLE POINT ENERGY      -654.659302504299

CARTESIAN COORDINATES (ANGSTROEM)
---------------------------------
  P      0.000000   -1.635857   -0.218385
  C      1.400618   -0.568302    0.355177
  C      1.264021    0.869642   -0.146320
  C      0.000000    1.585640    0.316926
  C      2.736401   -1.177704   -0.052505
  C      0.000000    3.033565   -0.151999
  H      2.847358   -2.193740    0.327413
  H      2.829846   -1.219014   -1.139414
  H      3.566913   -0.581315    0.330485
  H      0.882266    3.566082    0.205903
  H     -0.882266    3.566081    0.205903
  C     -1.264021    0.869642   -0.146320
  C     -1.400618   -0.568302    0.355177
  C     -2.736401   -1.177704   -0.052505
  H     -2.847358   -2.193740    0.327413
  H     -2.829846   -1.219014   -1.139414
  H     -3.566913   -0.581315    0.330485
  H      0.000000    3.085959   -1.243233
  H      1.345965   -0.549115    1.450693
  H      1.296631    0.874041   -1.241850
  H      2.138726    1.437945    0.186488
  H      0.000000    1.583277    1.413780
  H     -1.296632    0.874041   -1.241850
  H     -2.138726    1.437945    0.186488
  H     -1.345965   -0.549115    1.450693

 Multiplicity           Mult            ....    2
 Number of Electrons    NEL             ....   79
 Basis Dimension        Dim             .... 1460

ORBITAL ENERGIES
----------------
                 SPIN UP ORBITALS
  NO   OCC          E(Eh)            E(eV)
   0   1.0000     -79.924469     -2174.8554
   1   1.0000     -11.226778      -305.4962
   2   1.0000     -11.226770      -305.4960
   3   1.0000     -11.223700      -305.4124
   4   1.0000     -11.219665      -305.3026
   5   1.0000     -11.219606      -305.3010
   6   1.0000     -11.213945      -305.1470
   7   1.0000     -11.213944      -305.1469
   8   1.0000     -11.210995      -305.0667
   9   1.0000      -7.468468      -203.2273
  10   1.0000      -5.373454      -146.2191
  11   1.0000      -5.359314      -145.8344
  12   1.0000      -5.357552      -145.7864
  13   1.0000      -1.124152       -30.5897
  14   1.0000      -1.054424       -28.6923
  15   1.0000      -1.036428       -28.2026
  16   1.0000      -0.929877       -25.3033
  17   1.0000      -0.924895       -25.1677
  18   1.0000      -0.872519       -23.7425
  19   1.0000      -0.789407       -21.4809
  20   1.0000      -0.779728       -21.2175
  21   1.0000      -0.729336       -19.8462
  22   1.0000      -0.631149       -17.1744
  23   1.0000      -0.621243       -16.9049
  24   1.0000      -0.606290       -16.4980
  25   1.0000      -0.598997       -16.2995
  26   1.0000      -0.572613       -15.5816
  27   1.0000      -0.553809       -15.0699
  28   1.0000      -0.548196       -14.9172
  29   1.0000      -0.535270       -14.5654
  30   1.0000      -0.533453       -14.5160
  31   1.0000      -0.516328       -14.0500
  32   1.0000      -0.507119       -13.7994
  33   1.0000      -0.474066       -12.9000
  34   1.0000      -0.463183       -12.6038
  35   1.0000      -0.457389       -12.4462
  36   1.0000      -0.456815       -12.4306
  37   1.0000      -0.407477       -11.0880
  38   1.0000      -0.364492        -9.9183
  39   1.0000      -0.325581        -8.8595
  40   0.0000       0.023392         0.6365
  41   0.0000       0.027666         0.7528
  42   0.0000       0.029163         0.7936
  43   0.0000       0.031295         0.8516
  44   0.0000       0.041949         1.1415

                 SPIN DOWN ORBITALS
  NO   OCC          E(Eh)            E(eV)
   0   1.0000     -79.917535     -2174.6667
   1   1.0000     -11.227877      -305.5261
   2   1.0000     -11.227868      -305.5258
   3   1.0000     -11.223799      -305.4151
   4   1.0000     -11.218879      -305.2812
   5   1.0000     -11.218828      -305.2798
   6   1.0000     -11.213873      -305.1450
   7   1.0000     -11.213872      -305.1450
   8   1.0000     -11.210966      -305.0659
   9   1.0000      -7.459946      -202.9954
  10   1.0000      -5.354526      -145.7041
  11   1.0000      -5.354510      -145.7036
  12   1.0000      -5.340556      -145.3239
  13   1.0000      -1.121117       -30.5072
  14   1.0000      -1.053509       -28.6674
  15   1.0000      -1.032704       -28.1013
  16   1.0000      -0.929184       -25.2844
  17   1.0000      -0.923801       -25.1379
  18   1.0000      -0.854047       -23.2398
  19   1.0000      -0.788925       -21.4677
  20   1.0000      -0.774840       -21.0845
  21   1.0000      -0.702337       -19.1116
  22   1.0000      -0.628194       -17.0940
  23   1.0000      -0.614377       -16.7181
  24   1.0000      -0.597856       -16.2685
  25   1.0000      -0.596507       -16.2318
  26   1.0000      -0.568243       -15.4627
  27   1.0000      -0.553643       -15.0654
  28   1.0000      -0.542298       -14.7567
  29   1.0000      -0.534821       -14.5532
  30   1.0000      -0.533443       -14.5157
  31   1.0000      -0.515844       -14.0368
  32   1.0000      -0.502295       -13.6681
  33   1.0000      -0.470732       -12.8093
  34   1.0000      -0.460901       -12.5417
  35   1.0000      -0.455415       -12.3925
  36   1.0000      -0.453118       -12.3300
  37   1.0000      -0.404587       -11.0094
  38   1.0000      -0.348686        -9.4882
  39   0.0000       0.023167         0.6304
  40   0.0000       0.027683         0.7533
  41   0.0000       0.028677         0.7803
  42   0.0000       0.031408         0.8547
  43   0.0000       0.041975         1.1422

MULLIKEN ATOMIC CHARGES AND SPIN POPULATIONS
--------------------------------------------
   0 P :    0.039097    1.132923
   1 C :    0.000656   -0.080534
   2 C :   -0.280693   -0.021430
   3 C :    0.110350   -0.012064
   4 C :   -1.046970    0.007751
   5 C :   -1.013277    0.003626
   6 H :    0.236636    0.001501
   7 H :    0.200293   -0.001993
   8 H :    0.252433   -0.003369
   9 H :    0.203573   -0.000070
  10 H :    0.203145   -0.000067
  11 C :   -0.280832   -0.021506
  12 C :    0.000294   -0.080502
  13 C :   -1.046992    0.007764
  14 H :    0.236709    0.001495
  15 H :    0.200272   -0.001996
  16 H :    0.252380   -0.003372
  17 H :    0.185985    0.000647
  18 H :    0.199155    0.037086
  19 H :    0.205705    0.001760
  20 H :    0.298200   -0.004487
  21 H :    0.140940    0.002424
  22 H :    0.205704    0.001747
  23 H :    0.297940   -0.004452
  24 H :    0.199297    0.037118
Sum of atomic charges         :   -0.0000000

LOEWDIN ATOMIC CHARGES AND SPIN POPULATIONS
-------------------------------------------
   0 P :    1.189130    0.550059
   1 C :   -0.092211    0.142922
   2 C :    0.437039    0.023047
   3 C :    0.097220    0.004255
   4 C :    0.829262    0.015283
   5 C :    0.935623    0.000674
   6 H :   -0.296866    0.002470
   7 H :   -0.292982    0.003107
   8 H :   -0.279822   -0.000129
   9 H :   -0.271508    0.000302
  10 H :   -0.271508    0.000302
  11 C :    0.437040    0.023046
  12 C :   -0.092212    0.142922
  13 C :    0.829262    0.015283
  14 H :   -0.296866    0.002470
  15 H :   -0.292982    0.003107
  16 H :   -0.279822   -0.000129
  17 H :   -0.270301    0.000215
  18 H :   -0.340192    0.021950
  19 H :   -0.270261    0.010242
  20 H :   -0.266263    0.002976
  21 H :   -0.264063    0.000459
  22 H :   -0.270261    0.010242
  23 H :   -0.266263    0.002976
  24 H :   -0.340192    0.021950

  Mayer bond orders larger than 0.100000
B(  0-P ,  1-C ) :   0.7046 B(  0-P , 12-C ) :   0.7057 B(  1-C ,  2-C ) :   0.8556
B(  1-C ,  4-C ) :   0.5325 B(  1-C ,  6-H ) :  -0.1285 B(  1-C ,  8-H ) :  -0.1297
B(  1-C , 18-H ) :   0.9855 B(  2-C ,  3-C ) :   0.6425 B(  2-C , 19-H ) :   0.9736
B(  2-C , 20-H ) :   0.9054 B(  3-C ,  5-C ) :   0.5931 B(  3-C ,  9-H ) :  -0.1309
B(  3-C , 10-H ) :  -0.1312 B(  3-C , 11-C ) :   0.6429 B(  3-C , 17-H ) :  -0.1146
B(  3-C , 21-H ) :   1.0410 B(  4-C ,  6-H ) :   1.0697 B(  4-C ,  7-H ) :   1.0486
B(  4-C ,  8-H ) :   1.0524 B(  5-C ,  9-H ) :   1.1100 B(  5-C , 10-H ) :   1.1107
B(  5-C , 17-H ) :   1.0462 B( 11-C , 12-C ) :   0.8558 B( 11-C , 22-H ) :   0.9738
B( 11-C , 23-H ) :   0.9051 B( 12-C , 13-C ) :   0.5327 B( 12-C , 14-H ) :  -0.1284
B( 12-C , 16-H ) :  -0.1297 B( 12-C , 24-H ) :   0.9851 B( 13-C , 14-H ) :   1.0696
B( 13-C , 15-H ) :   1.0485 B( 13-C , 16-H ) :   1.0524

MP2 TOTAL ENERGY:     -654.761012757 Eh
FINAL SINGLE POINT ENERGY      -654.761012757340

DIPOLE MOMENT
-------------
                                X             Y             Z
Electronic contribution:      0.00000      -8.61929      -0.28619
Nuclear contribution   :     -0.00000       9.21866       0.64031
                        -----------------------------------------
Total Dipole Moment    :     -0.00000       0.59937       0.35413
                        -----------------------------------------
Magnitude (a.u.)       :      0.69617
Magnitude (Debye)      :      1.76952

Rotational constants in cm-1:     0.046765     0.046564     0.024749
Rotational constants in MHz :  1401.973151  1395.956813   741.953410

                             ****ORCA TERMINATED NORMALLY****
TOTAL RUN TIME: 1 days 5 hours 37 minutes 33 seconds 885 msec
