                         Program Version 5.0.4 -  RELEASE  -
|  1> ! ri-mp2 aug-cc-pvdz aug-cc-pvdz/c tightscf
|  2> %pal nprocs 16 end
|  3> %maxcore 3800
|  4> %base "DZ_S-Cl_63_AB"
|  5> %scf
|  6> STABPerform true
|  7> STABRestartUHFifUnstable true
|  8> end
|  9>
| 10> *xyz 0 1
| 11> Cl         2.382730   -0.040203   -0.396583
| 12> S         0.829111   -0.832350    0.642772
| 13> C        -0.562730   -0.198837   -0.375163
| 14> O        -0.578821    1.156691   -0.591482
| 15> O        -1.642293   -0.672461    0.356559
| 16> C        -0.606399    1.988437    0.560307
| 17> H        -0.768643    2.998462    0.194862
| 18> H         0.342479    1.940162    1.095265
| 19> H        -1.415339    1.704222    1.233398
| 20> C        -2.854174   -0.726475   -0.377644
| 21> H        -3.613332   -1.107223    0.299962
| 22> H        -2.758067   -1.402239   -1.231910
| 23> H        -3.141482    0.265167   -0.731417
| 24> H        -0.509075   -0.650109   -1.368222
| 25> *
| 26>
| 27> $new_job
| 28> ! ri-mp2 aug-cc-pvtz aug-cc-pvtz/c tightscf
| 29> %pal nprocs 16 end
| 30> %maxcore 3800
| 31> %base "TZ_S-Cl_63_AB"
| 32>
| 33> *xyz 0 1
| 34> Cl         2.382730   -0.040203   -0.396583
| 35> S         0.829111   -0.832350    0.642772
| 36> C        -0.562730   -0.198837   -0.375163
| 37> O        -0.578821    1.156691   -0.591482
| 38> O        -1.642293   -0.672461    0.356559
| 39> C        -0.606399    1.988437    0.560307
| 40> H        -0.768643    2.998462    0.194862
| 41> H         0.342479    1.940162    1.095265
| 42> H        -1.415339    1.704222    1.233398
| 43> C        -2.854174   -0.726475   -0.377644
| 44> H        -3.613332   -1.107223    0.299962
| 45> H        -2.758067   -1.402239   -1.231910
| 46> H        -3.141482    0.265167   -0.731417
| 47> H        -0.509075   -0.650109   -1.368222
| 48> *
| 49>
| 50> $new_job
| 51> ! ri-mp2 aug-cc-pvqz aug-cc-pvqz/c tightscf
| 52> %pal nprocs 16 end
| 53> %maxcore 3800
| 54> %base "QZ_S-Cl_63_AB"
| 55>
| 56> *xyz 0 1
| 57> Cl         2.382730   -0.040203   -0.396583
| 58> S         0.829111   -0.832350    0.642772
| 59> C        -0.562730   -0.198837   -0.375163
| 60> O        -0.578821    1.156691   -0.591482
| 61> O        -1.642293   -0.672461    0.356559
| 62> C        -0.606399    1.988437    0.560307
| 63> H        -0.768643    2.998462    0.194862
| 64> H         0.342479    1.940162    1.095265
| 65> H        -1.415339    1.704222    1.233398
| 66> C        -2.854174   -0.726475   -0.377644
| 67> H        -3.613332   -1.107223    0.299962
| 68> H        -2.758067   -1.402239   -1.231910
| 69> H        -3.141482    0.265167   -0.731417
| 70> H        -0.509075   -0.650109   -1.368222
| 71> *
| 72>
| 73>
| 74>
| 75>
| 76>                          ****END OF INPUT****
 Total Charge           Charge          ....    0
 Multiplicity           Mult            ....    1
 Number of Electrons    NEL             ....   74
MP2 TOTAL ENERGY:    -1125.562194884 Eh
FINAL SINGLE POINT ENERGY     -1125.562194883922
MP2 TOTAL ENERGY:    -1125.918799756 Eh
FINAL SINGLE POINT ENERGY     -1125.918799756130

CARTESIAN COORDINATES (ANGSTROEM)
---------------------------------
  Cl     2.382730   -0.040203   -0.396583
  S      0.829111   -0.832350    0.642772
  C     -0.562730   -0.198837   -0.375163
  O     -0.578821    1.156691   -0.591482
  O     -1.642293   -0.672461    0.356559
  C     -0.606399    1.988437    0.560307
  H     -0.768643    2.998462    0.194862
  H      0.342479    1.940162    1.095265
  H     -1.415339    1.704222    1.233398
  C     -2.854174   -0.726475   -0.377644
  H     -3.613332   -1.107223    0.299962
  H     -2.758067   -1.402239   -1.231910
  H     -3.141482    0.265167   -0.731417
  H     -0.509075   -0.650109   -1.368222

 Multiplicity           Mult            ....    1
 Number of Electrons    NEL             ....   74
 Basis Dimension        Dim             ....  890

ORBITAL ENERGIES
----------------

  NO   OCC          E(Eh)            E(eV)
   0   2.0000    -104.847739     -2853.0520
   1   2.0000     -92.002991     -2503.5287
   2   2.0000     -20.588252      -560.2348
   3   2.0000     -20.581631      -560.0547
   4   2.0000     -11.381525      -309.7070
   5   2.0000     -11.290081      -307.2187
   6   2.0000     -11.276794      -306.8572
   7   2.0000     -10.572124      -287.6821
   8   2.0000      -9.001878      -244.9536
   9   2.0000      -8.039163      -218.7568
  10   2.0000      -8.037255      -218.7048
  11   2.0000      -8.037078      -218.7000
  12   2.0000      -6.683052      -181.8551
  13   2.0000      -6.681320      -181.8080
  14   2.0000      -6.680217      -181.7779
  15   2.0000      -1.452630       -39.5281
  16   2.0000      -1.376727       -37.4626
  17   2.0000      -1.140842       -31.0439
  18   2.0000      -1.020192       -27.7608
  19   2.0000      -0.958644       -26.0860
  20   2.0000      -0.915242       -24.9050
  21   2.0000      -0.818547       -22.2738
  22   2.0000      -0.727435       -19.7945
  23   2.0000      -0.709175       -19.2976
  24   2.0000      -0.682443       -18.5702
  25   2.0000      -0.633032       -17.2257
  26   2.0000      -0.621407       -16.9093
  27   2.0000      -0.594859       -16.1869
  28   2.0000      -0.549639       -14.9564
  29   2.0000      -0.543456       -14.7882
  30   2.0000      -0.523588       -14.2476
  31   2.0000      -0.506917       -13.7939
  32   2.0000      -0.492205       -13.3936
  33   2.0000      -0.473325       -12.8798
  34   2.0000      -0.465684       -12.6719
  35   2.0000      -0.421426       -11.4676
  36   2.0000      -0.361767        -9.8442
  37   0.0000       0.023621         0.6428
  38   0.0000       0.032411         0.8820
  39   0.0000       0.034917         0.9501
  40   0.0000       0.040972         1.1149
  41   0.0000       0.051586         1.4037

MULLIKEN ATOMIC CHARGES
-----------------------
   0 Cl:   -0.377408
   1 S :    0.078622
   2 C :    0.902875
   3 O :   -0.790894
   4 O :   -0.851846
   5 C :   -0.714572
   6 H :    0.405960
   7 H :    0.329276
   8 H :    0.297197
   9 C :   -0.660519
  10 H :    0.395822
  11 H :    0.286897
  12 H :    0.296488
  13 H :    0.402099
Sum of atomic charges:   -0.0000000

LOEWDIN ATOMIC CHARGES
----------------------
   0 Cl:    0.492749
   1 S :    0.415425
   2 C :   -1.187773
   3 O :    0.806774
   4 O :    0.762690
   5 C :    0.525229
   6 H :   -0.321994
   7 H :   -0.359730
   8 H :   -0.324636
   9 C :    0.582398
  10 H :   -0.318709
  11 H :   -0.306244
  12 H :   -0.308166
  13 H :   -0.458013

  Mayer bond orders larger than 0.100000
B(  0-Cl,  1-S ) :   1.0131 B(  0-Cl,  2-C ) :  -0.2047 B(  1-S ,  2-C ) :   0.6652
B(  1-S ,  4-O ) :   0.1049 B(  2-C ,  3-O ) :   0.6920 B(  2-C ,  4-O ) :   0.6377
B(  2-C , 13-H ) :   0.7956 B(  3-O ,  5-C ) :   0.8450 B(  4-O ,  9-C ) :   0.8768
B(  5-C ,  6-H ) :   0.8615 B(  5-C ,  7-H ) :   0.8894 B(  5-C ,  8-H ) :   0.9017
B(  9-C , 10-H ) :   0.8697 B(  9-C , 11-H ) :   0.9119 B(  9-C , 12-H ) :   0.9060

MP2 TOTAL ENERGY:    -1126.032946121 Eh
FINAL SINGLE POINT ENERGY     -1126.032946121095

DIPOLE MOMENT
-------------
                                X             Y             Z
Electronic contribution:     13.85794      -3.56799      -0.14801
Nuclear contribution   :    -14.94340       3.74174       0.03487
                        -----------------------------------------
Total Dipole Moment    :     -1.08547       0.17375      -0.11314
                        -----------------------------------------
Magnitude (a.u.)       :      1.10509
Magnitude (Debye)      :      2.80892

Rotational constants in cm-1:     0.102189     0.037464     0.031493
Rotational constants in MHz :  3063.563041  1123.150995   944.144536

                             ****ORCA TERMINATED NORMALLY****
TOTAL RUN TIME: 0 days 1 hours 33 minutes 32 seconds 83 msec
