                         Program Version 5.0.4 -  RELEASE  -
|  1> ! ri-mp2 aug-cc-pvdz aug-cc-pvdz/c tightscf
|  2> %pal nprocs 16 end
|  3> %maxcore 3800
|  4> %base "DZ_S-Cl_64_AB"
|  5> %scf
|  6> STABPerform true
|  7> STABRestartUHFifUnstable true
|  8> end
|  9>
| 10> *xyz 0 1
| 11> Cl        -2.116002    0.237842    0.318212
| 12> S        -0.697266   -0.499263   -0.931117
| 13> C         0.843904   -0.389866    0.122546
| 14> O         0.958754    0.817967    0.773470
| 15> O         1.847404   -0.637708   -0.816175
| 16> C         1.080807    1.987977   -0.009853
| 17> H         2.045988    2.025085   -0.521704
| 18> H         1.022626    2.823291    0.681837
| 19> H         0.270408    2.065598   -0.737398
| 20> C         0.882744   -1.472149    1.165619
| 21> H         0.045298   -1.351729    1.848669
| 22> H         1.814003   -1.383556    1.723487
| 23> H         0.829477   -2.447287    0.689714
| 24> H         1.806498    0.015636   -1.524567
| 25> *
| 26>
| 27> $new_job
| 28> ! ri-mp2 aug-cc-pvtz aug-cc-pvtz/c tightscf
| 29> %pal nprocs 16 end
| 30> %maxcore 3800
| 31> %base "TZ_S-Cl_64_AB"
| 32>
| 33> *xyz 0 1
| 34> Cl        -2.116002    0.237842    0.318212
| 35> S        -0.697266   -0.499263   -0.931117
| 36> C         0.843904   -0.389866    0.122546
| 37> O         0.958754    0.817967    0.773470
| 38> O         1.847404   -0.637708   -0.816175
| 39> C         1.080807    1.987977   -0.009853
| 40> H         2.045988    2.025085   -0.521704
| 41> H         1.022626    2.823291    0.681837
| 42> H         0.270408    2.065598   -0.737398
| 43> C         0.882744   -1.472149    1.165619
| 44> H         0.045298   -1.351729    1.848669
| 45> H         1.814003   -1.383556    1.723487
| 46> H         0.829477   -2.447287    0.689714
| 47> H         1.806498    0.015636   -1.524567
| 48> *
| 49>
| 50> $new_job
| 51> ! ri-mp2 aug-cc-pvqz aug-cc-pvqz/c tightscf
| 52> %pal nprocs 16 end
| 53> %maxcore 3800
| 54> %base "QZ_S-Cl_64_AB"
| 55>
| 56> *xyz 0 1
| 57> Cl        -2.116002    0.237842    0.318212
| 58> S        -0.697266   -0.499263   -0.931117
| 59> C         0.843904   -0.389866    0.122546
| 60> O         0.958754    0.817967    0.773470
| 61> O         1.847404   -0.637708   -0.816175
| 62> C         1.080807    1.987977   -0.009853
| 63> H         2.045988    2.025085   -0.521704
| 64> H         1.022626    2.823291    0.681837
| 65> H         0.270408    2.065598   -0.737398
| 66> C         0.882744   -1.472149    1.165619
| 67> H         0.045298   -1.351729    1.848669
| 68> H         1.814003   -1.383556    1.723487
| 69> H         0.829477   -2.447287    0.689714
| 70> H         1.806498    0.015636   -1.524567
| 71> *
| 72>
| 73>
| 74>
| 75>
| 76>                          ****END OF INPUT****
 Total Charge           Charge          ....    0
 Multiplicity           Mult            ....    1
 Number of Electrons    NEL             ....   74
MP2 TOTAL ENERGY:    -1125.591473677 Eh
FINAL SINGLE POINT ENERGY     -1125.591473677207
MP2 TOTAL ENERGY:    -1125.945489117 Eh
FINAL SINGLE POINT ENERGY     -1125.945489116864

CARTESIAN COORDINATES (ANGSTROEM)
---------------------------------
  Cl    -2.116002    0.237842    0.318212
  S     -0.697266   -0.499263   -0.931117
  C      0.843904   -0.389866    0.122546
  O      0.958754    0.817967    0.773470
  O      1.847404   -0.637708   -0.816175
  C      1.080807    1.987977   -0.009853
  H      2.045988    2.025085   -0.521704
  H      1.022626    2.823291    0.681837
  H      0.270408    2.065598   -0.737398
  C      0.882744   -1.472149    1.165619
  H      0.045298   -1.351729    1.848669
  H      1.814003   -1.383556    1.723487
  H      0.829477   -2.447287    0.689714
  H      1.806498    0.015636   -1.524567

 Multiplicity           Mult            ....    1
 Number of Electrons    NEL             ....   74
 Basis Dimension        Dim             ....  890

ORBITAL ENERGIES
----------------

  NO   OCC          E(Eh)            E(eV)
   0   2.0000    -104.851154     -2853.1449
   1   2.0000     -92.002974     -2503.5282
   2   2.0000     -20.596748      -560.4660
   3   2.0000     -20.585440      -560.1583
   4   2.0000     -11.393113      -310.0224
   5   2.0000     -11.287398      -307.1457
   6   2.0000     -11.226013      -305.4754
   7   2.0000     -10.575505      -287.7741
   8   2.0000      -9.002254      -244.9638
   9   2.0000      -8.042537      -218.8486
  10   2.0000      -8.040626      -218.7966
  11   2.0000      -8.040452      -218.7918
  12   2.0000      -6.683477      -181.8666
  13   2.0000      -6.681639      -181.8166
  14   2.0000      -6.680667      -181.7902
  15   2.0000      -1.455406       -39.6036
  16   2.0000      -1.376260       -37.4499
  17   2.0000      -1.142565       -31.0908
  18   2.0000      -1.052630       -28.6435
  19   2.0000      -0.946495       -25.7554
  20   2.0000      -0.930421       -25.3180
  21   2.0000      -0.813081       -22.1251
  22   2.0000      -0.747895       -20.3512
  23   2.0000      -0.686972       -18.6935
  24   2.0000      -0.677751       -18.4425
  25   2.0000      -0.639176       -17.3929
  26   2.0000      -0.597727       -16.2650
  27   2.0000      -0.567401       -15.4398
  28   2.0000      -0.554234       -15.0815
  29   2.0000      -0.542361       -14.7584
  30   2.0000      -0.532255       -14.4834
  31   2.0000      -0.516394       -14.0518
  32   2.0000      -0.507130       -13.7997
  33   2.0000      -0.500946       -13.6314
  34   2.0000      -0.472644       -12.8613
  35   2.0000      -0.413723       -11.2580
  36   2.0000      -0.364797        -9.9266
  37   0.0000       0.023979         0.6525
  38   0.0000       0.033790         0.9195
  39   0.0000       0.033820         0.9203
  40   0.0000       0.041070         1.1176
  41   0.0000       0.051412         1.3990

MULLIKEN ATOMIC CHARGES
-----------------------
   0 Cl:   -0.358137
   1 S :    0.030175
   2 C :    1.675973
   3 O :   -0.856542
   4 O :   -0.952178
   5 C :   -0.711407
   6 H :    0.273938
   7 H :    0.421020
   8 H :    0.303116
   9 C :   -1.041824
  10 H :    0.267706
  11 H :    0.275999
  12 H :    0.302373
  13 H :    0.369787
Sum of atomic charges:   -0.0000000

LOEWDIN ATOMIC CHARGES
----------------------
   0 Cl:    0.517622
   1 S :    0.429346
   2 C :   -1.490448
   3 O :    0.819519
   4 O :    1.223422
   5 C :    0.531717
   6 H :   -0.311864
   7 H :   -0.317357
   8 H :   -0.371806
   9 C :    0.756792
  10 H :   -0.327777
  11 H :   -0.292142
  12 H :   -0.315615
  13 H :   -0.851408

  Mayer bond orders larger than 0.100000
B(  0-Cl,  1-S ) :   0.9818 B(  0-Cl,  2-C ) :  -0.1774 B(  1-S ,  2-C ) :   0.6805
B(  1-S ,  4-O ) :   0.1163 B(  2-C ,  3-O ) :   0.5656 B(  2-C ,  4-O ) :   0.3559
B(  2-C ,  9-C ) :   0.6106 B(  3-O ,  5-C ) :   0.9079 B(  4-O ,  9-C ) :   0.1120
B(  4-O , 13-H ) :   0.8497 B(  5-C ,  6-H ) :   0.9203 B(  5-C ,  7-H ) :   0.8404
B(  5-C ,  8-H ) :   0.8879 B(  9-C , 10-H ) :   0.9967 B(  9-C , 11-H ) :   0.9298
B(  9-C , 12-H ) :   0.9832

MP2 TOTAL ENERGY:    -1126.059802931 Eh
FINAL SINGLE POINT ENERGY     -1126.059802930854

DIPOLE MOMENT
-------------
                                X             Y             Z
Electronic contribution:    -10.13203      -0.89386      -1.96751
Nuclear contribution   :     10.64972       1.38882       1.68882
                        -----------------------------------------
Total Dipole Moment    :      0.51769       0.49496      -0.27869
                        -----------------------------------------
Magnitude (a.u.)       :      0.76854
Magnitude (Debye)      :      1.95347

Rotational constants in cm-1:     0.081305     0.046171     0.040403
Rotational constants in MHz :  2437.469825  1384.181962  1211.240270

                             ****ORCA TERMINATED NORMALLY****
TOTAL RUN TIME: 0 days 1 hours 31 minutes 55 seconds 38 msec
