                         Program Version 5.0.4 -  RELEASE  -
|  1> ! ri-mp2 aug-cc-pvdz aug-cc-pvdz/c tightscf
|  2> %pal nprocs 16 end
|  3> %maxcore 3800
|  4> %base "DZ_B-P_54_AB"
|  5> %scf
|  6> STABPerform true
|  7> STABRestartUHFifUnstable true
|  8> end
|  9>
| 10> *xyz 0 1
| 11> C        -1.846653   -0.261074    0.348118
| 12> B         1.088928    0.166339   -0.028406
| 13> C         0.920044    1.703792   -0.195907
| 14> H         1.108591    1.934240   -1.252451
| 15> H         1.656805    2.267784    0.378669
| 16> H        -0.083472    2.070824    0.017479
| 17> C         2.458457   -0.475818    0.362496
| 18> H         3.298154    0.050640   -0.096797
| 19> H         2.557260   -1.543262    0.167690
| 20> H         2.574249   -0.333979    1.444365
| 21> O        -2.213904    0.869745    0.182392
| 22> P        -0.361837   -0.998849   -0.431265
| 23> H        -2.440722   -0.966103    0.965133
| 24> H        -0.167809   -2.088472    0.439542
| 25> *
| 26>
| 27> $new_job
| 28> ! ri-mp2 aug-cc-pvtz aug-cc-pvtz/c tightscf
| 29> %pal nprocs 16 end
| 30> %maxcore 3800
| 31> %base "TZ_B-P_54_AB"
| 32>
| 33> *xyz 0 1
| 34> C        -1.846653   -0.261074    0.348118
| 35> B         1.088928    0.166339   -0.028406
| 36> C         0.920044    1.703792   -0.195907
| 37> H         1.108591    1.934240   -1.252451
| 38> H         1.656805    2.267784    0.378669
| 39> H        -0.083472    2.070824    0.017479
| 40> C         2.458457   -0.475818    0.362496
| 41> H         3.298154    0.050640   -0.096797
| 42> H         2.557260   -1.543262    0.167690
| 43> H         2.574249   -0.333979    1.444365
| 44> O        -2.213904    0.869745    0.182392
| 45> P        -0.361837   -0.998849   -0.431265
| 46> H        -2.440722   -0.966103    0.965133
| 47> H        -0.167809   -2.088472    0.439542
| 48> *
| 49>
| 50> $new_job
| 51> ! ri-mp2 aug-cc-pvqz aug-cc-pvqz/c tightscf
| 52> %pal nprocs 16 end
| 53> %maxcore 3800
| 54> %base "QZ_B-P_54_AB"
| 55>
| 56> *xyz 0 1
| 57> C        -1.846653   -0.261074    0.348118
| 58> B         1.088928    0.166339   -0.028406
| 59> C         0.920044    1.703792   -0.195907
| 60> H         1.108591    1.934240   -1.252451
| 61> H         1.656805    2.267784    0.378669
| 62> H        -0.083472    2.070824    0.017479
| 63> C         2.458457   -0.475818    0.362496
| 64> H         3.298154    0.050640   -0.096797
| 65> H         2.557260   -1.543262    0.167690
| 66> H         2.574249   -0.333979    1.444365
| 67> O        -2.213904    0.869745    0.182392
| 68> P        -0.361837   -0.998849   -0.431265
| 69> H        -2.440722   -0.966103    0.965133
| 70> H        -0.167809   -2.088472    0.439542
| 71> *
| 72>
| 73>
| 74>
| 75>
| 76>                          ****END OF INPUT****
 Total Charge           Charge          ....    0
 Multiplicity           Mult            ....    1
 Number of Electrons    NEL             ....   54
MP2 TOTAL ENERGY:     -559.411538061 Eh
FINAL SINGLE POINT ENERGY      -559.411538060637
MP2 TOTAL ENERGY:     -559.649857342 Eh
FINAL SINGLE POINT ENERGY      -559.649857341796

CARTESIAN COORDINATES (ANGSTROEM)
---------------------------------
  C     -1.846653   -0.261074    0.348118
  B      1.088928    0.166339   -0.028406
  C      0.920044    1.703792   -0.195907
  H      1.108591    1.934240   -1.252451
  H      1.656805    2.267784    0.378669
  H     -0.083472    2.070824    0.017479
  C      2.458457   -0.475818    0.362496
  H      3.298154    0.050640   -0.096797
  H      2.557260   -1.543262    0.167690
  H      2.574249   -0.333979    1.444365
  O     -2.213904    0.869745    0.182392
  P     -0.361837   -0.998849   -0.431265
  H     -2.440722   -0.966103    0.965133
  H     -0.167809   -2.088472    0.439542

 Multiplicity           Mult            ....    1
 Number of Electrons    NEL             ....   54
 Basis Dimension        Dim             ....  852

ORBITAL ENERGIES
----------------

  NO   OCC          E(Eh)            E(eV)
   0   2.0000     -79.935462     -2175.1545
   1   2.0000     -20.562853      -559.5437
   2   2.0000     -11.340796      -308.5988
   3   2.0000     -11.206916      -304.9557
   4   2.0000     -11.194811      -304.6263
   5   2.0000      -7.614757      -207.2081
   6   2.0000      -7.482820      -203.6179
   7   2.0000      -5.377112      -146.3187
   8   2.0000      -5.376715      -146.3079
   9   2.0000      -5.376467      -146.3011
  10   2.0000      -1.404216       -38.2106
  11   2.0000      -0.986196       -26.8358
  12   2.0000      -0.934875       -25.4392
  13   2.0000      -0.919358       -25.0170
  14   2.0000      -0.781070       -21.2540
  15   2.0000      -0.668024       -18.1779
  16   2.0000      -0.638216       -17.3668
  17   2.0000      -0.600947       -16.3526
  18   2.0000      -0.582691       -15.8558
  19   2.0000      -0.570916       -15.5354
  20   2.0000      -0.551281       -15.0011
  21   2.0000      -0.541918       -14.7463
  22   2.0000      -0.530988       -14.4489
  23   2.0000      -0.482277       -13.1234
  24   2.0000      -0.464302       -12.6343
  25   2.0000      -0.401588       -10.9278
  26   2.0000      -0.358733        -9.7616
  27   0.0000       0.019954         0.5430
  28   0.0000       0.029587         0.8051
  29   0.0000       0.033086         0.9003
  30   0.0000       0.035409         0.9635
  31   0.0000       0.045283         1.2322

MULLIKEN ATOMIC CHARGES
-----------------------
   0 C :   -0.127608
   1 B :    0.169679
   2 C :   -1.034893
   3 H :    0.284069
   4 H :    0.314159
   5 H :    0.407143
   6 C :   -1.008807
   7 H :    0.315839
   8 H :    0.292872
   9 H :    0.264857
  10 O :   -0.754974
  11 P :    0.461744
  12 H :    0.512965
  13 H :   -0.097047
Sum of atomic charges:    0.0000000

LOEWDIN ATOMIC CHARGES
----------------------
   0 C :   -0.486987
   1 B :   -0.722165
   2 C :    0.995067
   3 H :   -0.294423
   4 H :   -0.299220
   5 H :   -0.365975
   6 C :    0.989948
   7 H :   -0.299913
   8 H :   -0.321287
   9 H :   -0.297136
  10 O :    0.629158
  11 P :    1.356959
  12 H :   -0.433179
  13 H :   -0.450846

  Mayer bond orders larger than 0.100000
B(  0-C , 10-O ) :   1.6069 B(  0-C , 11-P ) :   0.9634 B(  0-C , 12-H ) :   0.6902
B(  1-B ,  2-C ) :   1.0426 B(  1-B ,  6-C ) :   0.9959 B(  1-B , 11-P ) :   1.0028
B(  2-C ,  3-H ) :   0.8842 B(  2-C ,  4-H ) :   0.8767 B(  2-C ,  5-H ) :   0.8413
B(  6-C ,  7-H ) :   0.9024 B(  6-C ,  8-H ) :   0.9126 B(  6-C ,  9-H ) :   0.9161
B( 11-P , 13-H ) :   0.9943

MP2 TOTAL ENERGY:     -559.725570091 Eh
FINAL SINGLE POINT ENERGY      -559.725570091140

DIPOLE MOMENT
-------------
                                X             Y             Z
Electronic contribution:     -7.10955      -2.90114      -2.07994
Nuclear contribution   :      7.89915       2.21250       2.48873
                        -----------------------------------------
Total Dipole Moment    :      0.78961      -0.68864       0.40879
                        -----------------------------------------
Magnitude (a.u.)       :      1.12464
Magnitude (Debye)      :      2.85861

Rotational constants in cm-1:     0.143533     0.063072     0.047393
Rotational constants in MHz :  4303.019124  1890.855747  1420.800455

                             ****ORCA TERMINATED NORMALLY****
TOTAL RUN TIME: 0 days 1 hours 5 minutes 25 seconds 130 msec
