                         Program Version 5.0.4 -  RELEASE  -
|  1> ! ri-mp2 aug-cc-pvdz aug-cc-pvdz/c tightscf
|  2> %pal nprocs 16 end
|  3> %maxcore 3800
|  4> %base "DZ_B-Cl_18_AB"
|  5> %scf
|  6> STABPerform true
|  7> STABRestartUHFifUnstable true
|  8> end
|  9>
| 10> *xyz 0 1
| 11> Cl        -1.959458   -0.619158    0.871520
| 12> Cl        -0.741680    1.497576   -0.862576
| 13> B        -0.564046   -0.017986    0.000845
| 14> C         0.761064   -0.841928   -0.068806
| 15> C         2.032725   -0.000407    0.053287
| 16> C         0.750623   -1.633304   -1.389118
| 17> H         0.767225   -0.960892   -2.248053
| 18> H        -0.128936   -2.272060   -1.476844
| 19> H         1.633413   -2.271470   -1.447266
| 20> H         0.747018   -1.565628    0.751328
| 21> C         2.155450    0.716919    1.388738
| 22> H         2.064843    0.726154   -0.761894
| 23> H         2.894646   -0.658143   -0.088348
| 24> H         1.340712    1.428539    1.537293
| 25> H         3.089793    1.274425    1.454278
| 26> H         2.131698    0.008220    2.218631
| 27> *
| 28>
| 29> $new_job
| 30> ! ri-mp2 aug-cc-pvtz aug-cc-pvtz/c tightscf
| 31> %pal nprocs 16 end
| 32> %maxcore 3800
| 33> %base "TZ_B-Cl_18_AB"
| 34>
| 35> *xyz 0 1
| 36> Cl        -1.959458   -0.619158    0.871520
| 37> Cl        -0.741680    1.497576   -0.862576
| 38> B        -0.564046   -0.017986    0.000845
| 39> C         0.761064   -0.841928   -0.068806
| 40> C         2.032725   -0.000407    0.053287
| 41> C         0.750623   -1.633304   -1.389118
| 42> H         0.767225   -0.960892   -2.248053
| 43> H        -0.128936   -2.272060   -1.476844
| 44> H         1.633413   -2.271470   -1.447266
| 45> H         0.747018   -1.565628    0.751328
| 46> C         2.155450    0.716919    1.388738
| 47> H         2.064843    0.726154   -0.761894
| 48> H         2.894646   -0.658143   -0.088348
| 49> H         1.340712    1.428539    1.537293
| 50> H         3.089793    1.274425    1.454278
| 51> H         2.131698    0.008220    2.218631
| 52> *
| 53>
| 54> $new_job
| 55> ! ri-mp2 aug-cc-pvqz aug-cc-pvqz/c tightscf
| 56> %pal nprocs 16 end
| 57> %maxcore 3800
| 58> %base "QZ_B-Cl_18_AB"
| 59>
| 60> *xyz 0 1
| 61> Cl        -1.959458   -0.619158    0.871520
| 62> Cl        -0.741680    1.497576   -0.862576
| 63> B        -0.564046   -0.017986    0.000845
| 64> C         0.761064   -0.841928   -0.068806
| 65> C         2.032725   -0.000407    0.053287
| 66> C         0.750623   -1.633304   -1.389118
| 67> H         0.767225   -0.960892   -2.248053
| 68> H        -0.128936   -2.272060   -1.476844
| 69> H         1.633413   -2.271470   -1.447266
| 70> H         0.747018   -1.565628    0.751328
| 71> C         2.155450    0.716919    1.388738
| 72> H         2.064843    0.726154   -0.761894
| 73> H         2.894646   -0.658143   -0.088348
| 74> H         1.340712    1.428539    1.537293
| 75> H         3.089793    1.274425    1.454278
| 76> H         2.131698    0.008220    2.218631
| 77> *
| 78>
| 79>
| 80>
| 81>
| 82>                          ****END OF INPUT****
 Total Charge           Charge          ....    0
 Multiplicity           Mult            ....    1
 Number of Electrons    NEL             ....   72
MP2 TOTAL ENERGY:    -1101.503783314 Eh
FINAL SINGLE POINT ENERGY     -1101.503783313536
MP2 TOTAL ENERGY:    -1101.796680301 Eh
FINAL SINGLE POINT ENERGY     -1101.796680300887

CARTESIAN COORDINATES (ANGSTROEM)
---------------------------------
  Cl    -1.959458   -0.619158    0.871520
  Cl    -0.741680    1.497576   -0.862576
  B     -0.564046   -0.017986    0.000845
  C      0.761064   -0.841928   -0.068806
  C      2.032725   -0.000407    0.053287
  C      0.750623   -1.633304   -1.389118
  H      0.767225   -0.960892   -2.248053
  H     -0.128936   -2.272060   -1.476844
  H      1.633413   -2.271470   -1.447266
  H      0.747018   -1.565628    0.751328
  C      2.155450    0.716919    1.388738
  H      2.064843    0.726154   -0.761894
  H      2.894646   -0.658143   -0.088348
  H      1.340712    1.428539    1.537293
  H      3.089793    1.274425    1.454278
  H      2.131698    0.008220    2.218631

 Multiplicity           Mult            ....    1
 Number of Electrons    NEL             ....   72
 Basis Dimension        Dim             ....  982

ORBITAL ENERGIES
----------------

  NO   OCC          E(Eh)            E(eV)
   0   2.0000    -104.837800     -2852.7816
   1   2.0000    -104.837559     -2852.7750
   2   2.0000     -11.228120      -305.5327
   3   2.0000     -11.226492      -305.4884
   4   2.0000     -11.221074      -305.3410
   5   2.0000     -11.217466      -305.2428
   6   2.0000     -10.565708      -287.5075
   7   2.0000     -10.565547      -287.5032
   8   2.0000      -8.032520      -218.5760
   9   2.0000      -8.032370      -218.5719
  10   2.0000      -8.031496      -218.5481
  11   2.0000      -8.031341      -218.5439
  12   2.0000      -8.031219      -218.5406
  13   2.0000      -8.031081      -218.5368
  14   2.0000      -7.701981      -209.5815
  15   2.0000      -1.146249       -31.1910
  16   2.0000      -1.097364       -29.8608
  17   2.0000      -1.083203       -29.4755
  18   2.0000      -0.996688       -27.1213
  19   2.0000      -0.875658       -23.8279
  20   2.0000      -0.810757       -22.0618
  21   2.0000      -0.684821       -18.6349
  22   2.0000      -0.637543       -17.3484
  23   2.0000      -0.607189       -16.5225
  24   2.0000      -0.594664       -16.1816
  25   2.0000      -0.582695       -15.8559
  26   2.0000      -0.559961       -15.2373
  27   2.0000      -0.533714       -14.5231
  28   2.0000      -0.519770       -14.1436
  29   2.0000      -0.509227       -13.8568
  30   2.0000      -0.496900       -13.5213
  31   2.0000      -0.477246       -12.9865
  32   2.0000      -0.469150       -12.7662
  33   2.0000      -0.464004       -12.6262
  34   2.0000      -0.450435       -12.2570
  35   2.0000      -0.434695       -11.8287
  36   0.0000       0.022851         0.6218
  37   0.0000       0.030533         0.8308
  38   0.0000       0.032462         0.8833
  39   0.0000       0.033315         0.9066
  40   0.0000       0.047102         1.2817

MULLIKEN ATOMIC CHARGES
-----------------------
   0 Cl:   -0.331307
   1 Cl:   -0.364688
   2 B :    0.748449
   3 C :    0.118520
   4 C :   -0.470633
   5 C :   -0.969220
   6 H :    0.236564
   7 H :    0.229890
   8 H :    0.269501
   9 H :    0.220758
  10 C :   -0.868155
  11 H :    0.255551
  12 H :    0.217576
  13 H :    0.210671
  14 H :    0.278704
  15 H :    0.217820
Sum of atomic charges:    0.0000000

LOEWDIN ATOMIC CHARGES
----------------------
   0 Cl:    1.311624
   1 Cl:    1.347417
   2 B :   -2.364473
   3 C :    0.027542
   4 C :    0.443885
   5 C :    0.886766
   6 H :   -0.282310
   7 H :   -0.274194
   8 H :   -0.268668
   9 H :   -0.337021
  10 C :    0.922793
  11 H :   -0.300002
  12 H :   -0.267947
  13 H :   -0.298445
  14 H :   -0.272429
  15 H :   -0.274539

  Mayer bond orders larger than 0.100000
B(  0-Cl,  2-B ) :   0.8377 B(  1-Cl,  2-B ) :   0.8582 B(  2-B ,  3-C ) :   1.0153
B(  3-C ,  4-C ) :   0.6536 B(  3-C ,  5-C ) :   0.6605 B(  3-C ,  9-H ) :   0.9300
B(  4-C , 10-C ) :   0.9263 B(  4-C , 11-H ) :   0.9164 B(  4-C , 12-H ) :   0.9392
B(  5-C ,  6-H ) :   0.9684 B(  5-C ,  7-H ) :   1.0318 B(  5-C ,  8-H ) :   0.9783
B( 10-C , 13-H ) :   0.9526 B( 10-C , 14-H ) :   1.0040 B( 10-C , 15-H ) :   0.9615

MP2 TOTAL ENERGY:    -1101.890029916 Eh
FINAL SINGLE POINT ENERGY     -1101.890029915874

DIPOLE MOMENT
-------------
                                X             Y             Z
Electronic contribution:    -17.74677       5.06753       0.03140
Nuclear contribution   :     18.36882      -5.38917      -0.07242
                        -----------------------------------------
Total Dipole Moment    :      0.62205      -0.32164      -0.04102
                        -----------------------------------------
Magnitude (a.u.)       :      0.70149
Magnitude (Debye)      :      1.78303

Rotational constants in cm-1:     0.060737     0.039783     0.035786
Rotational constants in MHz :  1820.860916  1192.675376  1072.843230

                             ****ORCA TERMINATED NORMALLY****
TOTAL RUN TIME: 0 days 2 hours 45 minutes 11 seconds 221 msec
