                         Program Version 5.0.4 -  RELEASE  -
|  1> ! ri-mp2 aug-cc-pvdz aug-cc-pvdz/c tightscf
|  2> %pal nprocs 16 end
|  3> %maxcore 3800
|  4> %base "DZ_Si-Si_35_AB"
|  5> %scf
|  6> STABPerform true
|  7> STABRestartUHFifUnstable true
|  8> end
|  9>
| 10> *xyz 0 1
| 11> Si         0.975566    0.002934    0.032947
| 12> Si        -1.320935   -0.077247    0.437651
| 13> O         1.342130    1.465667   -0.616651
| 14> H         0.648061    2.130184   -0.589487
| 15> O        -2.032029   -1.370094   -0.284772
| 16> H        -1.625558   -1.729575   -1.076171
| 17> O         1.458713   -1.112740   -1.076211
| 18> H         1.709101   -0.768805   -1.936865
| 19> O        -1.783464    1.370741   -0.219511
| 20> H        -2.696953    1.653936   -0.137313
| 21> O         1.751854   -0.301247    1.433840
| 22> H         2.687051   -0.517886    1.420769
| 23> H        -1.784171   -0.146083    1.837128
| 24> *
| 25>
| 26> $new_job
| 27> ! ri-mp2 aug-cc-pvtz aug-cc-pvtz/c tightscf
| 28> %pal nprocs 16 end
| 29> %maxcore 3800
| 30> %base "TZ_Si-Si_35_AB"
| 31>
| 32> *xyz 0 1
| 33> Si         0.975566    0.002934    0.032947
| 34> Si        -1.320935   -0.077247    0.437651
| 35> O         1.342130    1.465667   -0.616651
| 36> H         0.648061    2.130184   -0.589487
| 37> O        -2.032029   -1.370094   -0.284772
| 38> H        -1.625558   -1.729575   -1.076171
| 39> O         1.458713   -1.112740   -1.076211
| 40> H         1.709101   -0.768805   -1.936865
| 41> O        -1.783464    1.370741   -0.219511
| 42> H        -2.696953    1.653936   -0.137313
| 43> O         1.751854   -0.301247    1.433840
| 44> H         2.687051   -0.517886    1.420769
| 45> H        -1.784171   -0.146083    1.837128
| 46> *
| 47>
| 48> $new_job
| 49> ! ri-mp2 aug-cc-pvqz aug-cc-pvqz/c tightscf
| 50> %pal nprocs 16 end
| 51> %maxcore 3800
| 52> %base "QZ_Si-Si_35_AB"
| 53>
| 54> *xyz 0 1
| 55> Si         0.975566    0.002934    0.032947
| 56> Si        -1.320935   -0.077247    0.437651
| 57> O         1.342130    1.465667   -0.616651
| 58> H         0.648061    2.130184   -0.589487
| 59> O        -2.032029   -1.370094   -0.284772
| 60> H        -1.625558   -1.729575   -1.076171
| 61> O         1.458713   -1.112740   -1.076211
| 62> H         1.709101   -0.768805   -1.936865
| 63> O        -1.783464    1.370741   -0.219511
| 64> H        -2.696953    1.653936   -0.137313
| 65> O         1.751854   -0.301247    1.433840
| 66> H         2.687051   -0.517886    1.420769
| 67> H        -1.784171   -0.146083    1.837128
| 68> *
| 69>
| 70>
| 71>
| 72>
| 73>                          ****END OF INPUT****
 Total Charge           Charge          ....    0
 Multiplicity           Mult            ....    1
 Number of Electrons    NEL             ....   74
MP2 TOTAL ENERGY:     -957.178430571 Eh
FINAL SINGLE POINT ENERGY      -957.178430571032
MP2 TOTAL ENERGY:     -957.606833314 Eh
FINAL SINGLE POINT ENERGY      -957.606833314404

CARTESIAN COORDINATES (ANGSTROEM)
---------------------------------
  Si     0.975566    0.002934    0.032947
  Si    -1.320935   -0.077247    0.437651
  O      1.342130    1.465667   -0.616651
  H      0.648061    2.130184   -0.589487
  O     -2.032029   -1.370094   -0.284772
  H     -1.625558   -1.729575   -1.076171
  O      1.458713   -1.112740   -1.076211
  H      1.709101   -0.768805   -1.936865
  O     -1.783464    1.370741   -0.219511
  H     -2.696953    1.653936   -0.137313
  O      1.751854   -0.301247    1.433840
  H      2.687051   -0.517886    1.420769
  H     -1.784171   -0.146083    1.837128

 Multiplicity           Mult            ....    1
 Number of Electrons    NEL             ....   74
 Basis Dimension        Dim             ....  844

ORBITAL ENERGIES
----------------

  NO   OCC          E(Eh)            E(eV)
   0   2.0000     -68.812821     -1872.4921
   1   2.0000     -68.801011     -1872.1707
   2   2.0000     -20.563958      -559.5738
   3   2.0000     -20.558459      -559.4241
   4   2.0000     -20.557542      -559.3992
   5   2.0000     -20.556083      -559.3595
   6   2.0000     -20.554951      -559.3286
   7   2.0000      -6.152184      -167.4094
   8   2.0000      -6.143434      -167.1714
   9   2.0000      -4.260164      -115.9250
  10   2.0000      -4.259928      -115.9185
  11   2.0000      -4.259421      -115.9048
  12   2.0000      -4.250707      -115.6676
  13   2.0000      -4.250501      -115.6620
  14   2.0000      -4.250041      -115.6495
  15   2.0000      -1.368353       -37.2348
  16   2.0000      -1.356274       -36.9061
  17   2.0000      -1.336632       -36.3716
  18   2.0000      -1.334884       -36.3241
  19   2.0000      -1.331258       -36.2254
  20   2.0000      -0.789634       -21.4870
  21   2.0000      -0.760927       -20.7059
  22   2.0000      -0.717261       -19.5177
  23   2.0000      -0.709365       -19.3028
  24   2.0000      -0.705416       -19.1953
  25   2.0000      -0.607326       -16.5262
  26   2.0000      -0.598663       -16.2905
  27   2.0000      -0.580617       -15.7994
  28   2.0000      -0.573902       -15.6167
  29   2.0000      -0.571288       -15.5455
  30   2.0000      -0.562090       -15.2953
  31   2.0000      -0.534613       -14.5476
  32   2.0000      -0.518310       -14.1039
  33   2.0000      -0.506908       -13.7937
  34   2.0000      -0.499201       -13.5840
  35   2.0000      -0.494376       -13.4526
  36   2.0000      -0.403919       -10.9912
  37   0.0000       0.022216         0.6045
  38   0.0000       0.028603         0.7783
  39   0.0000       0.036495         0.9931
  40   0.0000       0.039951         1.0871
  41   0.0000       0.049589         1.3494

MULLIKEN ATOMIC CHARGES
-----------------------
   0 Si:    2.034894
   1 Si:    1.360652
   2 O :   -1.043785
   3 H :    0.397501
   4 O :   -1.018892
   5 H :    0.382224
   6 O :   -1.028933
   7 H :    0.364440
   8 O :   -0.890442
   9 H :    0.337059
  10 O :   -0.991379
  11 H :    0.350197
  12 H :   -0.253535
Sum of atomic charges:   -0.0000000

LOEWDIN ATOMIC CHARGES
----------------------
   0 Si:   -0.670216
   1 Si:   -0.025532
   2 O :    1.113003
   3 H :   -0.926434
   4 O :    1.068035
   5 H :   -0.903937
   6 O :    1.099942
   7 H :   -0.896783
   8 O :    1.063388
   9 H :   -0.882521
  10 O :    1.087430
  11 H :   -0.877812
  12 H :   -0.248564

  Mayer bond orders larger than 0.100000
B(  0-Si,  1-Si) :   0.9923 B(  0-Si,  2-O ) :   0.5034 B(  0-Si,  6-O ) :   0.5109
B(  0-Si,  8-O ) :  -0.1104 B(  0-Si, 10-O ) :   0.4888 B(  1-Si,  4-O ) :   0.6036
B(  1-Si,  8-O ) :   0.5258 B(  1-Si, 12-H ) :   0.8825 B(  2-O ,  3-H ) :   0.8674
B(  4-O ,  5-H ) :   0.8738 B(  6-O ,  7-H ) :   0.8936 B(  8-O ,  9-H ) :   0.9109
B( 10-O , 11-H ) :   0.9248

MP2 TOTAL ENERGY:     -957.746615320 Eh
FINAL SINGLE POINT ENERGY      -957.746615319772

DIPOLE MOMENT
-------------
                                X             Y             Z
Electronic contribution:      0.92777      -0.23379      -0.06462
Nuclear contribution   :     -1.00644       0.61283      -0.51064
                        -----------------------------------------
Total Dipole Moment    :     -0.07867       0.37904      -0.57526
                        -----------------------------------------
Magnitude (a.u.)       :      0.69339
Magnitude (Debye)      :      1.76246

Rotational constants in cm-1:     0.083116     0.041701     0.036998
Rotational constants in MHz :  2491.743981  1250.156646  1109.175393

                             ****ORCA TERMINATED NORMALLY****
TOTAL RUN TIME: 0 days 1 hours 0 minutes 56 seconds 362 msec
