                         Program Version 5.0.4 -  RELEASE  -
|  1> ! ri-mp2 aug-cc-pvdz aug-cc-pvdz/c tightscf
|  2> %pal nprocs 16 end
|  3> %maxcore 3800
|  4> %base "DZ_P-Si_54_AB"
|  5> %scf
|  6> STABPerform true
|  7> STABRestartUHFifUnstable true
|  8> end
|  9>
| 10> *xyz 0 1
| 11> C        -2.184544    0.099628    0.266003
| 12> P        -0.850567    1.283651   -0.165825
| 13> Si         0.897299   -0.149850   -0.005799
| 14> N         2.259598    0.660864   -0.608701
| 15> O        -2.287583   -1.015617   -0.186883
| 16> H        -2.970842    0.492172    0.937934
| 17> O         1.225419   -0.628666    1.522845
| 18> H         2.230272    1.122750   -1.503217
| 19> H         3.184554    0.320631   -0.398491
| 20> H        -0.808675    1.941701    1.081356
| 21> H         1.602902    0.011017    2.129426
| 22> O         0.410051   -1.433426   -0.863477
| 23> H        -0.534909   -1.647277   -0.793431
| 24> *
| 25>
| 26> $new_job
| 27> ! ri-mp2 aug-cc-pvtz aug-cc-pvtz/c tightscf
| 28> %pal nprocs 16 end
| 29> %maxcore 3800
| 30> %base "TZ_P-Si_54_AB"
| 31>
| 32> *xyz 0 1
| 33> C        -2.184544    0.099628    0.266003
| 34> P        -0.850567    1.283651   -0.165825
| 35> Si         0.897299   -0.149850   -0.005799
| 36> N         2.259598    0.660864   -0.608701
| 37> O        -2.287583   -1.015617   -0.186883
| 38> H        -2.970842    0.492172    0.937934
| 39> O         1.225419   -0.628666    1.522845
| 40> H         2.230272    1.122750   -1.503217
| 41> H         3.184554    0.320631   -0.398491
| 42> H        -0.808675    1.941701    1.081356
| 43> H         1.602902    0.011017    2.129426
| 44> O         0.410051   -1.433426   -0.863477
| 45> H        -0.534909   -1.647277   -0.793431
| 46> *
| 47>
| 48> $new_job
| 49> ! ri-mp2 aug-cc-pvqz aug-cc-pvqz/c tightscf
| 50> %pal nprocs 16 end
| 51> %maxcore 3800
| 52> %base "QZ_P-Si_54_AB"
| 53>
| 54> *xyz 0 1
| 55> C        -2.184544    0.099628    0.266003
| 56> P        -0.850567    1.283651   -0.165825
| 57> Si         0.897299   -0.149850   -0.005799
| 58> N         2.259598    0.660864   -0.608701
| 59> O        -2.287583   -1.015617   -0.186883
| 60> H        -2.970842    0.492172    0.937934
| 61> O         1.225419   -0.628666    1.522845
| 62> H         2.230272    1.122750   -1.503217
| 63> H         3.184554    0.320631   -0.398491
| 64> H        -0.808675    1.941701    1.081356
| 65> H         1.602902    0.011017    2.129426
| 66> O         0.410051   -1.433426   -0.863477
| 67> H        -0.534909   -1.647277   -0.793431
| 68> *
| 69>
| 70>
| 71>
| 72>
| 73>                          ****END OF INPUT****
 Total Charge           Charge          ....    0
 Multiplicity           Mult            ....    1
 Number of Electrons    NEL             ....   72
MP2 TOTAL ENERGY:     -951.381971021 Eh
FINAL SINGLE POINT ENERGY      -951.381971021234
MP2 TOTAL ENERGY:     -951.753313089 Eh
FINAL SINGLE POINT ENERGY      -951.753313089094

CARTESIAN COORDINATES (ANGSTROEM)
---------------------------------
  C     -2.184544    0.099628    0.266003
  P     -0.850567    1.283651   -0.165825
  Si     0.897299   -0.149850   -0.005799
  N      2.259598    0.660864   -0.608701
  O     -2.287583   -1.015617   -0.186883
  H     -2.970842    0.492172    0.937934
  O      1.225419   -0.628666    1.522845
  H      2.230272    1.122750   -1.503217
  H      3.184554    0.320631   -0.398491
  H     -0.808675    1.941701    1.081356
  H      1.602902    0.011017    2.129426
  O      0.410051   -1.433426   -0.863477
  H     -0.534909   -1.647277   -0.793431

 Multiplicity           Mult            ....    1
 Number of Electrons    NEL             ....   72
 Basis Dimension        Dim             ....  844

ORBITAL ENERGIES
----------------

  NO   OCC          E(Eh)            E(eV)
   0   2.0000     -79.944183     -2175.3918
   1   2.0000     -68.821888     -1872.7388
   2   2.0000     -20.575603      -559.8906
   3   2.0000     -20.563454      -559.5600
   4   2.0000     -20.543008      -559.0037
   5   2.0000     -15.546623      -423.0451
   6   2.0000     -11.352729      -308.9234
   7   2.0000      -7.490538      -203.8279
   8   2.0000      -6.161040      -167.6504
   9   2.0000      -5.384609      -146.5226
  10   2.0000      -5.384205      -146.5117
  11   2.0000      -5.383681      -146.4974
  12   2.0000      -4.269270      -116.1727
  13   2.0000      -4.268964      -116.1644
  14   2.0000      -4.268556      -116.1533
  15   2.0000      -1.416033       -38.5322
  16   2.0000      -1.358855       -36.9763
  17   2.0000      -1.329303       -36.1722
  18   2.0000      -1.151515       -31.3343
  19   2.0000      -0.932096       -25.3636
  20   2.0000      -0.793559       -21.5938
  21   2.0000      -0.763839       -20.7851
  22   2.0000      -0.699633       -19.0380
  23   2.0000      -0.679240       -18.4831
  24   2.0000      -0.673713       -18.3327
  25   2.0000      -0.649202       -17.6657
  26   2.0000      -0.613649       -16.6982
  27   2.0000      -0.584142       -15.8953
  28   2.0000      -0.558603       -15.2004
  29   2.0000      -0.554081       -15.0773
  30   2.0000      -0.530794       -14.4436
  31   2.0000      -0.516291       -14.0490
  32   2.0000      -0.481122       -13.0920
  33   2.0000      -0.438289       -11.9264
  34   2.0000      -0.409677       -11.1479
  35   2.0000      -0.369457       -10.0534
  36   0.0000       0.018590         0.5058
  37   0.0000       0.028620         0.7788
  38   0.0000       0.036022         0.9802
  39   0.0000       0.039191         1.0665
  40   0.0000       0.048346         1.3156

MULLIKEN ATOMIC CHARGES
-----------------------
   0 C :   -0.137413
   1 P :    0.228259
   2 Si:    1.932487
   3 N :   -0.920194
   4 O :   -0.771000
   5 H :    0.549032
   6 O :   -1.013076
   7 H :    0.268740
   8 H :    0.231316
   9 H :   -0.081694
  10 H :    0.366814
  11 O :   -1.061174
  12 H :    0.407902
Sum of atomic charges:    0.0000000

LOEWDIN ATOMIC CHARGES
----------------------
   0 C :   -0.498978
   1 P :    1.227838
   2 Si:   -0.785471
   3 N :    1.202190
   4 O :    0.686613
   5 H :   -0.432734
   6 O :    1.126880
   7 H :   -0.583360
   8 H :   -0.572574
   9 H :   -0.514866
  10 H :   -0.881104
  11 O :    1.120600
  12 H :   -1.095035

  Mayer bond orders larger than 0.100000
B(  0-C ,  1-P ) :   0.9201 B(  0-C ,  4-O ) :   1.5997 B(  0-C ,  5-H ) :   0.6590
B(  1-P ,  2-Si) :   0.8407 B(  1-P ,  9-H ) :   0.9307 B(  2-Si,  3-N ) :   0.8012
B(  2-Si,  6-O ) :   0.5876 B(  2-Si, 11-O ) :   0.6027 B(  3-N ,  7-H ) :   0.9598
B(  3-N ,  8-H ) :   1.0515 B(  3-N , 11-O ) :  -0.1331 B(  6-O , 10-H ) :   0.9003
B( 11-O , 12-H ) :   0.8249

MP2 TOTAL ENERGY:     -951.874391614 Eh
FINAL SINGLE POINT ENERGY      -951.874391613910

DIPOLE MOMENT
-------------
                                X             Y             Z
Electronic contribution:     -2.83150       0.38324      -0.96056
Nuclear contribution   :      3.36478       0.95537       1.57042
                        -----------------------------------------
Total Dipole Moment    :      0.53328       1.33861       0.60986
                        -----------------------------------------
Magnitude (a.u.)       :      1.56467
Magnitude (Debye)      :      3.97707

Rotational constants in cm-1:     0.089760     0.044597     0.038860
Rotational constants in MHz :  2690.926933  1336.991405  1164.993300

                             ****ORCA TERMINATED NORMALLY****
TOTAL RUN TIME: 0 days 0 hours 53 minutes 58 seconds 136 msec
