                         Program Version 5.0.4 -  RELEASE  -
|  1> ! ri-mp2 aug-cc-pvdz aug-cc-pvdz/c tightscf
|  2> %pal nprocs 16 end
|  3> %maxcore 3800
|  4> %base "DZ_B-F_73_AB"
|  5> %scf
|  6> STABPerform true
|  7> STABRestartUHFifUnstable true
|  8> end
|  9>
| 10> *xyz 0 1
| 11> B        -0.530413   -0.025482    0.000003
| 12> F        -1.661331   -0.707686    0.000002
| 13> F        -0.610282    1.301265   -0.000010
| 14> O         0.632563   -0.680101    0.000006
| 15> C         1.894355   -0.026252    0.000001
| 16> H         2.443658   -0.336801    0.886859
| 17> H         1.782636    1.057138   -0.000010
| 18> H         2.443660   -0.336819   -0.886849
| 19> *
| 20>
| 21> $new_job
| 22> ! ri-mp2 aug-cc-pvtz aug-cc-pvtz/c tightscf
| 23> %pal nprocs 16 end
| 24> %maxcore 3800
| 25> %base "TZ_B-F_73_AB"
| 26>
| 27> *xyz 0 1
| 28> B        -0.530413   -0.025482    0.000003
| 29> F        -1.661331   -0.707686    0.000002
| 30> F        -0.610282    1.301265   -0.000010
| 31> O         0.632563   -0.680101    0.000006
| 32> C         1.894355   -0.026252    0.000001
| 33> H         2.443658   -0.336801    0.886859
| 34> H         1.782636    1.057138   -0.000010
| 35> H         2.443660   -0.336819   -0.886849
| 36> *
| 37>
| 38> $new_job
| 39> ! ri-mp2 aug-cc-pvqz aug-cc-pvqz/c tightscf
| 40> %pal nprocs 16 end
| 41> %maxcore 3800
| 42> %base "QZ_B-F_73_AB"
| 43>
| 44> *xyz 0 1
| 45> B        -0.530413   -0.025482    0.000003
| 46> F        -1.661331   -0.707686    0.000002
| 47> F        -0.610282    1.301265   -0.000010
| 48> O         0.632563   -0.680101    0.000006
| 49> C         1.894355   -0.026252    0.000001
| 50> H         2.443658   -0.336801    0.886859
| 51> H         1.782636    1.057138   -0.000010
| 52> H         2.443660   -0.336819   -0.886849
| 53> *
| 54>
| 55>
| 56>
| 57>
| 58>                          ****END OF INPUT****
 Total Charge           Charge          ....    0
 Multiplicity           Mult            ....    1
 Number of Electrons    NEL             ....   40
MP2 TOTAL ENERGY:     -339.074172445 Eh
FINAL SINGLE POINT ENERGY      -339.074172445155
MP2 TOTAL ENERGY:     -339.376141935 Eh
FINAL SINGLE POINT ENERGY      -339.376141934916

CARTESIAN COORDINATES (ANGSTROEM)
---------------------------------
  B     -0.530413   -0.025482    0.000003
  F     -1.661331   -0.707686    0.000002
  F     -0.610282    1.301265   -0.000010
  O      0.632563   -0.680101    0.000006
  C      1.894355   -0.026252    0.000001
  H      2.443658   -0.336801    0.886859
  H      1.782636    1.057138   -0.000010
  H      2.443660   -0.336819   -0.886849

 Multiplicity           Mult            ....    1
 Number of Electrons    NEL             ....   40
 Basis Dimension        Dim             ....  538

ORBITAL ENERGIES
----------------

  NO   OCC          E(Eh)            E(eV)
   0   2.0000     -26.310818      -715.9537
   1   2.0000     -26.303295      -715.7491
   2   2.0000     -20.588599      -560.2443
   3   2.0000     -11.297027      -307.4077
   4   2.0000      -7.724784      -210.2021
   5   2.0000      -1.642056       -44.6826
   6   2.0000      -1.609629       -43.8002
   7   2.0000      -1.404427       -38.2164
   8   2.0000      -0.969277       -26.3754
   9   2.0000      -0.814010       -22.1503
  10   2.0000      -0.768270       -20.9057
  11   2.0000      -0.754778       -20.5386
  12   2.0000      -0.721825       -19.6419
  13   2.0000      -0.660352       -17.9691
  14   2.0000      -0.659299       -17.9404
  15   2.0000      -0.656441       -17.8627
  16   2.0000      -0.648261       -17.6401
  17   2.0000      -0.620021       -16.8716
  18   2.0000      -0.523623       -14.2485
  19   2.0000      -0.496107       -13.4998
  20   0.0000       0.023350         0.6354
  21   0.0000       0.034406         0.9362
  22   0.0000       0.038928         1.0593
  23   0.0000       0.041404         1.1267
  24   0.0000       0.057621         1.5680

MULLIKEN ATOMIC CHARGES
-----------------------
   0 B :    1.924975
   1 F :   -0.766213
   2 F :   -0.736176
   3 O :   -0.859942
   4 C :   -0.493597
   5 H :    0.312414
   6 H :    0.306123
   7 H :    0.312416
Sum of atomic charges:    0.0000000

LOEWDIN ATOMIC CHARGES
----------------------
   0 B :   -2.118353
   1 F :    0.784506
   2 F :    0.818587
   3 O :    0.878539
   4 C :    0.592305
   5 H :   -0.307804
   6 H :   -0.339977
   7 H :   -0.307804

  Mayer bond orders larger than 0.100000
B(  0-B ,  1-F ) :   0.4385 B(  0-B ,  2-F ) :   0.4836 B(  0-B ,  3-O ) :   0.7012
B(  3-O ,  4-C ) :   0.8181 B(  4-C ,  5-H ) :   0.9007 B(  4-C ,  6-H ) :   0.8984
B(  4-C ,  7-H ) :   0.9007

MP2 TOTAL ENERGY:     -339.472134250 Eh
FINAL SINGLE POINT ENERGY      -339.472134250225

DIPOLE MOMENT
-------------
                                X             Y             Z
Electronic contribution:     -7.83501       0.40346       0.00000
Nuclear contribution   :      8.79830      -0.18149       0.00001
                        -----------------------------------------
Total Dipole Moment    :      0.96329       0.22198       0.00001
                        -----------------------------------------
Magnitude (a.u.)       :      0.98853
Magnitude (Debye)      :      2.51265

Rotational constants in cm-1:     0.323942     0.131904     0.095419
Rotational constants in MHz :  9711.544664  3954.391522  2860.585918

                             ****ORCA TERMINATED NORMALLY****
TOTAL RUN TIME: 0 days 0 hours 15 minutes 40 seconds 960 msec
