                         Program Version 5.0.4 -  RELEASE  -
|  1> ! ri-mp2 aug-cc-pvdz aug-cc-pvdz/c tightscf
|  2> %pal nprocs 16 end
|  3> %maxcore 3800
|  4> %base "DZ_S-F_2_AB"
|  5> %scf
|  6> STABPerform true
|  7> STABRestartUHFifUnstable true
|  8> end
|  9>
| 10> *xyz 0 1
| 11> F        -1.520411   -0.696760   -0.008779
| 12> S         1.292970   -0.183417   -0.088972
| 13> S        -0.533745    0.600299    0.017743
| 14> H         1.536092   -0.399260    1.218677
| 15> *
| 16>
| 17> $new_job
| 18> ! ri-mp2 aug-cc-pvtz aug-cc-pvtz/c tightscf
| 19> %pal nprocs 16 end
| 20> %maxcore 3800
| 21> %base "TZ_S-F_2_AB"
| 22>
| 23> *xyz 0 1
| 24> F        -1.520411   -0.696760   -0.008779
| 25> S         1.292970   -0.183417   -0.088972
| 26> S        -0.533745    0.600299    0.017743
| 27> H         1.536092   -0.399260    1.218677
| 28> *
| 29>
| 30> $new_job
| 31> ! ri-mp2 aug-cc-pvqz aug-cc-pvqz/c tightscf
| 32> %pal nprocs 16 end
| 33> %maxcore 3800
| 34> %base "QZ_S-F_2_AB"
| 35>
| 36> *xyz 0 1
| 37> F        -1.520411   -0.696760   -0.008779
| 38> S         1.292970   -0.183417   -0.088972
| 39> S        -0.533745    0.600299    0.017743
| 40> H         1.536092   -0.399260    1.218677
| 41> *
| 42>
| 43>
| 44>
| 45>
| 46>                          ****END OF INPUT****
 Total Charge           Charge          ....    0
 Multiplicity           Mult            ....    1
 Number of Electrons    NEL             ....   42
MP2 TOTAL ENERGY:     -895.555202402 Eh
FINAL SINGLE POINT ENERGY      -895.555202402005
MP2 TOTAL ENERGY:     -895.748269497 Eh
FINAL SINGLE POINT ENERGY      -895.748269496795

CARTESIAN COORDINATES (ANGSTROEM)
---------------------------------
  F     -1.520411   -0.696760   -0.008779
  S      1.292970   -0.183417   -0.088972
  S     -0.533745    0.600299    0.017743
  H      1.536092   -0.399260    1.218677

 Multiplicity           Mult            ....    1
 Number of Electrons    NEL             ....   42
 Basis Dimension        Dim             ....  294

ORBITAL ENERGIES
----------------

  NO   OCC          E(Eh)            E(eV)
   0   2.0000     -92.062082     -2505.1366
   1   2.0000     -92.011412     -2503.7578
   2   2.0000     -26.311278      -715.9663
   3   2.0000      -9.054323      -246.3807
   4   2.0000      -9.012440      -245.2410
   5   2.0000      -6.735479      -183.2817
   6   2.0000      -6.733849      -183.2373
   7   2.0000      -6.732295      -183.1951
   8   2.0000      -6.693712      -182.1452
   9   2.0000      -6.692558      -182.1138
  10   2.0000      -6.691923      -182.0965
  11   2.0000      -1.609560       -43.7984
  12   2.0000      -1.083594       -29.4861
  13   2.0000      -0.892153       -24.2767
  14   2.0000      -0.697823       -18.9887
  15   2.0000      -0.691915       -18.8280
  16   2.0000      -0.678637       -18.4667
  17   2.0000      -0.577574       -15.7166
  18   2.0000      -0.492193       -13.3933
  19   2.0000      -0.423839       -11.5333
  20   2.0000      -0.388216       -10.5639
  21   0.0000       0.026104         0.7103
  22   0.0000       0.044797         1.2190
  23   0.0000       0.065976         1.7953
  24   0.0000       0.068972         1.8768
  25   0.0000       0.081580         2.2199

MULLIKEN ATOMIC CHARGES
-----------------------
   0 F :   -0.568299
   1 S :   -0.052809
   2 S :    0.502820
   3 H :    0.118288
Sum of atomic charges:   -0.0000000

LOEWDIN ATOMIC CHARGES
----------------------
   0 F :   -0.024753
   1 S :    0.912402
   2 S :    0.012698
   3 H :   -0.900347

  Mayer bond orders larger than 0.100000
B(  0-F ,  2-S ) :   0.6259 B(  1-S ,  2-S ) :   1.2483 B(  1-S ,  3-H ) :   0.9542

MP2 TOTAL ENERGY:     -895.812449060 Eh
FINAL SINGLE POINT ENERGY      -895.812449059642

DIPOLE MOMENT
-------------
                                X             Y             Z
Electronic contribution:     -2.21820      -0.05022      -0.79826
Nuclear contribution   :      2.82621       0.25878       1.15286
                        -----------------------------------------
Total Dipole Moment    :      0.60802       0.20855       0.35459
                        -----------------------------------------
Magnitude (a.u.)       :      0.73411
Magnitude (Debye)      :      1.86595

Rotational constants in cm-1:     0.711421     0.152309     0.128704
Rotational constants in MHz : 21327.878120  4566.116017  3858.450062

                             ****ORCA TERMINATED NORMALLY****
TOTAL RUN TIME: 0 days 0 hours 2 minutes 28 seconds 437 msec
