                         Program Version 5.0.4 -  RELEASE  -
|  1> ! ri-mp2 aug-cc-pvdz aug-cc-pvdz/c tightscf
|  2> %pal nprocs 16 end
|  3> %maxcore 3800
|  4> %base "DZ_P-Cl_8_A"
|  5> %scf
|  6> STABPerform true
|  7> STABRestartUHFifUnstable true
|  8> end
|  9>
| 10> *xyz 0 2
| 11> Cl        -2.774179   -1.602529   -1.022069
| 12> Cl        -2.686903    0.987083    0.857136
| 13> O         1.384793    2.911633   -0.724217
| 14> C         1.696727    1.572492   -1.126164
| 15> H         2.740079    1.321800   -0.944712
| 16> H         1.456969    1.396920   -2.178633
| 17> C         0.659349    0.986153   -0.143861
| 18> P        -1.573380   -0.689653    0.377075
| 19> C        -0.372912    0.069035   -0.787936
| 20> H         0.129457   -0.786584   -1.249137
| 21> H        -0.911645    0.591745   -1.577816
| 22> C         0.251565    2.465790    0.030453
| 23> H        -0.688942    2.733800   -0.454081
| 24> H         0.256665    2.853551    1.050485
| 25> C         1.291660    0.421019    1.132506
| 26> P         1.794794   -1.347635    1.192969
| 27> Cl         3.033477   -1.471368   -0.447132
| 28> H         0.581380    0.500850    1.964309
| 29> H         2.147463    1.043091    1.407764
| 30> *
| 31>
| 32> $new_job
| 33> ! ri-mp2 aug-cc-pvtz aug-cc-pvtz/c tightscf
| 34> %pal nprocs 16 end
| 35> %maxcore 3800
| 36> %base "TZ_P-Cl_8_A"
| 37>
| 38> *xyz 0 2
| 39> Cl        -2.774179   -1.602529   -1.022069
| 40> Cl        -2.686903    0.987083    0.857136
| 41> O         1.384793    2.911633   -0.724217
| 42> C         1.696727    1.572492   -1.126164
| 43> H         2.740079    1.321800   -0.944712
| 44> H         1.456969    1.396920   -2.178633
| 45> C         0.659349    0.986153   -0.143861
| 46> P        -1.573380   -0.689653    0.377075
| 47> C        -0.372912    0.069035   -0.787936
| 48> H         0.129457   -0.786584   -1.249137
| 49> H        -0.911645    0.591745   -1.577816
| 50> C         0.251565    2.465790    0.030453
| 51> H        -0.688942    2.733800   -0.454081
| 52> H         0.256665    2.853551    1.050485
| 53> C         1.291660    0.421019    1.132506
| 54> P         1.794794   -1.347635    1.192969
| 55> Cl         3.033477   -1.471368   -0.447132
| 56> H         0.581380    0.500850    1.964309
| 57> H         2.147463    1.043091    1.407764
| 58> *
| 59>
| 60> $new_job
| 61> ! ri-mp2 aug-cc-pvqz aug-cc-pvqz/c tightscf
| 62> %pal nprocs 16 end
| 63> %maxcore 3800
| 64> %base "QZ_P-Cl_8_A"
| 65>
| 66> *xyz 0 2
| 67> Cl        -2.774179   -1.602529   -1.022069
| 68> Cl        -2.686903    0.987083    0.857136
| 69> O         1.384793    2.911633   -0.724217
| 70> C         1.696727    1.572492   -1.126164
| 71> H         2.740079    1.321800   -0.944712
| 72> H         1.456969    1.396920   -2.178633
| 73> C         0.659349    0.986153   -0.143861
| 74> P        -1.573380   -0.689653    0.377075
| 75> C        -0.372912    0.069035   -0.787936
| 76> H         0.129457   -0.786584   -1.249137
| 77> H        -0.911645    0.591745   -1.577816
| 78> C         0.251565    2.465790    0.030453
| 79> H        -0.688942    2.733800   -0.454081
| 80> H         0.256665    2.853551    1.050485
| 81> C         1.291660    0.421019    1.132506
| 82> P         1.794794   -1.347635    1.192969
| 83> Cl         3.033477   -1.471368   -0.447132
| 84> H         0.581380    0.500850    1.964309
| 85> H         2.147463    1.043091    1.407764
| 86> *
| 87>
| 88>
| 89>
| 90>
| 91>                          ****END OF INPUT****
 Total Charge           Charge          ....    0
 Multiplicity           Mult            ....    2
 Number of Electrons    NEL             ....  127
MP2 TOTAL ENERGY:    -2330.485707570 Eh
FINAL SINGLE POINT ENERGY     -2330.485707570156
MP2 TOTAL ENERGY:    -2330.991442356 Eh
FINAL SINGLE POINT ENERGY     -2330.991442355823

CARTESIAN COORDINATES (ANGSTROEM)
---------------------------------
  Cl    -2.774179   -1.602529   -1.022069
  Cl    -2.686903    0.987083    0.857136
  O      1.384793    2.911633   -0.724217
  C      1.696727    1.572492   -1.126164
  H      2.740079    1.321800   -0.944712
  H      1.456969    1.396920   -2.178633
  C      0.659349    0.986153   -0.143861
  P     -1.573380   -0.689653    0.377075
  C     -0.372912    0.069035   -0.787936
  H      0.129457   -0.786584   -1.249137
  H     -0.911645    0.591745   -1.577816
  C      0.251565    2.465790    0.030453
  H     -0.688942    2.733800   -0.454081
  H      0.256665    2.853551    1.050485
  C      1.291660    0.421019    1.132506
  P      1.794794   -1.347635    1.192969
  Cl     3.033477   -1.471368   -0.447132
  H      0.581380    0.500850    1.964309
  H      2.147463    1.043091    1.407764

 Multiplicity           Mult            ....    2
 Number of Electrons    NEL             ....  127
 Basis Dimension        Dim             .... 1268

ORBITAL ENERGIES
----------------
                 SPIN UP ORBITALS
  NO   OCC          E(Eh)            E(eV)
   0   1.0000    -104.851601     -2853.1571
   1   1.0000    -104.850916     -2853.1385
   2   1.0000    -104.847406     -2853.0430
   3   1.0000     -80.052394     -2178.3364
   4   1.0000     -80.009962     -2177.1817
   5   1.0000     -20.559543      -559.4536
   6   1.0000     -11.290360      -307.2263
   7   1.0000     -11.289849      -307.2124
   8   1.0000     -11.276354      -306.8452
   9   1.0000     -11.264429      -306.5207
  10   1.0000     -11.264339      -306.5183
  11   1.0000     -10.578047      -287.8433
  12   1.0000     -10.577519      -287.8289
  13   1.0000     -10.573887      -287.7301
  14   1.0000      -8.044927      -218.9136
  15   1.0000      -8.044438      -218.9003
  16   1.0000      -8.043382      -218.8716
  17   1.0000      -8.043268      -218.8684
  18   1.0000      -8.042884      -218.8580
  19   1.0000      -8.042774      -218.8550
  20   1.0000      -8.040853      -218.8027
  21   1.0000      -8.040200      -218.7850
  22   1.0000      -8.039046      -218.7536
  23   1.0000      -7.585662      -206.4164
  24   1.0000      -7.549087      -205.4211
  25   1.0000      -5.478551      -149.0790
  26   1.0000      -5.477784      -149.0581
  27   1.0000      -5.476350      -149.0191
  28   1.0000      -5.453168      -148.3882
  29   1.0000      -5.439341      -148.0120
  30   1.0000      -5.436786      -147.9425
  31   1.0000      -1.399657       -38.0866
  32   1.0000      -1.163265       -31.6540
  33   1.0000      -1.137712       -30.9587
  34   1.0000      -1.108028       -30.1510
  35   1.0000      -1.102924       -30.0121
  36   1.0000      -0.998061       -27.1586
  37   1.0000      -0.954117       -25.9628
  38   1.0000      -0.945413       -25.7260
  39   1.0000      -0.799338       -21.7511
  40   1.0000      -0.786721       -21.4078
  41   1.0000      -0.745892       -20.2968
  42   1.0000      -0.694858       -18.9081
  43   1.0000      -0.688835       -18.7442
  44   1.0000      -0.649274       -17.6676
  45   1.0000      -0.627741       -17.0817
  46   1.0000      -0.601353       -16.3636
  47   1.0000      -0.584880       -15.9154
  48   1.0000      -0.572761       -15.5856
  49   1.0000      -0.564716       -15.3667
  50   1.0000      -0.550179       -14.9711
  51   1.0000      -0.539547       -14.6818
  52   1.0000      -0.521976       -14.2037
  53   1.0000      -0.511792       -13.9266
  54   1.0000      -0.503817       -13.7096
  55   1.0000      -0.493189       -13.4204
  56   1.0000      -0.487180       -13.2568
  57   1.0000      -0.476700       -12.9717
  58   1.0000      -0.464392       -12.6367
  59   1.0000      -0.453985       -12.3535
  60   1.0000      -0.435566       -11.8524
  61   1.0000      -0.406883       -11.0718
  62   1.0000      -0.387884       -10.5549
  63   1.0000      -0.355101        -9.6628
  64   0.0000       0.025171         0.6849
  65   0.0000       0.029056         0.7907
  66   0.0000       0.034922         0.9503
  67   0.0000       0.035868         0.9760
  68   0.0000       0.045428         1.2362

                 SPIN DOWN ORBITALS
  NO   OCC          E(Eh)            E(eV)
   0   1.0000    -104.851548     -2853.1557
   1   1.0000    -104.850806     -2853.1355
   2   1.0000    -104.846578     -2853.0204
   3   1.0000     -80.052247     -2178.3324
   4   1.0000     -80.002754     -2176.9856
   5   1.0000     -20.559502      -559.4525
   6   1.0000     -11.290421      -307.2280
   7   1.0000     -11.289936      -307.2148
   8   1.0000     -11.275502      -306.8220
   9   1.0000     -11.265394      -306.5470
  10   1.0000     -11.264521      -306.5232
  11   1.0000     -10.577989      -287.8417
  12   1.0000     -10.577399      -287.8257
  13   1.0000     -10.573009      -287.7062
  14   1.0000      -8.044712      -218.9078
  15   1.0000      -8.044044      -218.8896
  16   1.0000      -8.043365      -218.8711
  17   1.0000      -8.043228      -218.8674
  18   1.0000      -8.042823      -218.8563
  19   1.0000      -8.042665      -218.8521
  20   1.0000      -8.040267      -218.7868
  21   1.0000      -8.038600      -218.7414
  22   1.0000      -8.036953      -218.6966
  23   1.0000      -7.585376      -206.4086
  24   1.0000      -7.540166      -205.1784
  25   1.0000      -5.478507      -149.0777
  26   1.0000      -5.477862      -149.0602
  27   1.0000      -5.475980      -149.0090
  28   1.0000      -5.435160      -147.8982
  29   1.0000      -5.433559      -147.8547
  30   1.0000      -5.418711      -147.4506
  31   1.0000      -1.399516       -38.0828
  32   1.0000      -1.162235       -31.6260
  33   1.0000      -1.128628       -30.7115
  34   1.0000      -1.105421       -30.0800
  35   1.0000      -1.101718       -29.9793
  36   1.0000      -0.994440       -27.0601
  37   1.0000      -0.954182       -25.9646
  38   1.0000      -0.940434       -25.5905
  39   1.0000      -0.786567       -21.4036
  40   1.0000      -0.766726       -20.8637
  41   1.0000      -0.725618       -19.7451
  42   1.0000      -0.691965       -18.8293
  43   1.0000      -0.684734       -18.6326
  44   1.0000      -0.646873       -17.6023
  45   1.0000      -0.624338       -16.9891
  46   1.0000      -0.600741       -16.3470
  47   1.0000      -0.583269       -15.8715
  48   1.0000      -0.570864       -15.5340
  49   1.0000      -0.563041       -15.3211
  50   1.0000      -0.542743       -14.7688
  51   1.0000      -0.536281       -14.5929
  52   1.0000      -0.517441       -14.0803
  53   1.0000      -0.501214       -13.6387
  54   1.0000      -0.491399       -13.3716
  55   1.0000      -0.487781       -13.2732
  56   1.0000      -0.481445       -13.1008
  57   1.0000      -0.472255       -12.8507
  58   1.0000      -0.464024       -12.6267
  59   1.0000      -0.453226       -12.3329
  60   1.0000      -0.433546       -11.7974
  61   1.0000      -0.395989       -10.7754
  62   1.0000      -0.380280       -10.3479
  63   0.0000       0.020207         0.5498
  64   0.0000       0.027081         0.7369
  65   0.0000       0.029719         0.8087
  66   0.0000       0.035183         0.9574
  67   0.0000       0.036277         0.9871

MULLIKEN ATOMIC CHARGES AND SPIN POPULATIONS
--------------------------------------------
   0 Cl:   -0.586027    0.004102
   1 Cl:   -0.586458    0.006745
   2 O :   -1.017539    0.001512
   3 C :   -0.272783   -0.009134
   4 H :    0.342144   -0.001680
   5 H :    0.301704   -0.000843
   6 C :    1.030595   -0.023085
   7 P :    0.934031   -0.009448
   8 C :   -0.566992    0.013581
   9 H :    0.198197   -0.011221
  10 H :    0.239308   -0.002810
  11 C :   -0.280546   -0.002179
  12 H :    0.263726    0.000530
  13 H :    0.364881   -0.000944
  14 C :   -0.586374   -0.082636
  15 P :    0.419336    1.070730
  16 Cl:   -0.598615    0.008633
  17 H :    0.159857   -0.010170
  18 H :    0.241557    0.048316
Sum of atomic charges         :    0.0000000

LOEWDIN ATOMIC CHARGES AND SPIN POPULATIONS
-------------------------------------------
   0 Cl:    0.724251    0.003884
   1 Cl:    0.755894    0.008240
   2 O :    0.897316    0.000515
   3 C :    0.147170    0.000810
   4 H :   -0.334488   -0.000056
   5 H :   -0.274448   -0.000105
   6 C :   -0.492610    0.016723
   7 P :   -0.615104    0.028067
   8 C :    0.138482    0.014524
   9 H :   -0.410142    0.009339
  10 H :   -0.383325   -0.000175
  11 C :    0.143009    0.001558
  12 H :   -0.318015    0.000097
  13 H :   -0.280331    0.000055
  14 C :    0.133359    0.149668
  15 P :    0.279930    0.579090
  16 Cl:    0.669264    0.153335
  17 H :   -0.411975    0.008791
  18 H :   -0.368238    0.025637

  Mayer bond orders larger than 0.100000
B(  0-Cl,  7-P ) :   0.7701 B(  0-Cl,  8-C ) :  -0.1879 B(  1-Cl,  7-P ) :   0.7556
B(  1-Cl,  8-C ) :  -0.2062 B(  2-O ,  3-C ) :   0.8302 B(  2-O ,  6-C ) :  -0.1480
B(  2-O , 11-C ) :   0.7897 B(  3-C ,  4-H ) :   0.9075 B(  3-C ,  5-H ) :   0.9364
B(  3-C ,  6-C ) :   0.5564 B(  3-C , 11-C ) :   0.2555 B(  6-C ,  7-P ) :  -0.1413
B(  6-C ,  8-C ) :   0.7074 B(  6-C , 11-C ) :   0.4810 B(  6-C , 14-C ) :   0.5298
B(  6-C , 15-P ) :  -0.1712 B(  6-C , 18-H ) :  -0.1732 B(  7-P ,  8-C ) :   0.8391
B(  8-C ,  9-H ) :   0.9896 B(  8-C , 10-H ) :   0.9968 B( 11-C , 12-H ) :   1.0059
B( 11-C , 13-H ) :   0.8810 B( 14-C , 15-P ) :   0.8591 B( 14-C , 16-Cl) :  -0.2061
B( 14-C , 17-H ) :   1.0318 B( 14-C , 18-H ) :   1.0371 B( 15-P , 16-Cl) :   0.8577

MP2 TOTAL ENERGY:    -2331.155029873 Eh
FINAL SINGLE POINT ENERGY     -2331.155029873049

DIPOLE MOMENT
-------------
                                X             Y             Z
Electronic contribution:     -8.37782     -13.84051       2.70533
Nuclear contribution   :      8.49976      13.82084      -2.46887
                        -----------------------------------------
Total Dipole Moment    :      0.12195      -0.01967       0.23646
                        -----------------------------------------
Magnitude (a.u.)       :      0.26678
Magnitude (Debye)      :      0.67809

Rotational constants in cm-1:     0.023136     0.012744     0.009994
Rotational constants in MHz :   693.611827   382.056563   299.615847

                             ****ORCA TERMINATED NORMALLY****
TOTAL RUN TIME: 0 days 9 hours 21 minutes 52 seconds 524 msec
