                         Program Version 5.0.4 -  RELEASE  -
|  1> ! ri-mp2 aug-cc-pvdz aug-cc-pvdz/c tightscf
|  2> %pal nprocs 16 end
|  3> %maxcore 3800
|  4> %base "DZ_S-Cl_37_A"
|  5> %scf
|  6> STABPerform true
|  7> STABRestartUHFifUnstable true
|  8> end
|  9>
| 10> *xyz 0 2
| 11> S        -1.615041   -0.067527    0.000000
| 12> O        -0.142313    0.511957    0.000000
| 13> O         0.875188   -0.560190    0.000000
| 14> C         2.111240    0.115632    0.000000
| 15> H         2.853240   -0.682155    0.000000
| 16> H         2.228489    0.727330    0.896272
| 17> H         2.228489    0.727331   -0.896271
| 18> *
| 19>
| 20> $new_job
| 21> ! ri-mp2 aug-cc-pvtz aug-cc-pvtz/c tightscf
| 22> %pal nprocs 16 end
| 23> %maxcore 3800
| 24> %base "TZ_S-Cl_37_A"
| 25>
| 26> *xyz 0 2
| 27> S        -1.615041   -0.067527    0.000000
| 28> O        -0.142313    0.511957    0.000000
| 29> O         0.875188   -0.560190    0.000000
| 30> C         2.111240    0.115632    0.000000
| 31> H         2.853240   -0.682155    0.000000
| 32> H         2.228489    0.727330    0.896272
| 33> H         2.228489    0.727331   -0.896271
| 34> *
| 35>
| 36> $new_job
| 37> ! ri-mp2 aug-cc-pvqz aug-cc-pvqz/c tightscf
| 38> %pal nprocs 16 end
| 39> %maxcore 3800
| 40> %base "QZ_S-Cl_37_A"
| 41>
| 42> *xyz 0 2
| 43> S        -1.615041   -0.067527    0.000000
| 44> O        -0.142313    0.511957    0.000000
| 45> O         0.875188   -0.560190    0.000000
| 46> C         2.111240    0.115632    0.000000
| 47> H         2.853240   -0.682155    0.000000
| 48> H         2.228489    0.727330    0.896272
| 49> H         2.228489    0.727331   -0.896271
| 50> *
| 51>
| 52>
| 53>
| 54>
| 55>                          ****END OF INPUT****
 Total Charge           Charge          ....    0
 Multiplicity           Mult            ....    2
 Number of Electrons    NEL             ....   41
MP2 TOTAL ENERGY:     -587.408125225 Eh
FINAL SINGLE POINT ENERGY      -587.408125224602
MP2 TOTAL ENERGY:     -587.624975121 Eh
FINAL SINGLE POINT ENERGY      -587.624975121278

CARTESIAN COORDINATES (ANGSTROEM)
---------------------------------
  S     -1.615041   -0.067527    0.000000
  O     -0.142313    0.511957    0.000000
  O      0.875188   -0.560190    0.000000
  C      2.111240    0.115632    0.000000
  H      2.853240   -0.682155    0.000000
  H      2.228489    0.727330    0.896272
  H      2.228489    0.727331   -0.896271

 Multiplicity           Mult            ....    2
 Number of Electrons    NEL             ....   41
 Basis Dimension        Dim             ....  462

ORBITAL ENERGIES
----------------
                 SPIN UP ORBITALS
  NO   OCC          E(Eh)            E(eV)
   0   1.0000     -92.018658     -2503.9550
   1   1.0000     -20.679364      -562.7141
   2   1.0000     -20.641444      -561.6822
   3   1.0000     -11.290807      -307.2385
   4   1.0000      -9.016058      -245.3394
   5   1.0000      -6.710360      -182.5982
   6   1.0000      -6.693604      -182.1422
   7   1.0000      -6.691766      -182.0922
   8   1.0000      -1.509730       -41.0818
   9   1.0000      -1.293074       -35.1863
  10   1.0000      -0.948710       -25.8157
  11   1.0000      -0.916076       -24.9277
  12   1.0000      -0.713794       -19.4233
  13   1.0000      -0.689865       -18.7722
  14   1.0000      -0.674232       -18.3468
  15   1.0000      -0.616946       -16.7879
  16   1.0000      -0.574690       -15.6381
  17   1.0000      -0.545530       -14.8446
  18   1.0000      -0.484347       -13.1798
  19   1.0000      -0.414208       -11.2712
  20   1.0000      -0.381911       -10.3923
  21   0.0000       0.026138         0.7113
  22   0.0000       0.041478         1.1287
  23   0.0000       0.042062         1.1446
  24   0.0000       0.053448         1.4544
  25   0.0000       0.072071         1.9612

                 SPIN DOWN ORBITALS
  NO   OCC          E(Eh)            E(eV)
   0   1.0000     -92.010184     -2503.7244
   1   1.0000     -20.664258      -562.3030
   2   1.0000     -20.647305      -561.8417
   3   1.0000     -11.290521      -307.2307
   4   1.0000      -9.006735      -245.0857
   5   1.0000      -6.690635      -182.0614
   6   1.0000      -6.686511      -181.9492
   7   1.0000      -6.671053      -181.5286
   8   1.0000      -1.494907       -40.6785
   9   1.0000      -1.284016       -34.9398
  10   1.0000      -0.938579       -25.5400
  11   1.0000      -0.858776       -23.3685
  12   1.0000      -0.687140       -18.6980
  13   1.0000      -0.679046       -18.4778
  14   1.0000      -0.656538       -17.8653
  15   1.0000      -0.569001       -15.4833
  16   1.0000      -0.560933       -15.2638
  17   1.0000      -0.538545       -14.6545
  18   1.0000      -0.463602       -12.6153
  19   1.0000      -0.367373        -9.9967
  20   0.0000       0.025417         0.6916
  21   0.0000       0.026148         0.7115
  22   0.0000       0.041512         1.1296
  23   0.0000       0.043947         1.1959
  24   0.0000       0.054986         1.4962

MULLIKEN ATOMIC CHARGES AND SPIN POPULATIONS
--------------------------------------------
   0 S :    0.360067    0.935397
   1 O :   -0.463342    0.208792
   2 O :   -0.344092   -0.149471
   3 C :   -0.453018    0.016650
   4 H :    0.379670   -0.008744
   5 H :    0.260357   -0.001312
   6 H :    0.260358   -0.001312
Sum of atomic charges         :    0.0000000

LOEWDIN ATOMIC CHARGES AND SPIN POPULATIONS
-------------------------------------------
   0 S :    0.517566    0.766046
   1 O :   -0.349975    0.347206
   2 O :    0.401818   -0.090210
   3 C :    0.454974   -0.017433
   4 H :   -0.354977   -0.004531
   5 H :   -0.334703   -0.000539
   6 H :   -0.334703   -0.000539

  Mayer bond orders larger than 0.100000
B(  0-S ,  1-O ) :   0.9819 B(  1-O ,  2-O ) :   0.7358 B(  2-O ,  3-C ) :   0.8043
B(  3-C ,  4-H ) :   0.8491 B(  3-C ,  5-H ) :   0.9214 B(  3-C ,  6-H ) :   0.9214

MP2 TOTAL ENERGY:     -587.693929650 Eh
FINAL SINGLE POINT ENERGY      -587.693929650294

DIPOLE MOMENT
-------------
                                X             Y             Z
Electronic contribution:     -6.52173      -0.62824      -0.00000
Nuclear contribution   :      7.17663       0.75336       0.00000
                        -----------------------------------------
Total Dipole Moment    :      0.65490       0.12512      -0.00000
                        -----------------------------------------
Magnitude (a.u.)       :      0.66674
Magnitude (Debye)      :      1.69472

Rotational constants in cm-1:     1.331911     0.099803     0.094532
Rotational constants in MHz : 39929.689050  2992.006946  2833.993459

                             ****ORCA TERMINATED NORMALLY****
TOTAL RUN TIME: 0 days 0 hours 17 minutes 10 seconds 557 msec
