                         Program Version 5.0.4 -  RELEASE  -
|  1> ! ri-mp2 aug-cc-pvdz aug-cc-pvdz/c tightscf
|  2> %pal nprocs 16 end
|  3> %maxcore 3800
|  4> %base "DZ_P-C_34_AB"
|  5> %scf
|  6> STABPerform true
|  7> STABRestartUHFifUnstable true
|  8> end
|  9>
| 10> *xyz 0 1
| 11> P        -1.449467   -0.095006   -0.012940
| 12> C         0.280723    0.035183    0.556872
| 13> C         1.360932    0.746828   -0.197805
| 14> C         1.351861   -0.748375   -0.145913
| 15> H         0.360018    0.058958    1.636984
| 16> H         1.078893   -1.285266   -1.044442
| 17> H         2.096334   -1.246948    0.458412
| 18> H         2.115631    1.270693    0.372754
| 19> H         1.092319    1.225297   -1.129364
| 20> H        -1.170458   -0.078997   -1.400578
| 21> H        -1.791835    1.279540    0.021414
| 22> *
| 23>
| 24> $new_job
| 25> ! ri-mp2 aug-cc-pvtz aug-cc-pvtz/c tightscf
| 26> %pal nprocs 16 end
| 27> %maxcore 3800
| 28> %base "TZ_P-C_34_AB"
| 29>
| 30> *xyz 0 1
| 31> P        -1.449467   -0.095006   -0.012940
| 32> C         0.280723    0.035183    0.556872
| 33> C         1.360932    0.746828   -0.197805
| 34> C         1.351861   -0.748375   -0.145913
| 35> H         0.360018    0.058958    1.636984
| 36> H         1.078893   -1.285266   -1.044442
| 37> H         2.096334   -1.246948    0.458412
| 38> H         2.115631    1.270693    0.372754
| 39> H         1.092319    1.225297   -1.129364
| 40> H        -1.170458   -0.078997   -1.400578
| 41> H        -1.791835    1.279540    0.021414
| 42> *
| 43>
| 44> $new_job
| 45> ! ri-mp2 aug-cc-pvqz aug-cc-pvqz/c tightscf
| 46> %pal nprocs 16 end
| 47> %maxcore 3800
| 48> %base "QZ_P-C_34_AB"
| 49>
| 50> *xyz 0 1
| 51> P        -1.449467   -0.095006   -0.012940
| 52> C         0.280723    0.035183    0.556872
| 53> C         1.360932    0.746828   -0.197805
| 54> C         1.351861   -0.748375   -0.145913
| 55> H         0.360018    0.058958    1.636984
| 56> H         1.078893   -1.285266   -1.044442
| 57> H         2.096334   -1.246948    0.458412
| 58> H         2.115631    1.270693    0.372754
| 59> H         1.092319    1.225297   -1.129364
| 60> H        -1.170458   -0.078997   -1.400578
| 61> H        -1.791835    1.279540    0.021414
| 62> *
| 63>
| 64>
| 65>
| 66>
| 67>                          ****END OF INPUT****
 Total Charge           Charge          ....    0
 Multiplicity           Mult            ....    1
 Number of Electrons    NEL             ....   40
MP2 TOTAL ENERGY:     -458.949870739 Eh
FINAL SINGLE POINT ENERGY      -458.949870738860
MP2 TOTAL ENERGY:     -459.106879835 Eh
FINAL SINGLE POINT ENERGY      -459.106879835361

CARTESIAN COORDINATES (ANGSTROEM)
---------------------------------
  P     -1.449467   -0.095006   -0.012940
  C      0.280723    0.035183    0.556872
  C      1.360932    0.746828   -0.197805
  C      1.351861   -0.748375   -0.145913
  H      0.360018    0.058958    1.636984
  H      1.078893   -1.285266   -1.044442
  H      2.096334   -1.246948    0.458412
  H      2.115631    1.270693    0.372754
  H      1.092319    1.225297   -1.129364
  H     -1.170458   -0.078997   -1.400578
  H     -1.791835    1.279540    0.021414

 Multiplicity           Mult            ....    1
 Number of Electrons    NEL             ....   40
 Basis Dimension        Dim             ....  646

ORBITAL ENERGIES
----------------

  NO   OCC          E(Eh)            E(eV)
   0   2.0000     -79.935110     -2175.1449
   1   2.0000     -11.236785      -305.7685
   2   2.0000     -11.233017      -305.6659
   3   2.0000     -11.230885      -305.6079
   4   2.0000      -7.477772      -203.4805
   5   2.0000      -5.371777      -146.1735
   6   2.0000      -5.371620      -146.1692
   7   2.0000      -5.370540      -146.1398
   8   2.0000      -1.149808       -31.2879
   9   2.0000      -0.886153       -24.1134
  10   2.0000      -0.829990       -22.5852
  11   2.0000      -0.769491       -20.9389
  12   2.0000      -0.667288       -18.1578
  13   2.0000      -0.619386       -16.8543
  14   2.0000      -0.528496       -14.3811
  15   2.0000      -0.516046       -14.0423
  16   2.0000      -0.480390       -13.0721
  17   2.0000      -0.456415       -12.4197
  18   2.0000      -0.420781       -11.4500
  19   2.0000      -0.351974        -9.5777
  20   0.0000       0.025953         0.7062
  21   0.0000       0.033620         0.9148
  22   0.0000       0.035462         0.9650
  23   0.0000       0.037778         1.0280
  24   0.0000       0.051582         1.4036

MULLIKEN ATOMIC CHARGES
-----------------------
   0 P :    0.314947
   1 C :   -0.609599
   2 C :   -0.718715
   3 C :   -0.733929
   4 H :    0.428323
   5 H :    0.349426
   6 H :    0.389293
   7 H :    0.396191
   8 H :    0.350787
   9 H :   -0.086294
  10 H :   -0.080431
Sum of atomic charges:   -0.0000000

LOEWDIN ATOMIC CHARGES
----------------------
   0 P :    1.523050
   1 C :   -0.101841
   2 C :    0.514872
   3 C :    0.501105
   4 H :   -0.355709
   5 H :   -0.298222
   6 H :   -0.275000
   7 H :   -0.274948
   8 H :   -0.294796
   9 H :   -0.469020
  10 H :   -0.469490

  Mayer bond orders larger than 0.100000
B(  0-P ,  1-C ) :   0.7022 B(  0-P ,  9-H ) :   0.9310 B(  0-P , 10-H ) :   0.9261
B(  1-C ,  2-C ) :   0.9603 B(  1-C ,  3-C ) :   0.9609 B(  1-C ,  4-H ) :   0.8018
B(  2-C ,  3-C ) :   1.0575 B(  2-C ,  7-H ) :   0.8139 B(  2-C ,  8-H ) :   0.8625
B(  3-C ,  5-H ) :   0.8630 B(  3-C ,  6-H ) :   0.8109

MP2 TOTAL ENERGY:     -459.155342430 Eh
FINAL SINGLE POINT ENERGY      -459.155342429964

DIPOLE MOMENT
-------------
                                X             Y             Z
Electronic contribution:     -4.74009      -1.11569       1.05875
Nuclear contribution   :      5.23520       1.33256      -1.08785
                        -----------------------------------------
Total Dipole Moment    :      0.49511       0.21687      -0.02910
                        -----------------------------------------
Magnitude (a.u.)       :      0.54131
Magnitude (Debye)      :      1.37590

Rotational constants in cm-1:     0.502875     0.122308     0.114151
Rotational constants in MHz : 15075.807021  3666.693183  3422.159767

                             ****ORCA TERMINATED NORMALLY****
TOTAL RUN TIME: 0 days 0 hours 30 minutes 57 seconds 955 msec
