                         Program Version 5.0.4 -  RELEASE  -
|  1> ! ri-mp2 aug-cc-pvdz aug-cc-pvdz/c tightscf
|  2> %pal nprocs 16 end
|  3> %maxcore 3800
|  4> %base "DZ_P-Si_25_A"
|  5> %scf
|  6> STABPerform true
|  7> STABRestartUHFifUnstable true
|  8> end
|  9>
| 10> *xyz 0 2
| 11> Si        -0.359685    1.041945    0.000000
| 12> C         0.164788   -0.316191   -1.210516
| 13> C         0.164788   -0.316191    1.210516
| 14> C         0.164788   -1.292466    0.000000
| 15> H        -0.470596   -0.606811    2.042999
| 16> H         1.169830   -0.135621    1.596673
| 17> H        -0.749478   -1.885418    0.000000
| 18> H         1.005663   -1.986667    0.000000
| 19> H         1.169830   -0.135621   -1.596673
| 20> H        -0.470596   -0.606811   -2.042999
| 21> H         0.414761    2.318793    0.000000
| 22> *
| 23>
| 24> $new_job
| 25> ! ri-mp2 aug-cc-pvtz aug-cc-pvtz/c tightscf
| 26> %pal nprocs 16 end
| 27> %maxcore 3800
| 28> %base "TZ_P-Si_25_A"
| 29>
| 30> *xyz 0 2
| 31> Si        -0.359685    1.041945    0.000000
| 32> C         0.164788   -0.316191   -1.210516
| 33> C         0.164788   -0.316191    1.210516
| 34> C         0.164788   -1.292466    0.000000
| 35> H        -0.470596   -0.606811    2.042999
| 36> H         1.169830   -0.135621    1.596673
| 37> H        -0.749478   -1.885418    0.000000
| 38> H         1.005663   -1.986667    0.000000
| 39> H         1.169830   -0.135621   -1.596673
| 40> H        -0.470596   -0.606811   -2.042999
| 41> H         0.414761    2.318793    0.000000
| 42> *
| 43>
| 44> $new_job
| 45> ! ri-mp2 aug-cc-pvqz aug-cc-pvqz/c tightscf
| 46> %pal nprocs 16 end
| 47> %maxcore 3800
| 48> %base "QZ_P-Si_25_A"
| 49>
| 50> *xyz 0 2
| 51> Si        -0.359685    1.041945    0.000000
| 52> C         0.164788   -0.316191   -1.210516
| 53> C         0.164788   -0.316191    1.210516
| 54> C         0.164788   -1.292466    0.000000
| 55> H        -0.470596   -0.606811    2.042999
| 56> H         1.169830   -0.135621    1.596673
| 57> H        -0.749478   -1.885418    0.000000
| 58> H         1.005663   -1.986667    0.000000
| 59> H         1.169830   -0.135621   -1.596673
| 60> H        -0.470596   -0.606811   -2.042999
| 61> H         0.414761    2.318793    0.000000
| 62> *
| 63>
| 64>
| 65>
| 66>
| 67>                          ****END OF INPUT****
 Total Charge           Charge          ....    0
 Multiplicity           Mult            ....    2
 Number of Electrons    NEL             ....   39
MP2 TOTAL ENERGY:     -407.083109267 Eh
FINAL SINGLE POINT ENERGY      -407.083109266773
MP2 TOTAL ENERGY:     -407.230715376 Eh
FINAL SINGLE POINT ENERGY      -407.230715376010

CARTESIAN COORDINATES (ANGSTROEM)
---------------------------------
  Si    -0.359685    1.041945    0.000000
  C      0.164788   -0.316191   -1.210516
  C      0.164788   -0.316191    1.210516
  C      0.164788   -1.292466    0.000000
  H     -0.470596   -0.606811    2.042999
  H      1.169830   -0.135621    1.596673
  H     -0.749478   -1.885418    0.000000
  H      1.005663   -1.986667    0.000000
  H      1.169830   -0.135621   -1.596673
  H     -0.470596   -0.606811   -2.042999
  H      0.414761    2.318793    0.000000

 Multiplicity           Mult            ....    2
 Number of Electrons    NEL             ....   39
 Basis Dimension        Dim             ....  646

ORBITAL ENERGIES
----------------
                 SPIN UP ORBITALS
  NO   OCC          E(Eh)            E(eV)
   0   1.0000     -68.769105     -1871.3025
   1   1.0000     -11.228587      -305.5454
   2   1.0000     -11.205580      -304.9193
   3   1.0000     -11.205561      -304.9188
   4   1.0000      -6.118514      -166.4932
   5   1.0000      -4.231003      -115.1314
   6   1.0000      -4.221255      -114.8662
   7   1.0000      -4.220718      -114.8516
   8   1.0000      -1.068609       -29.0783
   9   1.0000      -0.900889       -24.5144
  10   1.0000      -0.807818       -21.9818
  11   1.0000      -0.671564       -18.2742
  12   1.0000      -0.630791       -17.1647
  13   1.0000      -0.586342       -15.9552
  14   1.0000      -0.545797       -14.8519
  15   1.0000      -0.483320       -13.1518
  16   1.0000      -0.480240       -13.0680
  17   1.0000      -0.418405       -11.3854
  18   1.0000      -0.415633       -11.3099
  19   1.0000      -0.311624        -8.4797
  20   0.0000       0.024653         0.6709
  21   0.0000       0.033260         0.9050
  22   0.0000       0.034303         0.9334
  23   0.0000       0.035378         0.9627
  24   0.0000       0.050808         1.3825

                 SPIN DOWN ORBITALS
  NO   OCC          E(Eh)            E(eV)
   0   1.0000     -68.763681     -1871.1549
   1   1.0000     -11.228717      -305.5489
   2   1.0000     -11.204489      -304.8896
   3   1.0000     -11.204465      -304.8890
   4   1.0000      -6.110180      -166.2664
   5   1.0000      -4.217918      -114.7754
   6   1.0000      -4.217221      -114.7564
   7   1.0000      -4.209139      -114.5365
   8   1.0000      -1.064509       -28.9668
   9   1.0000      -0.896374       -24.3916
  10   1.0000      -0.800276       -21.7766
  11   1.0000      -0.649398       -17.6710
  12   1.0000      -0.627064       -17.0633
  13   1.0000      -0.564576       -15.3629
  14   1.0000      -0.541691       -14.7402
  15   1.0000      -0.477393       -12.9905
  16   1.0000      -0.476999       -12.9798
  17   1.0000      -0.408109       -11.1052
  18   1.0000      -0.399049       -10.8587
  19   0.0000       0.022999         0.6258
  20   0.0000       0.032017         0.8712
  21   0.0000       0.033901         0.9225
  22   0.0000       0.035453         0.9647
  23   0.0000       0.049026         1.3341

MULLIKEN ATOMIC CHARGES AND SPIN POPULATIONS
--------------------------------------------
   0 Si:    0.754231    0.947639
   1 C :   -0.838704   -0.008001
   2 C :   -0.838705   -0.008001
   3 C :   -0.536802    0.014115
   4 H :    0.334175   -0.001136
   5 H :    0.241189    0.012790
   6 H :    0.241897   -0.002293
   7 H :    0.326069    0.003168
   8 H :    0.241190    0.012790
   9 H :    0.334174   -0.001136
  10 H :   -0.258714    0.030065
Sum of atomic charges         :    0.0000000

LOEWDIN ATOMIC CHARGES AND SPIN POPULATIONS
-------------------------------------------
   0 Si:    0.873539    0.538082
   1 C :    0.498015    0.119863
   2 C :    0.498015    0.119863
   3 C :    0.367696    0.034692
   4 H :   -0.341216    0.010662
   5 H :   -0.342932    0.014774
   6 H :   -0.295824    0.002509
   7 H :   -0.271723    0.002605
   8 H :   -0.342932    0.014774
   9 H :   -0.341216    0.010662
  10 H :   -0.301424    0.131512

  Mayer bond orders larger than 0.100000
B(  0-Si,  1-C ) :   0.7496 B(  0-Si,  2-C ) :   0.7496 B(  0-Si, 10-H ) :   0.9079
B(  1-C ,  3-C ) :   0.9843 B(  1-C ,  8-H ) :   0.9389 B(  1-C ,  9-H ) :   0.9068
B(  2-C ,  3-C ) :   0.9843 B(  2-C ,  4-H ) :   0.9068 B(  2-C ,  5-H ) :   0.9389
B(  3-C ,  6-H ) :   0.9001 B(  3-C ,  7-H ) :   0.8128

MP2 TOTAL ENERGY:     -407.275291600 Eh
FINAL SINGLE POINT ENERGY      -407.275291600091

DIPOLE MOMENT
-------------
                                X             Y             Z
Electronic contribution:     -2.05193       2.99285      -0.00000
Nuclear contribution   :      2.15206      -3.19160       0.00000
                        -----------------------------------------
Total Dipole Moment    :      0.10014      -0.19874      -0.00000
                        -----------------------------------------
Magnitude (a.u.)       :      0.22255
Magnitude (Debye)      :      0.56567

Rotational constants in cm-1:     0.305443     0.221519     0.142356
Rotational constants in MHz :  9156.939180  6640.957717  4267.732842

                             ****ORCA TERMINATED NORMALLY****
TOTAL RUN TIME: 0 days 1 hours 14 minutes 32 seconds 411 msec
