                         Program Version 5.0.4 -  RELEASE  -
|  1> ! ri-mp2 aug-cc-pvdz aug-cc-pvdz/c tightscf
|  2> %pal nprocs 16 end
|  3> %maxcore 3800
|  4> %base "DZ_P-O_2_AB"
|  5> %scf
|  6> STABPerform true
|  7> STABRestartUHFifUnstable true
|  8> end
|  9>
| 10> *xyz 0 1
| 11> O        -0.587303    0.612625   -0.688192
| 12> P        -1.921651   -0.012428    0.015813
| 13> O        -2.957474    0.993683   -0.108388
| 14> O        -2.153509   -1.410027   -0.659293
| 15> O         0.500447   -0.330259   -0.633782
| 16> C         1.551119    0.316592   -0.037078
| 17> Cl         2.848405   -0.856334    0.013732
| 18> F         1.242113    0.723898    1.200200
| 19> F         1.916282    1.395735   -0.718746
| 20> H        -2.776645   -1.372874   -1.394366
| 21> O        -1.466814   -0.499939    1.435756
| 22> H        -1.236513    0.212060    2.044312
| 23> *
| 24>
| 25> $new_job
| 26> ! ri-mp2 aug-cc-pvtz aug-cc-pvtz/c tightscf
| 27> %pal nprocs 16 end
| 28> %maxcore 3800
| 29> %base "TZ_P-O_2_AB"
| 30>
| 31> *xyz 0 1
| 32> O        -0.587303    0.612625   -0.688192
| 33> P        -1.921651   -0.012428    0.015813
| 34> O        -2.957474    0.993683   -0.108388
| 35> O        -2.153509   -1.410027   -0.659293
| 36> O         0.500447   -0.330259   -0.633782
| 37> C         1.551119    0.316592   -0.037078
| 38> Cl         2.848405   -0.856334    0.013732
| 39> F         1.242113    0.723898    1.200200
| 40> F         1.916282    1.395735   -0.718746
| 41> H        -2.776645   -1.372874   -1.394366
| 42> O        -1.466814   -0.499939    1.435756
| 43> H        -1.236513    0.212060    2.044312
| 44> *
| 45>
| 46> $new_job
| 47> ! ri-mp2 aug-cc-pvqz aug-cc-pvqz/c tightscf
| 48> %pal nprocs 16 end
| 49> %maxcore 3800
| 50> %base "QZ_P-O_2_AB"
| 51>
| 52> *xyz 0 1
| 53> O        -0.587303    0.612625   -0.688192
| 54> P        -1.921651   -0.012428    0.015813
| 55> O        -2.957474    0.993683   -0.108388
| 56> O        -2.153509   -1.410027   -0.659293
| 57> O         0.500447   -0.330259   -0.633782
| 58> C         1.551119    0.316592   -0.037078
| 59> Cl         2.848405   -0.856334    0.013732
| 60> F         1.242113    0.723898    1.200200
| 61> F         1.916282    1.395735   -0.718746
| 62> H        -2.776645   -1.372874   -1.394366
| 63> O        -1.466814   -0.499939    1.435756
| 64> H        -1.236513    0.212060    2.044312
| 65> *
| 66>
| 67>
| 68>
| 69>
| 70>                          ****END OF INPUT****
 Total Charge           Charge          ....    0
 Multiplicity           Mult            ....    1
 Number of Electrons    NEL             ....   98
MP2 TOTAL ENERGY:    -1414.334374287 Eh
FINAL SINGLE POINT ENERGY     -1414.334374287253
MP2 TOTAL ENERGY:    -1414.992495770 Eh
FINAL SINGLE POINT ENERGY     -1414.992495770163

CARTESIAN COORDINATES (ANGSTROEM)
---------------------------------
  O     -0.587303    0.612625   -0.688192
  P     -1.921651   -0.012428    0.015813
  O     -2.957474    0.993683   -0.108388
  O     -2.153509   -1.410027   -0.659293
  O      0.500447   -0.330259   -0.633782
  C      1.551119    0.316592   -0.037078
  Cl     2.848405   -0.856334    0.013732
  F      1.242113    0.723898    1.200200
  F      1.916282    1.395735   -0.718746
  H     -2.776645   -1.372874   -1.394366
  O     -1.466814   -0.499939    1.435756
  H     -1.236513    0.212060    2.044312

 Multiplicity           Mult            ....    1
 Number of Electrons    NEL             ....   98
 Basis Dimension        Dim             ....  900

ORBITAL ENERGIES
----------------

  NO   OCC          E(Eh)            E(eV)
   0   2.0000    -104.884993     -2854.0658
   1   2.0000     -80.123097     -2180.2603
   2   2.0000     -26.367457      -717.4950
   3   2.0000     -26.362760      -717.3672
   4   2.0000     -20.707567      -563.4815
   5   2.0000     -20.685465      -562.8801
   6   2.0000     -20.630724      -561.3905
   7   2.0000     -20.630194      -561.3761
   8   2.0000     -20.534061      -558.7602
   9   2.0000     -11.561303      -314.5991
  10   2.0000     -10.611157      -288.7443
  11   2.0000      -8.078244      -219.8202
  12   2.0000      -8.076173      -219.7638
  13   2.0000      -8.076152      -219.7633
  14   2.0000      -7.641787      -207.9436
  15   2.0000      -5.540611      -150.7677
  16   2.0000      -5.540342      -150.7604
  17   2.0000      -5.539165      -150.7283
  18   2.0000      -1.742618       -47.4191
  19   2.0000      -1.664151       -45.2839
  20   2.0000      -1.566004       -42.6131
  21   2.0000      -1.474089       -40.1120
  22   2.0000      -1.419764       -38.6337
  23   2.0000      -1.346331       -36.6355
  24   2.0000      -1.307989       -35.5922
  25   2.0000      -1.172758       -31.9124
  26   2.0000      -0.956399       -26.0249
  27   2.0000      -0.897801       -24.4304
  28   2.0000      -0.847637       -23.0654
  29   2.0000      -0.843256       -22.9462
  30   2.0000      -0.818131       -22.2625
  31   2.0000      -0.773016       -21.0348
  32   2.0000      -0.757857       -20.6223
  33   2.0000      -0.735661       -20.0183
  34   2.0000      -0.713421       -19.4132
  35   2.0000      -0.696574       -18.9548
  36   2.0000      -0.687783       -18.7155
  37   2.0000      -0.683023       -18.5860
  38   2.0000      -0.659734       -17.9523
  39   2.0000      -0.622169       -16.9301
  40   2.0000      -0.606292       -16.4980
  41   2.0000      -0.597125       -16.2486
  42   2.0000      -0.580977       -15.8092
  43   2.0000      -0.567826       -15.4513
  44   2.0000      -0.545599       -14.8465
  45   2.0000      -0.511717       -13.9245
  46   2.0000      -0.506585       -13.7849
  47   2.0000      -0.495904       -13.4942
  48   2.0000      -0.495403       -13.4806
  49   0.0000       0.023466         0.6385
  50   0.0000       0.031407         0.8546
  51   0.0000       0.045232         1.2308
  52   0.0000       0.054774         1.4905
  53   0.0000       0.064926         1.7667

MULLIKEN ATOMIC CHARGES
-----------------------
   0 O :   -0.539407
   1 P :    2.620041
   2 O :   -1.119328
   3 O :   -0.840225
   4 O :   -0.344684
   5 C :    1.554176
   6 Cl:   -0.106921
   7 F :   -0.572420
   8 F :   -0.553628
   9 H :    0.373726
  10 O :   -0.870387
  11 H :    0.399056
Sum of atomic charges:   -0.0000000

LOEWDIN ATOMIC CHARGES
----------------------
   0 O :    0.300476
   1 P :   -1.030911
   2 O :    0.284309
   3 O :    1.096141
   4 O :    0.293257
   5 C :   -2.831334
   6 Cl:    1.106324
   7 F :    0.688162
   8 F :    0.699313
   9 H :   -0.846260
  10 O :    1.095384
  11 H :   -0.854860

  Mayer bond orders larger than 0.100000
B(  0-O ,  1-P ) :   0.5605 B(  0-O ,  2-O ) :  -0.1386 B(  0-O ,  4-O ) :   0.7447
B(  1-P ,  2-O ) :   1.4028 B(  1-P ,  3-O ) :   0.7134 B(  1-P , 10-O ) :   0.7056
B(  3-O ,  9-H ) :   0.9114 B(  4-O ,  5-C ) :   0.8674 B(  5-C ,  6-Cl) :   0.9113
B(  5-C ,  7-F ) :   0.5064 B(  5-C ,  8-F ) :   0.5327 B( 10-O , 11-H ) :   0.8664

MP2 TOTAL ENERGY:    -1415.208366358 Eh
FINAL SINGLE POINT ENERGY     -1415.208366358128

DIPOLE MOMENT
-------------
                                X             Y             Z
Electronic contribution:      9.19537       1.16820       0.03171
Nuclear contribution   :     -8.79459      -1.88014       0.12006
                        -----------------------------------------
Total Dipole Moment    :      0.40078      -0.71195       0.15177
                        -----------------------------------------
Magnitude (a.u.)       :      0.83098
Magnitude (Debye)      :      2.11219

Rotational constants in cm-1:     0.072369     0.018850     0.018077
Rotational constants in MHz :  2169.569808   565.104957   541.927595

                             ****ORCA TERMINATED NORMALLY****
TOTAL RUN TIME: 0 days 1 hours 18 minutes 8 seconds 301 msec
