                         Program Version 5.0.4 -  RELEASE  -
|  1> ! ri-mp2 aug-cc-pvdz aug-cc-pvdz/c tightscf
|  2> %pal nprocs 16 end
|  3> %maxcore 3800
|  4> %base "DZ_B-F_41_AB"
|  5>
|  6> *xyz 0 1
|  7> F         1.584619   -0.761533   -0.000021
|  8> F         0.641135    1.286538    0.000018
|  9> B         0.496827   -0.023267    0.000003
| 10> C        -0.935478   -0.661681    0.000010
| 11> N        -2.008119    0.013382   -0.000006
| 12> H        -1.811130    1.016616   -0.000026
| 13> H        -1.035083   -1.748910    0.000022
| 14> *
| 15>
| 16> $new_job
| 17> ! ri-mp2 aug-cc-pvtz aug-cc-pvtz/c tightscf
| 18> %pal nprocs 16 end
| 19> %maxcore 3800
| 20> %base "TZ_B-F_41_AB"
| 21>
| 22> *xyz 0 1
| 23> F         1.584619   -0.761533   -0.000021
| 24> F         0.641135    1.286538    0.000018
| 25> B         0.496827   -0.023267    0.000003
| 26> C        -0.935478   -0.661681    0.000010
| 27> N        -2.008119    0.013382   -0.000006
| 28> H        -1.811130    1.016616   -0.000026
| 29> H        -1.035083   -1.748910    0.000022
| 30> *
| 31>
| 32> $new_job
| 33> ! ri-mp2 aug-cc-pvqz aug-cc-pvqz/c tightscf
| 34> %pal nprocs 16 end
| 35> %maxcore 3800
| 36> %base "QZ_B-F_41_AB"
| 37>
| 38> *xyz 0 1
| 39> F         1.584619   -0.761533   -0.000021
| 40> F         0.641135    1.286538    0.000018
| 41> B         0.496827   -0.023267    0.000003
| 42> C        -0.935478   -0.661681    0.000010
| 43> N        -2.008119    0.013382   -0.000006
| 44> H        -1.811130    1.016616   -0.000026
| 45> H        -1.035083   -1.748910    0.000022
| 46> *
| 47>
| 48>
| 49>
| 50>
| 51>                          ****END OF INPUT****
 Total Charge           Charge          ....    0
 Multiplicity           Mult            ....    1
 Number of Electrons    NEL             ....   38
MP2 TOTAL ENERGY:     -317.968622835 Eh
FINAL SINGLE POINT ENERGY      -317.968622834750
MP2 TOTAL ENERGY:     -318.244131830 Eh
FINAL SINGLE POINT ENERGY      -318.244131830070

CARTESIAN COORDINATES (ANGSTROEM)
---------------------------------
  F      1.584619   -0.761533   -0.000021
  F      0.641135    1.286538    0.000018
  B      0.496827   -0.023267    0.000003
  C     -0.935478   -0.661681    0.000010
  N     -2.008119    0.013382   -0.000006
  H     -1.811130    1.016616   -0.000026
  H     -1.035083   -1.748910    0.000022

 Multiplicity           Mult            ....    1
 Number of Electrons    NEL             ....   38
 Basis Dimension        Dim             ....  492

ORBITAL ENERGIES
----------------

  NO   OCC          E(Eh)            E(eV)
   0   2.0000     -26.330174      -716.4805
   1   2.0000     -26.330094      -716.4783
   2   2.0000     -15.591613      -424.2694
   3   2.0000     -11.282102      -307.0016
   4   2.0000      -7.728349      -210.2991
   5   2.0000      -1.664243       -45.2864
   6   2.0000      -1.632784       -44.4303
   7   2.0000      -1.233540       -33.5663
   8   2.0000      -0.879542       -23.9336
   9   2.0000      -0.828224       -22.5371
  10   2.0000      -0.781370       -21.2622
  11   2.0000      -0.761303       -20.7161
  12   2.0000      -0.732375       -19.9289
  13   2.0000      -0.677855       -18.4454
  14   2.0000      -0.672132       -18.2896
  15   2.0000      -0.646687       -17.5972
  16   2.0000      -0.613926       -16.7058
  17   2.0000      -0.472622       -12.8607
  18   2.0000      -0.440855       -11.9963
  19   0.0000       0.024064         0.6548
  20   0.0000       0.034269         0.9325
  21   0.0000       0.035794         0.9740
  22   0.0000       0.039636         1.0786
  23   0.0000       0.056073         1.5258

MULLIKEN ATOMIC CHARGES
-----------------------
   0 F :   -0.761616
   1 F :   -0.759631
   2 B :    1.690593
   3 C :   -0.398192
   4 N :   -0.642904
   5 H :    0.345379
   6 H :    0.526372
Sum of atomic charges:    0.0000000

LOEWDIN ATOMIC CHARGES
----------------------
   0 F :    0.813033
   1 F :    0.828202
   2 B :   -1.723963
   3 C :    0.200637
   4 N :    0.968135
   5 H :   -0.687408
   6 H :   -0.398636

  Mayer bond orders larger than 0.100000
B(  0-F ,  2-B ) :   0.3702 B(  1-F ,  2-B ) :   0.4003 B(  2-B ,  3-C ) :   0.9425
B(  3-C ,  4-N ) :   1.8001 B(  3-C ,  6-H ) :   0.7257 B(  4-N ,  5-H ) :   0.7680

MP2 TOTAL ENERGY:     -318.332711160 Eh
FINAL SINGLE POINT ENERGY      -318.332711160274

DIPOLE MOMENT
-------------
                                X             Y             Z
Electronic contribution:      5.29261       1.09690       0.00001
Nuclear contribution   :     -5.06782      -1.14421      -0.00000
                        -----------------------------------------
Total Dipole Moment    :      0.22479      -0.04731       0.00000
                        -----------------------------------------
Magnitude (a.u.)       :      0.22971
Magnitude (Debye)      :      0.58389

Rotational constants in cm-1:     0.325232     0.130494     0.093128
Rotational constants in MHz :  9750.218693  3912.124130  2791.912509

                             ****ORCA TERMINATED NORMALLY****
TOTAL RUN TIME: 0 days 0 hours 2 minutes 35 seconds 100 msec
