                         Program Version 5.0.4 -  RELEASE  -
|  1> ! ri-mp2 aug-cc-pvdz aug-cc-pvdz/c tightscf
|  2> %pal nprocs 16 end
|  3> %maxcore 3800
|  4> %base "DZ_Si-Si_95_A"
|  5> %scf
|  6> STABPerform true
|  7> STABRestartUHFifUnstable true
|  8> end
|  9>
| 10> *xyz 0 2
| 11> Si        -1.621787    0.000001   -0.128457
| 12> N         0.059909   -0.000002    0.162961
| 13> H        -2.203306   -1.222080    0.468695
| 14> H        -2.203303    1.222082    0.468698
| 15> C         1.244370    0.000000    0.035572
| 16> O         2.403257    0.000001   -0.061644
| 17> *
| 18>
| 19> $new_job
| 20> ! ri-mp2 aug-cc-pvtz aug-cc-pvtz/c tightscf
| 21> %pal nprocs 16 end
| 22> %maxcore 3800
| 23> %base "TZ_Si-Si_95_A"
| 24>
| 25> *xyz 0 2
| 26> Si        -1.621787    0.000001   -0.128457
| 27> N         0.059909   -0.000002    0.162961
| 28> H        -2.203306   -1.222080    0.468695
| 29> H        -2.203303    1.222082    0.468698
| 30> C         1.244370    0.000000    0.035572
| 31> O         2.403257    0.000001   -0.061644
| 32> *
| 33>
| 34> $new_job
| 35> ! ri-mp2 aug-cc-pvqz aug-cc-pvqz/c tightscf
| 36> %pal nprocs 16 end
| 37> %maxcore 3800
| 38> %base "QZ_Si-Si_95_A"
| 39>
| 40> *xyz 0 2
| 41> Si        -1.621787    0.000001   -0.128457
| 42> N         0.059909   -0.000002    0.162961
| 43> H        -2.203306   -1.222080    0.468695
| 44> H        -2.203303    1.222082    0.468698
| 45> C         1.244370    0.000000    0.035572
| 46> O         2.403257    0.000001   -0.061644
| 47> *
| 48>
| 49>
| 50>
| 51>
| 52>                          ****END OF INPUT****
 Total Charge           Charge          ....    0
 Multiplicity           Mult            ....    2
 Number of Electrons    NEL             ....   37
MP2 TOTAL ENERGY:     -457.862600734 Eh
FINAL SINGLE POINT ENERGY      -457.862600733923
MP2 TOTAL ENERGY:     -458.039456023 Eh
FINAL SINGLE POINT ENERGY      -458.039456023373

CARTESIAN COORDINATES (ANGSTROEM)
---------------------------------
  Si    -1.621787    0.000001   -0.128457
  N      0.059909   -0.000002    0.162961
  H     -2.203306   -1.222080    0.468695
  H     -2.203303    1.222082    0.468698
  C      1.244370    0.000000    0.035572
  O      2.403257    0.000001   -0.061644

 Multiplicity           Mult            ....    2
 Number of Electrons    NEL             ....   37
 Basis Dimension        Dim             ....  416

ORBITAL ENERGIES
----------------
                 SPIN UP ORBITALS
  NO   OCC          E(Eh)            E(eV)
   0   1.0000     -68.824412     -1872.8075
   1   1.0000     -20.611145      -560.8578
   2   1.0000     -15.583721      -424.0546
   3   1.0000     -11.407400      -310.4111
   4   1.0000      -6.170444      -167.9063
   5   1.0000      -4.282833      -116.5418
   6   1.0000      -4.274060      -116.3031
   7   1.0000      -4.272980      -116.2737
   8   1.0000      -1.471444       -40.0400
   9   1.0000      -1.262853       -34.3640
  10   1.0000      -0.848857       -23.0986
  11   1.0000      -0.732405       -19.9297
  12   1.0000      -0.662228       -18.0201
  13   1.0000      -0.658366       -17.9150
  14   1.0000      -0.631991       -17.1974
  15   1.0000      -0.529897       -14.4192
  16   1.0000      -0.489756       -13.3269
  17   1.0000      -0.447340       -12.1727
  18   1.0000      -0.342816        -9.3285
  19   0.0000       0.024683         0.6717
  20   0.0000       0.032817         0.8930
  21   0.0000       0.038470         1.0468
  22   0.0000       0.040941         1.1141
  23   0.0000       0.061703         1.6790

                 SPIN DOWN ORBITALS
  NO   OCC          E(Eh)            E(eV)
   0   1.0000     -68.818637     -1872.6503
   1   1.0000     -20.609491      -560.8128
   2   1.0000     -15.583478      -424.0480
   3   1.0000     -11.406767      -310.3939
   4   1.0000      -6.161337      -167.6585
   5   1.0000      -4.270388      -116.2032
   6   1.0000      -4.269333      -116.1744
   7   1.0000      -4.261155      -115.9519
   8   1.0000      -1.468125       -39.9497
   9   1.0000      -1.258394       -34.2426
  10   1.0000      -0.832610       -22.6565
  11   1.0000      -0.728263       -19.8170
  12   1.0000      -0.657093       -17.8804
  13   1.0000      -0.650343       -17.6967
  14   1.0000      -0.604654       -16.4535
  15   1.0000      -0.520504       -14.1636
  16   1.0000      -0.468045       -12.7362
  17   1.0000      -0.443515       -12.0686
  18   0.0000       0.017119         0.4658
  19   0.0000       0.027914         0.7596
  20   0.0000       0.033667         0.9161
  21   0.0000       0.038815         1.0562
  22   0.0000       0.055587         1.5126

MULLIKEN ATOMIC CHARGES AND SPIN POPULATIONS
--------------------------------------------
   0 Si:    0.503474    0.871555
   1 N :   -0.726818   -0.003064
   2 H :   -0.199748    0.034666
   3 H :   -0.199748    0.034666
   4 C :    1.204375    0.031026
   5 O :   -0.581535    0.031150
Sum of atomic charges         :    0.0000000

LOEWDIN ATOMIC CHARGES AND SPIN POPULATIONS
-------------------------------------------
   0 Si:    0.832611    0.549311
   1 N :    0.200778    0.127593
   2 H :   -0.362086    0.129896
   3 H :   -0.362086    0.129896
   4 C :   -0.891831    0.034923
   5 O :    0.582614    0.028381

  Mayer bond orders larger than 0.100000
B(  0-Si,  1-N ) :   0.9802 B(  0-Si,  2-H ) :   0.9077 B(  0-Si,  3-H ) :   0.9077
B(  1-N ,  4-C ) :   2.0152 B(  1-N ,  5-O ) :   0.2857 B(  4-C ,  5-O ) :   1.7346

MP2 TOTAL ENERGY:     -458.097396569 Eh
FINAL SINGLE POINT ENERGY      -458.097396568668

DIPOLE MOMENT
-------------
                                X             Y             Z
Electronic contribution:      3.25801      -0.00000      -0.94881
Nuclear contribution   :     -4.11419       0.00000       0.91070
                        -----------------------------------------
Total Dipole Moment    :     -0.85618       0.00000      -0.03811
                        -----------------------------------------
Magnitude (a.u.)       :      0.85702
Magnitude (Debye)      :      2.17838

Rotational constants in cm-1:     3.893596     0.086094     0.085357
Rotational constants in MHz : 116727.057856  2581.047169  2558.932900

                             ****ORCA TERMINATED NORMALLY****
TOTAL RUN TIME: 0 days 0 hours 16 minutes 15 seconds 226 msec
