                         Program Version 5.0.4 -  RELEASE  -
|  1> ! ri-mp2 aug-cc-pvdz aug-cc-pvdz/c tightscf
|  2> %pal nprocs 16 end
|  3> %maxcore 3800
|  4> %base "DZ_Si-Cl_95_A"
|  5> %scf
|  6> STABPerform true
|  7> STABRestartUHFifUnstable true
|  8> end
|  9>
| 10> *xyz 0 2
| 11> Si        -0.025474    0.797732    0.000000
| 12> Cl        -0.025474   -0.375379    1.679511
| 13> Cl        -0.025474   -0.375379   -1.679511
| 14> H         1.222755    1.594642    0.000000
| 15> *
| 16>
| 17> $new_job
| 18> ! ri-mp2 aug-cc-pvtz aug-cc-pvtz/c tightscf
| 19> %pal nprocs 16 end
| 20> %maxcore 3800
| 21> %base "TZ_Si-Cl_95_A"
| 22>
| 23> *xyz 0 2
| 24> Si        -0.025474    0.797732    0.000000
| 25> Cl        -0.025474   -0.375379    1.679511
| 26> Cl        -0.025474   -0.375379   -1.679511
| 27> H         1.222755    1.594642    0.000000
| 28> *
| 29>
| 30> $new_job
| 31> ! ri-mp2 aug-cc-pvqz aug-cc-pvqz/c tightscf
| 32> %pal nprocs 16 end
| 33> %maxcore 3800
| 34> %base "QZ_Si-Cl_95_A"
| 35>
| 36> *xyz 0 2
| 37> Si        -0.025474    0.797732    0.000000
| 38> Cl        -0.025474   -0.375379    1.679511
| 39> Cl        -0.025474   -0.375379   -1.679511
| 40> H         1.222755    1.594642    0.000000
| 41> *
| 42>
| 43>
| 44>
| 45>
| 46>                          ****END OF INPUT****
 Total Charge           Charge          ....    0
 Multiplicity           Mult            ....    2
 Number of Electrons    NEL             ....   49
MP2 TOTAL ENERGY:    -1208.960341015 Eh
FINAL SINGLE POINT ENERGY     -1208.960341014728
MP2 TOTAL ENERGY:    -1209.117429675 Eh
FINAL SINGLE POINT ENERGY     -1209.117429675200

CARTESIAN COORDINATES (ANGSTROEM)
---------------------------------
  Si    -0.025474    0.797732    0.000000
  Cl    -0.025474   -0.375379    1.679511
  Cl    -0.025474   -0.375379   -1.679511
  H      1.222755    1.594642    0.000000

 Multiplicity           Mult            ....    2
 Number of Electrons    NEL             ....   49
 Basis Dimension        Dim             ....  298

ORBITAL ENERGIES
----------------
                 SPIN UP ORBITALS
  NO   OCC          E(Eh)            E(eV)
   0   1.0000    -104.845737     -2852.9976
   1   1.0000    -104.845737     -2852.9976
   2   1.0000     -68.873670     -1874.1478
   3   1.0000     -10.572972      -287.7052
   4   1.0000     -10.572967      -287.7051
   5   1.0000      -8.040934      -218.8049
   6   1.0000      -8.040933      -218.8049
   7   1.0000      -8.038580      -218.7409
   8   1.0000      -8.038579      -218.7409
   9   1.0000      -8.038217      -218.7310
  10   1.0000      -8.038217      -218.7310
  11   1.0000      -6.215207      -169.1244
  12   1.0000      -4.325869      -117.7129
  13   1.0000      -4.318154      -117.5030
  14   1.0000      -4.317022      -117.4721
  15   1.0000      -1.131147       -30.7801
  16   1.0000      -1.103930       -30.0395
  17   1.0000      -0.725037       -19.7293
  18   1.0000      -0.567129       -15.4324
  19   1.0000      -0.562952       -15.3187
  20   1.0000      -0.527962       -14.3666
  21   1.0000      -0.489122       -13.3097
  22   1.0000      -0.480302       -13.0697
  23   1.0000      -0.470536       -12.8039
  24   1.0000      -0.362632        -9.8677
  25   0.0000       0.030926         0.8415
  26   0.0000       0.039842         1.0841
  27   0.0000       0.040899         1.1129
  28   0.0000       0.043737         1.1901
  29   0.0000       0.071485         1.9452

                 SPIN DOWN ORBITALS
  NO   OCC          E(Eh)            E(eV)
   0   1.0000    -104.844659     -2852.9682
   1   1.0000    -104.844659     -2852.9682
   2   1.0000     -68.867522     -1873.9805
   3   1.0000     -10.571800      -287.6733
   4   1.0000     -10.571794      -287.6731
   5   1.0000      -8.038485      -218.7383
   6   1.0000      -8.038484      -218.7383
   7   1.0000      -8.037665      -218.7160
   8   1.0000      -8.037664      -218.7160
   9   1.0000      -8.036110      -218.6737
  10   1.0000      -8.036109      -218.6737
  11   1.0000      -6.205034      -168.8476
  12   1.0000      -4.314153      -117.3941
  13   1.0000      -4.313353      -117.3723
  14   1.0000      -4.304844      -117.1408
  15   1.0000      -1.121904       -30.5286
  16   1.0000      -1.095858       -29.8198
  17   1.0000      -0.686881       -18.6910
  18   1.0000      -0.552649       -15.0384
  19   1.0000      -0.551775       -15.0146
  20   1.0000      -0.503167       -13.6919
  21   1.0000      -0.477592       -12.9959
  22   1.0000      -0.471892       -12.8408
  23   1.0000      -0.468727       -12.7547
  24   0.0000       0.013727         0.3735
  25   0.0000       0.035554         0.9675
  26   0.0000       0.041212         1.1214
  27   0.0000       0.042083         1.1451
  28   0.0000       0.049675         1.3517

MULLIKEN ATOMIC CHARGES AND SPIN POPULATIONS
--------------------------------------------
   0 Si:    1.192307    0.836687
   1 Cl:   -0.496888    0.043467
   2 Cl:   -0.496888    0.043467
   3 H :   -0.198530    0.076379
Sum of atomic charges         :    0.0000000

LOEWDIN ATOMIC CHARGES AND SPIN POPULATIONS
-------------------------------------------
   0 Si:   -0.923676    0.588731
   1 Cl:    0.692338    0.136989
   2 Cl:    0.692338    0.136989
   3 H :   -0.461000    0.137291

  Mayer bond orders larger than 0.100000
B(  0-Si,  1-Cl) :   0.7466 B(  0-Si,  2-Cl) :   0.7466 B(  0-Si,  3-H ) :   0.9449

MP2 TOTAL ENERGY:    -1209.170954714 Eh
FINAL SINGLE POINT ENERGY     -1209.170954714305

DIPOLE MOMENT
-------------
                                X             Y             Z
Electronic contribution:     -1.16342      -1.90177       0.00000
Nuclear contribution   :      1.19375       2.41134       0.00000
                        -----------------------------------------
Total Dipole Moment    :      0.03032       0.50957       0.00000
                        -----------------------------------------
Magnitude (a.u.)       :      0.51047
Magnitude (Debye)      :      1.29752

Rotational constants in cm-1:     0.528209     0.083694     0.073131
Rotational constants in MHz : 15835.315673  2509.086898  2192.419203

                             ****ORCA TERMINATED NORMALLY****
TOTAL RUN TIME: 0 days 0 hours 5 minutes 54 seconds 639 msec
