                         Program Version 5.0.4 -  RELEASE  -
|  1> ! ri-mp2 aug-cc-pvdz aug-cc-pvdz/c tightscf
|  2> %pal nprocs 16 end
|  3> %maxcore 3800
|  4> %base "DZ_Si-Si_88_A"
|  5> %scf
|  6> STABPerform true
|  7> STABRestartUHFifUnstable true
|  8> end
|  9>
| 10> *xyz 0 2
| 11> Si         1.838132   -0.007967   -0.067723
| 12> N         0.218556   -0.671992   -0.002496
| 13> H         2.058216    0.950459    1.036779
| 14> H         2.713064   -1.199018    0.074551
| 15> C        -0.873735    0.155872   -0.015144
| 16> O        -0.728545    1.358303   -0.063168
| 17> H         0.047416   -1.665001   -0.014915
| 18> C        -2.223712   -0.508079    0.045636
| 19> H        -2.333494   -1.232839   -0.762173
| 20> H        -2.997082    0.248894   -0.037255
| 21> H        -2.338810   -1.040197    0.990990
| 22> *
| 23>
| 24> $new_job
| 25> ! ri-mp2 aug-cc-pvtz aug-cc-pvtz/c tightscf
| 26> %pal nprocs 16 end
| 27> %maxcore 3800
| 28> %base "TZ_Si-Si_88_A"
| 29>
| 30> *xyz 0 2
| 31> Si         1.838132   -0.007967   -0.067723
| 32> N         0.218556   -0.671992   -0.002496
| 33> H         2.058216    0.950459    1.036779
| 34> H         2.713064   -1.199018    0.074551
| 35> C        -0.873735    0.155872   -0.015144
| 36> O        -0.728545    1.358303   -0.063168
| 37> H         0.047416   -1.665001   -0.014915
| 38> C        -2.223712   -0.508079    0.045636
| 39> H        -2.333494   -1.232839   -0.762173
| 40> H        -2.997082    0.248894   -0.037255
| 41> H        -2.338810   -1.040197    0.990990
| 42> *
| 43>
| 44> $new_job
| 45> ! ri-mp2 aug-cc-pvqz aug-cc-pvqz/c tightscf
| 46> %pal nprocs 16 end
| 47> %maxcore 3800
| 48> %base "QZ_Si-Si_88_A"
| 49>
| 50> *xyz 0 2
| 51> Si         1.838132   -0.007967   -0.067723
| 52> N         0.218556   -0.671992   -0.002496
| 53> H         2.058216    0.950459    1.036779
| 54> H         2.713064   -1.199018    0.074551
| 55> C        -0.873735    0.155872   -0.015144
| 56> O        -0.728545    1.358303   -0.063168
| 57> H         0.047416   -1.665001   -0.014915
| 58> C        -2.223712   -0.508079    0.045636
| 59> H        -2.333494   -1.232839   -0.762173
| 60> H        -2.997082    0.248894   -0.037255
| 61> H        -2.338810   -1.040197    0.990990
| 62> *
| 63>
| 64>
| 65>
| 66>
| 67>                          ****END OF INPUT****
 Total Charge           Charge          ....    0
 Multiplicity           Mult            ....    2
 Number of Electrons    NEL             ....   47
MP2 TOTAL ENERGY:     -498.241627744 Eh
FINAL SINGLE POINT ENERGY      -498.241627743855
MP2 TOTAL ENERGY:     -498.460893679 Eh
FINAL SINGLE POINT ENERGY      -498.460893679485

CARTESIAN COORDINATES (ANGSTROEM)
---------------------------------
  Si     1.838132   -0.007967   -0.067723
  N      0.218556   -0.671992   -0.002496
  H      2.058216    0.950459    1.036779
  H      2.713064   -1.199018    0.074551
  C     -0.873735    0.155872   -0.015144
  O     -0.728545    1.358303   -0.063168
  H      0.047416   -1.665001   -0.014915
  C     -2.223712   -0.508079    0.045636
  H     -2.333494   -1.232839   -0.762173
  H     -2.997082    0.248894   -0.037255
  H     -2.338810   -1.040197    0.990990

 Multiplicity           Mult            ....    2
 Number of Electrons    NEL             ....   47
 Basis Dimension        Dim             ....  680

ORBITAL ENERGIES
----------------
                 SPIN UP ORBITALS
  NO   OCC          E(Eh)            E(eV)
   0   1.0000     -68.798163     -1872.0932
   1   1.0000     -20.527647      -558.5857
   2   1.0000     -15.576385      -423.8550
   3   1.0000     -11.356855      -309.0357
   4   1.0000     -11.241698      -305.9021
   5   1.0000      -6.145557      -167.2291
   6   1.0000      -4.257463      -115.8515
   7   1.0000      -4.248833      -115.6166
   8   1.0000      -4.248080      -115.5961
   9   1.0000      -1.395988       -37.9868
  10   1.0000      -1.208087       -32.8737
  11   1.0000      -1.011459       -27.5232
  12   1.0000      -0.802006       -21.8237
  13   1.0000      -0.745084       -20.2748
  14   1.0000      -0.682649       -18.5758
  15   1.0000      -0.630394       -17.1539
  16   1.0000      -0.625592       -17.0232
  17   1.0000      -0.581824       -15.8322
  18   1.0000      -0.545734       -14.8502
  19   1.0000      -0.537857       -14.6358
  20   1.0000      -0.490499       -13.3472
  21   1.0000      -0.443466       -12.0673
  22   1.0000      -0.432409       -11.7665
  23   1.0000      -0.327256        -8.9051
  24   0.0000       0.018332         0.4988
  25   0.0000       0.032169         0.8754
  26   0.0000       0.035372         0.9625
  27   0.0000       0.037029         1.0076
  28   0.0000       0.049353         1.3430

                 SPIN DOWN ORBITALS
  NO   OCC          E(Eh)            E(eV)
   0   1.0000     -68.792377     -1871.9357
   1   1.0000     -20.527335      -558.5772
   2   1.0000     -15.574370      -423.8001
   3   1.0000     -11.356854      -309.0357
   4   1.0000     -11.241706      -305.9024
   5   1.0000      -6.136344      -166.9784
   6   1.0000      -4.245060      -115.5140
   7   1.0000      -4.244517      -115.4992
   8   1.0000      -4.235993      -115.2672
   9   1.0000      -1.394941       -37.9583
  10   1.0000      -1.202617       -32.7249
  11   1.0000      -1.010676       -27.5019
  12   1.0000      -0.796689       -21.6790
  13   1.0000      -0.727302       -19.7909
  14   1.0000      -0.677619       -18.4389
  15   1.0000      -0.624907       -17.0046
  16   1.0000      -0.614470       -16.7206
  17   1.0000      -0.579951       -15.7813
  18   1.0000      -0.537678       -14.6310
  19   1.0000      -0.531852       -14.4724
  20   1.0000      -0.478324       -13.0159
  21   1.0000      -0.434326       -11.8186
  22   1.0000      -0.422923       -11.5083
  23   0.0000       0.018495         0.5033
  24   0.0000       0.028785         0.7833
  25   0.0000       0.032909         0.8955
  26   0.0000       0.036938         1.0051
  27   0.0000       0.044290         1.2052

MULLIKEN ATOMIC CHARGES AND SPIN POPULATIONS
--------------------------------------------
   0 Si:    0.552084    0.880989
   1 N :   -0.595375    0.006930
   2 H :   -0.193672    0.047134
   3 H :   -0.275924    0.032821
   4 C :    0.846621    0.023558
   5 O :   -0.746032    0.004733
   6 H :    0.299175    0.003585
   7 C :   -0.744959   -0.000979
   8 H :    0.258559    0.001422
   9 H :    0.315426   -0.000344
  10 H :    0.284098    0.000151
Sum of atomic charges         :   -0.0000000

LOEWDIN ATOMIC CHARGES AND SPIN POPULATIONS
-------------------------------------------
   0 Si:    0.936260    0.552310
   1 N :    0.639458    0.131409
   2 H :   -0.323042    0.131187
   3 H :   -0.342757    0.127073
   4 C :   -0.972649    0.031008
   5 O :    0.687234    0.014227
   6 H :   -0.605322    0.009263
   7 C :    0.884744    0.002131
   8 H :   -0.294315    0.000679
   9 H :   -0.318811    0.000214
  10 H :   -0.290800    0.000500

  Mayer bond orders larger than 0.100000
B(  0-Si,  1-N ) :   0.8778 B(  0-Si,  2-H ) :   0.8858 B(  0-Si,  3-H ) :   0.9106
B(  1-N ,  4-C ) :   1.0431 B(  1-N ,  5-O ) :   0.1028 B(  1-N ,  6-H ) :   0.8997
B(  4-C ,  5-O ) :   1.4197 B(  4-C ,  7-C ) :   0.8297 B(  7-C ,  8-H ) :   0.9503
B(  7-C ,  9-H ) :   0.9763 B(  7-C , 10-H ) :   0.9186

MP2 TOTAL ENERGY:     -498.531330362 Eh
FINAL SINGLE POINT ENERGY      -498.531330361921

DIPOLE MOMENT
-------------
                                X             Y             Z
Electronic contribution:      2.67531       2.41672      -1.24368
Nuclear contribution   :     -2.97610      -3.92453       1.29265
                        -----------------------------------------
Total Dipole Moment    :     -0.30079      -1.50781       0.04897
                        -----------------------------------------
Magnitude (a.u.)       :      1.53830
Magnitude (Debye)      :      3.91004

Rotational constants in cm-1:     0.339276     0.081363     0.067107
Rotational constants in MHz : 10171.230421  2439.201818  2011.827573

                             ****ORCA TERMINATED NORMALLY****
TOTAL RUN TIME: 0 days 1 hours 33 minutes 47 seconds 100 msec
