                         Program Version 5.0.4 -  RELEASE  -
|  1> ! ri-mp2 aug-cc-pvdz aug-cc-pvdz/c tightscf
|  2> %pal nprocs 16 end
|  3> %maxcore 3800
|  4> %base "DZ_Si-Si_157_AB"
|  5> %scf
|  6> STABPerform true
|  7> STABRestartUHFifUnstable true
|  8> end
|  9>
| 10> *xyz 0 1
| 11> Si         2.579925   -1.156453    0.154570
| 12> Si         1.648306    0.867407   -0.553496
| 13> H         3.948564   -1.281492   -0.392662
| 14> H         1.752309   -2.276118   -0.341543
| 15> H         2.634567   -1.194101    1.630219
| 16> C        -0.120469    0.963767    0.178428
| 17> H         1.541283    0.918352   -2.026258
| 18> H         2.385686    2.040679   -0.048685
| 19> O        -0.460679    1.595156    1.125090
| 20> O        -1.006971    0.175241   -0.546994
| 21> C        -2.098269   -0.424771    0.065628
| 22> O        -2.070450   -0.797604    1.191010
| 23> C        -3.225186   -0.567960   -0.902627
| 24> H        -2.869272   -1.024136   -1.825309
| 25> H        -3.606234    0.422734   -1.152690
| 26> H        -4.013793   -1.167840   -0.459539
| 27> *
| 28>
| 29> $new_job
| 30> ! ri-mp2 aug-cc-pvtz aug-cc-pvtz/c tightscf
| 31> %pal nprocs 16 end
| 32> %maxcore 3800
| 33> %base "TZ_Si-Si_157_AB"
| 34>
| 35> *xyz 0 1
| 36> Si         2.579925   -1.156453    0.154570
| 37> Si         1.648306    0.867407   -0.553496
| 38> H         3.948564   -1.281492   -0.392662
| 39> H         1.752309   -2.276118   -0.341543
| 40> H         2.634567   -1.194101    1.630219
| 41> C        -0.120469    0.963767    0.178428
| 42> H         1.541283    0.918352   -2.026258
| 43> H         2.385686    2.040679   -0.048685
| 44> O        -0.460679    1.595156    1.125090
| 45> O        -1.006971    0.175241   -0.546994
| 46> C        -2.098269   -0.424771    0.065628
| 47> O        -2.070450   -0.797604    1.191010
| 48> C        -3.225186   -0.567960   -0.902627
| 49> H        -2.869272   -1.024136   -1.825309
| 50> H        -3.606234    0.422734   -1.152690
| 51> H        -4.013793   -1.167840   -0.459539
| 52> *
| 53>
| 54> $new_job
| 55> ! ri-mp2 aug-cc-pvqz aug-cc-pvqz/c tightscf
| 56> %pal nprocs 16 end
| 57> %maxcore 3800
| 58> %base "QZ_Si-Si_157_AB"
| 59>
| 60> *xyz 0 1
| 61> Si         2.579925   -1.156453    0.154570
| 62> Si         1.648306    0.867407   -0.553496
| 63> H         3.948564   -1.281492   -0.392662
| 64> H         1.752309   -2.276118   -0.341543
| 65> H         2.634567   -1.194101    1.630219
| 66> C        -0.120469    0.963767    0.178428
| 67> H         1.541283    0.918352   -2.026258
| 68> H         2.385686    2.040679   -0.048685
| 69> O        -0.460679    1.595156    1.125090
| 70> O        -1.006971    0.175241   -0.546994
| 71> C        -2.098269   -0.424771    0.065628
| 72> O        -2.070450   -0.797604    1.191010
| 73> C        -3.225186   -0.567960   -0.902627
| 74> H        -2.869272   -1.024136   -1.825309
| 75> H        -3.606234    0.422734   -1.152690
| 76> H        -4.013793   -1.167840   -0.459539
| 77> *
| 78>
| 79>
| 80>
| 81>
| 82>                          ****END OF INPUT****
 Total Charge           Charge          ....    0
 Multiplicity           Mult            ....    1
 Number of Electrons    NEL             ....   78
MP2 TOTAL ENERGY:     -921.965258203 Eh
FINAL SINGLE POINT ENERGY      -921.965258202973
MP2 TOTAL ENERGY:     -922.326908957 Eh
FINAL SINGLE POINT ENERGY      -922.326908957487

CARTESIAN COORDINATES (ANGSTROEM)
---------------------------------
  Si     2.579925   -1.156453    0.154570
  Si     1.648306    0.867407   -0.553496
  H      3.948564   -1.281492   -0.392662
  H      1.752309   -2.276118   -0.341543
  H      2.634567   -1.194101    1.630219
  C     -0.120469    0.963767    0.178428
  H      1.541283    0.918352   -2.026258
  H      2.385686    2.040679   -0.048685
  O     -0.460679    1.595156    1.125090
  O     -1.006971    0.175241   -0.546994
  C     -2.098269   -0.424771    0.065628
  O     -2.070450   -0.797604    1.191010
  C     -3.225186   -0.567960   -0.902627
  H     -2.869272   -1.024136   -1.825309
  H     -3.606234    0.422734   -1.152690
  H     -4.013793   -1.167840   -0.459539

 Multiplicity           Mult            ....    1
 Number of Electrons    NEL             ....   78
 Basis Dimension        Dim             .... 1016

ORBITAL ENERGIES
----------------

  NO   OCC          E(Eh)            E(eV)
   0   2.0000     -68.792713     -1871.9449
   1   2.0000     -68.781472     -1871.6390
   2   2.0000     -20.621261      -561.1330
   3   2.0000     -20.570227      -559.7443
   4   2.0000     -20.562207      -559.5261
   5   2.0000     -11.397366      -310.1381
   6   2.0000     -11.381826      -309.7152
   7   2.0000     -11.251385      -306.1657
   8   2.0000      -6.143678      -167.1780
   9   2.0000      -6.132388      -166.8708
  10   2.0000      -4.249869      -115.6448
  11   2.0000      -4.249606      -115.6377
  12   2.0000      -4.249562      -115.6365
  13   2.0000      -4.238615      -115.3386
  14   2.0000      -4.238421      -115.3333
  15   2.0000      -4.238363      -115.3317
  16   2.0000      -1.495642       -40.6985
  17   2.0000      -1.422000       -38.6946
  18   2.0000      -1.373468       -37.3740
  19   2.0000      -1.044247       -28.4154
  20   2.0000      -0.910271       -24.7697
  21   2.0000      -0.789099       -21.4725
  22   2.0000      -0.740544       -20.1512
  23   2.0000      -0.722368       -19.6566
  24   2.0000      -0.703484       -19.1428
  25   2.0000      -0.687778       -18.7154
  26   2.0000      -0.664512       -18.0823
  27   2.0000      -0.612059       -16.6550
  28   2.0000      -0.607868       -16.5409
  29   2.0000      -0.589690       -16.0463
  30   2.0000      -0.561882       -15.2896
  31   2.0000      -0.536007       -14.5855
  32   2.0000      -0.517968       -14.0946
  33   2.0000      -0.499950       -13.6043
  34   2.0000      -0.490664       -13.3516
  35   2.0000      -0.487333       -13.2610
  36   2.0000      -0.476243       -12.9592
  37   2.0000      -0.440165       -11.9775
  38   2.0000      -0.409996       -11.1565
  39   0.0000       0.020068         0.5461
  40   0.0000       0.027103         0.7375
  41   0.0000       0.029752         0.8096
  42   0.0000       0.037446         1.0190
  43   0.0000       0.041808         1.1377

MULLIKEN ATOMIC CHARGES
-----------------------
   0 Si:    0.361460
   1 Si:    0.910912
   2 H :   -0.182702
   3 H :   -0.130496
   4 H :   -0.118558
   5 C :    0.692377
   6 H :   -0.183546
   7 H :   -0.231742
   8 O :   -0.777962
   9 O :   -0.661860
  10 C :    0.872957
  11 O :   -0.708254
  12 C :   -0.760555
  13 H :    0.301257
  14 H :    0.286711
  15 H :    0.330000
Sum of atomic charges:   -0.0000000

LOEWDIN ATOMIC CHARGES
----------------------
   0 Si:    1.055374
   1 Si:    0.683034
   2 H :   -0.317493
   3 H :   -0.308760
   4 H :   -0.307767
   5 C :   -1.153846
   6 H :   -0.276559
   7 H :   -0.277303
   8 O :    0.616910
   9 O :    0.706133
  10 C :   -1.089222
  11 O :    0.715172
  12 C :    0.870752
  13 H :   -0.303429
  14 H :   -0.296257
  15 H :   -0.316739

  Mayer bond orders larger than 0.100000
B(  0-Si,  1-Si) :   0.7611 B(  0-Si,  2-H ) :   0.7563 B(  0-Si,  3-H ) :   0.7620
B(  0-Si,  4-H ) :   0.7692 B(  1-Si,  5-C ) :   0.6943 B(  1-Si,  6-H ) :   0.8095
B(  1-Si,  7-H ) :   0.8530 B(  5-C ,  8-O ) :   1.4606 B(  5-C ,  9-O ) :   0.8833
B(  9-O , 10-C ) :   0.9259 B( 10-C , 11-O ) :   1.4687 B( 10-C , 12-C ) :   0.9436
B( 12-C , 13-H ) :   0.9176 B( 12-C , 14-H ) :   0.9050 B( 12-C , 15-H ) :   0.9423

MP2 TOTAL ENERGY:     -922.446158992 Eh
FINAL SINGLE POINT ENERGY      -922.446158991916

DIPOLE MOMENT
-------------
                                X             Y             Z
Electronic contribution:     -1.19176       3.20562       2.98620
Nuclear contribution   :      1.44315      -3.48676      -4.50968
                        -----------------------------------------
Total Dipole Moment    :      0.25139      -0.28114      -1.52348
                        -----------------------------------------
Magnitude (a.u.)       :      1.56946
Magnitude (Debye)      :      3.98926

Rotational constants in cm-1:     0.075914     0.024787     0.022647
Rotational constants in MHz :  2275.836257   743.092563   678.932499

                             ****ORCA TERMINATED NORMALLY****
TOTAL RUN TIME: 0 days 1 hours 52 minutes 50 seconds 720 msec
