                         Program Version 5.0.4 -  RELEASE  -
|  1> ! ri-mp2 aug-cc-pvdz aug-cc-pvdz/c tightscf
|  2> %pal nprocs 16 end
|  3> %maxcore 3800
|  4> %base "DZ_B-F_3_AB"
|  5> %scf
|  6> STABPerform true
|  7> STABRestartUHFifUnstable true
|  8> end
|  9>
| 10> *xyz 0 1
| 11> F         1.083200   -0.788221   -0.000004
| 12> F         0.194388    1.299581   -0.000000
| 13> O        -1.206128   -0.572683    0.000004
| 14> B         0.016300   -0.015955   -0.000001
| 15> H        -1.930774    0.059004    0.000007
| 16> *
| 17>
| 18> $new_job
| 19> ! ri-mp2 aug-cc-pvtz aug-cc-pvtz/c tightscf
| 20> %pal nprocs 16 end
| 21> %maxcore 3800
| 22> %base "TZ_B-F_3_AB"
| 23>
| 24> *xyz 0 1
| 25> F         1.083200   -0.788221   -0.000004
| 26> F         0.194388    1.299581   -0.000000
| 27> O        -1.206128   -0.572683    0.000004
| 28> B         0.016300   -0.015955   -0.000001
| 29> H        -1.930774    0.059004    0.000007
| 30> *
| 31>
| 32> $new_job
| 33> ! ri-mp2 aug-cc-pvqz aug-cc-pvqz/c tightscf
| 34> %pal nprocs 16 end
| 35> %maxcore 3800
| 36> %base "QZ_B-F_3_AB"
| 37>
| 38> *xyz 0 1
| 39> F         1.083200   -0.788221   -0.000004
| 40> F         0.194388    1.299581   -0.000000
| 41> O        -1.206128   -0.572683    0.000004
| 42> B         0.016300   -0.015955   -0.000001
| 43> H        -1.930774    0.059004    0.000007
| 44> *
| 45>
| 46>
| 47>
| 48>
| 49>                          ****END OF INPUT****
 Total Charge           Charge          ....    0
 Multiplicity           Mult            ....    1
 Number of Electrons    NEL             ....   32
MP2 TOTAL ENERGY:     -299.910689109 Eh
FINAL SINGLE POINT ENERGY      -299.910689108641
MP2 TOTAL ENERGY:     -300.173316208 Eh
FINAL SINGLE POINT ENERGY      -300.173316208248

CARTESIAN COORDINATES (ANGSTROEM)
---------------------------------
  F      1.083200   -0.788221   -0.000004
  F      0.194388    1.299581   -0.000000
  O     -1.206128   -0.572683    0.000004
  B      0.016300   -0.015955   -0.000001
  H     -1.930774    0.059004    0.000007

 Multiplicity           Mult            ....    1
 Number of Electrons    NEL             ....   32
 Basis Dimension        Dim             ....  366

ORBITAL ENERGIES
----------------

  NO   OCC          E(Eh)            E(eV)
   0   2.0000     -26.317451      -716.1342
   1   2.0000     -26.311893      -715.9830
   2   2.0000     -20.602681      -560.6275
   3   2.0000      -7.735106      -210.4829
   4   2.0000      -1.649642       -44.8890
   5   2.0000      -1.617950       -44.0267
   6   2.0000      -1.405630       -38.2491
   7   2.0000      -0.833948       -22.6929
   8   2.0000      -0.796964       -21.6865
   9   2.0000      -0.765339       -20.8259
  10   2.0000      -0.725620       -19.7451
  11   2.0000      -0.687398       -18.7050
  12   2.0000      -0.666444       -18.1349
  13   2.0000      -0.655170       -17.8281
  14   2.0000      -0.599576       -16.3153
  15   2.0000      -0.565097       -15.3771
  16   0.0000       0.022922         0.6237
  17   0.0000       0.041112         1.1187
  18   0.0000       0.041478         1.1287
  19   0.0000       0.044134         1.2010
  20   0.0000       0.073875         2.0102

MULLIKEN ATOMIC CHARGES
-----------------------
   0 F :   -0.705153
   1 F :   -0.710780
   2 O :   -0.859331
   3 B :    1.917769
   4 H :    0.357495
Sum of atomic charges:    0.0000000

LOEWDIN ATOMIC CHARGES
----------------------
   0 F :    0.784621
   1 F :    0.792466
   2 O :    1.275748
   3 B :   -2.042130
   4 H :   -0.810705

  Mayer bond orders larger than 0.100000
B(  0-F ,  3-B ) :   0.4844 B(  1-F ,  3-B ) :   0.4822 B(  2-O ,  3-B ) :   0.6885
B(  2-O ,  4-H ) :   0.9192

MP2 TOTAL ENERGY:     -300.258433643 Eh
FINAL SINGLE POINT ENERGY      -300.258433643478

DIPOLE MOMENT
-------------
                                X             Y             Z
Electronic contribution:      2.20861       0.74826      -0.00001
Nuclear contribution   :     -2.94465      -0.40379       0.00001
                        -----------------------------------------
Total Dipole Moment    :     -0.73604       0.34447       0.00000
                        -----------------------------------------
Magnitude (a.u.)       :      0.81266
Magnitude (Debye)      :      2.06562

Rotational constants in cm-1:     0.344865     0.336175     0.170232
Rotational constants in MHz : 10338.797041 10078.265460  5103.434498

                             ****ORCA TERMINATED NORMALLY****
TOTAL RUN TIME: 0 days 0 hours 4 minutes 17 seconds 554 msec
