                         Program Version 5.0.4 -  RELEASE  -
|  1> ! ri-mp2 aug-cc-pvdz aug-cc-pvdz/c tightscf
|  2> %pal nprocs 16 end
|  3> %maxcore 3800
|  4> %base "DZ_S-Cl_74_AB"
|  5>
|  6> *xyz 0 1
|  7> Cl         2.465205    0.182548   -0.814726
|  8> S         1.444915   -0.220299    0.915817
|  9> C        -0.222107   -0.070229    0.375676
| 10> C        -0.865954    1.159057    0.346801
| 11> C        -0.940151   -1.204682    0.013597
| 12> N        -2.210856   -1.169803   -0.357258
| 13> C        -2.187940    1.200856   -0.045698
| 14> C        -2.813870    0.012070   -0.386423
| 15> H        -0.331137    2.056502    0.626683
| 16> H        -2.730813    2.134750   -0.085431
| 17> H        -0.456467   -2.174462    0.030266
| 18> H        -3.852586    0.010875   -0.697154
| 19> *
| 20>
| 21> $new_job
| 22> ! ri-mp2 aug-cc-pvtz aug-cc-pvtz/c tightscf
| 23> %pal nprocs 16 end
| 24> %maxcore 3800
| 25> %base "TZ_S-Cl_74_AB"
| 26>
| 27> *xyz 0 1
| 28> Cl         2.465205    0.182548   -0.814726
| 29> S         1.444915   -0.220299    0.915817
| 30> C        -0.222107   -0.070229    0.375676
| 31> C        -0.865954    1.159057    0.346801
| 32> C        -0.940151   -1.204682    0.013597
| 33> N        -2.210856   -1.169803   -0.357258
| 34> C        -2.187940    1.200856   -0.045698
| 35> C        -2.813870    0.012070   -0.386423
| 36> H        -0.331137    2.056502    0.626683
| 37> H        -2.730813    2.134750   -0.085431
| 38> H        -0.456467   -2.174462    0.030266
| 39> H        -3.852586    0.010875   -0.697154
| 40> *
| 41>
| 42> $new_job
| 43> ! ri-mp2 aug-cc-pvqz aug-cc-pvqz/c tightscf
| 44> %pal nprocs 16 end
| 45> %maxcore 3800
| 46> %base "QZ_S-Cl_74_AB"
| 47>
| 48> *xyz 0 1
| 49> Cl         2.465205    0.182548   -0.814726
| 50> S         1.444915   -0.220299    0.915817
| 51> C        -0.222107   -0.070229    0.375676
| 52> C        -0.865954    1.159057    0.346801
| 53> C        -0.940151   -1.204682    0.013597
| 54> N        -2.210856   -1.169803   -0.357258
| 55> C        -2.187940    1.200856   -0.045698
| 56> C        -2.813870    0.012070   -0.386423
| 57> H        -0.331137    2.056502    0.626683
| 58> H        -2.730813    2.134750   -0.085431
| 59> H        -0.456467   -2.174462    0.030266
| 60> H        -3.852586    0.010875   -0.697154
| 61> *
| 62>
| 63>
| 64>
| 65>
| 66>                          ****END OF INPUT****
 Total Charge           Charge          ....    0
 Multiplicity           Mult            ....    1
 Number of Electrons    NEL             ....   74
MP2 TOTAL ENERGY:    -1104.286115790 Eh
FINAL SINGLE POINT ENERGY     -1104.286115789899
MP2 TOTAL ENERGY:    -1104.611682759 Eh
FINAL SINGLE POINT ENERGY     -1104.611682759280

CARTESIAN COORDINATES (ANGSTROEM)
---------------------------------
  Cl     2.465205    0.182548   -0.814726
  S      1.444915   -0.220299    0.915817
  C     -0.222107   -0.070229    0.375676
  C     -0.865954    1.159057    0.346801
  C     -0.940151   -1.204682    0.013597
  N     -2.210856   -1.169803   -0.357258
  C     -2.187940    1.200856   -0.045698
  C     -2.813870    0.012070   -0.386423
  H     -0.331137    2.056502    0.626683
  H     -2.730813    2.134750   -0.085431
  H     -0.456467   -2.174462    0.030266
  H     -3.852586    0.010875   -0.697154

 Multiplicity           Mult            ....    1
 Number of Electrons    NEL             ....   74
 Basis Dimension        Dim             ....  832

ORBITAL ENERGIES
----------------

  NO   OCC          E(Eh)            E(eV)
   0   2.0000    -104.850896     -2853.1379
   1   2.0000     -92.016926     -2503.9079
   2   2.0000     -15.578970      -423.9253
   3   2.0000     -11.296478      -307.3928
   4   2.0000     -11.295494      -307.3660
   5   2.0000     -11.282227      -307.0050
   6   2.0000     -11.280000      -306.9444
   7   2.0000     -11.255907      -306.2888
   8   2.0000     -10.575268      -287.7677
   9   2.0000      -9.014747      -245.3037
  10   2.0000      -8.042236      -218.8404
  11   2.0000      -8.040323      -218.7883
  12   2.0000      -8.040136      -218.7832
  13   2.0000      -6.696021      -182.2080
  14   2.0000      -6.694556      -182.1681
  15   2.0000      -6.693402      -182.1367
  16   2.0000      -1.286572       -35.0094
  17   2.0000      -1.156475       -31.4693
  18   2.0000      -1.109158       -30.1817
  19   2.0000      -1.063620       -28.9426
  20   2.0000      -0.940579       -25.5945
  21   2.0000      -0.884609       -24.0714
  22   2.0000      -0.840032       -22.8584
  23   2.0000      -0.734688       -19.9919
  24   2.0000      -0.694117       -18.8879
  25   2.0000      -0.650554       -17.7025
  26   2.0000      -0.603965       -16.4347
  27   2.0000      -0.597855       -16.2685
  28   2.0000      -0.579486       -15.7686
  29   2.0000      -0.546623       -14.8744
  30   2.0000      -0.525500       -14.2996
  31   2.0000      -0.510593       -13.8939
  32   2.0000      -0.455991       -12.4081
  33   2.0000      -0.430985       -11.7277
  34   2.0000      -0.405865       -11.0442
  35   2.0000      -0.371625       -10.1124
  36   2.0000      -0.366244        -9.9660
  37   0.0000       0.021219         0.5774
  38   0.0000       0.030923         0.8415
  39   0.0000       0.034227         0.9314
  40   0.0000       0.039416         1.0726
  41   0.0000       0.043946         1.1958

MULLIKEN ATOMIC CHARGES
-----------------------
   0 Cl:   -0.318434
   1 S :    0.136112
   2 C :   -0.191220
   3 C :   -0.139388
   4 C :   -0.052574
   5 N :   -0.652360
   6 C :   -0.325515
   7 C :   -0.287550
   8 H :    0.431943
   9 H :    0.331277
  10 H :    0.565851
  11 H :    0.501860
Sum of atomic charges:   -0.0000000

LOEWDIN ATOMIC CHARGES
----------------------
   0 Cl:    0.476732
   1 S :    0.456107
   2 C :   -0.703789
   3 C :    0.198098
   4 C :   -0.057002
   5 N :    0.599117
   6 C :    0.335325
   7 C :    0.077068
   8 H :   -0.336178
   9 H :   -0.324171
  10 H :   -0.377529
  11 H :   -0.343778

  Mayer bond orders larger than 0.100000
B(  0-Cl,  1-S ) :   1.0017 B(  0-Cl,  2-C ) :  -0.1007 B(  1-S ,  2-C ) :   0.9335
B(  1-S ,  3-C ) :  -0.1775 B(  1-S ,  4-C ) :  -0.1532 B(  2-C ,  3-C ) :   1.0928
B(  2-C ,  4-C ) :   1.2182 B(  2-C ,  6-C ) :  -0.1190 B(  3-C ,  6-C ) :   1.2427
B(  3-C ,  8-H ) :   0.8354 B(  4-C ,  5-N ) :   1.2713 B(  4-C , 10-H ) :   0.7237
B(  5-N ,  7-C ) :   1.3248 B(  5-N , 10-H ) :  -0.1148 B(  6-C ,  7-C ) :   1.1832
B(  6-C ,  9-H ) :   0.9882 B(  7-C , 11-H ) :   0.8150

MP2 TOTAL ENERGY:    -1104.717768191 Eh
FINAL SINGLE POINT ENERGY     -1104.717768190676

DIPOLE MOMENT
-------------
                                X             Y             Z
Electronic contribution:      9.79244      -0.93818      -0.71323
Nuclear contribution   :    -10.45662       1.68601       0.96363
                        -----------------------------------------
Total Dipole Moment    :     -0.66417       0.74782       0.25040
                        -----------------------------------------
Magnitude (a.u.)       :      1.03105
Magnitude (Debye)      :      2.62072

Rotational constants in cm-1:     0.116770     0.027922     0.026664
Rotational constants in MHz :  3500.670035   837.069714   799.373400

                             ****ORCA TERMINATED NORMALLY****
TOTAL RUN TIME: 0 days 0 hours 16 minutes 42 seconds 285 msec
