                         Program Version 5.0.4 -  RELEASE  -
|  1> ! ri-mp2 aug-cc-pvdz aug-cc-pvdz/c tightscf
|  2> %pal nprocs 16 end
|  3> %maxcore 3800
|  4> %base "DZ_P-N_23_AB"
|  5>
|  6> *xyz 0 1
|  7> P         0.110319    0.683234   -0.713478
|  8> N        -1.380098    0.238096   -0.036487
|  9> N         1.234991   -0.671420   -0.062332
| 10> O        -2.046510   -0.689304   -0.844480
| 11> O        -1.469659   -0.128184    1.295274
| 12> O         2.417890   -0.522107   -0.255943
| 13> O         0.735798   -1.633828    0.495854
| 14> C         0.647936    1.900009    0.524830
| 15> H         1.708538    2.091508    0.370869
| 16> H         0.467040    1.561136    1.541997
| 17> H         0.095850    2.821807    0.346613
| 18> H        -2.949084   -0.351198   -0.905533
| 19> H        -0.949150   -0.951171    1.365333
| 20> *
| 21>
| 22> $new_job
| 23> ! ri-mp2 aug-cc-pvtz aug-cc-pvtz/c tightscf
| 24> %pal nprocs 16 end
| 25> %maxcore 3800
| 26> %base "TZ_P-N_23_AB"
| 27>
| 28> *xyz 0 1
| 29> P         0.110319    0.683234   -0.713478
| 30> N        -1.380098    0.238096   -0.036487
| 31> N         1.234991   -0.671420   -0.062332
| 32> O        -2.046510   -0.689304   -0.844480
| 33> O        -1.469659   -0.128184    1.295274
| 34> O         2.417890   -0.522107   -0.255943
| 35> O         0.735798   -1.633828    0.495854
| 36> C         0.647936    1.900009    0.524830
| 37> H         1.708538    2.091508    0.370869
| 38> H         0.467040    1.561136    1.541997
| 39> H         0.095850    2.821807    0.346613
| 40> H        -2.949084   -0.351198   -0.905533
| 41> H        -0.949150   -0.951171    1.365333
| 42> *
| 43>
| 44> $new_job
| 45> ! ri-mp2 aug-cc-pvqz aug-cc-pvqz/c tightscf
| 46> %pal nprocs 16 end
| 47> %maxcore 3800
| 48> %base "QZ_P-N_23_AB"
| 49>
| 50> *xyz 0 1
| 51> P         0.110319    0.683234   -0.713478
| 52> N        -1.380098    0.238096   -0.036487
| 53> N         1.234991   -0.671420   -0.062332
| 54> O        -2.046510   -0.689304   -0.844480
| 55> O        -1.469659   -0.128184    1.295274
| 56> O         2.417890   -0.522107   -0.255943
| 57> O         0.735798   -1.633828    0.495854
| 58> C         0.647936    1.900009    0.524830
| 59> H         1.708538    2.091508    0.370869
| 60> H         0.467040    1.561136    1.541997
| 61> H         0.095850    2.821807    0.346613
| 62> H        -2.949084   -0.351198   -0.905533
| 63> H        -0.949150   -0.951171    1.365333
| 64> *
| 65>
| 66>
| 67>
| 68>
| 69>                          ****END OF INPUT****
 Total Charge           Charge          ....    0
 Multiplicity           Mult            ....    1
 Number of Electrons    NEL             ....   72
MP2 TOTAL ENERGY:     -791.144540476 Eh
FINAL SINGLE POINT ENERGY      -791.144540475620
MP2 TOTAL ENERGY:     -791.569306013 Eh
FINAL SINGLE POINT ENERGY      -791.569306012872

CARTESIAN COORDINATES (ANGSTROEM)
---------------------------------
  P      0.110319    0.683234   -0.713478
  N     -1.380098    0.238096   -0.036487
  N      1.234991   -0.671420   -0.062332
  O     -2.046510   -0.689304   -0.844480
  O     -1.469659   -0.128184    1.295274
  O      2.417890   -0.522107   -0.255943
  O      0.735798   -1.633828    0.495854
  C      0.647936    1.900009    0.524830
  H      1.708538    2.091508    0.370869
  H      0.467040    1.561136    1.541997
  H      0.095850    2.821807    0.346613
  H     -2.949084   -0.351198   -0.905533
  H     -0.949150   -0.951171    1.365333

 Multiplicity           Mult            ....    1
 Number of Electrons    NEL             ....   72
 Basis Dimension        Dim             ....  874

ORBITAL ENERGIES
----------------

  NO   OCC          E(Eh)            E(eV)
   0   2.0000     -80.037401     -2177.9284
   1   2.0000     -20.628392      -561.3271
   2   2.0000     -20.620317      -561.1074
   3   2.0000     -20.613114      -560.9114
   4   2.0000     -20.608233      -560.7785
   5   2.0000     -15.833729      -430.8577
   6   2.0000     -15.695341      -427.0919
   7   2.0000     -11.259042      -306.3741
   8   2.0000      -7.573893      -206.0961
   9   2.0000      -5.467469      -148.7774
  10   2.0000      -5.466320      -148.7461
  11   2.0000      -5.465364      -148.7201
  12   2.0000      -1.613523       -43.9062
  13   2.0000      -1.503844       -40.9217
  14   2.0000      -1.411879       -38.4192
  15   2.0000      -1.379150       -37.5286
  16   2.0000      -1.106459       -30.1083
  17   2.0000      -1.008837       -27.4518
  18   2.0000      -0.953403       -25.9434
  19   2.0000      -0.833263       -22.6742
  20   2.0000      -0.776189       -21.1212
  21   2.0000      -0.761372       -20.7180
  22   2.0000      -0.734931       -19.9985
  23   2.0000      -0.722487       -19.6599
  24   2.0000      -0.680028       -18.5045
  25   2.0000      -0.657444       -17.8900
  26   2.0000      -0.643346       -17.5063
  27   2.0000      -0.602734       -16.4012
  28   2.0000      -0.594374       -16.1737
  29   2.0000      -0.525156       -14.2902
  30   2.0000      -0.520822       -14.1723
  31   2.0000      -0.509955       -13.8766
  32   2.0000      -0.495687       -13.4883
  33   2.0000      -0.467546       -12.7226
  34   2.0000      -0.428146       -11.6505
  35   2.0000      -0.418751       -11.3948
  36   0.0000       0.020776         0.5653
  37   0.0000       0.029966         0.8154
  38   0.0000       0.038177         1.0388
  39   0.0000       0.043061         1.1717
  40   0.0000       0.052786         1.4364

MULLIKEN ATOMIC CHARGES
-----------------------
   0 P :    1.053463
   1 N :    0.057602
   2 N :    0.712796
   3 O :   -0.626533
   4 O :   -0.630793
   5 O :   -0.595349
   6 O :   -0.628275
   7 C :   -1.095846
   8 H :    0.369132
   9 H :    0.321333
  10 H :    0.342222
  11 H :    0.346260
  12 H :    0.373988
Sum of atomic charges:    0.0000000

LOEWDIN ATOMIC CHARGES
----------------------
   0 P :    0.645413
   1 N :   -0.457206
   2 N :   -0.987224
   3 O :    1.008214
   4 O :    1.031253
   5 O :    0.441109
   6 O :    0.495987
   7 C :    0.759912
   8 H :   -0.371000
   9 H :   -0.360157
  10 H :   -0.355270
  11 H :   -0.832220
  12 H :   -1.018809

  Mayer bond orders larger than 0.100000
B(  0-P ,  1-N ) :   0.8570 B(  0-P ,  2-N ) :   0.5428 B(  0-P ,  7-C ) :   0.9164
B(  1-N ,  3-O ) :   0.6190 B(  1-N ,  4-O ) :   0.6330 B(  2-N ,  5-O ) :   1.3178
B(  2-N ,  6-O ) :   1.2217 B(  3-O , 11-H ) :   0.9318 B(  4-O , 12-H ) :   0.8019
B(  5-O ,  6-O ) :   0.1261 B(  7-C ,  8-H ) :   0.8683 B(  7-C ,  9-H ) :   0.8876
B(  7-C , 10-H ) :   0.8916

MP2 TOTAL ENERGY:     -791.710110411 Eh
FINAL SINGLE POINT ENERGY      -791.710110411113

DIPOLE MOMENT
-------------
                                X             Y             Z
Electronic contribution:      0.82257      -3.02737      -3.39898
Nuclear contribution   :     -1.67868       4.31825       3.29190
                        -----------------------------------------
Total Dipole Moment    :     -0.85611       1.29087      -0.10709
                        -----------------------------------------
Magnitude (a.u.)       :      1.55265
Magnitude (Debye)      :      3.94654

Rotational constants in cm-1:     0.083050     0.049906     0.041527
Rotational constants in MHz :  2489.788900  1496.152277  1244.945224

                             ****ORCA TERMINATED NORMALLY****
TOTAL RUN TIME: 0 days 0 hours 16 minutes 28 seconds 344 msec
