                         Program Version 5.0.4 -  RELEASE  -
|  1> ! ri-mp2 aug-cc-pvdz aug-cc-pvdz/c tightscf
|  2> %pal nprocs 16 end
|  3> %maxcore 3800
|  4> %base "DZ_P-F_22_AB"
|  5>
|  6> *xyz 0 1
|  7> F         3.189905    0.418969    0.008292
|  8> P         1.805407    0.210624   -0.799213
|  9> C         0.788812   -0.158709    0.727287
| 10> N         1.018009   -1.470681    1.288765
| 11> H         1.972315   -1.772731    1.160902
| 12> H         0.788701   -1.515631    2.272729
| 13> C        -0.696334   -0.032784    0.478570
| 14> F        -1.408953   -0.247325    1.581598
| 15> N        -1.101828    1.365678   -0.010981
| 16> O        -1.813181    1.441178   -0.975459
| 17> O        -0.681257    2.268235    0.666690
| 18> N        -1.161375   -1.017811   -0.588960
| 19> O        -2.160714   -1.637533   -0.388960
| 20> O        -0.441253   -1.064371   -1.561040
| 21> H         2.029871   -1.140113   -1.140016
| 22> H         1.032178    0.672896    1.398826
| 23> *
| 24>
| 25> $new_job
| 26> ! ri-mp2 aug-cc-pvtz aug-cc-pvtz/c tightscf
| 27> %pal nprocs 16 end
| 28> %maxcore 3800
| 29> %base "TZ_P-F_22_AB"
| 30>
| 31> *xyz 0 1
| 32> F         3.189905    0.418969    0.008292
| 33> P         1.805407    0.210624   -0.799213
| 34> C         0.788812   -0.158709    0.727287
| 35> N         1.018009   -1.470681    1.288765
| 36> H         1.972315   -1.772731    1.160902
| 37> H         0.788701   -1.515631    2.272729
| 38> C        -0.696334   -0.032784    0.478570
| 39> F        -1.408953   -0.247325    1.581598
| 40> N        -1.101828    1.365678   -0.010981
| 41> O        -1.813181    1.441178   -0.975459
| 42> O        -0.681257    2.268235    0.666690
| 43> N        -1.161375   -1.017811   -0.588960
| 44> O        -2.160714   -1.637533   -0.388960
| 45> O        -0.441253   -1.064371   -1.561040
| 46> H         2.029871   -1.140113   -1.140016
| 47> H         1.032178    0.672896    1.398826
| 48> *
| 49>
| 50> $new_job
| 51> ! ri-mp2 aug-cc-pvqz aug-cc-pvqz/c tightscf
| 52> %pal nprocs 16 end
| 53> %maxcore 3800
| 54> %base "QZ_P-F_22_AB"
| 55>
| 56> *xyz 0 1
| 57> F         3.189905    0.418969    0.008292
| 58> P         1.805407    0.210624   -0.799213
| 59> C         0.788812   -0.158709    0.727287
| 60> N         1.018009   -1.470681    1.288765
| 61> H         1.972315   -1.772731    1.160902
| 62> H         0.788701   -1.515631    2.272729
| 63> C        -0.696334   -0.032784    0.478570
| 64> F        -1.408953   -0.247325    1.581598
| 65> N        -1.101828    1.365678   -0.010981
| 66> O        -1.813181    1.441178   -0.975459
| 67> O        -0.681257    2.268235    0.666690
| 68> N        -1.161375   -1.017811   -0.588960
| 69> O        -2.160714   -1.637533   -0.388960
| 70> O        -0.441253   -1.064371   -1.561040
| 71> H         2.029871   -1.140113   -1.140016
| 72> H         1.032178    0.672896    1.398826
| 73> *
| 74>
| 75>
| 76>
| 77>
| 78>                          ****END OF INPUT****
 Total Charge           Charge          ....    0
 Multiplicity           Mult            ....    1
 Number of Electrons    NEL             ....  102
MP2 TOTAL ENERGY:    -1082.485658205 Eh
FINAL SINGLE POINT ENERGY     -1082.485658205325
MP2 TOTAL ENERGY:    -1083.138593168 Eh
FINAL SINGLE POINT ENERGY     -1083.138593168251

CARTESIAN COORDINATES (ANGSTROEM)
---------------------------------
  F      3.189905    0.418969    0.008292
  P      1.805407    0.210624   -0.799213
  C      0.788812   -0.158709    0.727287
  N      1.018009   -1.470681    1.288765
  H      1.972315   -1.772731    1.160902
  H      0.788701   -1.515631    2.272729
  C     -0.696334   -0.032784    0.478570
  F     -1.408953   -0.247325    1.581598
  N     -1.101828    1.365678   -0.010981
  O     -1.813181    1.441178   -0.975459
  O     -0.681257    2.268235    0.666690
  N     -1.161375   -1.017811   -0.588960
  O     -2.160714   -1.637533   -0.388960
  O     -0.441253   -1.064371   -1.561040
  H      2.029871   -1.140113   -1.140016
  H      1.032178    0.672896    1.398826

 Multiplicity           Mult            ....    1
 Number of Electrons    NEL             ....  102
 Basis Dimension        Dim             .... 1148

ORBITAL ENERGIES
----------------

  NO   OCC          E(Eh)            E(eV)
   0   2.0000     -80.032490     -2177.7948
   1   2.0000     -26.389067      -718.0830
   2   2.0000     -26.313447      -716.0253
   3   2.0000     -20.655523      -562.0653
   4   2.0000     -20.654298      -562.0320
   5   2.0000     -20.649459      -561.9003
   6   2.0000     -20.643475      -561.7375
   7   2.0000     -15.899672      -432.6521
   8   2.0000     -15.895949      -432.5507
   9   2.0000     -15.597111      -424.4190
  10   2.0000     -11.496450      -312.8343
  11   2.0000     -11.331342      -308.3415
  12   2.0000      -7.566939      -205.9069
  13   2.0000      -5.460807      -148.5961
  14   2.0000      -5.459724      -148.5667
  15   2.0000      -5.458574      -148.5354
  16   2.0000      -1.731584       -47.1188
  17   2.0000      -1.669406       -45.4268
  18   2.0000      -1.663413       -45.2638
  19   2.0000      -1.619991       -44.0822
  20   2.0000      -1.467468       -39.9318
  21   2.0000      -1.465065       -39.8664
  22   2.0000      -1.259071       -34.2611
  23   2.0000      -1.172280       -31.8994
  24   2.0000      -1.015793       -27.6411
  25   2.0000      -1.002826       -27.2883
  26   2.0000      -0.902765       -24.5655
  27   2.0000      -0.872075       -23.7304
  28   2.0000      -0.855300       -23.2739
  29   2.0000      -0.841540       -22.8995
  30   2.0000      -0.789801       -21.4916
  31   2.0000      -0.778298       -21.1786
  32   2.0000      -0.776461       -21.1286
  33   2.0000      -0.761723       -20.7275
  34   2.0000      -0.752326       -20.4718
  35   2.0000      -0.735835       -20.0231
  36   2.0000      -0.724525       -19.7153
  37   2.0000      -0.710130       -19.3236
  38   2.0000      -0.693654       -18.8753
  39   2.0000      -0.673107       -18.3162
  40   2.0000      -0.662422       -18.0254
  41   2.0000      -0.650059       -17.6890
  42   2.0000      -0.558355       -15.1936
  43   2.0000      -0.547521       -14.8988
  44   2.0000      -0.544013       -14.8033
  45   2.0000      -0.525796       -14.3076
  46   2.0000      -0.520093       -14.1525
  47   2.0000      -0.507404       -13.8072
  48   2.0000      -0.492699       -13.4070
  49   2.0000      -0.454628       -12.3711
  50   2.0000      -0.412076       -11.2131
  51   0.0000       0.017547         0.4775
  52   0.0000       0.031581         0.8594
  53   0.0000       0.035460         0.9649
  54   0.0000       0.041706         1.1349
  55   0.0000       0.046183         1.2567

MULLIKEN ATOMIC CHARGES
-----------------------
   0 F :   -0.753357
   1 P :    0.995952
   2 C :   -0.047517
   3 N :   -0.819194
   4 H :    0.184308
   5 H :    0.210304
   6 C :    1.205802
   7 F :   -0.722680
   8 N :    0.928603
   9 O :   -0.595954
  10 O :   -0.622589
  11 N :    1.048023
  12 O :   -0.629546
  13 O :   -0.652123
  14 H :   -0.117278
  15 H :    0.387246
Sum of atomic charges:    0.0000000

LOEWDIN ATOMIC CHARGES
----------------------
   0 F :    0.301615
   1 P :    0.684435
   2 C :   -0.334225
   3 N :    1.233611
   4 H :   -0.531057
   5 H :   -0.487897
   6 C :   -1.396055
   7 F :    0.892213
   8 N :   -0.889553
   9 O :    0.573502
  10 O :    0.579793
  11 N :   -0.900371
  12 O :    0.588009
  13 O :    0.556545
  14 H :   -0.461572
  15 H :   -0.408993

  Mayer bond orders larger than 0.100000
B(  0-F ,  1-P ) :   0.4143 B(  0-F ,  2-C ) :  -0.1385 B(  1-P ,  2-C ) :   0.6625
B(  1-P , 14-H ) :   0.9948 B(  2-C ,  3-N ) :   0.6494 B(  2-C ,  6-C ) :   0.9264
B(  2-C ,  7-F ) :   0.1952 B(  2-C , 15-H ) :   0.8196 B(  3-N ,  4-H ) :   0.9793
B(  3-N ,  5-H ) :   0.9661 B(  6-C ,  8-N ) :   0.8537 B(  6-C ,  9-O ) :   0.1302
B(  6-C , 11-N ) :   0.7841 B(  6-C , 12-O ) :   0.1100 B(  8-N ,  9-O ) :   1.2533
B(  8-N , 10-O ) :   1.2108 B(  9-O , 10-O ) :   0.1271 B( 11-N , 12-O ) :   1.1470
B( 11-N , 13-O ) :   1.1162 B( 12-O , 13-O ) :   0.1552

MP2 TOTAL ENERGY:    -1083.357384806 Eh
FINAL SINGLE POINT ENERGY     -1083.357384805682

DIPOLE MOMENT
-------------
                                X             Y             Z
Electronic contribution:     -1.19084       3.32827      -1.65426
Nuclear contribution   :      2.12955      -3.88370       2.69065
                        -----------------------------------------
Total Dipole Moment    :      0.93872      -0.55543       1.03640
                        -----------------------------------------
Magnitude (a.u.)       :      1.50460
Magnitude (Debye)      :      3.82438

Rotational constants in cm-1:     0.038438     0.023364     0.020958
Rotational constants in MHz :  1152.332430   700.444744   628.297506

                             ****ORCA TERMINATED NORMALLY****
TOTAL RUN TIME: 0 days 0 hours 38 minutes 56 seconds 150 msec
