                         Program Version 5.0.4 -  RELEASE  -
|  1> ! ri-mp2 aug-cc-pvdz aug-cc-pvdz/c tightscf
|  2> %pal nprocs 16 end
|  3> %maxcore 3800
|  4> %base "DZ_P-Si_50_AB"
|  5> %scf
|  6> STABPerform true
|  7> STABRestartUHFifUnstable true
|  8> end
|  9>
| 10> *xyz 0 1
| 11> Si         1.095907    0.003792   -0.009827
| 12> P        -1.144976    0.004362   -0.114386
| 13> F         1.690544   -1.040054   -1.019661
| 14> F         1.621334   -0.340790    1.429631
| 15> F         1.614994    1.436014   -0.396539
| 16> O        -1.706250    0.267887   -1.437997
| 17> O        -1.474124   -1.401564    0.540518
| 18> H        -2.314066   -1.787842    0.259310
| 19> O        -1.595475    1.049542    1.003534
| 20> H        -1.989056    1.845874    0.624724
| 21> *
| 22>
| 23> $new_job
| 24> ! ri-mp2 aug-cc-pvtz aug-cc-pvtz/c tightscf
| 25> %pal nprocs 16 end
| 26> %maxcore 3800
| 27> %base "TZ_P-Si_50_AB"
| 28>
| 29> *xyz 0 1
| 30> Si         1.095907    0.003792   -0.009827
| 31> P        -1.144976    0.004362   -0.114386
| 32> F         1.690544   -1.040054   -1.019661
| 33> F         1.621334   -0.340790    1.429631
| 34> F         1.614994    1.436014   -0.396539
| 35> O        -1.706250    0.267887   -1.437997
| 36> O        -1.474124   -1.401564    0.540518
| 37> H        -2.314066   -1.787842    0.259310
| 38> O        -1.595475    1.049542    1.003534
| 39> H        -1.989056    1.845874    0.624724
| 40> *
| 41>
| 42> $new_job
| 43> ! ri-mp2 aug-cc-pvqz aug-cc-pvqz/c tightscf
| 44> %pal nprocs 16 end
| 45> %maxcore 3800
| 46> %base "QZ_P-Si_50_AB"
| 47>
| 48> *xyz 0 1
| 49> Si         1.095907    0.003792   -0.009827
| 50> P        -1.144976    0.004362   -0.114386
| 51> F         1.690544   -1.040054   -1.019661
| 52> F         1.621334   -0.340790    1.429631
| 53> F         1.614994    1.436014   -0.396539
| 54> O        -1.706250    0.267887   -1.437997
| 55> O        -1.474124   -1.401564    0.540518
| 56> H        -2.314066   -1.787842    0.259310
| 57> O        -1.595475    1.049542    1.003534
| 58> H        -1.989056    1.845874    0.624724
| 59> *
| 60>
| 61>
| 62>
| 63>
| 64>                          ****END OF INPUT****
 Total Charge           Charge          ....    0
 Multiplicity           Mult            ....    1
 Number of Electrons    NEL             ....   82
MP2 TOTAL ENERGY:    -1155.493626725 Eh
FINAL SINGLE POINT ENERGY     -1155.493626724627
MP2 TOTAL ENERGY:    -1156.064121484 Eh
FINAL SINGLE POINT ENERGY     -1156.064121484430

CARTESIAN COORDINATES (ANGSTROEM)
---------------------------------
  Si     1.095907    0.003792   -0.009827
  P     -1.144976    0.004362   -0.114386
  F      1.690544   -1.040054   -1.019661
  F      1.621334   -0.340790    1.429631
  F      1.614994    1.436014   -0.396539
  O     -1.706250    0.267887   -1.437997
  O     -1.474124   -1.401564    0.540518
  H     -2.314066   -1.787842    0.259310
  O     -1.595475    1.049542    1.003534
  H     -1.989056    1.845874    0.624724

 Multiplicity           Mult            ....    1
 Number of Electrons    NEL             ....   82
 Basis Dimension        Dim             ....  740

ORBITAL ENERGIES
----------------

  NO   OCC          E(Eh)            E(eV)
   0   2.0000     -80.092836     -2179.4369
   1   2.0000     -68.908875     -1875.1058
   2   2.0000     -26.329107      -716.4514
   3   2.0000     -26.329033      -716.4494
   4   2.0000     -26.328412      -716.4325
   5   2.0000     -20.626028      -561.2628
   6   2.0000     -20.622871      -561.1768
   7   2.0000     -20.532254      -558.7110
   8   2.0000      -7.616083      -207.2442
   9   2.0000      -6.243886      -169.9048
  10   2.0000      -5.514133      -150.0472
  11   2.0000      -5.513528      -150.0307
  12   2.0000      -5.512684      -150.0078
  13   2.0000      -4.352589      -118.4400
  14   2.0000      -4.352551      -118.4389
  15   2.0000      -4.351314      -118.4053
  16   2.0000      -1.654575       -45.0233
  17   2.0000      -1.626578       -44.2614
  18   2.0000      -1.626201       -44.2512
  19   2.0000      -1.461717       -39.7753
  20   2.0000      -1.411036       -38.3962
  21   2.0000      -1.323894       -36.0250
  22   2.0000      -0.898134       -24.4395
  23   2.0000      -0.837266       -22.7832
  24   2.0000      -0.771917       -21.0049
  25   2.0000      -0.764793       -20.8111
  26   2.0000      -0.762707       -20.7543
  27   2.0000      -0.747047       -20.3282
  28   2.0000      -0.713804       -19.4236
  29   2.0000      -0.713568       -19.4172
  30   2.0000      -0.698389       -19.0041
  31   2.0000      -0.687754       -18.7147
  32   2.0000      -0.685866       -18.6634
  33   2.0000      -0.672086       -18.2884
  34   2.0000      -0.670330       -18.2406
  35   2.0000      -0.648797       -17.6547
  36   2.0000      -0.586239       -15.9524
  37   2.0000      -0.576940       -15.6993
  38   2.0000      -0.536280       -14.5929
  39   2.0000      -0.491609       -13.3774
  40   2.0000      -0.465075       -12.6553
  41   0.0000       0.020965         0.5705
  42   0.0000       0.029029         0.7899
  43   0.0000       0.037397         1.0176
  44   0.0000       0.046891         1.2760
  45   0.0000       0.052393         1.4257

MULLIKEN ATOMIC CHARGES
-----------------------
   0 Si:    2.250579
   1 P :    1.930741
   2 F :   -0.689586
   3 F :   -0.685174
   4 F :   -0.694667
   5 O :   -1.148862
   6 O :   -0.862204
   7 H :    0.373143
   8 O :   -0.853090
   9 H :    0.379119
Sum of atomic charges:   -0.0000000

LOEWDIN ATOMIC CHARGES
----------------------
   0 Si:   -1.304338
   1 P :   -0.616199
   2 F :    0.432499
   3 F :    0.431507
   4 F :    0.430358
   5 O :    0.249799
   6 O :    1.046864
   7 H :   -0.849110
   8 O :    1.052948
   9 H :   -0.874327

  Mayer bond orders larger than 0.100000
B(  0-Si,  1-P ) :   0.9626 B(  0-Si,  2-F ) :   0.4558 B(  0-Si,  3-F ) :   0.4828
B(  0-Si,  4-F ) :   0.4409 B(  1-P ,  5-O ) :   1.4344 B(  1-P ,  6-O ) :   0.6611
B(  1-P ,  8-O ) :   0.6911 B(  6-O ,  7-H ) :   0.9099 B(  8-O ,  9-H ) :   0.9042

MP2 TOTAL ENERGY:    -1156.252928844 Eh
FINAL SINGLE POINT ENERGY     -1156.252928844186

DIPOLE MOMENT
-------------
                                X             Y             Z
Electronic contribution:      6.95751      -0.00099      -0.25786
Nuclear contribution   :     -7.62301      -0.00201       0.91063
                        -----------------------------------------
Total Dipole Moment    :     -0.66551      -0.00300       0.65277
                        -----------------------------------------
Magnitude (a.u.)       :      0.93221
Magnitude (Debye)      :      2.36950

Rotational constants in cm-1:     0.071712     0.035467     0.035256
Rotational constants in MHz :  2149.858063  1063.263767  1056.935200

                             ****ORCA TERMINATED NORMALLY****
TOTAL RUN TIME: 0 days 0 hours 41 minutes 13 seconds 994 msec
