                         Program Version 5.0.4 -  RELEASE  -
|  1> ! ri-mp2 aug-cc-pvdz aug-cc-pvdz/c tightscf
|  2> %pal nprocs 16 end
|  3> %maxcore 3800
|  4> %base "DZ_Si-F_2_AB"
|  5> %scf
|  6> STABPerform true
|  7> STABRestartUHFifUnstable true
|  8> end
|  9>
| 10> *xyz 0 1
| 11> Si         0.000000    0.078600    0.354477
| 12> C        -1.542857   -0.789654   -0.193524
| 13> F         0.000000    1.551098   -0.291616
| 14> H        -1.564490   -0.906672   -1.278042
| 15> H        -2.432469   -0.234295    0.105208
| 16> C         1.542857   -0.789654   -0.193524
| 17> H         1.564490   -0.906672   -1.278042
| 18> H         1.602831   -1.783929    0.253611
| 19> H         2.432469   -0.234295    0.105208
| 20> H        -1.602831   -1.783929    0.253611
| 21> H         0.000000    0.265372    1.822605
| 22> *
| 23>
| 24> $new_job
| 25> ! ri-mp2 aug-cc-pvtz aug-cc-pvtz/c tightscf
| 26> %pal nprocs 16 end
| 27> %maxcore 3800
| 28> %base "TZ_Si-F_2_AB"
| 29>
| 30> *xyz 0 1
| 31> Si         0.000000    0.078600    0.354477
| 32> C        -1.542857   -0.789654   -0.193524
| 33> F         0.000000    1.551098   -0.291616
| 34> H        -1.564490   -0.906672   -1.278042
| 35> H        -2.432469   -0.234295    0.105208
| 36> C         1.542857   -0.789654   -0.193524
| 37> H         1.564490   -0.906672   -1.278042
| 38> H         1.602831   -1.783929    0.253611
| 39> H         2.432469   -0.234295    0.105208
| 40> H        -1.602831   -1.783929    0.253611
| 41> H         0.000000    0.265372    1.822605
| 42> *
| 43>
| 44> $new_job
| 45> ! ri-mp2 aug-cc-pvqz aug-cc-pvqz/c tightscf
| 46> %pal nprocs 16 end
| 47> %maxcore 3800
| 48> %base "QZ_Si-F_2_AB"
| 49>
| 50> *xyz 0 1
| 51> Si         0.000000    0.078600    0.354477
| 52> C        -1.542857   -0.789654   -0.193524
| 53> F         0.000000    1.551098   -0.291616
| 54> H        -1.564490   -0.906672   -1.278042
| 55> H        -2.432469   -0.234295    0.105208
| 56> C         1.542857   -0.789654   -0.193524
| 57> H         1.564490   -0.906672   -1.278042
| 58> H         1.602831   -1.783929    0.253611
| 59> H         2.432469   -0.234295    0.105208
| 60> H        -1.602831   -1.783929    0.253611
| 61> H         0.000000    0.265372    1.822605
| 62> *
| 63>
| 64>
| 65>
| 66>
| 67>                          ****END OF INPUT****
 Total Charge           Charge          ....    0
 Multiplicity           Mult            ....    1
 Number of Electrons    NEL             ....   42
MP2 TOTAL ENERGY:     -468.899768215 Eh
FINAL SINGLE POINT ENERGY      -468.899768215308
MP2 TOTAL ENERGY:     -469.110003243 Eh
FINAL SINGLE POINT ENERGY      -469.110003242546

CARTESIAN COORDINATES (ANGSTROEM)
---------------------------------
  Si     0.000000    0.078600    0.354477
  C     -1.542857   -0.789654   -0.193524
  F      0.000000    1.551098   -0.291616
  H     -1.564490   -0.906672   -1.278042
  H     -2.432469   -0.234295    0.105208
  C      1.542857   -0.789654   -0.193524
  H      1.564490   -0.906672   -1.278042
  H      1.602831   -1.783929    0.253611
  H      2.432469   -0.234295    0.105208
  H     -1.602831   -1.783929    0.253611
  H      0.000000    0.265372    1.822605

 Multiplicity           Mult            ....    1
 Number of Electrons    NEL             ....   42
 Basis Dimension        Dim             ....  646

ORBITAL ENERGIES
----------------

  NO   OCC          E(Eh)            E(eV)
   0   2.0000     -68.790942     -1871.8967
   1   2.0000     -26.265349      -714.7165
   2   2.0000     -11.206806      -304.9527
   3   2.0000     -11.206798      -304.9525
   4   2.0000      -6.135679      -166.9603
   5   2.0000      -4.243177      -115.4627
   6   2.0000      -4.242164      -115.4351
   7   2.0000      -4.241848      -115.4266
   8   2.0000      -1.568003       -42.6675
   9   2.0000      -0.968626       -26.3576
  10   2.0000      -0.938988       -25.5512
  11   2.0000      -0.736182       -20.0325
  12   2.0000      -0.654641       -17.8137
  13   2.0000      -0.651048       -17.7159
  14   2.0000      -0.603210       -16.4142
  15   2.0000      -0.573678       -15.6106
  16   2.0000      -0.557339       -15.1660
  17   2.0000      -0.554804       -15.0970
  18   2.0000      -0.550065       -14.9680
  19   2.0000      -0.456361       -12.4182
  20   2.0000      -0.448251       -12.1975
  21   0.0000       0.022846         0.6217
  22   0.0000       0.034867         0.9488
  23   0.0000       0.037124         1.0102
  24   0.0000       0.037482         1.0199
  25   0.0000       0.052168         1.4196

MULLIKEN ATOMIC CHARGES
-----------------------
   0 Si:    1.594929
   1 C :   -1.057613
   2 F :   -0.740508
   3 H :    0.248641
   4 H :    0.280857
   5 C :   -1.057613
   6 H :    0.248641
   7 H :    0.235820
   8 H :    0.280857
   9 H :    0.235820
  10 H :   -0.269832
Sum of atomic charges:   -0.0000000

LOEWDIN ATOMIC CHARGES
----------------------
   0 Si:    0.029369
   1 C :    0.936136
   2 F :    0.442011
   3 H :   -0.352548
   4 H :   -0.357667
   5 C :    0.936136
   6 H :   -0.352548
   7 H :   -0.356342
   8 H :   -0.357667
   9 H :   -0.356342
  10 H :   -0.210538

  Mayer bond orders larger than 0.100000
B(  0-Si,  1-C ) :   0.8551 B(  0-Si,  2-F ) :   0.3663 B(  0-Si,  5-C ) :   0.8551
B(  0-Si, 10-H ) :   0.8635 B(  1-C ,  3-H ) :   0.9585 B(  1-C ,  4-H ) :   0.9429
B(  1-C ,  9-H ) :   0.9551 B(  5-C ,  6-H ) :   0.9585 B(  5-C ,  7-H ) :   0.9551
B(  5-C ,  8-H ) :   0.9429

MP2 TOTAL ENERGY:     -469.176124237 Eh
FINAL SINGLE POINT ENERGY      -469.176124236774

DIPOLE MOMENT
-------------
                                X             Y             Z
Electronic contribution:      0.00000       6.42933      -0.20126
Nuclear contribution   :     -0.00000      -7.18637       0.25294
                        -----------------------------------------
Total Dipole Moment    :      0.00000      -0.75704       0.05168
                        -----------------------------------------
Magnitude (a.u.)       :      0.75881
Magnitude (Debye)      :      1.92873

Rotational constants in cm-1:     0.207324     0.183295     0.114065
Rotational constants in MHz :  6215.414054  5495.050075  3419.594278

                             ****ORCA TERMINATED NORMALLY****
TOTAL RUN TIME: 0 days 0 hours 42 minutes 23 seconds 142 msec
