                         Program Version 5.0.4 -  RELEASE  -
|  1> ! ri-mp2 aug-cc-pvdz aug-cc-pvdz/c tightscf
|  2> %pal nprocs 16 end
|  3> %maxcore 3800
|  4> %base "DZ_S-S_27_AB"
|  5> %scf
|  6> STABPerform true
|  7> STABRestartUHFifUnstable true
|  8> end
|  9>
| 10> *xyz 0 1
| 11> S         0.721143    1.270810    0.664241
| 12> S        -0.721142    1.270809   -0.664241
| 13> S         2.207763   -0.179938   -0.025003
| 14> S        -2.207763   -0.179938    0.025003
| 15> F         1.985324   -1.048473    1.290071
| 16> F         3.284450    0.706231    0.753035
| 17> F         3.353333   -1.164512   -0.446254
| 18> F         2.477263    0.650891   -1.356852
| 19> F         1.162790   -1.083465   -0.800007
| 20> F        -1.162790   -1.083471    0.799999
| 21> F        -2.477256    0.650886    1.356856
| 22> F        -3.353335   -1.164510    0.446255
| 23> F        -3.284450    0.706238   -0.753028
| 24> F        -1.985332   -1.048469   -1.290075
| 25> *
| 26>
| 27> $new_job
| 28> ! ri-mp2 aug-cc-pvtz aug-cc-pvtz/c tightscf
| 29> %pal nprocs 16 end
| 30> %maxcore 3800
| 31> %base "TZ_S-S_27_AB"
| 32>
| 33> *xyz 0 1
| 34> S         0.721143    1.270810    0.664241
| 35> S        -0.721142    1.270809   -0.664241
| 36> S         2.207763   -0.179938   -0.025003
| 37> S        -2.207763   -0.179938    0.025003
| 38> F         1.985324   -1.048473    1.290071
| 39> F         3.284450    0.706231    0.753035
| 40> F         3.353333   -1.164512   -0.446254
| 41> F         2.477263    0.650891   -1.356852
| 42> F         1.162790   -1.083465   -0.800007
| 43> F        -1.162790   -1.083471    0.799999
| 44> F        -2.477256    0.650886    1.356856
| 45> F        -3.353335   -1.164510    0.446255
| 46> F        -3.284450    0.706238   -0.753028
| 47> F        -1.985332   -1.048469   -1.290075
| 48> *
| 49>
| 50> $new_job
| 51> ! ri-mp2 aug-cc-pvqz aug-cc-pvqz/c tightscf
| 52> %pal nprocs 16 end
| 53> %maxcore 3800
| 54> %base "QZ_S-S_27_AB"
| 55>
| 56> *xyz 0 1
| 57> S         0.721143    1.270810    0.664241
| 58> S        -0.721142    1.270809   -0.664241
| 59> S         2.207763   -0.179938   -0.025003
| 60> S        -2.207763   -0.179938    0.025003
| 61> F         1.985324   -1.048473    1.290071
| 62> F         3.284450    0.706231    0.753035
| 63> F         3.353333   -1.164512   -0.446254
| 64> F         2.477263    0.650891   -1.356852
| 65> F         1.162790   -1.083465   -0.800007
| 66> F        -1.162790   -1.083471    0.799999
| 67> F        -2.477256    0.650886    1.356856
| 68> F        -3.353335   -1.164510    0.446255
| 69> F        -3.284450    0.706238   -0.753028
| 70> F        -1.985332   -1.048469   -1.290075
| 71> *
| 72>
| 73>
| 74>
| 75>
| 76>                          ****END OF INPUT****
 Total Charge           Charge          ....    0
 Multiplicity           Mult            ....    1
 Number of Electrons    NEL             ....  154
MP2 TOTAL ENERGY:    -2587.016445997 Eh
FINAL SINGLE POINT ENERGY     -2587.016445997015
MP2 TOTAL ENERGY:    -2588.128577172 Eh
FINAL SINGLE POINT ENERGY     -2588.128577172040

CARTESIAN COORDINATES (ANGSTROEM)
---------------------------------
  S      0.721143    1.270810    0.664241
  S     -0.721142    1.270809   -0.664241
  S      2.207763   -0.179938   -0.025003
  S     -2.207763   -0.179938    0.025003
  F      1.985324   -1.048473    1.290071
  F      3.284450    0.706231    0.753035
  F      3.353333   -1.164512   -0.446254
  F      2.477263    0.650891   -1.356852
  F      1.162790   -1.083465   -0.800007
  F     -1.162790   -1.083471    0.799999
  F     -2.477256    0.650886    1.356856
  F     -3.353335   -1.164510    0.446255
  F     -3.284450    0.706238   -0.753028
  F     -1.985332   -1.048469   -1.290075

 Multiplicity           Mult            ....    1
 Number of Electrons    NEL             ....  154
 Basis Dimension        Dim             .... 1136

ORBITAL ENERGIES
----------------

  NO   OCC          E(Eh)            E(eV)
   0   2.0000     -92.400728     -2514.3516
   1   2.0000     -92.400728     -2514.3516
   2   2.0000     -92.062667     -2505.1525
   3   2.0000     -92.062663     -2505.1524
   4   2.0000     -26.370209      -717.5699
   5   2.0000     -26.370209      -717.5699
   6   2.0000     -26.368015      -717.5102
   7   2.0000     -26.368013      -717.5101
   8   2.0000     -26.364831      -717.4235
   9   2.0000     -26.364831      -717.4235
  10   2.0000     -26.363561      -717.3890
  11   2.0000     -26.363561      -717.3890
  12   2.0000     -26.361946      -717.3450
  13   2.0000     -26.361945      -717.3450
  14   2.0000      -9.338498      -254.1134
  15   2.0000      -9.338498      -254.1134
  16   2.0000      -9.062407      -246.6006
  17   2.0000      -9.062114      -246.5927
  18   2.0000      -7.026609      -191.2037
  19   2.0000      -7.026609      -191.2037
  20   2.0000      -7.026433      -191.1990
  21   2.0000      -7.026433      -191.1990
  22   2.0000      -7.024216      -191.1386
  23   2.0000      -7.024216      -191.1386
  24   2.0000      -6.743138      -183.4901
  25   2.0000      -6.742648      -183.4768
  26   2.0000      -6.741744      -183.4522
  27   2.0000      -6.741529      -183.4463
  28   2.0000      -6.740641      -183.4222
  29   2.0000      -6.740641      -183.4222
  30   2.0000      -1.789157       -48.6854
  31   2.0000      -1.788444       -48.6660
  32   2.0000      -1.686705       -45.8976
  33   2.0000      -1.685222       -45.8572
  34   2.0000      -1.681637       -45.7597
  35   2.0000      -1.681541       -45.7570
  36   2.0000      -1.661306       -45.2064
  37   2.0000      -1.660807       -45.1929
  38   2.0000      -1.636418       -44.5292
  39   2.0000      -1.636253       -44.5247
  40   2.0000      -1.161411       -31.6036
  41   2.0000      -1.100933       -29.9579
  42   2.0000      -1.063221       -28.9317
  43   2.0000      -0.948864       -25.8199
  44   2.0000      -0.892065       -24.2743
  45   2.0000      -0.891534       -24.2599
  46   2.0000      -0.889145       -24.1949
  47   2.0000      -0.888918       -24.1887
  48   2.0000      -0.875129       -23.8135
  49   2.0000      -0.813585       -22.1388
  50   2.0000      -0.808392       -21.9975
  51   2.0000      -0.805370       -21.9152
  52   2.0000      -0.792197       -21.5568
  53   2.0000      -0.786197       -21.3935
  54   2.0000      -0.785960       -21.3870
  55   2.0000      -0.778689       -21.1892
  56   2.0000      -0.720409       -19.6033
  57   2.0000      -0.718023       -19.5384
  58   2.0000      -0.715844       -19.4791
  59   2.0000      -0.713642       -19.4192
  60   2.0000      -0.709786       -19.3143
  61   2.0000      -0.708466       -19.2784
  62   2.0000      -0.706959       -19.2373
  63   2.0000      -0.705364       -19.1939
  64   2.0000      -0.705265       -19.1912
  65   2.0000      -0.702687       -19.1211
  66   2.0000      -0.687536       -18.7088
  67   2.0000      -0.681813       -18.5531
  68   2.0000      -0.680474       -18.5166
  69   2.0000      -0.679095       -18.4791
  70   2.0000      -0.667938       -18.1755
  71   2.0000      -0.666237       -18.1292
  72   2.0000      -0.587410       -15.9842
  73   2.0000      -0.556260       -15.1366
  74   2.0000      -0.536819       -14.6076
  75   2.0000      -0.436988       -11.8911
  76   2.0000      -0.434466       -11.8224
  77   0.0000       0.023908         0.6506
  78   0.0000       0.025804         0.7022
  79   0.0000       0.047920         1.3040
  80   0.0000       0.048362         1.3160
  81   0.0000       0.051328         1.3967

MULLIKEN ATOMIC CHARGES
-----------------------
   0 S :    0.277873
   1 S :    0.277873
   2 S :    2.929737
   3 S :    2.929737
   4 F :   -0.630366
   5 F :   -0.637257
   6 F :   -0.660240
   7 F :   -0.621091
   8 F :   -0.658656
   9 F :   -0.658657
  10 F :   -0.621091
  11 F :   -0.660239
  12 F :   -0.637257
  13 F :   -0.630366
Sum of atomic charges:    0.0000000

LOEWDIN ATOMIC CHARGES
----------------------
   0 S :    0.405706
   1 S :    0.405705
   2 S :   -2.352935
   3 S :   -2.352935
   4 F :    0.381251
   5 F :    0.371917
   6 F :    0.429486
   7 F :    0.378244
   8 F :    0.386332
   9 F :    0.386333
  10 F :    0.378244
  11 F :    0.429486
  12 F :    0.371917
  13 F :    0.381251

  Mayer bond orders larger than 0.100000
B(  0-S ,  1-S ) :   1.2946 B(  0-S ,  2-S ) :   0.6860 B(  1-S ,  3-S ) :   0.6860
B(  2-S ,  4-F ) :   0.4854 B(  2-S ,  5-F ) :   0.5054 B(  2-S ,  6-F ) :   0.4378
B(  2-S ,  7-F ) :   0.4713 B(  2-S ,  8-F ) :   0.4872 B(  3-S ,  9-F ) :   0.4872
B(  3-S , 10-F ) :   0.4713 B(  3-S , 11-F ) :   0.4378 B(  3-S , 12-F ) :   0.5054
B(  3-S , 13-F ) :   0.4854

MP2 TOTAL ENERGY:    -2588.497948903 Eh
FINAL SINGLE POINT ENERGY     -2588.497948902793

DIPOLE MOMENT
-------------
                                X             Y             Z
Electronic contribution:      0.00000      -2.80115       0.00000
Nuclear contribution   :      0.00000       3.42029      -0.00000
                        -----------------------------------------
Total Dipole Moment    :      0.00000       0.61914       0.00000
                        -----------------------------------------
Magnitude (a.u.)       :      0.61914
Magnitude (Debye)      :      1.57373

Rotational constants in cm-1:     0.034161     0.009200     0.008892
Rotational constants in MHz :  1024.117377   275.819124   266.569048

                             ****ORCA TERMINATED NORMALLY****
TOTAL RUN TIME: 0 days 2 hours 4 minutes 35 seconds 965 msec
