                         Program Version 5.0.4 -  RELEASE  -
|  1> ! ri-mp2 aug-cc-pvdz aug-cc-pvdz/c tightscf
|  2> %pal nprocs 16 end
|  3> %maxcore 3800
|  4> %base "DZ_Si-Cl_83_AB"
|  5> %scf
|  6> STABPerform true
|  7> STABRestartUHFifUnstable true
|  8> end
|  9>
| 10> *xyz 0 1
| 11> C        -0.604266    0.000012    0.922221
| 12> O        -1.002935    0.000021    2.056756
| 13> Si         1.257666    0.000003    0.514181
| 14> O        -1.387608    0.000001   -0.152817
| 15> Cl         1.706996    1.670727   -0.561797
| 16> Cl         1.706984   -1.670741   -0.561771
| 17> C        -2.812120    0.000005    0.076996
| 18> C        -3.487220   -0.000012   -1.267449
| 19> H        -3.064448    0.880732    0.667119
| 20> H        -3.064449   -0.880706    0.667142
| 21> H        -3.210348    0.883995   -1.840737
| 22> H        -4.569309   -0.000009   -1.135782
| 23> H        -3.210350   -0.884034   -1.840714
| 24> H         2.019890    0.000010    1.762978
| 25> *
| 26>
| 27> $new_job
| 28> ! ri-mp2 aug-cc-pvtz aug-cc-pvtz/c tightscf
| 29> %pal nprocs 16 end
| 30> %maxcore 3800
| 31> %base "TZ_Si-Cl_83_AB"
| 32>
| 33> *xyz 0 1
| 34> C        -0.604266    0.000012    0.922221
| 35> O        -1.002935    0.000021    2.056756
| 36> Si         1.257666    0.000003    0.514181
| 37> O        -1.387608    0.000001   -0.152817
| 38> Cl         1.706996    1.670727   -0.561797
| 39> Cl         1.706984   -1.670741   -0.561771
| 40> C        -2.812120    0.000005    0.076996
| 41> C        -3.487220   -0.000012   -1.267449
| 42> H        -3.064448    0.880732    0.667119
| 43> H        -3.064449   -0.880706    0.667142
| 44> H        -3.210348    0.883995   -1.840737
| 45> H        -4.569309   -0.000009   -1.135782
| 46> H        -3.210350   -0.884034   -1.840714
| 47> H         2.019890    0.000010    1.762978
| 48> *
| 49>
| 50> $new_job
| 51> ! ri-mp2 aug-cc-pvqz aug-cc-pvqz/c tightscf
| 52> %pal nprocs 16 end
| 53> %maxcore 3800
| 54> %base "QZ_Si-Cl_83_AB"
| 55>
| 56> *xyz 0 1
| 57> C        -0.604266    0.000012    0.922221
| 58> O        -1.002935    0.000021    2.056756
| 59> Si         1.257666    0.000003    0.514181
| 60> O        -1.387608    0.000001   -0.152817
| 61> Cl         1.706996    1.670727   -0.561797
| 62> Cl         1.706984   -1.670741   -0.561771
| 63> C        -2.812120    0.000005    0.076996
| 64> C        -3.487220   -0.000012   -1.267449
| 65> H        -3.064448    0.880732    0.667119
| 66> H        -3.064449   -0.880706    0.667142
| 67> H        -3.210348    0.883995   -1.840737
| 68> H        -4.569309   -0.000009   -1.135782
| 69> H        -3.210350   -0.884034   -1.840714
| 70> H         2.019890    0.000010    1.762978
| 71> *
| 72>
| 73>
| 74>
| 75>
| 76>                          ****END OF INPUT****
 Total Charge           Charge          ....    0
 Multiplicity           Mult            ....    1
 Number of Electrons    NEL             ....   88
MP2 TOTAL ENERGY:    -1476.118215639 Eh
FINAL SINGLE POINT ENERGY     -1476.118215638589
MP2 TOTAL ENERGY:    -1476.513709100 Eh
FINAL SINGLE POINT ENERGY     -1476.513709100149

CARTESIAN COORDINATES (ANGSTROEM)
---------------------------------
  C     -0.604266    0.000012    0.922221
  O     -1.002935    0.000021    2.056756
  Si     1.257666    0.000003    0.514181
  O     -1.387608    0.000001   -0.152817
  Cl     1.706996    1.670727   -0.561797
  Cl     1.706984   -1.670741   -0.561771
  C     -2.812120    0.000005    0.076996
  C     -3.487220   -0.000012   -1.267449
  H     -3.064448    0.880732    0.667119
  H     -3.064449   -0.880706    0.667142
  H     -3.210348    0.883995   -1.840737
  H     -4.569309   -0.000009   -1.135782
  H     -3.210350   -0.884034   -1.840714
  H      2.019890    0.000010    1.762978

 Multiplicity           Mult            ....    1
 Number of Electrons    NEL             ....   88
 Basis Dimension        Dim             ....  928

ORBITAL ENERGIES
----------------

  NO   OCC          E(Eh)            E(eV)
   0   2.0000    -104.848552     -2853.0742
   1   2.0000    -104.848552     -2853.0742
   2   2.0000     -68.873474     -1874.1425
   3   2.0000     -20.613606      -560.9247
   4   2.0000     -20.564909      -559.5996
   5   2.0000     -11.379115      -309.6415
   6   2.0000     -11.297345      -307.4164
   7   2.0000     -11.229888      -305.5808
   8   2.0000     -10.576046      -287.7888
   9   2.0000     -10.576040      -287.7887
  10   2.0000      -8.042824      -218.8564
  11   2.0000      -8.042823      -218.8563
  12   2.0000      -8.041654      -218.8245
  13   2.0000      -8.041654      -218.8245
  14   2.0000      -8.041619      -218.8236
  15   2.0000      -8.041618      -218.8235
  16   2.0000      -6.214327      -169.1004
  17   2.0000      -4.321565      -117.5958
  18   2.0000      -4.320854      -117.5764
  19   2.0000      -4.320029      -117.5540
  20   2.0000      -1.476838       -40.1868
  21   2.0000      -1.378194       -37.5026
  22   2.0000      -1.135048       -30.8862
  23   2.0000      -1.106031       -30.0966
  24   2.0000      -1.055012       -28.7083
  25   2.0000      -0.899773       -24.4841
  26   2.0000      -0.810561       -22.0565
  27   2.0000      -0.758561       -20.6415
  28   2.0000      -0.695256       -18.9189
  29   2.0000      -0.693695       -18.8764
  30   2.0000      -0.659380       -17.9427
  31   2.0000      -0.600670       -16.3451
  32   2.0000      -0.574112       -15.6224
  33   2.0000      -0.568771       -15.4770
  34   2.0000      -0.562499       -15.3064
  35   2.0000      -0.554416       -15.0864
  36   2.0000      -0.522627       -14.2214
  37   2.0000      -0.521638       -14.1945
  38   2.0000      -0.512826       -13.9547
  39   2.0000      -0.489481       -13.3195
  40   2.0000      -0.478873       -13.0308
  41   2.0000      -0.473960       -12.8971
  42   2.0000      -0.470789       -12.8108
  43   2.0000      -0.431435       -11.7399
  44   0.0000       0.024729         0.6729
  45   0.0000       0.034466         0.9379
  46   0.0000       0.034493         0.9386
  47   0.0000       0.035865         0.9759
  48   0.0000       0.045229         1.2307

MULLIKEN ATOMIC CHARGES
-----------------------
   0 C :    0.650635
   1 O :   -0.788363
   2 Si:    1.733459
   3 O :   -0.629778
   4 Cl:   -0.592539
   5 Cl:   -0.592539
   6 C :   -0.088908
   7 C :   -0.831924
   8 H :    0.293380
   9 H :    0.293380
  10 H :    0.252094
  11 H :    0.282521
  12 H :    0.252094
  13 H :   -0.233513
Sum of atomic charges:    0.0000000

LOEWDIN ATOMIC CHARGES
----------------------
   0 C :   -1.213069
   1 O :    0.619251
   2 Si:   -1.208729
   3 O :    0.754484
   4 Cl:    0.901545
   5 Cl:    0.901545
   6 C :    0.141013
   7 C :    0.911351
   8 H :   -0.305444
   9 H :   -0.305445
  10 H :   -0.289432
  11 H :   -0.288320
  12 H :   -0.289433
  13 H :   -0.329316

  Mayer bond orders larger than 0.100000
B(  0-C ,  1-O ) :   1.4302 B(  0-C ,  2-Si) :   0.8770 B(  0-C ,  3-O ) :   0.9881
B(  1-O ,  6-C ) :   0.1427 B(  2-Si,  3-O ) :  -0.1329 B(  2-Si,  4-Cl) :   0.5249
B(  2-Si,  5-Cl) :   0.5249 B(  2-Si, 13-H ) :   0.9594 B(  3-O ,  6-C ) :   0.7497
B(  6-C ,  7-C ) :   0.9605 B(  6-C ,  8-H ) :   0.8551 B(  6-C ,  9-H ) :   0.8551
B(  7-C , 10-H ) :   0.9267 B(  7-C , 11-H ) :   0.9784 B(  7-C , 12-H ) :   0.9267

MP2 TOTAL ENERGY:    -1476.644029578 Eh
FINAL SINGLE POINT ENERGY     -1476.644029578226

DIPOLE MOMENT
-------------
                                X             Y             Z
Electronic contribution:     18.68478      -0.00001      -0.28460
Nuclear contribution   :    -19.19146       0.00001      -0.10863
                        -----------------------------------------
Total Dipole Moment    :     -0.50668      -0.00000      -0.39323
                        -----------------------------------------
Magnitude (a.u.)       :      0.64137
Magnitude (Debye)      :      1.63024

Rotational constants in cm-1:     0.049598     0.022612     0.020870
Rotational constants in MHz :  1486.912960   677.886105   625.652937

                             ****ORCA TERMINATED NORMALLY****
TOTAL RUN TIME: 0 days 1 hours 19 minutes 51 seconds 615 msec
