                         Program Version 5.0.4 -  RELEASE  -
|  1> ! ri-mp2 aug-cc-pvdz aug-cc-pvdz/c tightscf
|  2> %pal nprocs 16 end
|  3> %maxcore 3800
|  4> %base "DZ_Si-Si_104_AB"
|  5>
|  6> *xyz 0 1
|  7> Si        -1.655744   -0.383062   -0.000040
|  8> Si         0.238830    0.988269    0.000071
|  9> N         1.786914   -0.044175    0.000014
| 10> O         1.595894   -1.232883   -0.000076
| 11> H         0.375603    1.839853    1.201942
| 12> H         0.375620    1.840031   -1.201672
| 13> H        -2.860249    0.477175   -0.000012
| 14> H        -1.664881   -1.228904    1.210696
| 15> H        -1.664834   -1.228760   -1.210877
| 16> *
| 17>
| 18> $new_job
| 19> ! ri-mp2 aug-cc-pvtz aug-cc-pvtz/c tightscf
| 20> %pal nprocs 16 end
| 21> %maxcore 3800
| 22> %base "TZ_Si-Si_104_AB"
| 23>
| 24> *xyz 0 1
| 25> Si        -1.655744   -0.383062   -0.000040
| 26> Si         0.238830    0.988269    0.000071
| 27> N         1.786914   -0.044175    0.000014
| 28> O         1.595894   -1.232883   -0.000076
| 29> H         0.375603    1.839853    1.201942
| 30> H         0.375620    1.840031   -1.201672
| 31> H        -2.860249    0.477175   -0.000012
| 32> H        -1.664881   -1.228904    1.210696
| 33> H        -1.664834   -1.228760   -1.210877
| 34> *
| 35>
| 36> $new_job
| 37> ! ri-mp2 aug-cc-pvqz aug-cc-pvqz/c tightscf
| 38> %pal nprocs 16 end
| 39> %maxcore 3800
| 40> %base "QZ_Si-Si_104_AB"
| 41>
| 42> *xyz 0 1
| 43> Si        -1.655744   -0.383062   -0.000040
| 44> Si         0.238830    0.988269    0.000071
| 45> N         1.786914   -0.044175    0.000014
| 46> O         1.595894   -1.232883   -0.000076
| 47> H         0.375603    1.839853    1.201942
| 48> H         0.375620    1.840031   -1.201672
| 49> H        -2.860249    0.477175   -0.000012
| 50> H        -1.664881   -1.228904    1.210696
| 51> H        -1.664834   -1.228760   -1.210877
| 52> *
| 53>
| 54>
| 55>
| 56>
| 57>                          ****END OF INPUT****
 Total Charge           Charge          ....    0
 Multiplicity           Mult            ....    1
 Number of Electrons    NEL             ....   48
MP2 TOTAL ENERGY:     -710.572295340 Eh
FINAL SINGLE POINT ENERGY      -710.572295339908
MP2 TOTAL ENERGY:     -710.750446319 Eh
FINAL SINGLE POINT ENERGY      -710.750446319076

CARTESIAN COORDINATES (ANGSTROEM)
---------------------------------
  Si    -1.655744   -0.383062   -0.000040
  Si     0.238830    0.988269    0.000071
  N      1.786914   -0.044175    0.000014
  O      1.595894   -1.232883   -0.000076
  H      0.375603    1.839853    1.201942
  H      0.375620    1.840031   -1.201672
  H     -2.860249    0.477175   -0.000012
  H     -1.664881   -1.228904    1.210696
  H     -1.664834   -1.228760   -1.210877

 Multiplicity           Mult            ....    1
 Number of Electrons    NEL             ....   48
 Basis Dimension        Dim             ....  558

ORBITAL ENERGIES
----------------

  NO   OCC          E(Eh)            E(eV)
   0   2.0000     -68.802601     -1872.2139
   1   2.0000     -68.782479     -1871.6664
   2   2.0000     -20.636853      -561.5573
   3   2.0000     -15.673880      -426.5079
   4   2.0000      -6.152082      -167.4067
   5   2.0000      -6.133282      -166.8951
   6   2.0000      -4.258042      -115.8672
   7   2.0000      -4.257853      -115.8621
   8   2.0000      -4.257712      -115.8582
   9   2.0000      -4.239542      -115.3638
  10   2.0000      -4.239330      -115.3580
  11   2.0000      -4.239270      -115.3564
  12   2.0000      -1.511335       -41.1255
  13   2.0000      -0.954812       -25.9818
  14   2.0000      -0.775401       -21.0997
  15   2.0000      -0.713079       -19.4039
  16   2.0000      -0.664840       -18.0912
  17   2.0000      -0.622299       -16.9336
  18   2.0000      -0.592627       -16.1262
  19   2.0000      -0.513348       -13.9689
  20   2.0000      -0.498225       -13.5574
  21   2.0000      -0.490804       -13.3554
  22   2.0000      -0.432282       -11.7630
  23   2.0000      -0.368500       -10.0274
  24   0.0000       0.024501         0.6667
  25   0.0000       0.029120         0.7924
  26   0.0000       0.038471         1.0468
  27   0.0000       0.041051         1.1171
  28   0.0000       0.048414         1.3174

MULLIKEN ATOMIC CHARGES
-----------------------
   0 Si:    0.414791
   1 Si:    0.951521
   2 N :   -0.142165
   3 O :   -0.428682
   4 H :   -0.176210
   5 H :   -0.176209
   6 H :   -0.171804
   7 H :   -0.135621
   8 H :   -0.135621
Sum of atomic charges:    0.0000000

LOEWDIN ATOMIC CHARGES
----------------------
   0 Si:    1.016011
   1 Si:    0.490675
   2 N :   -0.213913
   3 O :    0.257504
   4 H :   -0.298817
   5 H :   -0.298816
   6 H :   -0.324747
   7 H :   -0.313949
   8 H :   -0.313949

  Mayer bond orders larger than 0.100000
B(  0-Si,  1-Si) :   0.7690 B(  0-Si,  6-H ) :   0.7924 B(  0-Si,  7-H ) :   0.7843
B(  0-Si,  8-H ) :   0.7843 B(  1-Si,  2-N ) :   0.5217 B(  1-Si,  4-H ) :   0.9007
B(  1-Si,  5-H ) :   0.9007 B(  2-N ,  3-O ) :   1.6942

MP2 TOTAL ENERGY:     -710.810234884 Eh
FINAL SINGLE POINT ENERGY      -710.810234884255

DIPOLE MOMENT
-------------
                                X             Y             Z
Electronic contribution:      4.44520      -1.01019      -0.00004
Nuclear contribution   :     -5.25468       1.62368       0.00007
                        -----------------------------------------
Total Dipole Moment    :     -0.80948       0.61349       0.00003
                        -----------------------------------------
Magnitude (a.u.)       :      1.01569
Magnitude (Debye)      :      2.58167

Rotational constants in cm-1:     0.235118     0.091673     0.069131
Rotational constants in MHz :  7048.669387  2748.298213  2072.482673

                             ****ORCA TERMINATED NORMALLY****
TOTAL RUN TIME: 0 days 0 hours 3 minutes 53 seconds 618 msec
