                         Program Version 5.0.4 -  RELEASE  -
|  1> ! ri-mp2 aug-cc-pvdz aug-cc-pvdz/c tightscf
|  2> %pal nprocs 16 end
|  3> %maxcore 3800
|  4> %base "DZ_S-Cl_78_AB"
|  5>
|  6> *xyz 0 1
|  7> Cl         2.768065   -0.908764   -0.799478
|  8> S         2.070691    0.044977    0.877305
|  9> C         0.468103    0.557443    0.350716
| 10> C        -0.573770   -0.367583    0.314267
| 11> C        -1.839042    0.049950   -0.060399
| 12> C        -2.060506    1.390471   -0.374526
| 13> C         0.254005    1.886190    0.032014
| 14> H         1.076945    2.585358    0.058008
| 15> C        -1.024709    2.295536   -0.323376
| 16> H        -1.208201    3.332356   -0.570843
| 17> H        -3.059717    1.692910   -0.656200
| 18> H        -0.369957   -1.393826    0.576229
| 19> O        -2.916709   -0.762297   -0.139055
| 20> C        -2.745869   -2.132057    0.156554
| 21> H        -2.418584   -2.277675    1.188899
| 22> H        -2.025093   -2.596916   -0.520359
| 23> H        -3.719165   -2.594163    0.019439
| 24> *
| 25>
| 26> $new_job
| 27> ! ri-mp2 aug-cc-pvtz aug-cc-pvtz/c tightscf
| 28> %pal nprocs 16 end
| 29> %maxcore 3800
| 30> %base "TZ_S-Cl_78_AB"
| 31>
| 32> *xyz 0 1
| 33> Cl         2.768065   -0.908764   -0.799478
| 34> S         2.070691    0.044977    0.877305
| 35> C         0.468103    0.557443    0.350716
| 36> C        -0.573770   -0.367583    0.314267
| 37> C        -1.839042    0.049950   -0.060399
| 38> C        -2.060506    1.390471   -0.374526
| 39> C         0.254005    1.886190    0.032014
| 40> H         1.076945    2.585358    0.058008
| 41> C        -1.024709    2.295536   -0.323376
| 42> H        -1.208201    3.332356   -0.570843
| 43> H        -3.059717    1.692910   -0.656200
| 44> H        -0.369957   -1.393826    0.576229
| 45> O        -2.916709   -0.762297   -0.139055
| 46> C        -2.745869   -2.132057    0.156554
| 47> H        -2.418584   -2.277675    1.188899
| 48> H        -2.025093   -2.596916   -0.520359
| 49> H        -3.719165   -2.594163    0.019439
| 50> *
| 51>
| 52> $new_job
| 53> ! ri-mp2 aug-cc-pvqz aug-cc-pvqz/c tightscf
| 54> %pal nprocs 16 end
| 55> %maxcore 3800
| 56> %base "QZ_S-Cl_78_AB"
| 57>
| 58> *xyz 0 1
| 59> Cl         2.768065   -0.908764   -0.799478
| 60> S         2.070691    0.044977    0.877305
| 61> C         0.468103    0.557443    0.350716
| 62> C        -0.573770   -0.367583    0.314267
| 63> C        -1.839042    0.049950   -0.060399
| 64> C        -2.060506    1.390471   -0.374526
| 65> C         0.254005    1.886190    0.032014
| 66> H         1.076945    2.585358    0.058008
| 67> C        -1.024709    2.295536   -0.323376
| 68> H        -1.208201    3.332356   -0.570843
| 69> H        -3.059717    1.692910   -0.656200
| 70> H        -0.369957   -1.393826    0.576229
| 71> O        -2.916709   -0.762297   -0.139055
| 72> C        -2.745869   -2.132057    0.156554
| 73> H        -2.418584   -2.277675    1.188899
| 74> H        -2.025093   -2.596916   -0.520359
| 75> H        -3.719165   -2.594163    0.019439
| 76> *
| 77>
| 78>
| 79>
| 80>
| 81>                          ****END OF INPUT****
 Total Charge           Charge          ....    0
 Multiplicity           Mult            ....    1
 Number of Electrons    NEL             ....   90
MP2 TOTAL ENERGY:    -1202.504705261 Eh
FINAL SINGLE POINT ENERGY     -1202.504705261244
MP2 TOTAL ENERGY:    -1202.922120213 Eh
FINAL SINGLE POINT ENERGY     -1202.922120213138

CARTESIAN COORDINATES (ANGSTROEM)
---------------------------------
  Cl     2.768065   -0.908764   -0.799478
  S      2.070691    0.044977    0.877305
  C      0.468103    0.557443    0.350716
  C     -0.573770   -0.367583    0.314267
  C     -1.839042    0.049950   -0.060399
  C     -2.060506    1.390471   -0.374526
  C      0.254005    1.886190    0.032014
  H      1.076945    2.585358    0.058008
  C     -1.024709    2.295536   -0.323376
  H     -1.208201    3.332356   -0.570843
  H     -3.059717    1.692910   -0.656200
  H     -0.369957   -1.393826    0.576229
  O     -2.916709   -0.762297   -0.139055
  C     -2.745869   -2.132057    0.156554
  H     -2.418584   -2.277675    1.188899
  H     -2.025093   -2.596916   -0.520359
  H     -3.719165   -2.594163    0.019439

 Multiplicity           Mult            ....    1
 Number of Electrons    NEL             ....   90
 Basis Dimension        Dim             .... 1130

ORBITAL ENERGIES
----------------

  NO   OCC          E(Eh)            E(eV)
   0   2.0000    -104.844800     -2852.9720
   1   2.0000     -92.007864     -2503.6613
   2   2.0000     -20.593966      -560.3903
   3   2.0000     -11.312290      -307.8231
   4   2.0000     -11.291111      -307.2468
   5   2.0000     -11.278681      -306.9085
   6   2.0000     -11.250278      -306.1356
   7   2.0000     -11.247400      -306.0573
   8   2.0000     -11.246052      -306.0206
   9   2.0000     -11.244771      -305.9858
  10   2.0000     -10.569114      -287.6002
  11   2.0000      -9.005878      -245.0624
  12   2.0000      -8.036086      -218.6730
  13   2.0000      -8.034191      -218.6214
  14   2.0000      -8.034004      -218.6164
  15   2.0000      -6.687158      -181.9668
  16   2.0000      -6.685660      -181.9261
  17   2.0000      -6.684514      -181.8949
  18   2.0000      -1.427667       -38.8488
  19   2.0000      -1.182064       -32.1656
  20   2.0000      -1.131896       -30.8005
  21   2.0000      -1.052010       -28.6266
  22   2.0000      -1.036324       -28.1998
  23   2.0000      -0.962561       -26.1926
  24   2.0000      -0.920591       -25.0506
  25   2.0000      -0.835870       -22.7452
  26   2.0000      -0.811365       -22.0784
  27   2.0000      -0.724474       -19.7139
  28   2.0000      -0.686698       -18.6860
  29   2.0000      -0.681552       -18.5460
  30   2.0000      -0.669321       -18.2132
  31   2.0000      -0.630256       -17.1501
  32   2.0000      -0.596759       -16.2386
  33   2.0000      -0.590842       -16.0776
  34   2.0000      -0.557648       -15.1744
  35   2.0000      -0.541920       -14.7464
  36   2.0000      -0.534659       -14.5488
  37   2.0000      -0.524478       -14.2718
  38   2.0000      -0.504481       -13.7276
  39   2.0000      -0.500548       -13.6206
  40   2.0000      -0.477273       -12.9873
  41   2.0000      -0.438779       -11.9398
  42   2.0000      -0.371180       -10.1003
  43   2.0000      -0.350744        -9.5442
  44   2.0000      -0.330222        -8.9858
  45   0.0000       0.023006         0.6260
  46   0.0000       0.026363         0.7174
  47   0.0000       0.033243         0.9046
  48   0.0000       0.038721         1.0537
  49   0.0000       0.041662         1.1337

MULLIKEN ATOMIC CHARGES
-----------------------
   0 Cl:   -0.334723
   1 S :    0.084804
   2 C :   -0.358092
   3 C :   -0.440671
   4 C :    1.190635
   5 C :   -0.483651
   6 C :   -0.195023
   7 H :    0.414529
   8 C :   -0.303217
   9 H :    0.212078
  10 H :    0.327494
  11 H :    0.328733
  12 O :   -0.805579
  13 C :   -0.644063
  14 H :    0.241902
  15 H :    0.248401
  16 H :    0.516443
Sum of atomic charges:   -0.0000000

LOEWDIN ATOMIC CHARGES
----------------------
   0 Cl:    0.476150
   1 S :    0.468859
   2 C :   -0.682261
   3 C :    0.183465
   4 C :   -0.465874
   5 C :    0.326502
   6 C :    0.206891
   7 H :   -0.357377
   8 C :    0.336017
   9 H :   -0.317692
  10 H :   -0.320407
  11 H :   -0.393628
  12 O :    0.883745
  13 C :    0.579399
  14 H :   -0.304392
  15 H :   -0.304356
  16 H :   -0.315041

  Mayer bond orders larger than 0.100000
B(  0-Cl,  1-S ) :   0.9885 B(  0-Cl,  2-C ) :  -0.1440 B(  1-S ,  2-C ) :   1.3199
B(  1-S ,  3-C ) :  -0.3941 B(  1-S ,  6-C ) :  -0.3118 B(  2-C ,  3-C ) :   1.0209
B(  2-C ,  4-C ) :  -0.3196 B(  2-C ,  6-C ) :   1.1783 B(  2-C ,  8-C ) :  -0.1861
B(  3-C ,  4-C ) :   1.4631 B(  3-C ,  8-C ) :   0.1270 B(  3-C , 11-H ) :   0.9230
B(  3-C , 12-O ) :   0.2227 B(  3-C , 13-C ) :   0.1129 B(  4-C ,  5-C ) :   1.0007
B(  4-C ,  8-C ) :  -0.4191 B(  4-C , 12-O ) :   0.1183 B(  4-C , 13-C ) :  -0.1169
B(  5-C ,  8-C ) :   1.2687 B(  5-C ,  9-H ) :  -0.1960 B(  5-C , 10-H ) :   0.9089
B(  5-C , 12-O ) :   0.2144 B(  6-C ,  7-H ) :   0.8581 B(  6-C ,  8-C ) :   1.2070
B(  6-C ,  9-H ) :  -0.1274 B(  8-C ,  9-H ) :   1.2123 B( 12-O , 13-C ) :   0.8951
B( 13-C , 14-H ) :   0.9305 B( 13-C , 15-H ) :   0.9193 B( 13-C , 16-H ) :   0.7278

MP2 TOTAL ENERGY:    -1203.056363312 Eh
FINAL SINGLE POINT ENERGY     -1203.056363312049

DIPOLE MOMENT
-------------
                                X             Y             Z
Electronic contribution:     14.40369      -0.04570      -1.02059
Nuclear contribution   :    -15.28570       0.03365       1.17077
                        -----------------------------------------
Total Dipole Moment    :     -0.88201      -0.01205       0.15019
                        -----------------------------------------
Magnitude (a.u.)       :      0.89478
Magnitude (Debye)      :      2.27435

Rotational constants in cm-1:     0.051838     0.020092     0.016028
Rotational constants in MHz :  1554.078578   602.355862   480.493530

                             ****ORCA TERMINATED NORMALLY****
TOTAL RUN TIME: 0 days 0 hours 37 minutes 49 seconds 475 msec
