                         Program Version 5.0.4 -  RELEASE  -
|  1> ! ri-mp2 aug-cc-pvdz aug-cc-pvdz/c tightscf
|  2> %pal nprocs 16 end
|  3> %maxcore 3800
|  4> %base "DZ_Si-Cl_86_AB"
|  5> %scf
|  6> STABPerform true
|  7> STABRestartUHFifUnstable true
|  8> end
|  9>
| 10> *xyz 0 1
| 11> C        -1.044486    0.000007    0.000013
| 12> Si         0.863201    0.000000    0.000010
| 13> Cl        -1.625450   -0.422989   -1.620264
| 14> Cl        -1.625512    1.614681    0.443804
| 15> Cl        -1.625509   -1.191698    1.176445
| 16> Cl         1.511403   -1.844285   -0.506926
| 17> Cl         1.511437    0.483136    1.850663
| 18> Cl         1.511402    1.361153   -1.343734
| 19> *
| 20>
| 21> $new_job
| 22> ! ri-mp2 aug-cc-pvtz aug-cc-pvtz/c tightscf
| 23> %pal nprocs 16 end
| 24> %maxcore 3800
| 25> %base "TZ_Si-Cl_86_AB"
| 26>
| 27> *xyz 0 1
| 28> C        -1.044486    0.000007    0.000013
| 29> Si         0.863201    0.000000    0.000010
| 30> Cl        -1.625450   -0.422989   -1.620264
| 31> Cl        -1.625512    1.614681    0.443804
| 32> Cl        -1.625509   -1.191698    1.176445
| 33> Cl         1.511403   -1.844285   -0.506926
| 34> Cl         1.511437    0.483136    1.850663
| 35> Cl         1.511402    1.361153   -1.343734
| 36> *
| 37>
| 38> $new_job
| 39> ! ri-mp2 aug-cc-pvqz aug-cc-pvqz/c tightscf
| 40> %pal nprocs 16 end
| 41> %maxcore 3800
| 42> %base "QZ_Si-Cl_86_AB"
| 43>
| 44> *xyz 0 1
| 45> C        -1.044486    0.000007    0.000013
| 46> Si         0.863201    0.000000    0.000010
| 47> Cl        -1.625450   -0.422989   -1.620264
| 48> Cl        -1.625512    1.614681    0.443804
| 49> Cl        -1.625509   -1.191698    1.176445
| 50> Cl         1.511403   -1.844285   -0.506926
| 51> Cl         1.511437    0.483136    1.850663
| 52> Cl         1.511402    1.361153   -1.343734
| 53> *
| 54>
| 55>
| 56>
| 57>
| 58>                          ****END OF INPUT****
 Total Charge           Charge          ....    0
 Multiplicity           Mult            ....    1
 Number of Electrons    NEL             ....  122
MP2 TOTAL ENERGY:    -3085.098402348 Eh
FINAL SINGLE POINT ENERGY     -3085.098402348481
MP2 TOTAL ENERGY:    -3085.534777229 Eh
FINAL SINGLE POINT ENERGY     -3085.534777229254

CARTESIAN COORDINATES (ANGSTROEM)
---------------------------------
  C     -1.044486    0.000007    0.000013
  Si     0.863201    0.000000    0.000010
  Cl    -1.625450   -0.422989   -1.620264
  Cl    -1.625512    1.614681    0.443804
  Cl    -1.625509   -1.191698    1.176445
  Cl     1.511403   -1.844285   -0.506926
  Cl     1.511437    0.483136    1.850663
  Cl     1.511402    1.361153   -1.343734

 Multiplicity           Mult            ....    1
 Number of Electrons    NEL             ....  122
 Basis Dimension        Dim             ....  668

ORBITAL ENERGIES
----------------

  NO   OCC          E(Eh)            E(eV)
   0   2.0000    -104.873346     -2853.7488
   1   2.0000    -104.873345     -2853.7488
   2   2.0000    -104.873344     -2853.7488
   3   2.0000    -104.861878     -2853.4368
   4   2.0000    -104.861877     -2853.4368
   5   2.0000    -104.861877     -2853.4367
   6   2.0000     -68.923751     -1875.5106
   7   2.0000     -11.434074      -311.1370
   8   2.0000     -10.599043      -288.4146
   9   2.0000     -10.599042      -288.4146
  10   2.0000     -10.599029      -288.4142
  11   2.0000     -10.589522      -288.1555
  12   2.0000     -10.589521      -288.1555
  13   2.0000     -10.589512      -288.1553
  14   2.0000      -8.066011      -219.4873
  15   2.0000      -8.066010      -219.4873
  16   2.0000      -8.066007      -219.4872
  17   2.0000      -8.064018      -219.4331
  18   2.0000      -8.064017      -219.4331
  19   2.0000      -8.064016      -219.4330
  20   2.0000      -8.063996      -219.4325
  21   2.0000      -8.063995      -219.4325
  22   2.0000      -8.063994      -219.4324
  23   2.0000      -8.056307      -219.2233
  24   2.0000      -8.056306      -219.2232
  25   2.0000      -8.056304      -219.2232
  26   2.0000      -8.055045      -219.1889
  27   2.0000      -8.055045      -219.1889
  28   2.0000      -8.055044      -219.1889
  29   2.0000      -8.055025      -219.1884
  30   2.0000      -8.055024      -219.1884
  31   2.0000      -8.055024      -219.1883
  32   2.0000      -6.259074      -170.3181
  33   2.0000      -4.366521      -118.8191
  34   2.0000      -4.366521      -118.8191
  35   2.0000      -4.365428      -118.7893
  36   2.0000      -1.251458       -34.0539
  37   2.0000      -1.163304       -31.6551
  38   2.0000      -1.127259       -30.6743
  39   2.0000      -1.127258       -30.6743
  40   2.0000      -1.118016       -30.4228
  41   2.0000      -1.118015       -30.4227
  42   2.0000      -0.869332       -23.6557
  43   2.0000      -0.725870       -19.7519
  44   2.0000      -0.641583       -17.4584
  45   2.0000      -0.641582       -17.4583
  46   2.0000      -0.639625       -17.4051
  47   2.0000      -0.589286       -16.0353
  48   2.0000      -0.589285       -16.0353
  49   2.0000      -0.523425       -14.2431
  50   2.0000      -0.523425       -14.2431
  51   2.0000      -0.519006       -14.1229
  52   2.0000      -0.510161       -13.8822
  53   2.0000      -0.510161       -13.8822
  54   2.0000      -0.496814       -13.5190
  55   2.0000      -0.496813       -13.5190
  56   2.0000      -0.478337       -13.0162
  57   2.0000      -0.467208       -12.7134
  58   2.0000      -0.467207       -12.7134
  59   2.0000      -0.457755       -12.4562
  60   2.0000      -0.443347       -12.0641
  61   0.0000       0.033893         0.9223
  62   0.0000       0.041116         1.1188
  63   0.0000       0.041116         1.1188
  64   0.0000       0.041848         1.1387
  65   0.0000       0.067818         1.8454

MULLIKEN ATOMIC CHARGES
-----------------------
   0 C :    0.287706
   1 Si:    2.201971
   2 Cl:   -0.221077
   3 Cl:   -0.221074
   4 Cl:   -0.221080
   5 Cl:   -0.608814
   6 Cl:   -0.608819
   7 Cl:   -0.608813
Sum of atomic charges:   -0.0000000

LOEWDIN ATOMIC CHARGES
----------------------
   0 C :   -2.697224
   1 Si:   -2.952625
   2 Cl:    0.966952
   3 Cl:    0.966961
   4 Cl:    0.966953
   5 Cl:    0.916330
   6 Cl:    0.916327
   7 Cl:    0.916326

  Mayer bond orders larger than 0.100000
B(  0-C ,  1-Si) :   0.7135 B(  0-C ,  2-Cl) :   0.7611 B(  0-C ,  3-Cl) :   0.7611
B(  0-C ,  4-Cl) :   0.7611 B(  1-Si,  5-Cl) :   0.5492 B(  1-Si,  6-Cl) :   0.5492
B(  1-Si,  7-Cl) :   0.5492

MP2 TOTAL ENERGY:    -3085.682992777 Eh
FINAL SINGLE POINT ENERGY     -3085.682992777115

DIPOLE MOMENT
-------------
                                X             Y             Z
Electronic contribution:     -0.29640      -0.00000      -0.00000
Nuclear contribution   :      0.39624       0.00000       0.00002
                        -----------------------------------------
Total Dipole Moment    :      0.09984       0.00000       0.00001
                        -----------------------------------------
Magnitude (a.u.)       :      0.09984
Magnitude (Debye)      :      0.25377

Rotational constants in cm-1:     0.024526     0.018696     0.018696
Rotational constants in MHz :   735.259648   560.479559   560.479230

                             ****ORCA TERMINATED NORMALLY****
TOTAL RUN TIME: 0 days 0 hours 44 minutes 28 seconds 773 msec
