                         Program Version 5.0.4 -  RELEASE  -
|  1> ! ri-mp2 aug-cc-pvdz aug-cc-pvdz/c tightscf
|  2> %pal nprocs 16 end
|  3> %maxcore 3800
|  4> %base "DZ_Si-F_7_AB"
|  5> %scf
|  6> STABPerform true
|  7> STABRestartUHFifUnstable true
|  8> end
|  9>
| 10> *xyz 0 1
| 11> Si         1.103587    0.594994    0.000000
| 12> C        -0.713125   -0.030358    0.000000
| 13> F         2.044175   -0.685391    0.000002
| 14> F        -1.560683    1.021452   -0.000002
| 15> F        -1.008631   -0.772797    1.081068
| 16> F        -1.008630   -0.772800   -1.081067
| 17> H         1.316230    1.369024    1.230081
| 18> H         1.316231    1.369021   -1.230084
| 19> *
| 20>
| 21> $new_job
| 22> ! ri-mp2 aug-cc-pvtz aug-cc-pvtz/c tightscf
| 23> %pal nprocs 16 end
| 24> %maxcore 3800
| 25> %base "TZ_Si-F_7_AB"
| 26>
| 27> *xyz 0 1
| 28> Si         1.103587    0.594994    0.000000
| 29> C        -0.713125   -0.030358    0.000000
| 30> F         2.044175   -0.685391    0.000002
| 31> F        -1.560683    1.021452   -0.000002
| 32> F        -1.008631   -0.772797    1.081068
| 33> F        -1.008630   -0.772800   -1.081067
| 34> H         1.316230    1.369024    1.230081
| 35> H         1.316231    1.369021   -1.230084
| 36> *
| 37>
| 38> $new_job
| 39> ! ri-mp2 aug-cc-pvqz aug-cc-pvqz/c tightscf
| 40> %pal nprocs 16 end
| 41> %maxcore 3800
| 42> %base "QZ_Si-F_7_AB"
| 43>
| 44> *xyz 0 1
| 45> Si         1.103587    0.594994    0.000000
| 46> C        -0.713125   -0.030358    0.000000
| 47> F         2.044175   -0.685391    0.000002
| 48> F        -1.560683    1.021452   -0.000002
| 49> F        -1.008631   -0.772797    1.081068
| 50> F        -1.008630   -0.772800   -1.081067
| 51> H         1.316230    1.369024    1.230081
| 52> H         1.316231    1.369021   -1.230084
| 53> *
| 54>
| 55>
| 56>
| 57>
| 58>                          ****END OF INPUT****
 Total Charge           Charge          ....    0
 Multiplicity           Mult            ....    1
 Number of Electrons    NEL             ....   58
MP2 TOTAL ENERGY:     -726.874909377 Eh
FINAL SINGLE POINT ENERGY      -726.874909376852
MP2 TOTAL ENERGY:     -727.282286177 Eh
FINAL SINGLE POINT ENERGY      -727.282286177266

CARTESIAN COORDINATES (ANGSTROEM)
---------------------------------
  Si     1.103587    0.594994    0.000000
  C     -0.713125   -0.030358    0.000000
  F      2.044175   -0.685391    0.000002
  F     -1.560683    1.021452   -0.000002
  F     -1.008631   -0.772797    1.081068
  F     -1.008630   -0.772800   -1.081067
  H      1.316230    1.369024    1.230081
  H      1.316231    1.369021   -1.230084

 Multiplicity           Mult            ....    1
 Number of Electrons    NEL             ....   58
 Basis Dimension        Dim             ....  576

ORBITAL ENERGIES
----------------

  NO   OCC          E(Eh)            E(eV)
   0   2.0000     -68.850328     -1873.5127
   1   2.0000     -26.340707      -716.7671
   2   2.0000     -26.339630      -716.7378
   3   2.0000     -26.339609      -716.7372
   4   2.0000     -26.313137      -716.0169
   5   2.0000     -11.491587      -312.7020
   6   2.0000      -6.194931      -168.5726
   7   2.0000      -4.302155      -117.0676
   8   2.0000      -4.301427      -117.0478
   9   2.0000      -4.301135      -117.0398
  10   2.0000      -1.728791       -47.0428
  11   2.0000      -1.635666       -44.5087
  12   2.0000      -1.635562       -44.5059
  13   2.0000      -1.616907       -43.9983
  14   2.0000      -0.978569       -26.6282
  15   2.0000      -0.850101       -23.1324
  16   2.0000      -0.821537       -22.3552
  17   2.0000      -0.821296       -22.3486
  18   2.0000      -0.773523       -21.0486
  19   2.0000      -0.714376       -19.4392
  20   2.0000      -0.713837       -19.4245
  21   2.0000      -0.697092       -18.9688
  22   2.0000      -0.694895       -18.9091
  23   2.0000      -0.667662       -18.1680
  24   2.0000      -0.667299       -18.1581
  25   2.0000      -0.652736       -17.7619
  26   2.0000      -0.648204       -17.6385
  27   2.0000      -0.524736       -14.2788
  28   2.0000      -0.508062       -13.8251
  29   0.0000       0.025414         0.6915
  30   0.0000       0.036225         0.9857
  31   0.0000       0.039663         1.0793
  32   0.0000       0.040628         1.1055
  33   0.0000       0.061527         1.6742

MULLIKEN ATOMIC CHARGES
-----------------------
   0 Si:    1.363357
   1 C :    1.443603
   2 F :   -0.664283
   3 F :   -0.597568
   4 F :   -0.598880
   5 F :   -0.598880
   6 H :   -0.173675
   7 H :   -0.173675
Sum of atomic charges:    0.0000000

LOEWDIN ATOMIC CHARGES
----------------------
   0 Si:    0.265923
   1 C :   -2.166177
   2 F :    0.410211
   3 F :    0.664839
   4 F :    0.673206
   5 F :    0.673205
   6 H :   -0.260604
   7 H :   -0.260603

  Mayer bond orders larger than 0.100000
B(  0-Si,  1-C ) :   0.7423 B(  0-Si,  2-F ) :   0.4062 B(  0-Si,  6-H ) :   0.8977
B(  0-Si,  7-H ) :   0.8977 B(  1-C ,  3-F ) :   0.5616 B(  1-C ,  4-F ) :   0.5490
B(  1-C ,  5-F ) :   0.5490

MP2 TOTAL ENERGY:     -727.417358634 Eh
FINAL SINGLE POINT ENERGY      -727.417358633989

DIPOLE MOMENT
-------------
                                X             Y             Z
Electronic contribution:     -3.16436      -2.86184       0.00000
Nuclear contribution   :      3.76317       3.59369      -0.00000
                        -----------------------------------------
Total Dipole Moment    :      0.59881       0.73185       0.00000
                        -----------------------------------------
Magnitude (a.u.)       :      0.94561
Magnitude (Debye)      :      2.40355

Rotational constants in cm-1:     0.150086     0.065948     0.061744
Rotational constants in MHz :  4499.474823  1977.076269  1851.030135

                             ****ORCA TERMINATED NORMALLY****
TOTAL RUN TIME: 0 days 0 hours 22 minutes 22 seconds 290 msec
