                         Program Version 5.0.4 -  RELEASE  -
|  1> ! ri-mp2 aug-cc-pvdz aug-cc-pvdz/c tightscf
|  2> %pal nprocs 16 end
|  3> %maxcore 3800
|  4> %base "DZ_B-Cl_55_AB"
|  5>
|  6> *xyz 0 1
|  7> Cl         1.356058    1.527303    0.009701
|  8> B         0.504312   -0.000002    0.012176
|  9> Cl         1.356081   -1.527292    0.009701
| 10> N        -0.887867   -0.000009    0.169718
| 11> N        -1.878720   -0.000005   -0.532863
| 12> C        -3.142938   -0.000009    0.190613
| 13> H        -3.702591   -0.878550   -0.131843
| 14> H        -3.702594    0.878531   -0.131841
| 15> H        -2.999005   -0.000010    1.271313
| 16> *
| 17>
| 18> $new_job
| 19> ! ri-mp2 aug-cc-pvtz aug-cc-pvtz/c tightscf
| 20> %pal nprocs 16 end
| 21> %maxcore 3800
| 22> %base "TZ_B-Cl_55_AB"
| 23>
| 24> *xyz 0 1
| 25> Cl         1.356058    1.527303    0.009701
| 26> B         0.504312   -0.000002    0.012176
| 27> Cl         1.356081   -1.527292    0.009701
| 28> N        -0.887867   -0.000009    0.169718
| 29> N        -1.878720   -0.000005   -0.532863
| 30> C        -3.142938   -0.000009    0.190613
| 31> H        -3.702591   -0.878550   -0.131843
| 32> H        -3.702594    0.878531   -0.131841
| 33> H        -2.999005   -0.000010    1.271313
| 34> *
| 35>
| 36> $new_job
| 37> ! ri-mp2 aug-cc-pvqz aug-cc-pvqz/c tightscf
| 38> %pal nprocs 16 end
| 39> %maxcore 3800
| 40> %base "QZ_B-Cl_55_AB"
| 41>
| 42> *xyz 0 1
| 43> Cl         1.356058    1.527303    0.009701
| 44> B         0.504312   -0.000002    0.012176
| 45> Cl         1.356081   -1.527292    0.009701
| 46> N        -0.887867   -0.000009    0.169718
| 47> N        -1.878720   -0.000005   -0.532863
| 48> C        -3.142938   -0.000009    0.190613
| 49> H        -3.702591   -0.878550   -0.131843
| 50> H        -3.702594    0.878531   -0.131841
| 51> H        -2.999005   -0.000010    1.271313
| 52> *
| 53>
| 54>
| 55>
| 56>
| 57>                          ****END OF INPUT****
 Total Charge           Charge          ....    0
 Multiplicity           Mult            ....    1
 Number of Electrons    NEL             ....   62
MP2 TOTAL ENERGY:    -1093.133279267 Eh
FINAL SINGLE POINT ENERGY     -1093.133279267314
MP2 TOTAL ENERGY:    -1093.401773149 Eh
FINAL SINGLE POINT ENERGY     -1093.401773149385

CARTESIAN COORDINATES (ANGSTROEM)
---------------------------------
  Cl     1.356058    1.527303    0.009701
  B      0.504312   -0.000002    0.012176
  Cl     1.356081   -1.527292    0.009701
  N     -0.887867   -0.000009    0.169718
  N     -1.878720   -0.000005   -0.532863
  C     -3.142938   -0.000009    0.190613
  H     -3.702591   -0.878550   -0.131843
  H     -3.702594    0.878531   -0.131841
  H     -2.999005   -0.000010    1.271313

 Multiplicity           Mult            ....    1
 Number of Electrons    NEL             ....   62
 Basis Dimension        Dim             ....  626

ORBITAL ENERGIES
----------------

  NO   OCC          E(Eh)            E(eV)
   0   2.0000    -104.844111     -2852.9533
   1   2.0000    -104.844111     -2852.9533
   2   2.0000     -15.663909      -426.2366
   3   2.0000     -15.626420      -425.2165
   4   2.0000     -11.268601      -306.6342
   5   2.0000     -10.571729      -287.6714
   6   2.0000     -10.571721      -287.6711
   7   2.0000      -8.038617      -218.7419
   8   2.0000      -8.038616      -218.7419
   9   2.0000      -8.037422      -218.7094
  10   2.0000      -8.037420      -218.7093
  11   2.0000      -8.037246      -218.7046
  12   2.0000      -8.037245      -218.7046
  13   2.0000      -7.726426      -210.2467
  14   2.0000      -1.393810       -37.9275
  15   2.0000      -1.149821       -31.2882
  16   2.0000      -1.104542       -30.0561
  17   2.0000      -1.055896       -28.7324
  18   2.0000      -0.895325       -24.3630
  19   2.0000      -0.723541       -19.6885
  20   2.0000      -0.667176       -18.1548
  21   2.0000      -0.641712       -17.4619
  22   2.0000      -0.639570       -17.4036
  23   2.0000      -0.587797       -15.9948
  24   2.0000      -0.559901       -15.2357
  25   2.0000      -0.516033       -14.0420
  26   2.0000      -0.496823       -13.5193
  27   2.0000      -0.489928       -13.3316
  28   2.0000      -0.471785       -12.8379
  29   2.0000      -0.455825       -12.4036
  30   2.0000      -0.380891       -10.3646
  31   0.0000       0.024625         0.6701
  32   0.0000       0.036614         0.9963
  33   0.0000       0.036648         0.9972
  34   0.0000       0.039715         1.0807
  35   0.0000       0.052119         1.4182

MULLIKEN ATOMIC CHARGES
-----------------------
   0 Cl:   -0.208952
   1 B :    0.778951
   2 Cl:   -0.208951
   3 N :   -0.387688
   4 N :   -0.205279
   5 C :   -0.772405
   6 H :    0.343436
   7 H :    0.343437
   8 H :    0.317449
Sum of atomic charges:   -0.0000000

LOEWDIN ATOMIC CHARGES
----------------------
   0 Cl:    1.219125
   1 B :   -2.635199
   2 Cl:    1.219127
   3 N :    0.162470
   4 N :    0.337351
   5 C :    0.685842
   6 H :   -0.325231
   7 H :   -0.325231
   8 H :   -0.338253

  Mayer bond orders larger than 0.100000
B(  0-Cl,  1-B ) :   1.0345 B(  1-B ,  2-Cl) :   1.0345 B(  1-B ,  3-N ) :   0.9964
B(  3-N ,  4-N ) :   1.8171 B(  3-N ,  5-C ) :  -0.1106 B(  4-N ,  5-C ) :   0.9909
B(  5-C ,  6-H ) :   0.8730 B(  5-C ,  7-H ) :   0.8730 B(  5-C ,  8-H ) :   0.9035

MP2 TOTAL ENERGY:    -1093.491342941 Eh
FINAL SINGLE POINT ENERGY     -1093.491342941442

DIPOLE MOMENT
-------------
                                X             Y             Z
Electronic contribution:     12.76939       0.00003      -0.71524
Nuclear contribution   :    -13.72568      -0.00004       0.90335
                        -----------------------------------------
Total Dipole Moment    :     -0.95628      -0.00001       0.18811
                        -----------------------------------------
Magnitude (a.u.)       :      0.97461
Magnitude (Debye)      :      2.47725

Rotational constants in cm-1:     0.097212     0.047655     0.032782
Rotational constants in MHz :  2914.357183  1428.675859   982.774370

                             ****ORCA TERMINATED NORMALLY****
TOTAL RUN TIME: 0 days 0 hours 5 minutes 12 seconds 789 msec
