                         Program Version 5.0.4 -  RELEASE  -
|  1> ! ri-mp2 aug-cc-pvdz aug-cc-pvdz/c tightscf
|  2> %pal nprocs 16 end
|  3> %maxcore 3800
|  4> %base "DZ_P-C_27_AB"
|  5>
|  6> *xyz 0 1
|  7> C        -1.616541   -1.190008    0.003534
|  8> C        -0.231154   -1.197265   -0.019601
|  9> C         0.487262   -0.006954   -0.015465
| 10> C        -2.301816    0.011345    0.014644
| 11> C        -1.597295    1.205020    0.005735
| 12> C        -0.214484    1.195321   -0.006232
| 13> H        -2.159625   -2.125818    0.004184
| 14> H         0.299134   -2.141069   -0.045876
| 15> H         0.326168    2.132841   -0.006743
| 16> H        -3.383656    0.019997    0.025582
| 17> H        -2.128265    2.147892    0.010171
| 18> P         2.317261   -0.108296   -0.039560
| 19> H         2.558817    0.313329    1.290167
| 20> H         2.572683    1.172510   -0.579782
| 21> *
| 22>
| 23> $new_job
| 24> ! ri-mp2 aug-cc-pvtz aug-cc-pvtz/c tightscf
| 25> %pal nprocs 16 end
| 26> %maxcore 3800
| 27> %base "TZ_P-C_27_AB"
| 28>
| 29> *xyz 0 1
| 30> C        -1.616541   -1.190008    0.003534
| 31> C        -0.231154   -1.197265   -0.019601
| 32> C         0.487262   -0.006954   -0.015465
| 33> C        -2.301816    0.011345    0.014644
| 34> C        -1.597295    1.205020    0.005735
| 35> C        -0.214484    1.195321   -0.006232
| 36> H        -2.159625   -2.125818    0.004184
| 37> H         0.299134   -2.141069   -0.045876
| 38> H         0.326168    2.132841   -0.006743
| 39> H        -3.383656    0.019997    0.025582
| 40> H        -2.128265    2.147892    0.010171
| 41> P         2.317261   -0.108296   -0.039560
| 42> H         2.558817    0.313329    1.290167
| 43> H         2.572683    1.172510   -0.579782
| 44> *
| 45>
| 46> $new_job
| 47> ! ri-mp2 aug-cc-pvqz aug-cc-pvqz/c tightscf
| 48> %pal nprocs 16 end
| 49> %maxcore 3800
| 50> %base "QZ_P-C_27_AB"
| 51>
| 52> *xyz 0 1
| 53> C        -1.616541   -1.190008    0.003534
| 54> C        -0.231154   -1.197265   -0.019601
| 55> C         0.487262   -0.006954   -0.015465
| 56> C        -2.301816    0.011345    0.014644
| 57> C        -1.597295    1.205020    0.005735
| 58> C        -0.214484    1.195321   -0.006232
| 59> H        -2.159625   -2.125818    0.004184
| 60> H         0.299134   -2.141069   -0.045876
| 61> H         0.326168    2.132841   -0.006743
| 62> H        -3.383656    0.019997    0.025582
| 63> H        -2.128265    2.147892    0.010171
| 64> P         2.317261   -0.108296   -0.039560
| 65> H         2.558817    0.313329    1.290167
| 66> H         2.572683    1.172510   -0.579782
| 67> *
| 68>
| 69>
| 70>
| 71>
| 72>                          ****END OF INPUT****
 Total Charge           Charge          ....    0
 Multiplicity           Mult            ....    1
 Number of Electrons    NEL             ....   58
MP2 TOTAL ENERGY:     -572.978417371 Eh
FINAL SINGLE POINT ENERGY      -572.978417370889
MP2 TOTAL ENERGY:     -573.226474520 Eh
FINAL SINGLE POINT ENERGY      -573.226474520156

CARTESIAN COORDINATES (ANGSTROEM)
---------------------------------
  C     -1.616541   -1.190008    0.003534
  C     -0.231154   -1.197265   -0.019601
  C      0.487262   -0.006954   -0.015465
  C     -2.301816    0.011345    0.014644
  C     -1.597295    1.205020    0.005735
  C     -0.214484    1.195321   -0.006232
  H     -2.159625   -2.125818    0.004184
  H      0.299134   -2.141069   -0.045876
  H      0.326168    2.132841   -0.006743
  H     -3.383656    0.019997    0.025582
  H     -2.128265    2.147892    0.010171
  P      2.317261   -0.108296   -0.039560
  H      2.558817    0.313329    1.290167
  H      2.572683    1.172510   -0.579782

 Multiplicity           Mult            ....    1
 Number of Electrons    NEL             ....   58
 Basis Dimension        Dim             ....  886

ORBITAL ENERGIES
----------------

  NO   OCC          E(Eh)            E(eV)
   0   2.0000     -79.940259     -2175.2850
   1   2.0000     -11.242761      -305.9311
   2   2.0000     -11.239882      -305.8527
   3   2.0000     -11.239465      -305.8414
   4   2.0000     -11.239142      -305.8326
   5   2.0000     -11.236816      -305.7693
   6   2.0000     -11.236264      -305.7543
   7   2.0000      -7.483025      -203.6235
   8   2.0000      -5.376974      -146.3149
   9   2.0000      -5.376839      -146.3112
  10   2.0000      -5.375928      -146.2864
  11   2.0000      -1.162850       -31.6428
  12   2.0000      -1.031103       -28.0577
  13   2.0000      -1.023801       -27.8590
  14   2.0000      -0.871635       -23.7184
  15   2.0000      -0.833858       -22.6904
  16   2.0000      -0.790969       -21.5234
  17   2.0000      -0.700865       -19.0715
  18   2.0000      -0.636569       -17.3219
  19   2.0000      -0.631722       -17.1900
  20   2.0000      -0.594095       -16.1661
  21   2.0000      -0.562933       -15.3182
  22   2.0000      -0.538767       -14.6606
  23   2.0000      -0.501398       -13.6437
  24   2.0000      -0.497594       -13.5402
  25   2.0000      -0.476335       -12.9617
  26   2.0000      -0.378167       -10.2905
  27   2.0000      -0.344827        -9.3832
  28   2.0000      -0.337047        -9.1715
  29   0.0000       0.023696         0.6448
  30   0.0000       0.029081         0.7913
  31   0.0000       0.031615         0.8603
  32   0.0000       0.042031         1.1437
  33   0.0000       0.044167         1.2018

MULLIKEN ATOMIC CHARGES
-----------------------
   0 C :   -0.295013
   1 C :   -0.279558
   2 C :   -0.190502
   3 C :   -0.320770
   4 C :   -0.314555
   5 C :   -0.337586
   6 H :    0.259491
   7 H :    0.350100
   8 H :    0.354872
   9 H :    0.364814
  10 H :    0.259583
  11 P :    0.295392
  12 H :   -0.066201
  13 H :   -0.080068
Sum of atomic charges:   -0.0000000

LOEWDIN ATOMIC CHARGES
----------------------
   0 C :    0.331770
   1 C :    0.220510
   2 C :   -0.342523
   3 C :    0.332046
   4 C :    0.333491
   5 C :    0.239319
   6 H :   -0.321377
   7 H :   -0.352504
   8 H :   -0.346706
   9 H :   -0.320433
  10 H :   -0.321391
  11 P :    1.498862
  12 H :   -0.468213
  13 H :   -0.482851

  Mayer bond orders larger than 0.100000
B(  0-C ,  1-C ) :   1.3096 B(  0-C ,  2-C ) :  -0.2681 B(  0-C ,  3-C ) :   1.1484
B(  0-C ,  4-C ) :  -0.1221 B(  0-C ,  5-C ) :   0.1252 B(  0-C ,  6-H ) :   1.0978
B(  1-C ,  2-C ) :   0.8776 B(  1-C ,  3-C ) :   0.1013 B(  1-C ,  4-C ) :   0.1210
B(  1-C ,  6-H ) :  -0.1213 B(  1-C ,  7-H ) :   0.9277 B(  1-C , 11-P ) :  -0.3181
B(  2-C ,  4-C ) :  -0.2527 B(  2-C ,  5-C ) :   0.9074 B(  2-C ,  7-H ) :  -0.1225
B(  2-C , 11-P ) :   0.9351 B(  2-C , 13-H ) :  -0.1024 B(  3-C ,  4-C ) :   1.1544
B(  3-C ,  9-H ) :   0.9585 B(  4-C ,  5-C ) :   1.3099 B(  4-C , 10-H ) :   1.0955
B(  5-C ,  8-H ) :   0.9149 B(  5-C , 10-H ) :  -0.1211 B( 11-P , 12-H ) :   0.8911
B( 11-P , 13-H ) :   0.9353

MP2 TOTAL ENERGY:     -573.305365265 Eh
FINAL SINGLE POINT ENERGY      -573.305365264701

DIPOLE MOMENT
-------------
                                X             Y             Z
Electronic contribution:      3.62341      -1.35040      -0.61706
Nuclear contribution   :     -4.07792       1.60561       0.72758
                        -----------------------------------------
Total Dipole Moment    :     -0.45451       0.25521       0.11052
                        -----------------------------------------
Magnitude (a.u.)       :      0.53285
Magnitude (Debye)      :      1.35440

Rotational constants in cm-1:     0.185114     0.050730     0.040210
Rotational constants in MHz :  5549.565603  1520.847417  1205.472283

                             ****ORCA TERMINATED NORMALLY****
TOTAL RUN TIME: 0 days 0 hours 18 minutes 50 seconds 906 msec
