                         Program Version 5.0.4 -  RELEASE  -
|  1> ! ri-mp2 aug-cc-pvdz aug-cc-pvdz/c tightscf
|  2> %pal nprocs 16 end
|  3> %maxcore 3800
|  4> %base "DZ_Si-Si_71_AB"
|  5> %scf
|  6> STABPerform true
|  7> STABRestartUHFifUnstable true
|  8> end
|  9>
| 10> *xyz 0 1
| 11> Si        -1.138879   -1.559482   -0.481749
| 12> Si         0.888855   -1.489319    0.685933
| 13> C         1.811271    0.114993    0.178458
| 14> H         1.765262   -2.656253    0.411459
| 15> H         0.682371   -1.395070    2.147211
| 16> O         1.200832    1.182779    0.179808
| 17> N         3.105720    0.056026   -0.174186
| 18> C        -2.261599   -0.032405   -0.177849
| 19> H        -1.894101   -2.756945   -0.066797
| 20> H        -0.834965   -1.647793   -1.927855
| 21> O        -3.465519   -0.186714   -0.323137
| 22> N        -1.704245    1.141497    0.155494
| 23> C         3.847873    1.239332   -0.562050
| 24> H         3.571939   -0.833281   -0.150596
| 25> H         3.330794    1.760940   -1.365888
| 26> H         4.835651    0.940252   -0.902688
| 27> H         3.948989    1.928371    0.276421
| 28> C        -2.517921    2.324146    0.334198
| 29> H        -0.692828    1.220901    0.214134
| 30> H        -3.032305    2.591477   -0.589915
| 31> H        -1.874645    3.146116    0.638213
| 32> H        -3.276388    2.156919    1.098660
| 33> *
| 34>
| 35> $new_job
| 36> ! ri-mp2 aug-cc-pvtz aug-cc-pvtz/c tightscf
| 37> %pal nprocs 16 end
| 38> %maxcore 3800
| 39> %base "TZ_Si-Si_71_AB"
| 40>
| 41> *xyz 0 1
| 42> Si        -1.138879   -1.559482   -0.481749
| 43> Si         0.888855   -1.489319    0.685933
| 44> C         1.811271    0.114993    0.178458
| 45> H         1.765262   -2.656253    0.411459
| 46> H         0.682371   -1.395070    2.147211
| 47> O         1.200832    1.182779    0.179808
| 48> N         3.105720    0.056026   -0.174186
| 49> C        -2.261599   -0.032405   -0.177849
| 50> H        -1.894101   -2.756945   -0.066797
| 51> H        -0.834965   -1.647793   -1.927855
| 52> O        -3.465519   -0.186714   -0.323137
| 53> N        -1.704245    1.141497    0.155494
| 54> C         3.847873    1.239332   -0.562050
| 55> H         3.571939   -0.833281   -0.150596
| 56> H         3.330794    1.760940   -1.365888
| 57> H         4.835651    0.940252   -0.902688
| 58> H         3.948989    1.928371    0.276421
| 59> C        -2.517921    2.324146    0.334198
| 60> H        -0.692828    1.220901    0.214134
| 61> H        -3.032305    2.591477   -0.589915
| 62> H        -1.874645    3.146116    0.638213
| 63> H        -3.276388    2.156919    1.098660
| 64> *
| 65>
| 66> $new_job
| 67> ! ri-mp2 aug-cc-pvqz aug-cc-pvqz/c tightscf
| 68> %pal nprocs 16 end
| 69> %maxcore 3800
| 70> %base "QZ_Si-Si_71_AB"
| 71>
| 72> *xyz 0 1
| 73> Si        -1.138879   -1.559482   -0.481749
| 74> Si         0.888855   -1.489319    0.685933
| 75> C         1.811271    0.114993    0.178458
| 76> H         1.765262   -2.656253    0.411459
| 77> H         0.682371   -1.395070    2.147211
| 78> O         1.200832    1.182779    0.179808
| 79> N         3.105720    0.056026   -0.174186
| 80> C        -2.261599   -0.032405   -0.177849
| 81> H        -1.894101   -2.756945   -0.066797
| 82> H        -0.834965   -1.647793   -1.927855
| 83> O        -3.465519   -0.186714   -0.323137
| 84> N        -1.704245    1.141497    0.155494
| 85> C         3.847873    1.239332   -0.562050
| 86> H         3.571939   -0.833281   -0.150596
| 87> H         3.330794    1.760940   -1.365888
| 88> H         4.835651    0.940252   -0.902688
| 89> H         3.948989    1.928371    0.276421
| 90> C        -2.517921    2.324146    0.334198
| 91> H        -0.692828    1.220901    0.214134
| 92> H        -3.032305    2.591477   -0.589915
| 93> H        -1.874645    3.146116    0.638213
| 94> H        -3.276388    2.156919    1.098660
| 95> *
| 96>
| 97>
| 98>
| 99>
|100>                          ****END OF INPUT****
 Total Charge           Charge          ....    0
 Multiplicity           Mult            ....    1
 Number of Electrons    NEL             ....   94
MP2 TOTAL ENERGY:     -996.538390055 Eh
FINAL SINGLE POINT ENERGY      -996.538390054740
MP2 TOTAL ENERGY:     -996.973199822 Eh
FINAL SINGLE POINT ENERGY      -996.973199821671

CARTESIAN COORDINATES (ANGSTROEM)
---------------------------------
  Si    -1.138879   -1.559482   -0.481749
  Si     0.888855   -1.489319    0.685933
  C      1.811271    0.114993    0.178458
  H      1.765262   -2.656253    0.411459
  H      0.682371   -1.395070    2.147211
  O      1.200832    1.182779    0.179808
  N      3.105720    0.056026   -0.174186
  C     -2.261599   -0.032405   -0.177849
  H     -1.894101   -2.756945   -0.066797
  H     -0.834965   -1.647793   -1.927855
  O     -3.465519   -0.186714   -0.323137
  N     -1.704245    1.141497    0.155494
  C      3.847873    1.239332   -0.562050
  H      3.571939   -0.833281   -0.150596
  H      3.330794    1.760940   -1.365888
  H      4.835651    0.940252   -0.902688
  H      3.948989    1.928371    0.276421
  C     -2.517921    2.324146    0.334198
  H     -0.692828    1.220901    0.214134
  H     -3.032305    2.591477   -0.589915
  H     -1.874645    3.146116    0.638213
  H     -3.276388    2.156919    1.098660

 Multiplicity           Mult            ....    1
 Number of Electrons    NEL             ....   94
 Basis Dimension        Dim             .... 1360

ORBITAL ENERGIES
----------------

  NO   OCC          E(Eh)            E(eV)
   0   2.0000     -68.789063     -1871.8456
   1   2.0000     -68.778659     -1871.5625
   2   2.0000     -20.539959      -558.9207
   3   2.0000     -20.505353      -557.9790
   4   2.0000     -15.607781      -424.7093
   5   2.0000     -15.563922      -423.5158
   6   2.0000     -11.350709      -308.8685
   7   2.0000     -11.319148      -308.0097
   8   2.0000     -11.274809      -306.8031
   9   2.0000     -11.243216      -305.9435
  10   2.0000      -6.140314      -167.0864
  11   2.0000      -6.129513      -166.7925
  12   2.0000      -4.246428      -115.5512
  13   2.0000      -4.246275      -115.5470
  14   2.0000      -4.246107      -115.5424
  15   2.0000      -4.235810      -115.2623
  16   2.0000      -4.235459      -115.2527
  17   2.0000      -4.235249      -115.2470
  18   2.0000      -1.399678       -38.0872
  19   2.0000      -1.364396       -37.1271
  20   2.0000      -1.251787       -34.0629
  21   2.0000      -1.213998       -33.0346
  22   2.0000      -0.979174       -26.6447
  23   2.0000      -0.945455       -25.7271
  24   2.0000      -0.826582       -22.4924
  25   2.0000      -0.794331       -21.6148
  26   2.0000      -0.781524       -21.2664
  27   2.0000      -0.741228       -20.1698
  28   2.0000      -0.668716       -18.1967
  29   2.0000      -0.664225       -18.0745
  30   2.0000      -0.643547       -17.5118
  31   2.0000      -0.636502       -17.3201
  32   2.0000      -0.626212       -17.0401
  33   2.0000      -0.609891       -16.5960
  34   2.0000      -0.574344       -15.6287
  35   2.0000      -0.570491       -15.5239
  36   2.0000      -0.553862       -15.0713
  37   2.0000      -0.539004       -14.6670
  38   2.0000      -0.529025       -14.3955
  39   2.0000      -0.524050       -14.2601
  40   2.0000      -0.503070       -13.6892
  41   2.0000      -0.483617       -13.1599
  42   2.0000      -0.433472       -11.7954
  43   2.0000      -0.416563       -11.3353
  44   2.0000      -0.416196       -11.3253
  45   2.0000      -0.377493       -10.2721
  46   2.0000      -0.373791       -10.1714
  47   0.0000       0.013619         0.3706
  48   0.0000       0.026616         0.7243
  49   0.0000       0.028645         0.7795
  50   0.0000       0.030364         0.8262
  51   0.0000       0.039509         1.0751

MULLIKEN ATOMIC CHARGES
-----------------------
   0 Si:    0.817314
   1 Si:    0.928891
   2 C :    0.809146
   3 H :   -0.335070
   4 H :   -0.248142
   5 O :   -0.928672
   6 N :   -0.633838
   7 C :    0.724391
   8 H :   -0.237619
   9 H :   -0.220820
  10 O :   -0.926727
  11 N :   -0.676299
  12 C :   -0.897622
  13 H :    0.226445
  14 H :    0.324526
  15 H :    0.424631
  16 H :    0.325986
  17 C :   -0.923499
  18 H :    0.467830
  19 H :    0.354299
  20 H :    0.313480
  21 H :    0.311372
Sum of atomic charges:    0.0000000

LOEWDIN ATOMIC CHARGES
----------------------
   0 Si:    0.756032
   1 Si:    0.764738
   2 C :   -0.845355
   3 H :   -0.260087
   4 H :   -0.259818
   5 O :    0.726785
   6 N :    0.748134
   7 C :   -0.911324
   8 H :   -0.268377
   9 H :   -0.261954
  10 O :    0.605354
  11 N :    0.729728
  12 C :    0.777297
  13 H :   -0.530965
  14 H :   -0.297104
  15 H :   -0.292857
  16 H :   -0.286034
  17 C :    0.767271
  18 H :   -0.781006
  19 H :   -0.289908
  20 H :   -0.293249
  21 H :   -0.297301

  Mayer bond orders larger than 0.100000
B(  0-Si,  1-Si) :   0.8370 B(  0-Si,  7-C ) :   0.9285 B(  0-Si,  8-H ) :   0.8240
B(  0-Si,  9-H ) :   0.7910 B(  1-Si,  2-C ) :   0.7303 B(  1-Si,  3-H ) :   0.7471
B(  1-Si,  4-H ) :   0.7687 B(  2-C ,  5-O ) :   1.2521 B(  2-C ,  6-N ) :   1.1061
B(  5-O ,  6-N ) :   0.2154 B(  6-N , 12-C ) :   0.8275 B(  6-N , 13-H ) :   0.9899
B(  7-C , 10-O ) :   1.1386 B(  7-C , 11-N ) :   1.2535 B( 10-O , 11-N ) :   0.2572
B( 11-N , 17-C ) :   0.9251 B( 11-N , 18-H ) :   0.7981 B( 12-C , 14-H ) :   0.9270
B( 12-C , 15-H ) :   0.8367 B( 12-C , 16-H ) :   0.9255 B( 17-C , 19-H ) :   0.9000
B( 17-C , 20-H ) :   0.9226 B( 17-C , 21-H ) :   0.9466

MP2 TOTAL ENERGY:     -997.114416915 Eh
FINAL SINGLE POINT ENERGY      -997.114416914858

DIPOLE MOMENT
-------------
                                X             Y             Z
Electronic contribution:     -3.75853      -4.98488       0.30420
Nuclear contribution   :      6.52542       4.66913      -0.23269
                        -----------------------------------------
Total Dipole Moment    :      2.76689      -0.31574       0.07151
                        -----------------------------------------
Magnitude (a.u.)       :      2.78576
Magnitude (Debye)      :      7.08085

Rotational constants in cm-1:     0.048449     0.017903     0.013981
Rotational constants in MHz :  1452.450558   536.716661   419.143532

                             ****ORCA TERMINATED NORMALLY****
TOTAL RUN TIME: 0 days 4 hours 59 minutes 43 seconds 678 msec
