                         Program Version 5.0.4 -  RELEASE  -
|  1> ! ri-mp2 aug-cc-pvdz aug-cc-pvdz/c tightscf
|  2> %pal nprocs 16 end
|  3> %maxcore 3800
|  4> %base "DZ_Si-S_19_AB"
|  5> %scf
|  6> STABPerform true
|  7> STABRestartUHFifUnstable true
|  8> end
|  9>
| 10> *xyz 0 1
| 11> C         1.381345   -1.307432   -0.481176
| 12> C         0.398860   -1.456010    0.689688
| 13> C         2.216936   -0.028866   -0.423942
| 14> H         0.830128   -1.325228   -1.425698
| 15> H         2.050735   -2.170224   -0.504414
| 16> Si        -0.694945    0.048939    0.843393
| 17> H         0.958594   -1.553686    1.625626
| 18> H        -0.191077   -2.368676    0.588900
| 19> C         1.409629    1.261046   -0.567490
| 20> H         2.965633   -0.064428   -1.218010
| 21> H         2.773192   -0.003676    0.519785
| 22> C         0.439810    1.511480    0.594616
| 23> H         0.848172    1.223372   -1.505254
| 24> H         2.097811    2.104543   -0.656934
| 25> H         1.004515    1.653537    1.522729
| 26> H        -0.125440    2.431910    0.435700
| 27> S        -2.150200   -0.104349   -0.734372
| 28> H        -2.765155    1.053419   -0.457082
| 29> H        -1.394151    0.122266    2.146927
| 30> *
| 31>
| 32> $new_job
| 33> ! ri-mp2 aug-cc-pvtz aug-cc-pvtz/c tightscf
| 34> %pal nprocs 16 end
| 35> %maxcore 3800
| 36> %base "TZ_Si-S_19_AB"
| 37>
| 38> *xyz 0 1
| 39> C         1.381345   -1.307432   -0.481176
| 40> C         0.398860   -1.456010    0.689688
| 41> C         2.216936   -0.028866   -0.423942
| 42> H         0.830128   -1.325228   -1.425698
| 43> H         2.050735   -2.170224   -0.504414
| 44> Si        -0.694945    0.048939    0.843393
| 45> H         0.958594   -1.553686    1.625626
| 46> H        -0.191077   -2.368676    0.588900
| 47> C         1.409629    1.261046   -0.567490
| 48> H         2.965633   -0.064428   -1.218010
| 49> H         2.773192   -0.003676    0.519785
| 50> C         0.439810    1.511480    0.594616
| 51> H         0.848172    1.223372   -1.505254
| 52> H         2.097811    2.104543   -0.656934
| 53> H         1.004515    1.653537    1.522729
| 54> H        -0.125440    2.431910    0.435700
| 55> S        -2.150200   -0.104349   -0.734372
| 56> H        -2.765155    1.053419   -0.457082
| 57> H        -1.394151    0.122266    2.146927
| 58> *
| 59>
| 60> $new_job
| 61> ! ri-mp2 aug-cc-pvqz aug-cc-pvqz/c tightscf
| 62> %pal nprocs 16 end
| 63> %maxcore 3800
| 64> %base "QZ_Si-S_19_AB"
| 65>
| 66> *xyz 0 1
| 67> C         1.381345   -1.307432   -0.481176
| 68> C         0.398860   -1.456010    0.689688
| 69> C         2.216936   -0.028866   -0.423942
| 70> H         0.830128   -1.325228   -1.425698
| 71> H         2.050735   -2.170224   -0.504414
| 72> Si        -0.694945    0.048939    0.843393
| 73> H         0.958594   -1.553686    1.625626
| 74> H        -0.191077   -2.368676    0.588900
| 75> C         1.409629    1.261046   -0.567490
| 76> H         2.965633   -0.064428   -1.218010
| 77> H         2.773192   -0.003676    0.519785
| 78> C         0.439810    1.511480    0.594616
| 79> H         0.848172    1.223372   -1.505254
| 80> H         2.097811    2.104543   -0.656934
| 81> H         1.004515    1.653537    1.522729
| 82> H        -0.125440    2.431910    0.435700
| 83> S        -2.150200   -0.104349   -0.734372
| 84> H        -2.765155    1.053419   -0.457082
| 85> H        -1.394151    0.122266    2.146927
| 86> *
| 87>
| 88>
| 89>
| 90>
| 91>                          ****END OF INPUT****
 Total Charge           Charge          ....    0
 Multiplicity           Mult            ....    1
 Number of Electrons    NEL             ....   72
MP2 TOTAL ENERGY:     -883.850618335 Eh
FINAL SINGLE POINT ENERGY      -883.850618335285
MP2 TOTAL ENERGY:     -884.129020715 Eh
FINAL SINGLE POINT ENERGY      -884.129020714551

CARTESIAN COORDINATES (ANGSTROEM)
---------------------------------
  C      1.381345   -1.307432   -0.481176
  C      0.398860   -1.456010    0.689688
  C      2.216936   -0.028866   -0.423942
  H      0.830128   -1.325228   -1.425698
  H      2.050735   -2.170224   -0.504414
  Si    -0.694945    0.048939    0.843393
  H      0.958594   -1.553686    1.625626
  H     -0.191077   -2.368676    0.588900
  C      1.409629    1.261046   -0.567490
  H      2.965633   -0.064428   -1.218010
  H      2.773192   -0.003676    0.519785
  C      0.439810    1.511480    0.594616
  H      0.848172    1.223372   -1.505254
  H      2.097811    2.104543   -0.656934
  H      1.004515    1.653537    1.522729
  H     -0.125440    2.431910    0.435700
  S     -2.150200   -0.104349   -0.734372
  H     -2.765155    1.053419   -0.457082
  H     -1.394151    0.122266    2.146927

 Multiplicity           Mult            ....    1
 Number of Electrons    NEL             ....   72
 Basis Dimension        Dim             .... 1120

ORBITAL ENERGIES
----------------

  NO   OCC          E(Eh)            E(eV)
   0   2.0000     -91.936169     -2501.7103
   1   2.0000     -68.774343     -1871.4450
   2   2.0000     -11.222707      -305.3854
   3   2.0000     -11.221496      -305.3524
   4   2.0000     -11.217772      -305.2511
   5   2.0000     -11.206608      -304.9473
   6   2.0000     -11.206149      -304.9348
   7   2.0000      -8.941031      -243.2978
   8   2.0000      -6.622616      -180.2105
   9   2.0000      -6.621773      -180.1876
  10   2.0000      -6.621004      -180.1667
  11   2.0000      -6.122637      -166.6054
  12   2.0000      -4.229421      -115.0884
  13   2.0000      -4.228626      -115.0668
  14   2.0000      -4.228342      -115.0590
  15   2.0000      -1.092707       -29.7341
  16   2.0000      -1.007772       -27.4229
  17   2.0000      -0.966512       -26.3001
  18   2.0000      -0.927627       -25.2420
  19   2.0000      -0.830448       -22.5976
  20   2.0000      -0.779329       -21.2066
  21   2.0000      -0.674664       -18.3585
  22   2.0000      -0.631700       -17.1894
  23   2.0000      -0.603905       -16.4331
  24   2.0000      -0.595768       -16.2117
  25   2.0000      -0.565719       -15.3940
  26   2.0000      -0.541572       -14.7369
  27   2.0000      -0.532079       -14.4786
  28   2.0000      -0.501608       -13.6494
  29   2.0000      -0.491130       -13.3643
  30   2.0000      -0.482819       -13.1382
  31   2.0000      -0.468234       -12.7413
  32   2.0000      -0.438634       -11.9358
  33   2.0000      -0.422136       -11.4869
  34   2.0000      -0.405488       -11.0339
  35   2.0000      -0.365065        -9.9339
  36   0.0000       0.021610         0.5880
  37   0.0000       0.029482         0.8022
  38   0.0000       0.030718         0.8359
  39   0.0000       0.033952         0.9239
  40   0.0000       0.044489         1.2106

MULLIKEN ATOMIC CHARGES
-----------------------
   0 C :   -0.445997
   1 C :   -0.762605
   2 C :   -0.408943
   3 H :    0.236839
   4 H :    0.260920
   5 Si:    1.520593
   6 H :    0.175353
   7 H :    0.249452
   8 C :   -0.445380
   9 H :    0.243528
  10 H :    0.215710
  11 C :   -0.672777
  12 H :    0.242290
  13 H :    0.264639
  14 H :    0.127736
  15 H :    0.242785
  16 S :   -0.481904
  17 H :    0.014180
  18 H :   -0.576419
Sum of atomic charges:   -0.0000000

LOEWDIN ATOMIC CHARGES
----------------------
   0 C :    0.464616
   1 C :    0.519512
   2 C :    0.509498
   3 H :   -0.285852
   4 H :   -0.265317
   5 Si:    0.011273
   6 H :   -0.324927
   7 H :   -0.327903
   8 C :    0.463950
   9 H :   -0.264353
  10 H :   -0.266052
  11 C :    0.531305
  12 H :   -0.286644
  13 H :   -0.265355
  14 H :   -0.325356
  15 H :   -0.328144
  16 S :    1.517602
  17 H :   -0.868668
  18 H :   -0.209183

  Mayer bond orders larger than 0.100000
B(  0-C ,  1-C ) :   0.9078 B(  0-C ,  2-C ) :   0.8478 B(  0-C ,  3-H ) :   0.9318
B(  0-C ,  4-H ) :   0.9274 B(  1-C ,  5-Si) :   0.7733 B(  1-C ,  6-H ) :   0.9815
B(  1-C ,  7-H ) :   0.9881 B(  2-C ,  8-C ) :   0.8585 B(  2-C ,  9-H ) :   0.9659
B(  2-C , 10-H ) :   0.9533 B(  5-Si, 11-C ) :   0.8052 B(  5-Si, 16-S ) :   0.6271
B(  5-Si, 18-H ) :   0.6086 B(  8-C , 11-C ) :   0.9029 B(  8-C , 12-H ) :   0.9362
B(  8-C , 13-H ) :   0.9314 B( 11-C , 14-H ) :   1.0010 B( 11-C , 15-H ) :   0.9750
B( 16-S , 17-H ) :   1.0783

MP2 TOTAL ENERGY:     -884.214652460 Eh
FINAL SINGLE POINT ENERGY      -884.214652459895

DIPOLE MOMENT
-------------
                                X             Y             Z
Electronic contribution:     -8.84692      -0.84321      -0.75847
Nuclear contribution   :      9.36400       1.12777       1.06681
                        -----------------------------------------
Total Dipole Moment    :      0.51707       0.28456       0.30833
                        -----------------------------------------
Magnitude (a.u.)       :      0.66589
Magnitude (Debye)      :      1.69255

Rotational constants in cm-1:     0.085826     0.044032     0.038921
Rotational constants in MHz :  2572.991477  1320.059491  1166.825508

                             ****ORCA TERMINATED NORMALLY****
TOTAL RUN TIME: 0 days 3 hours 35 minutes 46 seconds 742 msec
