                         Program Version 5.0.4 -  RELEASE  -
|  1> ! ri-mp2 aug-cc-pvdz aug-cc-pvdz/c tightscf
|  2> %pal nprocs 16 end
|  3> %maxcore 3800
|  4> %base "DZ_S-F_24_AB"
|  5> %scf
|  6> STABPerform true
|  7> STABRestartUHFifUnstable true
|  8> end
|  9>
| 10> *xyz 0 1
| 11> F        -1.492130   -0.802797    0.954040
| 12> S        -0.969354   -0.706174   -0.588243
| 13> C         0.186405    0.658178   -0.407329
| 14> C         1.378033    0.322183    0.487892
| 15> C        -0.516419    1.938682    0.019305
| 16> H        -0.931811    1.829100    1.020943
| 17> H        -1.329015    2.188637   -0.660392
| 18> H         0.192014    2.768128    0.038140
| 19> H         0.532348    0.758162   -1.445049
| 20> C         2.280340   -0.776303   -0.045752
| 21> H         1.002112    0.056138    1.478315
| 22> H         1.956638    1.240419    0.618960
| 23> H         1.734951   -1.711305   -0.167566
| 24> H         3.112365   -0.957807    0.634326
| 25> H         2.699077   -0.503960   -1.016849
| 26> *
| 27>
| 28> $new_job
| 29> ! ri-mp2 aug-cc-pvtz aug-cc-pvtz/c tightscf
| 30> %pal nprocs 16 end
| 31> %maxcore 3800
| 32> %base "TZ_S-F_24_AB"
| 33>
| 34> *xyz 0 1
| 35> F        -1.492130   -0.802797    0.954040
| 36> S        -0.969354   -0.706174   -0.588243
| 37> C         0.186405    0.658178   -0.407329
| 38> C         1.378033    0.322183    0.487892
| 39> C        -0.516419    1.938682    0.019305
| 40> H        -0.931811    1.829100    1.020943
| 41> H        -1.329015    2.188637   -0.660392
| 42> H         0.192014    2.768128    0.038140
| 43> H         0.532348    0.758162   -1.445049
| 44> C         2.280340   -0.776303   -0.045752
| 45> H         1.002112    0.056138    1.478315
| 46> H         1.956638    1.240419    0.618960
| 47> H         1.734951   -1.711305   -0.167566
| 48> H         3.112365   -0.957807    0.634326
| 49> H         2.699077   -0.503960   -1.016849
| 50> *
| 51>
| 52> $new_job
| 53> ! ri-mp2 aug-cc-pvqz aug-cc-pvqz/c tightscf
| 54> %pal nprocs 16 end
| 55> %maxcore 3800
| 56> %base "QZ_S-F_24_AB"
| 57>
| 58> *xyz 0 1
| 59> F        -1.492130   -0.802797    0.954040
| 60> S        -0.969354   -0.706174   -0.588243
| 61> C         0.186405    0.658178   -0.407329
| 62> C         1.378033    0.322183    0.487892
| 63> C        -0.516419    1.938682    0.019305
| 64> H        -0.931811    1.829100    1.020943
| 65> H        -1.329015    2.188637   -0.660392
| 66> H         0.192014    2.768128    0.038140
| 67> H         0.532348    0.758162   -1.445049
| 68> C         2.280340   -0.776303   -0.045752
| 69> H         1.002112    0.056138    1.478315
| 70> H         1.956638    1.240419    0.618960
| 71> H         1.734951   -1.711305   -0.167566
| 72> H         3.112365   -0.957807    0.634326
| 73> H         2.699077   -0.503960   -1.016849
| 74> *
| 75>
| 76>
| 77>
| 78>
| 79>                          ****END OF INPUT****
 Total Charge           Charge          ....    0
 Multiplicity           Mult            ....    1
 Number of Electrons    NEL             ....   58
MP2 TOTAL ENERGY:     -654.633945417 Eh
FINAL SINGLE POINT ENERGY      -654.633945417048
MP2 TOTAL ENERGY:     -654.923775475 Eh
FINAL SINGLE POINT ENERGY      -654.923775475325

CARTESIAN COORDINATES (ANGSTROEM)
---------------------------------
  F     -1.492130   -0.802797    0.954040
  S     -0.969354   -0.706174   -0.588243
  C      0.186405    0.658178   -0.407329
  C      1.378033    0.322183    0.487892
  C     -0.516419    1.938682    0.019305
  H     -0.931811    1.829100    1.020943
  H     -1.329015    2.188637   -0.660392
  H      0.192014    2.768128    0.038140
  H      0.532348    0.758162   -1.445049
  C      2.280340   -0.776303   -0.045752
  H      1.002112    0.056138    1.478315
  H      1.956638    1.240419    0.618960
  H      1.734951   -1.711305   -0.167566
  H      3.112365   -0.957807    0.634326
  H      2.699077   -0.503960   -1.016849

 Multiplicity           Mult            ....    1
 Number of Electrons    NEL             ....   58
 Basis Dimension        Dim             ....  898

ORBITAL ENERGIES
----------------

  NO   OCC          E(Eh)            E(eV)
   0   2.0000     -92.015363     -2503.8653
   1   2.0000     -26.295809      -715.5453
   2   2.0000     -11.273176      -306.7587
   3   2.0000     -11.231225      -305.6172
   4   2.0000     -11.225728      -305.4676
   5   2.0000     -11.215720      -305.1953
   6   2.0000      -9.010623      -245.1915
   7   2.0000      -6.692318      -182.1072
   8   2.0000      -6.690094      -182.0467
   9   2.0000      -6.689009      -182.0172
  10   2.0000      -1.593815       -43.3699
  11   2.0000      -1.116269       -30.3752
  12   2.0000      -1.009398       -27.4671
  13   2.0000      -0.947185       -25.7742
  14   2.0000      -0.869665       -23.6648
  15   2.0000      -0.791971       -21.5506
  16   2.0000      -0.693041       -18.8586
  17   2.0000      -0.679330       -18.4855
  18   2.0000      -0.650101       -17.6901
  19   2.0000      -0.623466       -16.9654
  20   2.0000      -0.602854       -16.4045
  21   2.0000      -0.591818       -16.1042
  22   2.0000      -0.572220       -15.5709
  23   2.0000      -0.531528       -14.4636
  24   2.0000      -0.505693       -13.7606
  25   2.0000      -0.493101       -13.4179
  26   2.0000      -0.484282       -13.1780
  27   2.0000      -0.447656       -12.1813
  28   2.0000      -0.359674        -9.7872
  29   0.0000       0.024368         0.6631
  30   0.0000       0.030690         0.8351
  31   0.0000       0.032245         0.8774
  32   0.0000       0.040164         1.0929
  33   0.0000       0.049449         1.3456

MULLIKEN ATOMIC CHARGES
-----------------------
   0 F :   -0.680944
   1 S :    0.383560
   2 C :    0.168359
   3 C :   -0.431400
   4 C :   -0.967662
   5 H :    0.236214
   6 H :    0.272204
   7 H :    0.229137
   8 H :    0.320316
   9 C :   -0.828501
  10 H :    0.285624
  11 H :    0.263508
  12 H :    0.272870
  13 H :    0.251479
  14 H :    0.225234
Sum of atomic charges:   -0.0000000

LOEWDIN ATOMIC CHARGES
----------------------
   0 F :    0.116093
   1 S :    0.792011
   2 C :   -0.317233
   3 C :    0.408954
   4 C :    0.832576
   5 H :   -0.299041
   6 H :   -0.301624
   7 H :   -0.282802
   8 H :   -0.388446
   9 C :    0.898784
  10 H :   -0.293014
  11 H :   -0.283667
  12 H :   -0.319656
  13 H :   -0.280081
  14 H :   -0.282855

  Mayer bond orders larger than 0.100000
B(  0-F ,  1-S ) :   0.5850 B(  0-F ,  2-C ) :  -0.1980 B(  1-S ,  2-C ) :   0.6951
B(  1-S ,  4-C ) :   0.1395 B(  2-C ,  3-C ) :   0.8300 B(  2-C ,  4-C ) :   0.7864
B(  2-C ,  8-H ) :   0.8588 B(  3-C ,  9-C ) :   0.9337 B(  3-C , 10-H ) :   0.8975
B(  3-C , 11-H ) :   0.8642 B(  4-C ,  5-H ) :   0.9731 B(  4-C ,  6-H ) :   0.9996
B(  4-C ,  7-H ) :   0.9771 B(  9-C , 12-H ) :   0.9376 B(  9-C , 13-H ) :   1.0188
B(  9-C , 14-H ) :   0.9479

MP2 TOTAL ENERGY:     -655.014909869 Eh
FINAL SINGLE POINT ENERGY      -655.014909868609

DIPOLE MOMENT
-------------
                                X             Y             Z
Electronic contribution:     -9.84558      -5.91626       0.08924
Nuclear contribution   :     10.54522       6.52733      -0.42617
                        -----------------------------------------
Total Dipole Moment    :      0.69964       0.61108      -0.33693
                        -----------------------------------------
Magnitude (a.u.)       :      0.98814
Magnitude (Debye)      :      2.51166

Rotational constants in cm-1:     0.113329     0.073222     0.056718
Rotational constants in MHz :  3397.508156  2195.138079  1700.373134

                             ****ORCA TERMINATED NORMALLY****
TOTAL RUN TIME: 0 days 1 hours 14 minutes 16 seconds 18 msec
