                         Program Version 5.0.4 -  RELEASE  -
|  1> ! ri-mp2 aug-cc-pvdz aug-cc-pvdz/c tightscf
|  2> %pal nprocs 16 end
|  3> %maxcore 3800
|  4> %base "DZ_P-S_18_AB"
|  5>
|  6> *xyz 0 1
|  7> C         3.700987    0.161948    0.031631
|  8> C         3.097951    1.420841   -0.007279
|  9> C         1.732838    1.526080   -0.052480
| 10> C         2.913441   -0.984593    0.026537
| 11> C         1.537945   -0.864852   -0.020667
| 12> C         0.928741    0.381669   -0.063231
| 13> H         3.731734    2.296360   -0.002094
| 14> H         1.257238    2.495774   -0.083361
| 15> H         3.358654   -1.966340    0.062751
| 16> H         0.937852   -1.763726   -0.012054
| 17> C        -0.528147    0.564876   -0.118865
| 18> S        -1.490874   -0.916202   -0.399184
| 19> P        -3.464538   -0.249738    0.010671
| 20> O        -4.397580   -1.240771   -0.497340
| 21> O        -1.038066    1.664852   -0.018897
| 22> O         5.043033    0.155842    0.074721
| 23> C         5.721216   -1.085004    0.109379
| 24> H         5.455723   -1.654777    1.002277
| 25> H         6.780177   -0.846724    0.135088
| 26> H         5.503982   -1.678027   -0.781386
| 27> O        -3.525587    1.199405   -0.544990
| 28> H        -2.662397    1.665641   -0.374427
| 29> O        -3.504739   -0.034471    1.585687
| 30> H        -3.787235   -0.827543    2.056476
| 31> *
| 32>
| 33> $new_job
| 34> ! ri-mp2 aug-cc-pvtz aug-cc-pvtz/c tightscf
| 35> %pal nprocs 16 end
| 36> %maxcore 3800
| 37> %base "TZ_P-S_18_AB"
| 38>
| 39> *xyz 0 1
| 40> C         3.700987    0.161948    0.031631
| 41> C         3.097951    1.420841   -0.007279
| 42> C         1.732838    1.526080   -0.052480
| 43> C         2.913441   -0.984593    0.026537
| 44> C         1.537945   -0.864852   -0.020667
| 45> C         0.928741    0.381669   -0.063231
| 46> H         3.731734    2.296360   -0.002094
| 47> H         1.257238    2.495774   -0.083361
| 48> H         3.358654   -1.966340    0.062751
| 49> H         0.937852   -1.763726   -0.012054
| 50> C        -0.528147    0.564876   -0.118865
| 51> S        -1.490874   -0.916202   -0.399184
| 52> P        -3.464538   -0.249738    0.010671
| 53> O        -4.397580   -1.240771   -0.497340
| 54> O        -1.038066    1.664852   -0.018897
| 55> O         5.043033    0.155842    0.074721
| 56> C         5.721216   -1.085004    0.109379
| 57> H         5.455723   -1.654777    1.002277
| 58> H         6.780177   -0.846724    0.135088
| 59> H         5.503982   -1.678027   -0.781386
| 60> O        -3.525587    1.199405   -0.544990
| 61> H        -2.662397    1.665641   -0.374427
| 62> O        -3.504739   -0.034471    1.585687
| 63> H        -3.787235   -0.827543    2.056476
| 64> *
| 65>
| 66> $new_job
| 67> ! ri-mp2 aug-cc-pvqz aug-cc-pvqz/c tightscf
| 68> %pal nprocs 16 end
| 69> %maxcore 3800
| 70> %base "QZ_P-S_18_AB"
| 71>
| 72> *xyz 0 1
| 73> C         3.700987    0.161948    0.031631
| 74> C         3.097951    1.420841   -0.007279
| 75> C         1.732838    1.526080   -0.052480
| 76> C         2.913441   -0.984593    0.026537
| 77> C         1.537945   -0.864852   -0.020667
| 78> C         0.928741    0.381669   -0.063231
| 79> H         3.731734    2.296360   -0.002094
| 80> H         1.257238    2.495774   -0.083361
| 81> H         3.358654   -1.966340    0.062751
| 82> H         0.937852   -1.763726   -0.012054
| 83> C        -0.528147    0.564876   -0.118865
| 84> S        -1.490874   -0.916202   -0.399184
| 85> P        -3.464538   -0.249738    0.010671
| 86> O        -4.397580   -1.240771   -0.497340
| 87> O        -1.038066    1.664852   -0.018897
| 88> O         5.043033    0.155842    0.074721
| 89> C         5.721216   -1.085004    0.109379
| 90> H         5.455723   -1.654777    1.002277
| 91> H         6.780177   -0.846724    0.135088
| 92> H         5.503982   -1.678027   -0.781386
| 93> O        -3.525587    1.199405   -0.544990
| 94> H        -2.662397    1.665641   -0.374427
| 95> O        -3.504739   -0.034471    1.585687
| 96> H        -3.787235   -0.827543    2.056476
| 97> *
| 98>
| 99>
|100>
|101>
|102>                          ****END OF INPUT****
 Total Charge           Charge          ....    0
 Multiplicity           Mult            ....    1
 Number of Electrons    NEL             ....  128
MP2 TOTAL ENERGY:    -1423.277951501 Eh
FINAL SINGLE POINT ENERGY     -1423.277951500736
MP2 TOTAL ENERGY:    -1423.992160220 Eh
FINAL SINGLE POINT ENERGY     -1423.992160220426

CARTESIAN COORDINATES (ANGSTROEM)
---------------------------------
  C      3.700987    0.161948    0.031631
  C      3.097951    1.420841   -0.007279
  C      1.732838    1.526080   -0.052480
  C      2.913441   -0.984593    0.026537
  C      1.537945   -0.864852   -0.020667
  C      0.928741    0.381669   -0.063231
  H      3.731734    2.296360   -0.002094
  H      1.257238    2.495774   -0.083361
  H      3.358654   -1.966340    0.062751
  H      0.937852   -1.763726   -0.012054
  C     -0.528147    0.564876   -0.118865
  S     -1.490874   -0.916202   -0.399184
  P     -3.464538   -0.249738    0.010671
  O     -4.397580   -1.240771   -0.497340
  O     -1.038066    1.664852   -0.018897
  O      5.043033    0.155842    0.074721
  C      5.721216   -1.085004    0.109379
  H      5.455723   -1.654777    1.002277
  H      6.780177   -0.846724    0.135088
  H      5.503982   -1.678027   -0.781386
  O     -3.525587    1.199405   -0.544990
  H     -2.662397    1.665641   -0.374427
  O     -3.504739   -0.034471    1.585687
  H     -3.787235   -0.827543    2.056476

 Multiplicity           Mult            ....    1
 Number of Electrons    NEL             ....  128
 Basis Dimension        Dim             .... 1622

ORBITAL ENERGIES
----------------

  NO   OCC          E(Eh)            E(eV)
   0   2.0000     -91.986560     -2503.0816
   1   2.0000     -80.091036     -2179.3879
   2   2.0000     -20.613848      -560.9313
   3   2.0000     -20.605968      -560.7169
   4   2.0000     -20.588333      -560.2370
   5   2.0000     -20.582484      -560.0779
   6   2.0000     -20.513701      -558.2062
   7   2.0000     -11.397515      -310.1422
   8   2.0000     -11.337779      -308.5166
   9   2.0000     -11.305885      -307.6488
  10   2.0000     -11.278359      -306.8998
  11   2.0000     -11.269818      -306.6673
  12   2.0000     -11.262164      -306.4591
  13   2.0000     -11.255316      -306.2727
  14   2.0000     -11.250013      -306.1284
  15   2.0000      -8.991290      -244.6655
  16   2.0000      -7.611274      -207.1133
  17   2.0000      -6.672546      -181.5692
  18   2.0000      -6.671591      -181.5432
  19   2.0000      -6.670927      -181.5252
  20   2.0000      -5.509764      -149.9283
  21   2.0000      -5.509261      -149.9146
  22   2.0000      -5.508253      -149.8872
  23   2.0000      -1.449618       -39.4461
  24   2.0000      -1.448740       -39.4222
  25   2.0000      -1.432261       -38.9738
  26   2.0000      -1.384850       -37.6837
  27   2.0000      -1.309312       -35.6282
  28   2.0000      -1.191654       -32.4266
  29   2.0000      -1.083921       -29.4950
  30   2.0000      -1.056200       -28.7407
  31   2.0000      -1.032513       -28.0961
  32   2.0000      -0.976979       -26.5850
  33   2.0000      -0.887516       -24.1505
  34   2.0000      -0.866234       -23.5714
  35   2.0000      -0.837865       -22.7995
  36   2.0000      -0.799588       -21.7579
  37   2.0000      -0.757419       -20.6104
  38   2.0000      -0.750120       -20.4118
  39   2.0000      -0.712358       -19.3842
  40   2.0000      -0.701655       -19.0930
  41   2.0000      -0.685569       -18.6553
  42   2.0000      -0.678417       -18.4607
  43   2.0000      -0.659702       -17.9514
  44   2.0000      -0.649665       -17.6783
  45   2.0000      -0.641962       -17.4687
  46   2.0000      -0.624373       -16.9901
  47   2.0000      -0.614163       -16.7122
  48   2.0000      -0.604208       -16.4413
  49   2.0000      -0.590089       -16.0571
  50   2.0000      -0.583420       -15.8757
  51   2.0000      -0.580793       -15.8042
  52   2.0000      -0.556079       -15.1317
  53   2.0000      -0.549690       -14.9578
  54   2.0000      -0.547272       -14.8920
  55   2.0000      -0.513109       -13.9624
  56   2.0000      -0.503009       -13.6876
  57   2.0000      -0.497201       -13.5295
  58   2.0000      -0.479073       -13.0362
  59   2.0000      -0.452591       -12.3156
  60   2.0000      -0.445460       -12.1216
  61   2.0000      -0.411418       -11.1952
  62   2.0000      -0.374908       -10.2018
  63   2.0000      -0.346841        -9.4380
  64   0.0000       0.014530         0.3954
  65   0.0000       0.023472         0.6387
  66   0.0000       0.026117         0.7107
  67   0.0000       0.031407         0.8546
  68   0.0000       0.034916         0.9501

MULLIKEN ATOMIC CHARGES
-----------------------
   0 C :    1.254560
   1 C :   -0.473318
   2 C :   -0.361992
   3 C :   -0.452316
   4 C :   -0.153704
   5 C :   -0.111436
   6 H :    0.262469
   7 H :    0.230653
   8 H :    0.197639
   9 H :    0.241208
  10 C :    0.734769
  11 S :   -0.081543
  12 P :    2.376441
  13 O :   -1.207627
  14 O :   -0.822190
  15 O :   -0.811791
  16 C :   -0.711507
  17 H :    0.253867
  18 H :    0.514251
  19 H :    0.253534
  20 O :   -0.977549
  21 H :    0.355848
  22 O :   -0.898966
  23 H :    0.388699
Sum of atomic charges:   -0.0000000

LOEWDIN ATOMIC CHARGES
----------------------
   0 C :   -0.452680
   1 C :    0.351756
   2 C :    0.317508
   3 C :    0.354874
   4 C :    0.286889
   5 C :   -0.225050
   6 H :   -0.320729
   7 H :   -0.332916
   8 H :   -0.354765
   9 H :   -0.387230
  10 C :   -1.034576
  11 S :    1.219585
  12 P :   -1.035481
  13 O :    0.234886
  14 O :    0.804812
  15 O :    0.894537
  16 C :    0.592195
  17 H :   -0.302904
  18 H :   -0.312444
  19 H :   -0.302829
  20 O :    1.049622
  21 H :   -1.236401
  22 O :    1.063636
  23 H :   -0.872299

  Mayer bond orders larger than 0.100000
B(  0-C ,  1-C ) :   1.0711 B(  0-C ,  2-C ) :  -0.2396 B(  0-C ,  3-C ) :   1.3515
B(  0-C ,  4-C ) :  -0.2443 B(  0-C ,  6-H ) :  -0.1188 B(  0-C , 16-C ) :  -0.1787
B(  1-C ,  2-C ) :   1.3570 B(  1-C ,  4-C ) :   0.1062 B(  1-C ,  5-C ) :  -0.1766
B(  1-C ,  6-H ) :   0.9965 B(  1-C ,  7-H ) :  -0.1290 B(  1-C , 15-O ) :   0.2723
B(  2-C ,  3-C ) :   0.1014 B(  2-C ,  5-C ) :   1.1152 B(  2-C ,  6-H ) :  -0.1006
B(  2-C ,  7-H ) :   1.0533 B(  2-C , 10-C ) :  -0.3137 B(  2-C , 14-O ) :  -0.1386
B(  3-C ,  4-C ) :   0.8364 B(  3-C ,  5-C ) :  -0.3942 B(  3-C ,  8-H ) :   1.1393
B(  3-C ,  9-H ) :  -0.2051 B(  3-C , 15-O ) :   0.2157 B(  3-C , 16-C ) :   0.1823
B(  4-C ,  5-C ) :   1.1342 B(  4-C ,  8-H ) :  -0.1552 B(  4-C ,  9-H ) :   1.0488
B(  4-C , 10-C ) :  -0.4295 B(  5-C , 10-C ) :   0.8805 B(  5-C , 11-S ) :  -0.1176
B(  5-C , 14-O ) :   0.4968 B( 10-C , 11-S ) :   0.9143 B( 10-C , 14-O ) :   0.9566
B( 11-S , 12-P ) :   0.9494 B( 11-S , 13-O ) :  -0.1183 B( 12-P , 13-O ) :   1.3414
B( 12-P , 20-O ) :   0.6968 B( 12-P , 22-O ) :   0.6462 B( 13-O , 20-O ) :  -0.1086
B( 14-O , 21-H ) :   0.1615 B( 15-O , 16-C ) :   0.9204 B( 16-C , 17-H ) :   0.9258
B( 16-C , 18-H ) :   0.7324 B( 16-C , 19-H ) :   0.9263 B( 20-O , 21-H ) :   0.8020
B( 22-O , 23-H ) :   0.8961

MP2 TOTAL ENERGY:    -1424.223857092 Eh
FINAL SINGLE POINT ENERGY     -1424.223857091812

DIPOLE MOMENT
-------------
                                X             Y             Z
Electronic contribution:    -19.97540       1.29251      -1.09510
Nuclear contribution   :     23.05655      -1.92337       1.95158
                        -----------------------------------------
Total Dipole Moment    :      3.08115      -0.63086       0.85649
                        -----------------------------------------
Magnitude (a.u.)       :      3.25961
Magnitude (Debye)      :      8.28526

Rotational constants in cm-1:     0.055649     0.006386     0.005974
Rotational constants in MHz :  1668.313133   191.437105   179.101423

                             ****ORCA TERMINATED NORMALLY****
TOTAL RUN TIME: 0 days 1 hours 58 minutes 13 seconds 955 msec
