                         Program Version 5.0.4 -  RELEASE  -
|  1> ! ri-mp2 aug-cc-pvdz aug-cc-pvdz/c tightscf
|  2> %pal nprocs 16 end
|  3> %maxcore 3800
|  4> %base "DZ_S-Cl_73_AB"
|  5>
|  6> *xyz 0 1
|  7> Cl        -2.584986    0.631325    0.000005
|  8> S        -1.376984   -0.988829   -0.000005
|  9> C         0.240790   -0.306633   -0.000002
| 10> C         0.553701    1.039922   -0.000005
| 11> C         1.281146   -1.230120    0.000003
| 12> C         2.577503   -0.757252    0.000004
| 13> C         1.891954    1.398372   -0.000003
| 14> N         2.894505    0.532846    0.000002
| 15> H        -0.213967    1.797836   -0.000007
| 16> H         2.162475    2.448429   -0.000004
| 17> H         1.090947   -2.295511    0.000007
| 18> H         3.404943   -1.457662    0.000008
| 19> *
| 20>
| 21> $new_job
| 22> ! ri-mp2 aug-cc-pvtz aug-cc-pvtz/c tightscf
| 23> %pal nprocs 16 end
| 24> %maxcore 3800
| 25> %base "TZ_S-Cl_73_AB"
| 26>
| 27> *xyz 0 1
| 28> Cl        -2.584986    0.631325    0.000005
| 29> S        -1.376984   -0.988829   -0.000005
| 30> C         0.240790   -0.306633   -0.000002
| 31> C         0.553701    1.039922   -0.000005
| 32> C         1.281146   -1.230120    0.000003
| 33> C         2.577503   -0.757252    0.000004
| 34> C         1.891954    1.398372   -0.000003
| 35> N         2.894505    0.532846    0.000002
| 36> H        -0.213967    1.797836   -0.000007
| 37> H         2.162475    2.448429   -0.000004
| 38> H         1.090947   -2.295511    0.000007
| 39> H         3.404943   -1.457662    0.000008
| 40> *
| 41>
| 42> $new_job
| 43> ! ri-mp2 aug-cc-pvqz aug-cc-pvqz/c tightscf
| 44> %pal nprocs 16 end
| 45> %maxcore 3800
| 46> %base "QZ_S-Cl_73_AB"
| 47>
| 48> *xyz 0 1
| 49> Cl        -2.584986    0.631325    0.000005
| 50> S        -1.376984   -0.988829   -0.000005
| 51> C         0.240790   -0.306633   -0.000002
| 52> C         0.553701    1.039922   -0.000005
| 53> C         1.281146   -1.230120    0.000003
| 54> C         2.577503   -0.757252    0.000004
| 55> C         1.891954    1.398372   -0.000003
| 56> N         2.894505    0.532846    0.000002
| 57> H        -0.213967    1.797836   -0.000007
| 58> H         2.162475    2.448429   -0.000004
| 59> H         1.090947   -2.295511    0.000007
| 60> H         3.404943   -1.457662    0.000008
| 61> *
| 62>
| 63>
| 64>
| 65>
| 66>                          ****END OF INPUT****
 Total Charge           Charge          ....    0
 Multiplicity           Mult            ....    1
 Number of Electrons    NEL             ....   74
MP2 TOTAL ENERGY:    -1104.285720124 Eh
FINAL SINGLE POINT ENERGY     -1104.285720124328
MP2 TOTAL ENERGY:    -1104.612987122 Eh
FINAL SINGLE POINT ENERGY     -1104.612987122423

CARTESIAN COORDINATES (ANGSTROEM)
---------------------------------
  Cl    -2.584986    0.631325    0.000005
  S     -1.376984   -0.988829   -0.000005
  C      0.240790   -0.306633   -0.000002
  C      0.553701    1.039922   -0.000005
  C      1.281146   -1.230120    0.000003
  C      2.577503   -0.757252    0.000004
  C      1.891954    1.398372   -0.000003
  N      2.894505    0.532846    0.000002
  H     -0.213967    1.797836   -0.000007
  H      2.162475    2.448429   -0.000004
  H      1.090947   -2.295511    0.000007
  H      3.404943   -1.457662    0.000008

 Multiplicity           Mult            ....    1
 Number of Electrons    NEL             ....   74
 Basis Dimension        Dim             ....  832

ORBITAL ENERGIES
----------------

  NO   OCC          E(Eh)            E(eV)
   0   2.0000    -104.870996     -2853.6849
   1   2.0000     -92.032391     -2504.3287
   2   2.0000     -15.568349      -423.6363
   3   2.0000     -11.308376      -307.7165
   4   2.0000     -11.285196      -307.0858
   5   2.0000     -11.285127      -307.0839
   6   2.0000     -11.254456      -306.2493
   7   2.0000     -11.250515      -306.1421
   8   2.0000     -10.595389      -288.3152
   9   2.0000      -9.030647      -245.7364
  10   2.0000      -8.062414      -219.3895
  11   2.0000      -8.060456      -219.3362
  12   2.0000      -8.060236      -219.3302
  13   2.0000      -6.711990      -182.6425
  14   2.0000      -6.710379      -182.5987
  15   2.0000      -6.709228      -182.5674
  16   2.0000      -1.277001       -34.7490
  17   2.0000      -1.178944       -32.0807
  18   2.0000      -1.112511       -30.2730
  19   2.0000      -1.051511       -28.6131
  20   2.0000      -0.960982       -26.1496
  21   2.0000      -0.876341       -23.8464
  22   2.0000      -0.833328       -22.6760
  23   2.0000      -0.715064       -19.4579
  24   2.0000      -0.689893       -18.7729
  25   2.0000      -0.664018       -18.0688
  26   2.0000      -0.614674       -16.7261
  27   2.0000      -0.588070       -16.0022
  28   2.0000      -0.574337       -15.6285
  29   2.0000      -0.544395       -14.8137
  30   2.0000      -0.532252       -14.4833
  31   2.0000      -0.527988       -14.3673
  32   2.0000      -0.467125       -12.7111
  33   2.0000      -0.442301       -12.0356
  34   2.0000      -0.427600       -11.6356
  35   2.0000      -0.364965        -9.9312
  36   2.0000      -0.344502        -9.3744
  37   0.0000       0.025202         0.6858
  38   0.0000       0.027914         0.7596
  39   0.0000       0.036650         0.9973
  40   0.0000       0.040804         1.1103
  41   0.0000       0.055939         1.5222

MULLIKEN ATOMIC CHARGES
-----------------------
   0 Cl:   -0.344330
   1 S :    0.185740
   2 C :    0.054586
   3 C :   -0.343504
   4 C :   -0.273035
   5 C :   -0.198807
   6 C :   -0.179063
   7 N :   -0.592424
   8 H :    0.366474
   9 H :    0.469042
  10 H :    0.368512
  11 H :    0.486807
Sum of atomic charges:    0.0000000

LOEWDIN ATOMIC CHARGES
----------------------
   0 Cl:    0.563056
   1 S :    0.503561
   2 C :   -0.673800
   3 C :    0.183969
   4 C :    0.181266
   5 C :    0.063410
   6 C :    0.065362
   7 N :    0.593527
   8 H :   -0.434933
   9 H :   -0.346563
  10 H :   -0.351843
  11 H :   -0.347012

  Mayer bond orders larger than 0.100000
B(  0-Cl,  1-S ) :   1.0281 B(  0-Cl,  2-C ) :  -0.1457 B(  1-S ,  2-C ) :   0.8497
B(  1-S ,  3-C ) :  -0.1478 B(  1-S ,  4-C ) :  -0.1377 B(  2-C ,  3-C ) :   1.1160
B(  2-C ,  4-C ) :   1.0623 B(  2-C ,  5-C ) :  -0.1918 B(  2-C ,  6-C ) :  -0.2292
B(  3-C ,  6-C ) :   1.2262 B(  3-C ,  8-H ) :   0.9304 B(  3-C ,  9-H ) :  -0.1139
B(  4-C ,  5-C ) :   1.2505 B(  4-C , 10-H ) :   0.9053 B(  5-C ,  7-N ) :   1.2222
B(  5-C , 11-H ) :   0.8557 B(  6-C ,  7-N ) :   1.2146 B(  6-C ,  9-H ) :   0.8798
B(  7-N ,  9-H ) :  -0.1138 B(  7-N , 11-H ) :  -0.1214

MP2 TOTAL ENERGY:    -1104.719332164 Eh
FINAL SINGLE POINT ENERGY     -1104.719332164025

DIPOLE MOMENT
-------------
                                X             Y             Z
Electronic contribution:     -9.98685       0.10468       0.00000
Nuclear contribution   :      9.73759      -0.35934      -0.00000
                        -----------------------------------------
Total Dipole Moment    :     -0.24925      -0.25466      -0.00000
                        -----------------------------------------
Magnitude (a.u.)       :      0.35634
Magnitude (Debye)      :      0.90574

Rotational constants in cm-1:     0.130805     0.029122     0.023819
Rotational constants in MHz :  3921.440676   873.052043   714.073833

                             ****ORCA TERMINATED NORMALLY****
TOTAL RUN TIME: 0 days 0 hours 16 minutes 12 seconds 989 msec
