                         Program Version 5.0.4 -  RELEASE  -
|  1> ! ri-mp2 aug-cc-pvdz aug-cc-pvdz/c tightscf
|  2> %pal nprocs 16 end
|  3> %maxcore 3800
|  4> %base "DZ_B-P_1_AB"
|  5> %scf
|  6> STABPerform true
|  7> STABRestartUHFifUnstable true
|  8> end
|  9>
| 10> *xyz 0 1
| 11> B         2.196054    1.104660   -0.131038
| 12> P         1.418800   -0.541083    0.056641
| 13> C        -2.729179    0.228613   -0.050986
| 14> C        -0.348009   -0.534737   -0.442989
| 15> C        -1.282213    0.314615    0.410441
| 16> H        -0.693834   -1.570437   -0.463991
| 17> H        -0.360936   -0.189700   -1.479807
| 18> H        -0.942170    1.352166    0.384318
| 19> H        -1.207919   -0.003693    1.453212
| 20> H        -3.097213   -0.797917   -0.003277
| 21> H        -2.833278    0.569670   -1.082599
| 22> H        -3.379787    0.844430    0.570520
| 23> H         3.129014    1.390697    0.547321
| 24> H         1.880514    1.798428   -1.045488
| 25> H         1.399741   -0.851644    1.426572
| 26> *
| 27>
| 28> $new_job
| 29> ! ri-mp2 aug-cc-pvtz aug-cc-pvtz/c tightscf
| 30> %pal nprocs 16 end
| 31> %maxcore 3800
| 32> %base "TZ_B-P_1_AB"
| 33>
| 34> *xyz 0 1
| 35> B         2.196054    1.104660   -0.131038
| 36> P         1.418800   -0.541083    0.056641
| 37> C        -2.729179    0.228613   -0.050986
| 38> C        -0.348009   -0.534737   -0.442989
| 39> C        -1.282213    0.314615    0.410441
| 40> H        -0.693834   -1.570437   -0.463991
| 41> H        -0.360936   -0.189700   -1.479807
| 42> H        -0.942170    1.352166    0.384318
| 43> H        -1.207919   -0.003693    1.453212
| 44> H        -3.097213   -0.797917   -0.003277
| 45> H        -2.833278    0.569670   -1.082599
| 46> H        -3.379787    0.844430    0.570520
| 47> H         3.129014    1.390697    0.547321
| 48> H         1.880514    1.798428   -1.045488
| 49> H         1.399741   -0.851644    1.426572
| 50> *
| 51>
| 52> $new_job
| 53> ! ri-mp2 aug-cc-pvqz aug-cc-pvqz/c tightscf
| 54> %pal nprocs 16 end
| 55> %maxcore 3800
| 56> %base "QZ_B-P_1_AB"
| 57>
| 58> *xyz 0 1
| 59> B         2.196054    1.104660   -0.131038
| 60> P         1.418800   -0.541083    0.056641
| 61> C        -2.729179    0.228613   -0.050986
| 62> C        -0.348009   -0.534737   -0.442989
| 63> C        -1.282213    0.314615    0.410441
| 64> H        -0.693834   -1.570437   -0.463991
| 65> H        -0.360936   -0.189700   -1.479807
| 66> H        -0.942170    1.352166    0.384318
| 67> H        -1.207919   -0.003693    1.453212
| 68> H        -3.097213   -0.797917   -0.003277
| 69> H        -2.833278    0.569670   -1.082599
| 70> H        -3.379787    0.844430    0.570520
| 71> H         3.129014    1.390697    0.547321
| 72> H         1.880514    1.798428   -1.045488
| 73> H         1.399741   -0.851644    1.426572
| 74> *
| 75>
| 76>
| 77>
| 78>
| 79>                          ****END OF INPUT****
 Total Charge           Charge          ....    0
 Multiplicity           Mult            ....    1
 Number of Electrons    NEL             ....   48
MP2 TOTAL ENERGY:     -485.513528048 Eh
FINAL SINGLE POINT ENERGY      -485.513528047529
MP2 TOTAL ENERGY:     -485.698556388 Eh
FINAL SINGLE POINT ENERGY      -485.698556387726

CARTESIAN COORDINATES (ANGSTROEM)
---------------------------------
  B      2.196054    1.104660   -0.131038
  P      1.418800   -0.541083    0.056641
  C     -2.729179    0.228613   -0.050986
  C     -0.348009   -0.534737   -0.442989
  C     -1.282213    0.314615    0.410441
  H     -0.693834   -1.570437   -0.463991
  H     -0.360936   -0.189700   -1.479807
  H     -0.942170    1.352166    0.384318
  H     -1.207919   -0.003693    1.453212
  H     -3.097213   -0.797917   -0.003277
  H     -2.833278    0.569670   -1.082599
  H     -3.379787    0.844430    0.570520
  H      3.129014    1.390697    0.547321
  H      1.880514    1.798428   -1.045488
  H      1.399741   -0.851644    1.426572

 Multiplicity           Mult            ....    1
 Number of Electrons    NEL             ....   48
 Basis Dimension        Dim             ....  864

ORBITAL ENERGIES
----------------

  NO   OCC          E(Eh)            E(eV)
   0   2.0000     -79.919311     -2174.7150
   1   2.0000     -11.236568      -305.7626
   2   2.0000     -11.228617      -305.5462
   3   2.0000     -11.216783      -305.2242
   4   2.0000      -7.601155      -206.8379
   5   2.0000      -7.466152      -203.1643
   6   2.0000      -5.360819      -145.8753
   7   2.0000      -5.360714      -145.8724
   8   2.0000      -5.360191      -145.8582
   9   2.0000      -1.073739       -29.2179
  10   2.0000      -0.957215       -26.0472
  11   2.0000      -0.838492       -22.8165
  12   2.0000      -0.796953       -21.6862
  13   2.0000      -0.667448       -18.1622
  14   2.0000      -0.638599       -17.3772
  15   2.0000      -0.590810       -16.0768
  16   2.0000      -0.559329       -15.2201
  17   2.0000      -0.546945       -14.8831
  18   2.0000      -0.512915       -13.9571
  19   2.0000      -0.493166       -13.4197
  20   2.0000      -0.484588       -13.1863
  21   2.0000      -0.470528       -12.8037
  22   2.0000      -0.445487       -12.1223
  23   2.0000      -0.332298        -9.0423
  24   0.0000       0.023460         0.6384
  25   0.0000       0.029277         0.7967
  26   0.0000       0.031876         0.8674
  27   0.0000       0.033472         0.9108
  28   0.0000       0.042022         1.1435

MULLIKEN ATOMIC CHARGES
-----------------------
   0 B :    0.247711
   1 P :    0.268304
   2 C :   -0.858776
   3 C :   -0.599457
   4 C :   -0.345835
   5 H :    0.301281
   6 H :    0.230701
   7 H :    0.231065
   8 H :    0.250724
   9 H :    0.224602
  10 H :    0.225722
  11 H :    0.278915
  12 H :   -0.252999
  13 H :   -0.145062
  14 H :   -0.056897
Sum of atomic charges:    0.0000000

LOEWDIN ATOMIC CHARGES
----------------------
   0 B :    0.097844
   1 P :    1.318174
   2 C :    0.923439
   3 C :    0.312785
   4 C :    0.430165
   5 H :   -0.348779
   6 H :   -0.351969
   7 H :   -0.292253
   8 H :   -0.289384
   9 H :   -0.284919
  10 H :   -0.283456
  11 H :   -0.281913
  12 H :   -0.270325
  13 H :   -0.255024
  14 H :   -0.424386

  Mayer bond orders larger than 0.100000
B(  0-B ,  1-P ) :   1.3522 B(  0-B , 12-H ) :   0.9155 B(  0-B , 13-H ) :   0.9300
B(  1-P ,  3-C ) :   0.7917 B(  1-P , 14-H ) :   0.9695 B(  2-C ,  4-C ) :   0.9497
B(  2-C ,  9-H ) :   0.9578 B(  2-C , 10-H ) :   0.9624 B(  2-C , 11-H ) :   0.9720
B(  3-C ,  4-C ) :   0.8890 B(  3-C ,  5-H ) :   0.9058 B(  3-C ,  6-H ) :   0.9206
B(  4-C ,  7-H ) :   0.8901 B(  4-C ,  8-H ) :   0.8649

MP2 TOTAL ENERGY:     -485.754717316 Eh
FINAL SINGLE POINT ENERGY      -485.754717315679

DIPOLE MOMENT
-------------
                                X             Y             Z
Electronic contribution:      8.79635      -2.16301      -0.21788
Nuclear contribution   :     -9.46292       2.22266       0.36761
                        -----------------------------------------
Total Dipole Moment    :     -0.66657       0.05965       0.14972
                        -----------------------------------------
Magnitude (a.u.)       :      0.68578
Magnitude (Debye)      :      1.74312

Rotational constants in cm-1:     0.313551     0.058895     0.054145
Rotational constants in MHz :  9400.029153  1765.616506  1623.219355

                             ****ORCA TERMINATED NORMALLY****
TOTAL RUN TIME: 0 days 1 hours 3 minutes 20 seconds 388 msec
