                         Program Version 5.0.4 -  RELEASE  -
|  1> ! ri-mp2 aug-cc-pvdz aug-cc-pvdz/c tightscf
|  2> %pal nprocs 16 end
|  3> %maxcore 3800
|  4> %base "DZ_S-Cl_5_AB"
|  5> %scf
|  6> STABPerform true
|  7> STABRestartUHFifUnstable true
|  8> end
|  9>
| 10> *xyz 0 1
| 11> Cl        -1.366498    0.219260    0.000010
| 12> N         1.598312    0.597397    0.000003
| 13> S         0.537847   -0.635348   -0.000013
| 14> H         1.718362    1.128171    0.849195
| 15> H         1.718370    1.128190   -0.849177
| 16> *
| 17>
| 18> $new_job
| 19> ! ri-mp2 aug-cc-pvtz aug-cc-pvtz/c tightscf
| 20> %pal nprocs 16 end
| 21> %maxcore 3800
| 22> %base "TZ_S-Cl_5_AB"
| 23>
| 24> *xyz 0 1
| 25> Cl        -1.366498    0.219260    0.000010
| 26> N         1.598312    0.597397    0.000003
| 27> S         0.537847   -0.635348   -0.000013
| 28> H         1.718362    1.128171    0.849195
| 29> H         1.718370    1.128190   -0.849177
| 30> *
| 31>
| 32> $new_job
| 33> ! ri-mp2 aug-cc-pvqz aug-cc-pvqz/c tightscf
| 34> %pal nprocs 16 end
| 35> %maxcore 3800
| 36> %base "QZ_S-Cl_5_AB"
| 37>
| 38> *xyz 0 1
| 39> Cl        -1.366498    0.219260    0.000010
| 40> N         1.598312    0.597397    0.000003
| 41> S         0.537847   -0.635348   -0.000013
| 42> H         1.718362    1.128171    0.849195
| 43> H         1.718370    1.128190   -0.849177
| 44> *
| 45>
| 46>
| 47>
| 48>
| 49>                          ****END OF INPUT****
 Total Charge           Charge          ....    0
 Multiplicity           Mult            ....    1
 Number of Electrons    NEL             ....   42
MP2 TOTAL ENERGY:     -913.111335267 Eh
FINAL SINGLE POINT ENERGY      -913.111335266851
MP2 TOTAL ENERGY:     -913.282173906 Eh
FINAL SINGLE POINT ENERGY      -913.282173906106

CARTESIAN COORDINATES (ANGSTROEM)
---------------------------------
  Cl    -1.366498    0.219260    0.000010
  N      1.598312    0.597397    0.000003
  S      0.537847   -0.635348   -0.000013
  H      1.718362    1.128171    0.849195
  H      1.718370    1.128190   -0.849177

 Multiplicity           Mult            ....    1
 Number of Electrons    NEL             ....   42
 Basis Dimension        Dim             ....  340

ORBITAL ENERGIES
----------------

  NO   OCC          E(Eh)            E(eV)
   0   2.0000    -104.834339     -2852.6874
   1   2.0000     -92.036654     -2504.4447
   2   2.0000     -15.609430      -424.7542
   3   2.0000     -10.559104      -287.3278
   4   2.0000      -9.030501      -245.7324
   5   2.0000      -8.025952      -218.3973
   6   2.0000      -8.024311      -218.3526
   7   2.0000      -8.024092      -218.3467
   8   2.0000      -6.711690      -182.6344
   9   2.0000      -6.710076      -182.5904
  10   2.0000      -6.708707      -182.5532
  11   2.0000      -1.245180       -33.8831
  12   2.0000      -1.099069       -29.9072
  13   2.0000      -0.895483       -24.3673
  14   2.0000      -0.724972       -19.7275
  15   2.0000      -0.638596       -17.3771
  16   2.0000      -0.555287       -15.1101
  17   2.0000      -0.494841       -13.4653
  18   2.0000      -0.452375       -12.3097
  19   2.0000      -0.432867       -11.7789
  20   2.0000      -0.366050        -9.9607
  21   0.0000       0.023578         0.6416
  22   0.0000       0.039673         1.0796
  23   0.0000       0.052855         1.4383
  24   0.0000       0.061289         1.6678
  25   0.0000       0.088601         2.4110

MULLIKEN ATOMIC CHARGES
-----------------------
   0 Cl:   -0.303206
   1 N :   -0.776277
   2 S :    0.512846
   3 H :    0.283318
   4 H :    0.283319
Sum of atomic charges:   -0.0000000

LOEWDIN ATOMIC CHARGES
----------------------
   0 Cl:    0.352424
   1 N :    0.623465
   2 S :    0.303337
   3 H :   -0.639614
   4 H :   -0.639612

  Mayer bond orders larger than 0.100000
B(  0-Cl,  2-S ) :   0.8997 B(  1-N ,  2-S ) :   1.0927 B(  1-N ,  3-H ) :   0.9259
B(  1-N ,  4-H ) :   0.9259

MP2 TOTAL ENERGY:     -913.337922730 Eh
FINAL SINGLE POINT ENERGY      -913.337922729863

DIPOLE MOMENT
-------------
                                X             Y             Z
Electronic contribution:     -4.24748      -1.28409      -0.00000
Nuclear contribution   :      5.08433       1.85620       0.00000
                        -----------------------------------------
Total Dipole Moment    :      0.83685       0.57210       0.00000
                        -----------------------------------------
Magnitude (a.u.)       :      1.01372
Magnitude (Debye)      :      2.57667

Rotational constants in cm-1:     0.720013     0.142225     0.121249
Rotational constants in MHz : 21585.453656  4263.789328  3634.943091

                             ****ORCA TERMINATED NORMALLY****
TOTAL RUN TIME: 0 days 0 hours 3 minutes 17 seconds 976 msec
