                         Program Version 5.0.4 -  RELEASE  -
|  1> ! ri-mp2 aug-cc-pvdz aug-cc-pvdz/c tightscf
|  2> %pal nprocs 16 end
|  3> %maxcore 3800
|  4> %base "DZ_P-N_72_AB"
|  5> %scf
|  6> STABPerform true
|  7> STABRestartUHFifUnstable true
|  8> end
|  9>
| 10> *xyz 0 1
| 11> P         1.098270   -0.016531   -0.003992
| 12> N        -0.497634    0.580094    0.130611
| 13> O        -1.535322   -0.356078   -0.130349
| 14> H        -2.032589   -0.386405    0.694486
| 15> H         0.967297   -0.965095   -1.052923
| 16> H         1.023290   -0.991123    1.014622
| 17> H        -0.666040    1.378547   -0.467792
| 18> *
| 19>
| 20> $new_job
| 21> ! ri-mp2 aug-cc-pvtz aug-cc-pvtz/c tightscf
| 22> %pal nprocs 16 end
| 23> %maxcore 3800
| 24> %base "TZ_P-N_72_AB"
| 25>
| 26> *xyz 0 1
| 27> P         1.098270   -0.016531   -0.003992
| 28> N        -0.497634    0.580094    0.130611
| 29> O        -1.535322   -0.356078   -0.130349
| 30> H        -2.032589   -0.386405    0.694486
| 31> H         0.967297   -0.965095   -1.052923
| 32> H         1.023290   -0.991123    1.014622
| 33> H        -0.666040    1.378547   -0.467792
| 34> *
| 35>
| 36> $new_job
| 37> ! ri-mp2 aug-cc-pvqz aug-cc-pvqz/c tightscf
| 38> %pal nprocs 16 end
| 39> %maxcore 3800
| 40> %base "QZ_P-N_72_AB"
| 41>
| 42> *xyz 0 1
| 43> P         1.098270   -0.016531   -0.003992
| 44> N        -0.497634    0.580094    0.130611
| 45> O        -1.535322   -0.356078   -0.130349
| 46> H        -2.032589   -0.386405    0.694486
| 47> H         0.967297   -0.965095   -1.052923
| 48> H         1.023290   -0.991123    1.014622
| 49> H        -0.666040    1.378547   -0.467792
| 50> *
| 51>
| 52>
| 53>
| 54>
| 55>                          ****END OF INPUT****
 Total Charge           Charge          ....    0
 Multiplicity           Mult            ....    1
 Number of Electrons    NEL             ....   34
MP2 TOTAL ENERGY:     -472.840536311 Eh
FINAL SINGLE POINT ENERGY      -472.840536310746
MP2 TOTAL ENERGY:     -473.002336165 Eh
FINAL SINGLE POINT ENERGY      -473.002336164924

CARTESIAN COORDINATES (ANGSTROEM)
---------------------------------
  P      1.098270   -0.016531   -0.003992
  N     -0.497634    0.580094    0.130611
  O     -1.535322   -0.356078   -0.130349
  H     -2.032589   -0.386405    0.694486
  H      0.967297   -0.965095   -1.052923
  H      1.023290   -0.991123    1.014622
  H     -0.666040    1.378547   -0.467792

 Multiplicity           Mult            ....    1
 Number of Electrons    NEL             ....   34
 Basis Dimension        Dim             ....  428

ORBITAL ENERGIES
----------------

  NO   OCC          E(Eh)            E(eV)
   0   2.0000     -79.960503     -2175.8359
   1   2.0000     -20.599329      -560.5362
   2   2.0000     -15.611897      -424.8213
   3   2.0000      -7.500685      -204.1040
   4   2.0000      -5.394834      -146.8009
   5   2.0000      -5.394352      -146.7878
   6   2.0000      -5.393758      -146.7716
   7   2.0000      -1.411459       -38.4078
   8   2.0000      -1.102682       -30.0055
   9   2.0000      -0.832958       -22.6659
  10   2.0000      -0.704351       -19.1664
  11   2.0000      -0.664299       -18.0765
  12   2.0000      -0.609752       -16.5922
  13   2.0000      -0.535191       -14.5633
  14   2.0000      -0.491076       -13.3629
  15   2.0000      -0.412943       -11.2367
  16   2.0000      -0.378758       -10.3065
  17   0.0000       0.025715         0.6997
  18   0.0000       0.038275         1.0415
  19   0.0000       0.039495         1.0747
  20   0.0000       0.052348         1.4245
  21   0.0000       0.066376         1.8062

MULLIKEN ATOMIC CHARGES
-----------------------
   0 P :    0.492442
   1 N :   -0.396455
   2 O :   -0.566036
   3 H :    0.342362
   4 H :   -0.066198
   5 H :   -0.073846
   6 H :    0.267731
Sum of atomic charges:    0.0000000

LOEWDIN ATOMIC CHARGES
----------------------
   0 P :    1.297202
   1 N :    0.218150
   2 O :    1.019041
   3 H :   -0.853555
   4 H :   -0.485318
   5 H :   -0.498658
   6 H :   -0.696861

  Mayer bond orders larger than 0.100000
B(  0-P ,  1-N ) :   0.8432 B(  0-P ,  4-H ) :   0.8877 B(  0-P ,  5-H ) :   0.9098
B(  1-N ,  2-O ) :   0.7980 B(  1-N ,  6-H ) :   0.9240 B(  2-O ,  3-H ) :   0.9068

MP2 TOTAL ENERGY:     -473.054903342 Eh
FINAL SINGLE POINT ENERGY      -473.054903341598

DIPOLE MOMENT
-------------
                                X             Y             Z
Electronic contribution:      1.49740       0.98453      -0.00928
Nuclear contribution   :     -1.74942      -0.93362       0.18751
                        -----------------------------------------
Total Dipole Moment    :     -0.25201       0.05092       0.17822
                        -----------------------------------------
Magnitude (a.u.)       :      0.31284
Magnitude (Debye)      :      0.79517

Rotational constants in cm-1:     1.201098     0.190632     0.175687
Rotational constants in MHz : 36008.020575  5715.013980  5266.949120

                             ****ORCA TERMINATED NORMALLY****
TOTAL RUN TIME: 0 days 0 hours 7 minutes 19 seconds 145 msec
