                         Program Version 5.0.4 -  RELEASE  -
|  1> ! ri-mp2 aug-cc-pvdz aug-cc-pvdz/c tightscf
|  2> %pal nprocs 16 end
|  3> %maxcore 3800
|  4> %base "DZ_Si-Si_49_A"
|  5> %scf
|  6> STABPerform true
|  7> STABRestartUHFifUnstable true
|  8> end
|  9>
| 10> *xyz 0 2
| 11> Si         1.593466   -0.453602   -0.085470
| 12> C        -0.018690    0.536635    0.013057
| 13> O        -0.142296    1.708439    0.023660
| 14> H         2.720636    0.388981    0.356774
| 15> H         1.475455   -1.744300    0.612788
| 16> Cl        -1.485536   -0.540093   -0.002388
| 17> *
| 18>
| 19> $new_job
| 20> ! ri-mp2 aug-cc-pvtz aug-cc-pvtz/c tightscf
| 21> %pal nprocs 16 end
| 22> %maxcore 3800
| 23> %base "TZ_Si-Si_49_A"
| 24>
| 25> *xyz 0 2
| 26> Si         1.593466   -0.453602   -0.085470
| 27> C        -0.018690    0.536635    0.013057
| 28> O        -0.142296    1.708439    0.023660
| 29> H         2.720636    0.388981    0.356774
| 30> H         1.475455   -1.744300    0.612788
| 31> Cl        -1.485536   -0.540093   -0.002388
| 32> *
| 33>
| 34> $new_job
| 35> ! ri-mp2 aug-cc-pvqz aug-cc-pvqz/c tightscf
| 36> %pal nprocs 16 end
| 37> %maxcore 3800
| 38> %base "QZ_Si-Si_49_A"
| 39>
| 40> *xyz 0 2
| 41> Si         1.593466   -0.453602   -0.085470
| 42> C        -0.018690    0.536635    0.013057
| 43> O        -0.142296    1.708439    0.023660
| 44> H         2.720636    0.388981    0.356774
| 45> H         1.475455   -1.744300    0.612788
| 46> Cl        -1.485536   -0.540093   -0.002388
| 47> *
| 48>
| 49>
| 50>
| 51>
| 52>                          ****END OF INPUT****
 Total Charge           Charge          ....    0
 Multiplicity           Mult            ....    2
 Number of Electrons    NEL             ....   47
MP2 TOTAL ENERGY:     -862.859830664 Eh
FINAL SINGLE POINT ENERGY      -862.859830664369
MP2 TOTAL ENERGY:     -863.044356121 Eh
FINAL SINGLE POINT ENERGY      -863.044356120893

CARTESIAN COORDINATES (ANGSTROEM)
---------------------------------
  Si     1.593466   -0.453602   -0.085470
  C     -0.018690    0.536635    0.013057
  O     -0.142296    1.708439    0.023660
  H      2.720636    0.388981    0.356774
  H      1.475455   -1.744300    0.612788
  Cl    -1.485536   -0.540093   -0.002388

 Multiplicity           Mult            ....    2
 Number of Electrons    NEL             ....   47
 Basis Dimension        Dim             ....  420

ORBITAL ENERGIES
----------------
                 SPIN UP ORBITALS
  NO   OCC          E(Eh)            E(eV)
   0   1.0000    -104.843574     -2852.9387
   1   1.0000     -68.824956     -1872.8223
   2   1.0000     -20.610593      -560.8428
   3   1.0000     -11.397690      -310.1469
   4   1.0000     -10.569697      -287.6161
   5   1.0000      -8.036588      -218.6867
   6   1.0000      -8.034846      -218.6393
   7   1.0000      -8.034797      -218.6380
   8   1.0000      -6.175778      -168.0515
   9   1.0000      -4.288697      -116.7014
  10   1.0000      -4.278633      -116.4275
  11   1.0000      -4.278147      -116.4143
  12   1.0000      -1.466762       -39.9126
  13   1.0000      -1.121721       -30.5236
  14   1.0000      -0.852476       -23.1970
  15   1.0000      -0.740882       -20.1604
  16   1.0000      -0.666482       -18.1359
  17   1.0000      -0.634204       -17.2576
  18   1.0000      -0.618955       -16.8426
  19   1.0000      -0.531788       -14.4707
  20   1.0000      -0.472115       -12.8469
  21   1.0000      -0.465921       -12.6783
  22   1.0000      -0.437785       -11.9127
  23   1.0000      -0.367373        -9.9967
  24   0.0000       0.023201         0.6313
  25   0.0000       0.037273         1.0143
  26   0.0000       0.038917         1.0590
  27   0.0000       0.039123         1.0646
  28   0.0000       0.060831         1.6553

                 SPIN DOWN ORBITALS
  NO   OCC          E(Eh)            E(eV)
   0   1.0000    -104.843615     -2852.9398
   1   1.0000     -68.818960     -1872.6591
   2   1.0000     -20.603948      -560.6619
   3   1.0000     -11.400509      -310.2236
   4   1.0000     -10.569750      -287.6175
   5   1.0000      -8.036538      -218.6853
   6   1.0000      -8.034951      -218.6421
   7   1.0000      -8.034918      -218.6412
   8   1.0000      -6.166622      -167.8023
   9   1.0000      -4.274392      -116.3121
  10   1.0000      -4.274022      -116.3021
  11   1.0000      -4.265423      -116.0681
  12   1.0000      -1.453128       -39.5416
  13   1.0000      -1.121313       -30.5125
  14   1.0000      -0.835252       -22.7284
  15   1.0000      -0.721067       -19.6212
  16   1.0000      -0.663556       -18.0563
  17   1.0000      -0.621721       -16.9179
  18   1.0000      -0.589047       -16.0288
  19   1.0000      -0.525446       -14.2981
  20   1.0000      -0.465821       -12.6756
  21   1.0000      -0.461981       -12.5712
  22   1.0000      -0.428974       -11.6730
  23   0.0000      -0.001377        -0.0375
  24   0.0000       0.025000         0.6803
  25   0.0000       0.037575         1.0225
  26   0.0000       0.039974         1.0878
  27   0.0000       0.046006         1.2519

MULLIKEN ATOMIC CHARGES AND SPIN POPULATIONS
--------------------------------------------
   0 Si:    0.858365    0.961553
   1 C :    0.280050   -0.121055
   2 O :   -0.565430    0.149040
   3 H :   -0.185422    0.005273
   4 H :   -0.174543    0.002906
   5 Cl:   -0.213020    0.002283
Sum of atomic charges         :   -0.0000000

LOEWDIN ATOMIC CHARGES AND SPIN POPULATIONS
-------------------------------------------
   0 Si:    0.896989    0.513943
   1 C :   -1.544677    0.130135
   2 O :    0.467034    0.096468
   3 H :   -0.358381    0.128175
   4 H :   -0.366740    0.129431
   5 Cl:    0.905775    0.001847

  Mayer bond orders larger than 0.100000
B(  0-Si,  1-C ) :   0.7366 B(  0-Si,  3-H ) :   0.9093 B(  0-Si,  4-H ) :   0.8897
B(  1-C ,  2-O ) :   1.7786 B(  1-C ,  5-Cl) :   0.9184

MP2 TOTAL ENERGY:     -863.107029473 Eh
FINAL SINGLE POINT ENERGY      -863.107029473299

DIPOLE MOMENT
-------------
                                X             Y             Z
Electronic contribution:     -4.89708      -0.15775      -0.90259
Nuclear contribution   :      5.87023      -0.49827       0.92316
                        -----------------------------------------
Total Dipole Moment    :      0.97315      -0.65602       0.02056
                        -----------------------------------------
Magnitude (a.u.)       :      1.17380
Magnitude (Debye)      :      2.98356

Rotational constants in cm-1:     0.240461     0.105424     0.073724
Rotational constants in MHz :  7208.827260  3160.519779  2210.202563

                             ****ORCA TERMINATED NORMALLY****
TOTAL RUN TIME: 0 days 0 hours 21 minutes 36 seconds 409 msec
