                         Program Version 5.0.4 -  RELEASE  -
|  1> ! ri-mp2 aug-cc-pvdz aug-cc-pvdz/c tightscf
|  2> %pal nprocs 16 end
|  3> %maxcore 3800
|  4> %base "DZ_P-C_29_AB"
|  5>
|  6> *xyz 0 1
|  7> C        -0.007562    0.050705    0.474595
|  8> C         0.630506   -1.170486    0.290524
|  9> C         1.948386   -1.225579   -0.126543
| 10> C         2.650930   -0.057088   -0.370663
| 11> C         2.024903    1.164758   -0.193946
| 12> C         0.705994    1.215886    0.223771
| 13> P        -2.573918   -0.146743   -0.566187
| 14> H         2.429578   -2.185447   -0.260537
| 15> H         3.681949   -0.099170   -0.695312
| 16> H         2.565682    2.083447   -0.379626
| 17> H         0.222401    2.175395    0.361854
| 18> H         0.086024   -2.088360    0.475843
| 19> C        -1.446314    0.112764    0.896431
| 20> H        -1.660333    1.060142    1.386537
| 21> H        -1.666781   -0.685655    1.606147
| 22> H        -2.319027    1.088597   -1.205990
| 23> H        -3.771776    0.306436    0.038873
| 24> *
| 25>
| 26> $new_job
| 27> ! ri-mp2 aug-cc-pvtz aug-cc-pvtz/c tightscf
| 28> %pal nprocs 16 end
| 29> %maxcore 3800
| 30> %base "TZ_P-C_29_AB"
| 31>
| 32> *xyz 0 1
| 33> C        -0.007562    0.050705    0.474595
| 34> C         0.630506   -1.170486    0.290524
| 35> C         1.948386   -1.225579   -0.126543
| 36> C         2.650930   -0.057088   -0.370663
| 37> C         2.024903    1.164758   -0.193946
| 38> C         0.705994    1.215886    0.223771
| 39> P        -2.573918   -0.146743   -0.566187
| 40> H         2.429578   -2.185447   -0.260537
| 41> H         3.681949   -0.099170   -0.695312
| 42> H         2.565682    2.083447   -0.379626
| 43> H         0.222401    2.175395    0.361854
| 44> H         0.086024   -2.088360    0.475843
| 45> C        -1.446314    0.112764    0.896431
| 46> H        -1.660333    1.060142    1.386537
| 47> H        -1.666781   -0.685655    1.606147
| 48> H        -2.319027    1.088597   -1.205990
| 49> H        -3.771776    0.306436    0.038873
| 50> *
| 51>
| 52> $new_job
| 53> ! ri-mp2 aug-cc-pvqz aug-cc-pvqz/c tightscf
| 54> %pal nprocs 16 end
| 55> %maxcore 3800
| 56> %base "QZ_P-C_29_AB"
| 57>
| 58> *xyz 0 1
| 59> C        -0.007562    0.050705    0.474595
| 60> C         0.630506   -1.170486    0.290524
| 61> C         1.948386   -1.225579   -0.126543
| 62> C         2.650930   -0.057088   -0.370663
| 63> C         2.024903    1.164758   -0.193946
| 64> C         0.705994    1.215886    0.223771
| 65> P        -2.573918   -0.146743   -0.566187
| 66> H         2.429578   -2.185447   -0.260537
| 67> H         3.681949   -0.099170   -0.695312
| 68> H         2.565682    2.083447   -0.379626
| 69> H         0.222401    2.175395    0.361854
| 70> H         0.086024   -2.088360    0.475843
| 71> C        -1.446314    0.112764    0.896431
| 72> H        -1.660333    1.060142    1.386537
| 73> H        -1.666781   -0.685655    1.606147
| 74> H        -2.319027    1.088597   -1.205990
| 75> H        -3.771776    0.306436    0.038873
| 76> *
| 77>
| 78>
| 79>
| 80>
| 81>                          ****END OF INPUT****
 Total Charge           Charge          ....    0
 Multiplicity           Mult            ....    1
 Number of Electrons    NEL             ....   66
MP2 TOTAL ENERGY:     -612.169590926 Eh
FINAL SINGLE POINT ENERGY      -612.169590926378
MP2 TOTAL ENERGY:     -612.454957003 Eh
FINAL SINGLE POINT ENERGY      -612.454957003041

CARTESIAN COORDINATES (ANGSTROEM)
---------------------------------
  C     -0.007562    0.050705    0.474595
  C      0.630506   -1.170486    0.290524
  C      1.948386   -1.225579   -0.126543
  C      2.650930   -0.057088   -0.370663
  C      2.024903    1.164758   -0.193946
  C      0.705994    1.215886    0.223771
  P     -2.573918   -0.146743   -0.566187
  H      2.429578   -2.185447   -0.260537
  H      3.681949   -0.099170   -0.695312
  H      2.565682    2.083447   -0.379626
  H      0.222401    2.175395    0.361854
  H      0.086024   -2.088360    0.475843
  C     -1.446314    0.112764    0.896431
  H     -1.660333    1.060142    1.386537
  H     -1.666781   -0.685655    1.606147
  H     -2.319027    1.088597   -1.205990
  H     -3.771776    0.306436    0.038873

 Multiplicity           Mult            ....    1
 Number of Electrons    NEL             ....   66
 Basis Dimension        Dim             .... 1058

ORBITAL ENERGIES
----------------

  NO   OCC          E(Eh)            E(eV)
   0   2.0000     -79.937280     -2175.2040
   1   2.0000     -11.243765      -305.9584
   2   2.0000     -11.238724      -305.8212
   3   2.0000     -11.233191      -305.6707
   4   2.0000     -11.232896      -305.6626
   5   2.0000     -11.230105      -305.5867
   6   2.0000     -11.229488      -305.5699
   7   2.0000     -11.229040      -305.5577
   8   2.0000      -7.480055      -203.5427
   9   2.0000      -5.373890      -146.2310
  10   2.0000      -5.373730      -146.2266
  11   2.0000      -5.372671      -146.1978
  12   2.0000      -1.162919       -31.6446
  13   2.0000      -1.058347       -28.7991
  14   2.0000      -1.018363       -27.7111
  15   2.0000      -0.954608       -25.9762
  16   2.0000      -0.831441       -22.6246
  17   2.0000      -0.825900       -22.4739
  18   2.0000      -0.781075       -21.2541
  19   2.0000      -0.697900       -18.9908
  20   2.0000      -0.645619       -17.5682
  21   2.0000      -0.636316       -17.3150
  22   2.0000      -0.589311       -16.0360
  23   2.0000      -0.585074       -15.9207
  24   2.0000      -0.562460       -15.3053
  25   2.0000      -0.538483       -14.6529
  26   2.0000      -0.509311       -13.8590
  27   2.0000      -0.492874       -13.4118
  28   2.0000      -0.486649       -13.2424
  29   2.0000      -0.473302       -12.8792
  30   2.0000      -0.367353        -9.9962
  31   2.0000      -0.339180        -9.2296
  32   2.0000      -0.325732        -8.8636
  33   0.0000       0.024692         0.6719
  34   0.0000       0.028037         0.7629
  35   0.0000       0.029606         0.8056
  36   0.0000       0.039240         1.0678
  37   0.0000       0.040635         1.1057

MULLIKEN ATOMIC CHARGES
-----------------------
   0 C :    0.448528
   1 C :   -0.464858
   2 C :   -0.295861
   3 C :   -0.315445
   4 C :   -0.302641
   5 C :   -0.493703
   6 P :    0.269752
   7 H :    0.238968
   8 H :    0.327828
   9 H :    0.235280
  10 H :    0.285045
  11 H :    0.285756
  12 C :   -0.559744
  13 H :    0.234586
  14 H :    0.269126
  15 H :   -0.076633
  16 H :   -0.085986
Sum of atomic charges:   -0.0000000

LOEWDIN ATOMIC CHARGES
----------------------
   0 C :   -0.195519
   1 C :    0.315870
   2 C :    0.341513
   3 C :    0.333917
   4 C :    0.341064
   5 C :    0.323077
   6 P :    1.526399
   7 H :   -0.319601
   8 H :   -0.323725
   9 H :   -0.320158
  10 H :   -0.317379
  11 H :   -0.316976
  12 C :    0.269318
  13 H :   -0.359371
  14 H :   -0.363071
  15 H :   -0.462096
  16 H :   -0.473262

  Mayer bond orders larger than 0.100000
B(  0-C ,  1-C ) :   1.0333 B(  0-C ,  2-C ) :  -0.3299 B(  0-C ,  4-C ) :  -0.3480
B(  0-C ,  5-C ) :   1.0085 B(  0-C , 12-C ) :   0.7955 B(  1-C ,  2-C ) :   1.3847
B(  1-C ,  4-C ) :   0.1538 B(  1-C ,  7-H ) :  -0.1252 B(  1-C , 11-H ) :   0.9690
B(  1-C , 12-C ) :  -0.1617 B(  2-C ,  3-C ) :   1.1106 B(  2-C ,  4-C ) :  -0.1016
B(  2-C ,  5-C ) :   0.1593 B(  2-C ,  7-H ) :   1.1267 B(  3-C ,  4-C ) :   1.1315
B(  3-C ,  7-H ) :  -0.1095 B(  3-C ,  8-H ) :   1.0000 B(  3-C ,  9-H ) :  -0.1031
B(  4-C ,  5-C ) :   1.3834 B(  4-C ,  9-H ) :   1.1341 B(  5-C ,  9-H ) :  -0.1298
B(  5-C , 10-H ) :   0.9684 B(  5-C , 12-C ) :  -0.1439 B(  6-P , 12-C ) :   0.8860
B(  6-P , 15-H ) :   0.9378 B(  6-P , 16-H ) :   0.9192 B( 12-C , 13-H ) :   0.9987
B( 12-C , 14-H ) :   0.9656

MP2 TOTAL ENERGY:     -612.544622281 Eh
FINAL SINGLE POINT ENERGY      -612.544622281300

DIPOLE MOMENT
-------------
                                X             Y             Z
Electronic contribution:     -1.93367      -1.53331      -1.52736
Nuclear contribution   :      2.01628       1.79268       1.86445
                        -----------------------------------------
Total Dipole Moment    :      0.08261       0.25937       0.33709
                        -----------------------------------------
Magnitude (a.u.)       :      0.43327
Magnitude (Debye)      :      1.10128

Rotational constants in cm-1:     0.136258     0.033367     0.029953
Rotational constants in MHz :  4084.912397  1000.310930   897.982992

                             ****ORCA TERMINATED NORMALLY****
TOTAL RUN TIME: 0 days 0 hours 34 minutes 27 seconds 682 msec
