                         Program Version 5.0.4 -  RELEASE  -
|  1> ! ri-mp2 aug-cc-pvdz aug-cc-pvdz/c tightscf
|  2> %pal nprocs 16 end
|  3> %maxcore 3800
|  4> %base "DZ_Si-Cl_54_AB"
|  5> %scf
|  6> STABPerform true
|  7> STABRestartUHFifUnstable true
|  8> end
|  9>
| 10> *xyz 0 1
| 11> Si        -0.298089   -0.098114    0.550919
| 12> C         1.540079   -0.042484    0.063626
| 13> Cl        -1.179799   -1.643548   -0.435824
| 14> Cl        -1.225053    1.660127    0.027413
| 15> N         1.999233    0.921850   -0.757729
| 16> H         1.395633    1.647145   -1.102539
| 17> H         2.975718    0.927397   -1.008626
| 18> O         2.234784   -0.922640    0.533654
| 19> H        -0.429000   -0.299710    1.994411
| 20> *
| 21>
| 22> $new_job
| 23> ! ri-mp2 aug-cc-pvtz aug-cc-pvtz/c tightscf
| 24> %pal nprocs 16 end
| 25> %maxcore 3800
| 26> %base "TZ_Si-Cl_54_AB"
| 27>
| 28> *xyz 0 1
| 29> Si        -0.298089   -0.098114    0.550919
| 30> C         1.540079   -0.042484    0.063626
| 31> Cl        -1.179799   -1.643548   -0.435824
| 32> Cl        -1.225053    1.660127    0.027413
| 33> N         1.999233    0.921850   -0.757729
| 34> H         1.395633    1.647145   -1.102539
| 35> H         2.975718    0.927397   -1.008626
| 36> O         2.234784   -0.922640    0.533654
| 37> H        -0.429000   -0.299710    1.994411
| 38> *
| 39>
| 40> $new_job
| 41> ! ri-mp2 aug-cc-pvqz aug-cc-pvqz/c tightscf
| 42> %pal nprocs 16 end
| 43> %maxcore 3800
| 44> %base "QZ_Si-Cl_54_AB"
| 45>
| 46> *xyz 0 1
| 47> Si        -0.298089   -0.098114    0.550919
| 48> C         1.540079   -0.042484    0.063626
| 49> Cl        -1.179799   -1.643548   -0.435824
| 50> Cl        -1.225053    1.660127    0.027413
| 51> N         1.999233    0.921850   -0.757729
| 52> H         1.395633    1.647145   -1.102539
| 53> H         2.975718    0.927397   -1.008626
| 54> O         2.234784   -0.922640    0.533654
| 55> H        -0.429000   -0.299710    1.994411
| 56> *
| 57>
| 58>
| 59>
| 60>
| 61>                          ****END OF INPUT****
 Total Charge           Charge          ....    0
 Multiplicity           Mult            ....    1
 Number of Electrons    NEL             ....   72
MP2 TOTAL ENERGY:    -1377.907312182 Eh
FINAL SINGLE POINT ENERGY     -1377.907312182160
MP2 TOTAL ENERGY:    -1378.211949598 Eh
FINAL SINGLE POINT ENERGY     -1378.211949597560

CARTESIAN COORDINATES (ANGSTROEM)
---------------------------------
  Si    -0.298089   -0.098114    0.550919
  C      1.540079   -0.042484    0.063626
  Cl    -1.179799   -1.643548   -0.435824
  Cl    -1.225053    1.660127    0.027413
  N      1.999233    0.921850   -0.757729
  H      1.395633    1.647145   -1.102539
  H      2.975718    0.927397   -1.008626
  O      2.234784   -0.922640    0.533654
  H     -0.429000   -0.299710    1.994411

 Multiplicity           Mult            ....    1
 Number of Electrons    NEL             ....   72
 Basis Dimension        Dim             ....  630

ORBITAL ENERGIES
----------------

  NO   OCC          E(Eh)            E(eV)
   0   2.0000    -104.853548     -2853.2101
   1   2.0000    -104.847803     -2853.0538
   2   2.0000     -68.873476     -1874.1426
   3   2.0000     -20.542866      -558.9998
   4   2.0000     -15.604766      -424.6273
   5   2.0000     -11.357353      -309.0493
   6   2.0000     -10.581059      -287.9252
   7   2.0000     -10.575277      -287.7679
   8   2.0000      -8.047816      -218.9922
   9   2.0000      -8.046710      -218.9621
  10   2.0000      -8.046694      -218.9617
  11   2.0000      -8.042067      -218.8358
  12   2.0000      -8.040863      -218.8030
  13   2.0000      -8.040850      -218.8026
  14   2.0000      -6.214521      -169.1057
  15   2.0000      -4.321796      -117.6020
  16   2.0000      -4.320969      -117.5796
  17   2.0000      -4.320021      -117.5537
  18   2.0000      -1.401960       -38.1493
  19   2.0000      -1.233633       -33.5689
  20   2.0000      -1.136222       -30.9182
  21   2.0000      -1.107546       -30.1379
  22   2.0000      -0.854531       -23.2530
  23   2.0000      -0.772356       -21.0169
  24   2.0000      -0.718902       -19.5623
  25   2.0000      -0.663036       -18.0421
  26   2.0000      -0.600209       -16.3325
  27   2.0000      -0.590971       -16.0811
  28   2.0000      -0.566745       -15.4219
  29   2.0000      -0.558307       -15.1923
  30   2.0000      -0.512340       -13.9415
  31   2.0000      -0.491906       -13.3854
  32   2.0000      -0.481421       -13.1001
  33   2.0000      -0.474897       -12.9226
  34   2.0000      -0.433404       -11.7935
  35   2.0000      -0.415624       -11.3097
  36   0.0000       0.020149         0.5483
  37   0.0000       0.035425         0.9640
  38   0.0000       0.038632         1.0512
  39   0.0000       0.041179         1.1205
  40   0.0000       0.053227         1.4484

MULLIKEN ATOMIC CHARGES
-----------------------
   0 Si:    1.693549
   1 C :    0.585860
   2 Cl:   -0.571351
   3 Cl:   -0.586167
   4 N :   -0.750726
   5 H :    0.383418
   6 H :    0.215114
   7 O :   -0.803608
   8 H :   -0.166089
Sum of atomic charges:   -0.0000000

LOEWDIN ATOMIC CHARGES
----------------------
   0 Si:   -1.186525
   1 C :   -0.965192
   2 Cl:    0.908325
   3 Cl:    0.900599
   4 N :    1.146088
   5 H :   -0.572582
   6 H :   -0.497919
   7 O :    0.589293
   8 H :   -0.322088

  Mayer bond orders larger than 0.100000
B(  0-Si,  1-C ) :   0.8401 B(  0-Si,  2-Cl) :   0.5568 B(  0-Si,  3-Cl) :   0.4997
B(  0-Si,  8-H ) :   0.9353 B(  1-C ,  4-N ) :   1.1073 B(  1-C ,  7-O ) :   1.4582
B(  4-N ,  5-H ) :   0.8673 B(  4-N ,  6-H ) :   1.0156 B(  4-N ,  7-O ) :   0.1211

MP2 TOTAL ENERGY:    -1378.314867241 Eh
FINAL SINGLE POINT ENERGY     -1378.314867240663

DIPOLE MOMENT
-------------
                                X             Y             Z
Electronic contribution:     -7.06060      -0.98437      -0.84481
Nuclear contribution   :      6.99227       2.11041       0.41126
                        -----------------------------------------
Total Dipole Moment    :     -0.06833       1.12604      -0.43355
                        -----------------------------------------
Magnitude (a.u.)       :      1.20855
Magnitude (Debye)      :      3.07189

Rotational constants in cm-1:     0.065719     0.053570     0.033493
Rotational constants in MHz :  1970.197523  1605.990855  1004.081439

                             ****ORCA TERMINATED NORMALLY****
TOTAL RUN TIME: 0 days 0 hours 29 minutes 39 seconds 459 msec
