                         Program Version 5.0.4 -  RELEASE  -
|  1> ! ri-mp2 aug-cc-pvdz aug-cc-pvdz/c tightscf
|  2> %pal nprocs 16 end
|  3> %maxcore 3800
|  4> %base "DZ_Si-Cl_8_AB"
|  5> %scf
|  6> STABPerform true
|  7> STABRestartUHFifUnstable true
|  8> end
|  9>
| 10> *xyz 0 1
| 11> C        -2.200215    0.875475   -0.000032
| 12> C        -1.025203   -0.108613   -0.000006
| 13> Si         0.548472    0.915213   -0.000010
| 14> C        -1.086350   -0.985178    1.251988
| 15> Cl         2.215539   -0.305026    0.000021
| 16> H        -2.195550    1.516923    0.883533
| 17> H        -3.145356    0.325904   -0.000030
| 18> H        -1.055521   -0.389525    2.166263
| 19> H        -0.260520   -1.696490    1.286429
| 20> H        -2.018510   -1.556772    1.261801
| 21> C        -1.086329   -0.985220   -1.251972
| 22> H        -1.055485   -0.389598   -2.166266
| 23> H        -2.018490   -1.556814   -1.261781
| 24> H        -0.260500   -1.696534   -1.286374
| 25> H        -2.195536    1.516893   -0.883619
| 26> H         0.625628    1.759866    1.209146
| 27> H         0.625646    1.759829   -1.209190
| 28> *
| 29>
| 30> $new_job
| 31> ! ri-mp2 aug-cc-pvtz aug-cc-pvtz/c tightscf
| 32> %pal nprocs 16 end
| 33> %maxcore 3800
| 34> %base "TZ_Si-Cl_8_AB"
| 35>
| 36> *xyz 0 1
| 37> C        -2.200215    0.875475   -0.000032
| 38> C        -1.025203   -0.108613   -0.000006
| 39> Si         0.548472    0.915213   -0.000010
| 40> C        -1.086350   -0.985178    1.251988
| 41> Cl         2.215539   -0.305026    0.000021
| 42> H        -2.195550    1.516923    0.883533
| 43> H        -3.145356    0.325904   -0.000030
| 44> H        -1.055521   -0.389525    2.166263
| 45> H        -0.260520   -1.696490    1.286429
| 46> H        -2.018510   -1.556772    1.261801
| 47> C        -1.086329   -0.985220   -1.251972
| 48> H        -1.055485   -0.389598   -2.166266
| 49> H        -2.018490   -1.556814   -1.261781
| 50> H        -0.260500   -1.696534   -1.286374
| 51> H        -2.195536    1.516893   -0.883619
| 52> H         0.625628    1.759866    1.209146
| 53> H         0.625646    1.759829   -1.209190
| 54> *
| 55>
| 56> $new_job
| 57> ! ri-mp2 aug-cc-pvqz aug-cc-pvqz/c tightscf
| 58> %pal nprocs 16 end
| 59> %maxcore 3800
| 60> %base "QZ_Si-Cl_8_AB"
| 61>
| 62> *xyz 0 1
| 63> C        -2.200215    0.875475   -0.000032
| 64> C        -1.025203   -0.108613   -0.000006
| 65> Si         0.548472    0.915213   -0.000010
| 66> C        -1.086350   -0.985178    1.251988
| 67> Cl         2.215539   -0.305026    0.000021
| 68> H        -2.195550    1.516923    0.883533
| 69> H        -3.145356    0.325904   -0.000030
| 70> H        -1.055521   -0.389525    2.166263
| 71> H        -0.260520   -1.696490    1.286429
| 72> H        -2.018510   -1.556772    1.261801
| 73> C        -1.086329   -0.985220   -1.251972
| 74> H        -1.055485   -0.389598   -2.166266
| 75> H        -2.018490   -1.556814   -1.261781
| 76> H        -0.260500   -1.696534   -1.286374
| 77> H        -2.195536    1.516893   -0.883619
| 78> H         0.625628    1.759866    1.209146
| 79> H         0.625646    1.759829   -1.209190
| 80> *
| 81>
| 82>
| 83>
| 84>
| 85>                          ****END OF INPUT****
 Total Charge           Charge          ....    0
 Multiplicity           Mult            ....    1
 Number of Electrons    NEL             ....   66
MP2 TOTAL ENERGY:     -907.249902633 Eh
FINAL SINGLE POINT ENERGY      -907.249902632965
MP2 TOTAL ENERGY:     -907.504596097 Eh
FINAL SINGLE POINT ENERGY      -907.504596097354

CARTESIAN COORDINATES (ANGSTROEM)
---------------------------------
  C     -2.200215    0.875475   -0.000032
  C     -1.025203   -0.108613   -0.000006
  Si     0.548472    0.915213   -0.000010
  C     -1.086350   -0.985178    1.251988
  Cl     2.215539   -0.305026    0.000021
  H     -2.195550    1.516923    0.883533
  H     -3.145356    0.325904   -0.000030
  H     -1.055521   -0.389525    2.166263
  H     -0.260520   -1.696490    1.286429
  H     -2.018510   -1.556772    1.261801
  C     -1.086329   -0.985220   -1.251972
  H     -1.055485   -0.389598   -2.166266
  H     -2.018490   -1.556814   -1.261781
  H     -0.260500   -1.696534   -1.286374
  H     -2.195536    1.516893   -0.883619
  H      0.625628    1.759866    1.209146
  H      0.625646    1.759829   -1.209190

 Multiplicity           Mult            ....    1
 Number of Electrons    NEL             ....   66
 Basis Dimension        Dim             ....  994

ORBITAL ENERGIES
----------------

  NO   OCC          E(Eh)            E(eV)
   0   2.0000    -104.818962     -2852.2690
   1   2.0000     -68.801048     -1872.1717
   2   2.0000     -11.230128      -305.5873
   3   2.0000     -11.225411      -305.4590
   4   2.0000     -11.220431      -305.3235
   5   2.0000     -11.220402      -305.3227
   6   2.0000     -10.546509      -286.9851
   7   2.0000      -8.013319      -218.0535
   8   2.0000      -8.012251      -218.0244
   9   2.0000      -8.012237      -218.0240
  10   2.0000      -6.147767      -167.2893
  11   2.0000      -4.254679      -115.7757
  12   2.0000      -4.253606      -115.7465
  13   2.0000      -4.253020      -115.7306
  14   2.0000      -1.102917       -30.0119
  15   2.0000      -1.082440       -29.4547
  16   2.0000      -0.942886       -25.6572
  17   2.0000      -0.940357       -25.5884
  18   2.0000      -0.784195       -21.3390
  19   2.0000      -0.695191       -18.9171
  20   2.0000      -0.615661       -16.7530
  21   2.0000      -0.610125       -16.6023
  22   2.0000      -0.606688       -16.5088
  23   2.0000      -0.553109       -15.0509
  24   2.0000      -0.552951       -15.0466
  25   2.0000      -0.524696       -14.2777
  26   2.0000      -0.513240       -13.9660
  27   2.0000      -0.510794       -13.8994
  28   2.0000      -0.478174       -13.0118
  29   2.0000      -0.476563       -12.9679
  30   2.0000      -0.469780       -12.7834
  31   2.0000      -0.442571       -12.0430
  32   2.0000      -0.404613       -11.0101
  33   0.0000       0.023034         0.6268
  34   0.0000       0.031977         0.8701
  35   0.0000       0.032139         0.8746
  36   0.0000       0.034935         0.9506
  37   0.0000       0.047506         1.2927

MULLIKEN ATOMIC CHARGES
-----------------------
   0 C :   -1.163428
   1 C :    1.132509
   2 Si:    1.497824
   3 C :   -1.114568
   4 Cl:   -0.765680
   5 H :    0.246431
   6 H :    0.255202
   7 H :    0.247046
   8 H :    0.239137
   9 H :    0.251280
  10 C :   -1.114567
  11 H :    0.247046
  12 H :    0.251278
  13 H :    0.239138
  14 H :    0.246431
  15 H :   -0.347540
  16 H :   -0.347540
Sum of atomic charges:    0.0000000

LOEWDIN ATOMIC CHARGES
----------------------
   0 C :    0.832617
   1 C :   -0.366473
   2 Si:   -0.050561
   3 C :    0.827477
   4 Cl:    0.948447
   5 H :   -0.280613
   6 H :   -0.270017
   7 H :   -0.281647
   8 H :   -0.296847
   9 H :   -0.271553
  10 C :    0.827477
  11 H :   -0.281648
  12 H :   -0.271552
  13 H :   -0.296848
  14 H :   -0.280613
  15 H :   -0.243823
  16 H :   -0.243824

  Mayer bond orders larger than 0.100000
B(  0-C ,  1-C ) :   0.4783 B(  0-C ,  2-Si) :   0.1237 B(  0-C ,  3-C ) :   0.1334
B(  0-C ,  5-H ) :   1.0242 B(  0-C ,  6-H ) :   0.9908 B(  0-C , 10-C ) :   0.1334
B(  0-C , 14-H ) :   1.0242 B(  1-C ,  2-Si) :   0.6807 B(  1-C ,  3-C ) :   0.4314
B(  1-C ,  4-Cl) :  -0.2701 B(  1-C ,  6-H ) :  -0.1008 B(  1-C ,  8-H ) :  -0.1014
B(  1-C ,  9-H ) :  -0.1090 B(  1-C , 10-C ) :   0.4314 B(  1-C , 12-H ) :  -0.1090
B(  1-C , 13-H ) :  -0.1014 B(  2-Si,  4-Cl) :   0.2206 B(  2-Si, 15-H ) :   0.7626
B(  2-Si, 16-H ) :   0.7626 B(  3-C ,  7-H ) :   1.0226 B(  3-C ,  8-H ) :   1.0261
B(  3-C ,  9-H ) :   0.9985 B(  3-C , 10-C ) :   0.1310 B( 10-C , 11-H ) :   1.0226
B( 10-C , 12-H ) :   0.9985 B( 10-C , 13-H ) :   1.0261

MP2 TOTAL ENERGY:     -907.583892980 Eh
FINAL SINGLE POINT ENERGY      -907.583892980308

DIPOLE MOMENT
-------------
                                X             Y             Z
Electronic contribution:     15.53642       0.16870       0.00011
Nuclear contribution   :    -16.32599      -0.02576      -0.00012
                        -----------------------------------------
Total Dipole Moment    :     -0.78957       0.14294      -0.00001
                        -----------------------------------------
Magnitude (a.u.)       :      0.80240
Magnitude (Debye)      :      2.03954

Rotational constants in cm-1:     0.120756     0.045710     0.043000
Rotational constants in MHz :  3620.160023  1370.340815  1289.110222

                             ****ORCA TERMINATED NORMALLY****
TOTAL RUN TIME: 0 days 2 hours 49 minutes 22 seconds 441 msec
