                         Program Version 5.0.4 -  RELEASE  -
|  1> ! ri-mp2 aug-cc-pvdz aug-cc-pvdz/c tightscf
|  2> %pal nprocs 16 end
|  3> %maxcore 3800
|  4> %base "DZ_P-O_10_AB"
|  5> %scf
|  6> STABPerform true
|  7> STABRestartUHFifUnstable true
|  8> end
|  9>
| 10> *xyz 0 1
| 11> O        -0.091207    0.300411   -0.325902
| 12> P        -1.580086   -0.099324   -0.043189
| 13> O        -2.009785   -1.432582   -0.452613
| 14> C         0.983652   -0.540503    0.128402
| 15> C         2.294257    0.023401   -0.375142
| 16> C         2.535154    1.429035    0.155552
| 17> H         1.719905    2.098087   -0.114502
| 18> H         3.461922    1.840142   -0.245865
| 19> H         2.618194    1.419828    1.245193
| 20> C         3.426381   -0.922075    0.004441
| 21> H         2.225883    0.067632   -1.466087
| 22> H         3.514826   -1.009254    1.089849
| 23> H         4.379063   -0.552154   -0.374131
| 24> H         3.270144   -1.922465   -0.401724
| 25> H         0.817612   -1.550733   -0.248220
| 26> H         0.969417   -0.563251    1.221478
| 27> O        -1.717900    0.194540    1.510272
| 28> H        -2.409809   -0.335553    1.920773
| 29> O        -2.368778    1.092938   -0.721921
| 30> H        -2.801166    0.815975   -1.537133
| 31> *
| 32>
| 33> $new_job
| 34> ! ri-mp2 aug-cc-pvtz aug-cc-pvtz/c tightscf
| 35> %pal nprocs 16 end
| 36> %maxcore 3800
| 37> %base "TZ_P-O_10_AB"
| 38>
| 39> *xyz 0 1
| 40> O        -0.091207    0.300411   -0.325902
| 41> P        -1.580086   -0.099324   -0.043189
| 42> O        -2.009785   -1.432582   -0.452613
| 43> C         0.983652   -0.540503    0.128402
| 44> C         2.294257    0.023401   -0.375142
| 45> C         2.535154    1.429035    0.155552
| 46> H         1.719905    2.098087   -0.114502
| 47> H         3.461922    1.840142   -0.245865
| 48> H         2.618194    1.419828    1.245193
| 49> C         3.426381   -0.922075    0.004441
| 50> H         2.225883    0.067632   -1.466087
| 51> H         3.514826   -1.009254    1.089849
| 52> H         4.379063   -0.552154   -0.374131
| 53> H         3.270144   -1.922465   -0.401724
| 54> H         0.817612   -1.550733   -0.248220
| 55> H         0.969417   -0.563251    1.221478
| 56> O        -1.717900    0.194540    1.510272
| 57> H        -2.409809   -0.335553    1.920773
| 58> O        -2.368778    1.092938   -0.721921
| 59> H        -2.801166    0.815975   -1.537133
| 60> *
| 61>
| 62> $new_job
| 63> ! ri-mp2 aug-cc-pvqz aug-cc-pvqz/c tightscf
| 64> %pal nprocs 16 end
| 65> %maxcore 3800
| 66> %base "QZ_P-O_10_AB"
| 67>
| 68> *xyz 0 1
| 69> O        -0.091207    0.300411   -0.325902
| 70> P        -1.580086   -0.099324   -0.043189
| 71> O        -2.009785   -1.432582   -0.452613
| 72> C         0.983652   -0.540503    0.128402
| 73> C         2.294257    0.023401   -0.375142
| 74> C         2.535154    1.429035    0.155552
| 75> H         1.719905    2.098087   -0.114502
| 76> H         3.461922    1.840142   -0.245865
| 77> H         2.618194    1.419828    1.245193
| 78> C         3.426381   -0.922075    0.004441
| 79> H         2.225883    0.067632   -1.466087
| 80> H         3.514826   -1.009254    1.089849
| 81> H         4.379063   -0.552154   -0.374131
| 82> H         3.270144   -1.922465   -0.401724
| 83> H         0.817612   -1.550733   -0.248220
| 84> H         0.969417   -0.563251    1.221478
| 85> O        -1.717900    0.194540    1.510272
| 86> H        -2.409809   -0.335553    1.920773
| 87> O        -2.368778    1.092938   -0.721921
| 88> H        -2.801166    0.815975   -1.537133
| 89> *
| 90>
| 91>
| 92>
| 93>
| 94>                          ****END OF INPUT****
 Total Charge           Charge          ....    0
 Multiplicity           Mult            ....    1
 Number of Electrons    NEL             ....   82
MP2 TOTAL ENERGY:     -799.749010195 Eh
FINAL SINGLE POINT ENERGY      -799.749010195387
MP2 TOTAL ENERGY:     -800.243038327 Eh
FINAL SINGLE POINT ENERGY      -800.243038326712

CARTESIAN COORDINATES (ANGSTROEM)
---------------------------------
  O     -0.091207    0.300411   -0.325902
  P     -1.580086   -0.099324   -0.043189
  O     -2.009785   -1.432582   -0.452613
  C      0.983652   -0.540503    0.128402
  C      2.294257    0.023401   -0.375142
  C      2.535154    1.429035    0.155552
  H      1.719905    2.098087   -0.114502
  H      3.461922    1.840142   -0.245865
  H      2.618194    1.419828    1.245193
  C      3.426381   -0.922075    0.004441
  H      2.225883    0.067632   -1.466087
  H      3.514826   -1.009254    1.089849
  H      4.379063   -0.552154   -0.374131
  H      3.270144   -1.922465   -0.401724
  H      0.817612   -1.550733   -0.248220
  H      0.969417   -0.563251    1.221478
  O     -1.717900    0.194540    1.510272
  H     -2.409809   -0.335553    1.920773
  O     -2.368778    1.092938   -0.721921
  H     -2.801166    0.815975   -1.537133

 Multiplicity           Mult            ....    1
 Number of Electrons    NEL             ....   82
 Basis Dimension        Dim             .... 1230

ORBITAL ENERGIES
----------------

  NO   OCC          E(Eh)            E(eV)
   0   2.0000     -80.090034     -2179.3606
   1   2.0000     -20.601415      -560.5930
   2   2.0000     -20.600127      -560.5580
   3   2.0000     -20.587388      -560.2113
   4   2.0000     -20.507475      -558.0368
   5   2.0000     -11.293005      -307.2983
   6   2.0000     -11.234189      -305.6978
   7   2.0000     -11.220266      -305.3190
   8   2.0000     -11.212087      -305.0964
   9   2.0000      -7.608479      -207.0372
  10   2.0000      -5.507306      -149.8614
  11   2.0000      -5.507145      -149.8570
  12   2.0000      -5.506091      -149.8284
  13   2.0000      -1.463000       -39.8102
  14   2.0000      -1.390961       -37.8500
  15   2.0000      -1.389788       -37.8180
  16   2.0000      -1.300411       -35.3860
  17   2.0000      -1.098242       -29.8847
  18   2.0000      -0.951689       -25.8968
  19   2.0000      -0.938885       -25.5484
  20   2.0000      -0.846581       -23.0366
  21   2.0000      -0.791475       -21.5371
  22   2.0000      -0.749280       -20.3889
  23   2.0000      -0.727960       -19.8088
  24   2.0000      -0.685819       -18.6621
  25   2.0000      -0.666881       -18.1468
  26   2.0000      -0.643719       -17.5165
  27   2.0000      -0.627647       -17.0791
  28   2.0000      -0.607162       -16.5217
  29   2.0000      -0.590345       -16.0641
  30   2.0000      -0.575466       -15.6592
  31   2.0000      -0.558502       -15.1976
  32   2.0000      -0.548857       -14.9351
  33   2.0000      -0.543132       -14.7794
  34   2.0000      -0.535900       -14.5826
  35   2.0000      -0.504235       -13.7209
  36   2.0000      -0.485284       -13.2052
  37   2.0000      -0.479349       -13.0438
  38   2.0000      -0.472048       -12.8451
  39   2.0000      -0.469538       -12.7768
  40   2.0000      -0.462585       -12.5876
  41   0.0000       0.024027         0.6538
  42   0.0000       0.029144         0.7930
  43   0.0000       0.030436         0.8282
  44   0.0000       0.035191         0.9576
  45   0.0000       0.042318         1.1515

MULLIKEN ATOMIC CHARGES
-----------------------
   0 O :   -0.982422
   1 P :    2.636692
   2 O :   -1.180716
   3 C :    0.269902
   4 C :    0.124021
   5 C :   -0.939634
   6 H :    0.297414
   7 H :    0.285831
   8 H :    0.176727
   9 C :   -0.914112
  10 H :    0.287353
  11 H :    0.186241
  12 H :    0.258241
  13 H :    0.237867
  14 H :    0.240058
  15 H :    0.163398
  16 O :   -0.916517
  17 H :    0.381195
  18 O :   -0.989959
  19 H :    0.378421
Sum of atomic charges:   -0.0000000

LOEWDIN ATOMIC CHARGES
----------------------
   0 O :    0.701543
   1 P :   -0.992146
   2 O :    0.318724
   3 C :    0.114590
   4 C :    0.068531
   5 C :    0.918320
   6 H :   -0.287391
   7 H :   -0.274133
   8 H :   -0.274582
   9 C :    0.919293
  10 H :   -0.272639
  11 H :   -0.273305
  12 H :   -0.274104
  13 H :   -0.272142
  14 H :   -0.301834
  15 H :   -0.293883
  16 O :    1.105027
  17 H :   -0.856541
  18 O :    1.093588
  19 H :   -0.866918

  Mayer bond orders larger than 0.100000
B(  0-O ,  1-P ) :   0.8662 B(  0-O ,  3-C ) :   0.6963 B(  1-P ,  2-O ) :   1.3775
B(  1-P , 16-O ) :   0.6299 B(  1-P , 18-O ) :   0.4537 B(  2-O ,  3-C ) :  -0.1445
B(  2-O , 14-H ) :   0.1273 B(  3-C ,  4-C ) :   0.8391 B(  3-C , 14-H ) :   0.8787
B(  3-C , 15-H ) :   0.8878 B(  3-C , 16-O ) :  -0.1438 B(  4-C ,  5-C ) :   0.6871
B(  4-C ,  9-C ) :   0.7312 B(  4-C , 10-H ) :   0.8817 B(  4-C , 12-H ) :  -0.1003
B(  5-C ,  6-H ) :   0.9627 B(  5-C ,  7-H ) :   0.9931 B(  5-C ,  8-H ) :   0.9975
B(  5-C ,  9-C ) :   0.1045 B(  9-C , 11-H ) :   0.9884 B(  9-C , 12-H ) :   1.0303
B(  9-C , 13-H ) :   1.0062 B( 15-H , 16-O ) :   0.1412 B( 16-O , 17-H ) :   0.9189
B( 18-O , 19-H ) :   0.9182

MP2 TOTAL ENERGY:     -800.399448262 Eh
FINAL SINGLE POINT ENERGY      -800.399448262219

DIPOLE MOMENT
-------------
                                X             Y             Z
Electronic contribution:    -18.77308      -0.18940      -0.91981
Nuclear contribution   :     19.16083       0.40503       1.13018
                        -----------------------------------------
Total Dipole Moment    :      0.38776       0.21563       0.21037
                        -----------------------------------------
Magnitude (a.u.)       :      0.49103
Magnitude (Debye)      :      1.24809

Rotational constants in cm-1:     0.095765     0.023425     0.022015
Rotational constants in MHz :  2870.962614   702.252283   659.979363

                             ****ORCA TERMINATED NORMALLY****
TOTAL RUN TIME: 0 days 4 hours 23 minutes 38 seconds 834 msec
