                         Program Version 5.0.4 -  RELEASE  -
|  1> ! ri-mp2 aug-cc-pvdz aug-cc-pvdz/c tightscf
|  2> %pal nprocs 16 end
|  3> %maxcore 3800
|  4> %base "DZ_B-Cl_80_AB"
|  5> %scf
|  6> STABPerform true
|  7> STABRestartUHFifUnstable true
|  8> end
|  9>
| 10> *xyz 0 1
| 11> Cl        -1.361333    1.510456   -0.008919
| 12> Cl        -1.361297   -1.510473   -0.008918
| 13> F         1.609620   -1.077580   -0.605596
| 14> F         1.609618    1.077721   -0.605379
| 15> F         1.500426   -0.000116    1.269101
| 16> C         1.079313    0.000011   -0.012916
| 17> B        -0.533629    0.000001   -0.028483
| 18> *
| 19>
| 20> $new_job
| 21> ! ri-mp2 aug-cc-pvtz aug-cc-pvtz/c tightscf
| 22> %pal nprocs 16 end
| 23> %maxcore 3800
| 24> %base "TZ_B-Cl_80_AB"
| 25>
| 26> *xyz 0 1
| 27> Cl        -1.361333    1.510456   -0.008919
| 28> Cl        -1.361297   -1.510473   -0.008918
| 29> F         1.609620   -1.077580   -0.605596
| 30> F         1.609618    1.077721   -0.605379
| 31> F         1.500426   -0.000116    1.269101
| 32> C         1.079313    0.000011   -0.012916
| 33> B        -0.533629    0.000001   -0.028483
| 34> *
| 35>
| 36> $new_job
| 37> ! ri-mp2 aug-cc-pvqz aug-cc-pvqz/c tightscf
| 38> %pal nprocs 16 end
| 39> %maxcore 3800
| 40> %base "QZ_B-Cl_80_AB"
| 41>
| 42> *xyz 0 1
| 43> Cl        -1.361333    1.510456   -0.008919
| 44> Cl        -1.361297   -1.510473   -0.008918
| 45> F         1.609620   -1.077580   -0.605596
| 46> F         1.609618    1.077721   -0.605379
| 47> F         1.500426   -0.000116    1.269101
| 48> C         1.079313    0.000011   -0.012916
| 49> B        -0.533629    0.000001   -0.028483
| 50> *
| 51>
| 52>
| 53>
| 54>
| 55>                          ****END OF INPUT****
 Total Charge           Charge          ....    0
 Multiplicity           Mult            ....    1
 Number of Electrons    NEL             ....   72
MP2 TOTAL ENERGY:    -1281.121028331 Eh
FINAL SINGLE POINT ENERGY     -1281.121028331184
MP2 TOTAL ENERGY:    -1281.539921934 Eh
FINAL SINGLE POINT ENERGY     -1281.539921933982

CARTESIAN COORDINATES (ANGSTROEM)
---------------------------------
  Cl    -1.361333    1.510456   -0.008919
  Cl    -1.361297   -1.510473   -0.008918
  F      1.609620   -1.077580   -0.605596
  F      1.609618    1.077721   -0.605379
  F      1.500426   -0.000116    1.269101
  C      1.079313    0.000011   -0.012916
  B     -0.533629    0.000001   -0.028483

 Multiplicity           Mult            ....    1
 Number of Electrons    NEL             ....   72
 Basis Dimension        Dim             ....  568

ORBITAL ENERGIES
----------------

  NO   OCC          E(Eh)            E(eV)
   0   2.0000    -104.874357     -2853.7763
   1   2.0000    -104.874357     -2853.7763
   2   2.0000     -26.345185      -716.8889
   3   2.0000     -26.344023      -716.8573
   4   2.0000     -26.344002      -716.8567
   5   2.0000     -11.502818      -313.0076
   6   2.0000     -10.602119      -288.4983
   7   2.0000     -10.602110      -288.4981
   8   2.0000      -8.068942      -219.5671
   9   2.0000      -8.068941      -219.5670
  10   2.0000      -8.067815      -219.5364
  11   2.0000      -8.067813      -219.5364
  12   2.0000      -8.067494      -219.5277
  13   2.0000      -8.067493      -219.5276
  14   2.0000      -7.752881      -210.9666
  15   2.0000      -1.736135       -47.2426
  16   2.0000      -1.641604       -44.6703
  17   2.0000      -1.641184       -44.6589
  18   2.0000      -1.181200       -32.1421
  19   2.0000      -1.136423       -30.9236
  20   2.0000      -0.990016       -26.9397
  21   2.0000      -0.852945       -23.2098
  22   2.0000      -0.828348       -22.5405
  23   2.0000      -0.828243       -22.5376
  24   2.0000      -0.718836       -19.5605
  25   2.0000      -0.718471       -19.5506
  26   2.0000      -0.695766       -18.9328
  27   2.0000      -0.673715       -18.3327
  28   2.0000      -0.672696       -18.3050
  29   2.0000      -0.657028       -17.8786
  30   2.0000      -0.606428       -16.5017
  31   2.0000      -0.592926       -16.1343
  32   2.0000      -0.548116       -14.9150
  33   2.0000      -0.496504       -13.5106
  34   2.0000      -0.493500       -13.4288
  35   2.0000      -0.486922       -13.2498
  36   0.0000       0.031671         0.8618
  37   0.0000       0.036962         1.0058
  38   0.0000       0.038068         1.0359
  39   0.0000       0.040559         1.1037
  40   0.0000       0.047731         1.2988

MULLIKEN ATOMIC CHARGES
-----------------------
   0 Cl:   -0.129006
   1 Cl:   -0.129004
   2 F :   -0.611818
   3 F :   -0.611815
   4 F :   -0.591052
   5 C :    1.622684
   6 B :    0.450010
Sum of atomic charges:   -0.0000000

LOEWDIN ATOMIC CHARGES
----------------------
   0 Cl:    1.296974
   1 Cl:    1.296977
   2 F :    0.719864
   3 F :    0.719863
   4 F :    0.722074
   5 C :   -2.233718
   6 B :   -2.522034

  Mayer bond orders larger than 0.100000
B(  0-Cl,  6-B ) :   1.1688 B(  1-Cl,  6-B ) :   1.1688 B(  2-F ,  5-C ) :   0.5788
B(  3-F ,  5-C ) :   0.5788 B(  4-F ,  5-C ) :   0.5386 B(  5-C ,  6-B ) :   0.9216

MP2 TOTAL ENERGY:    -1281.680335395 Eh
FINAL SINGLE POINT ENERGY     -1281.680335395431

DIPOLE MOMENT
-------------
                                X             Y             Z
Electronic contribution:     -0.33264       0.00001      -0.05731
Nuclear contribution   :     -0.30140      -0.00000      -0.00802
                        -----------------------------------------
Total Dipole Moment    :     -0.63404       0.00001      -0.06533
                        -----------------------------------------
Magnitude (a.u.)       :      0.63739
Magnitude (Debye)      :      1.62012

Rotational constants in cm-1:     0.067311     0.050438     0.034016
Rotational constants in MHz :  2017.942128  1512.078931  1019.770507

                             ****ORCA TERMINATED NORMALLY****
TOTAL RUN TIME: 0 days 0 hours 16 minutes 20 seconds 39 msec
