                         Program Version 5.0.4 -  RELEASE  -
|  1> ! ri-mp2 aug-cc-pvdz aug-cc-pvdz/c tightscf
|  2> %pal nprocs 16 end
|  3> %maxcore 3800
|  4> %base "DZ_Si-Cl_6_AB"
|  5> %scf
|  6> STABPerform true
|  7> STABRestartUHFifUnstable true
|  8> end
|  9>
| 10> *xyz 0 1
| 11> Si        -0.205899    0.899154    0.174304
| 12> C         1.447933    0.346919   -0.471683
| 13> C         2.021354   -0.884749    0.227626
| 14> H         1.363427   -1.746077    0.111538
| 15> H         2.149822   -0.711708    1.297216
| 16> H         2.995229   -1.154161   -0.181570
| 17> Cl        -1.592441   -0.610964   -0.079757
| 18> H         2.129226    1.197753   -0.367475
| 19> H         1.351251    0.167342   -1.545390
| 20> H        -0.704408    2.081244   -0.555009
| 21> H        -0.146178    1.190825    1.620650
| 22> *
| 23>
| 24> $new_job
| 25> ! ri-mp2 aug-cc-pvtz aug-cc-pvtz/c tightscf
| 26> %pal nprocs 16 end
| 27> %maxcore 3800
| 28> %base "TZ_Si-Cl_6_AB"
| 29>
| 30> *xyz 0 1
| 31> Si        -0.205899    0.899154    0.174304
| 32> C         1.447933    0.346919   -0.471683
| 33> C         2.021354   -0.884749    0.227626
| 34> H         1.363427   -1.746077    0.111538
| 35> H         2.149822   -0.711708    1.297216
| 36> H         2.995229   -1.154161   -0.181570
| 37> Cl        -1.592441   -0.610964   -0.079757
| 38> H         2.129226    1.197753   -0.367475
| 39> H         1.351251    0.167342   -1.545390
| 40> H        -0.704408    2.081244   -0.555009
| 41> H        -0.146178    1.190825    1.620650
| 42> *
| 43>
| 44> $new_job
| 45> ! ri-mp2 aug-cc-pvqz aug-cc-pvqz/c tightscf
| 46> %pal nprocs 16 end
| 47> %maxcore 3800
| 48> %base "QZ_Si-Cl_6_AB"
| 49>
| 50> *xyz 0 1
| 51> Si        -0.205899    0.899154    0.174304
| 52> C         1.447933    0.346919   -0.471683
| 53> C         2.021354   -0.884749    0.227626
| 54> H         1.363427   -1.746077    0.111538
| 55> H         2.149822   -0.711708    1.297216
| 56> H         2.995229   -1.154161   -0.181570
| 57> Cl        -1.592441   -0.610964   -0.079757
| 58> H         2.129226    1.197753   -0.367475
| 59> H         1.351251    0.167342   -1.545390
| 60> H        -0.704408    2.081244   -0.555009
| 61> H        -0.146178    1.190825    1.620650
| 62> *
| 63>
| 64>
| 65>
| 66>
| 67>                          ****END OF INPUT****
 Total Charge           Charge          ....    0
 Multiplicity           Mult            ....    1
 Number of Electrons    NEL             ....   50
MP2 TOTAL ENERGY:     -828.869290105 Eh
FINAL SINGLE POINT ENERGY      -828.869290104541
MP2 TOTAL ENERGY:     -829.050533586 Eh
FINAL SINGLE POINT ENERGY      -829.050533586258

CARTESIAN COORDINATES (ANGSTROEM)
---------------------------------
  Si    -0.205899    0.899154    0.174304
  C      1.447933    0.346919   -0.471683
  C      2.021354   -0.884749    0.227626
  H      1.363427   -1.746077    0.111538
  H      2.149822   -0.711708    1.297216
  H      2.995229   -1.154161   -0.181570
  Cl    -1.592441   -0.610964   -0.079757
  H      2.129226    1.197753   -0.367475
  H      1.351251    0.167342   -1.545390
  H     -0.704408    2.081244   -0.555009
  H     -0.146178    1.190825    1.620650

 Multiplicity           Mult            ....    1
 Number of Electrons    NEL             ....   50
 Basis Dimension        Dim             ....  650

ORBITAL ENERGIES
----------------

  NO   OCC          E(Eh)            E(eV)
   0   2.0000    -104.819164     -2852.2745
   1   2.0000     -68.804467     -1872.2647
   2   2.0000     -11.225268      -305.4551
   3   2.0000     -11.221644      -305.3564
   4   2.0000     -10.546690      -286.9900
   5   2.0000      -8.013496      -218.0583
   6   2.0000      -8.012424      -218.0291
   7   2.0000      -8.012416      -218.0289
   8   2.0000      -6.150602      -167.3664
   9   2.0000      -4.257628      -115.8559
  10   2.0000      -4.256572      -115.8272
  11   2.0000      -4.256128      -115.8151
  12   2.0000      -1.090777       -29.6815
  13   2.0000      -1.032301       -28.0903
  14   2.0000      -0.859584       -23.3905
  15   2.0000      -0.699445       -19.0329
  16   2.0000      -0.619934       -16.8693
  17   2.0000      -0.590236       -16.0611
  18   2.0000      -0.538110       -14.6427
  19   2.0000      -0.523317       -14.2402
  20   2.0000      -0.505694       -13.7606
  21   2.0000      -0.496731       -13.5168
  22   2.0000      -0.479981       -13.0610
  23   2.0000      -0.442910       -12.0522
  24   2.0000      -0.427452       -11.6316
  25   0.0000       0.023874         0.6496
  26   0.0000       0.033927         0.9232
  27   0.0000       0.035073         0.9544
  28   0.0000       0.036500         0.9932
  29   0.0000       0.050169         1.3652

MULLIKEN ATOMIC CHARGES
-----------------------
   0 Si:    1.298125
   1 C :   -0.534835
   2 C :   -0.875247
   3 H :    0.268645
   4 H :    0.246641
   5 H :    0.292857
   6 Cl:   -0.645431
   7 H :    0.229246
   8 H :    0.213285
   9 H :   -0.262017
  10 H :   -0.231270
Sum of atomic charges:    0.0000000

LOEWDIN ATOMIC CHARGES
----------------------
   0 Si:   -0.000015
   1 C :    0.429780
   2 C :    0.830080
   3 H :   -0.314423
   4 H :   -0.299435
   5 H :   -0.285715
   6 Cl:    0.896900
   7 H :   -0.347818
   8 H :   -0.352654
   9 H :   -0.282844
  10 H :   -0.273856

  Mayer bond orders larger than 0.100000
B(  0-Si,  1-C ) :   0.8290 B(  0-Si,  6-Cl) :   0.4324 B(  0-Si,  9-H ) :   0.8627
B(  0-Si, 10-H ) :   0.8556 B(  1-C ,  2-C ) :   0.9696 B(  1-C ,  7-H ) :   0.9014
B(  1-C ,  8-H ) :   0.9358 B(  2-C ,  3-H ) :   0.9282 B(  2-C ,  4-H ) :   0.9407
B(  2-C ,  5-H ) :   0.9314

MP2 TOTAL ENERGY:     -829.107943452 Eh
FINAL SINGLE POINT ENERGY      -829.107943451575

DIPOLE MOMENT
-------------
                                X             Y             Z
Electronic contribution:    -10.61112      -1.49799      -0.52269
Nuclear contribution   :     11.34293       1.83080       0.47984
                        -----------------------------------------
Total Dipole Moment    :      0.73182       0.33281      -0.04285
                        -----------------------------------------
Magnitude (a.u.)       :      0.80508
Magnitude (Debye)      :      2.04636

Rotational constants in cm-1:     0.240340     0.084919     0.068677
Rotational constants in MHz :  7205.225953  2545.793673  2058.888881

                             ****ORCA TERMINATED NORMALLY****
TOTAL RUN TIME: 0 days 0 hours 37 minutes 15 seconds 793 msec
