                         Program Version 5.0.4 -  RELEASE  -
|  1> ! ri-mp2 aug-cc-pvdz aug-cc-pvdz/c tightscf
|  2> %pal nprocs 16 end
|  3> %maxcore 3800
|  4> %base "DZ_Si-Si_43_AB"
|  5> %scf
|  6> STABPerform true
|  7> STABRestartUHFifUnstable true
|  8> end
|  9>
| 10> *xyz 0 1
| 11> Si         2.169658    0.283291    0.000010
| 12> Si         0.195954   -0.958065   -0.000016
| 13> C        -1.273495    0.299091    0.000000
| 14> H         0.067525   -1.829873    1.193195
| 15> H         0.067530   -1.829827   -1.193262
| 16> O        -1.015021    1.481169   -0.000013
| 17> H         2.232342    1.129504   -1.209443
| 18> H         2.232324    1.129479    1.209481
| 19> C        -2.694437   -0.193918    0.000023
| 20> H        -2.867500   -0.821659   -0.877026
| 21> H        -3.386616    0.646302    0.000020
| 22> H        -2.867479   -0.821634    0.877093
| 23> H         3.331074   -0.635845    0.000009
| 24> *
| 25>
| 26> $new_job
| 27> ! ri-mp2 aug-cc-pvtz aug-cc-pvtz/c tightscf
| 28> %pal nprocs 16 end
| 29> %maxcore 3800
| 30> %base "TZ_Si-Si_43_AB"
| 31>
| 32> *xyz 0 1
| 33> Si         2.169658    0.283291    0.000010
| 34> Si         0.195954   -0.958065   -0.000016
| 35> C        -1.273495    0.299091    0.000000
| 36> H         0.067525   -1.829873    1.193195
| 37> H         0.067530   -1.829827   -1.193262
| 38> O        -1.015021    1.481169   -0.000013
| 39> H         2.232342    1.129504   -1.209443
| 40> H         2.232324    1.129479    1.209481
| 41> C        -2.694437   -0.193918    0.000023
| 42> H        -2.867500   -0.821659   -0.877026
| 43> H        -3.386616    0.646302    0.000020
| 44> H        -2.867479   -0.821634    0.877093
| 45> H         3.331074   -0.635845    0.000009
| 46> *
| 47>
| 48> $new_job
| 49> ! ri-mp2 aug-cc-pvqz aug-cc-pvqz/c tightscf
| 50> %pal nprocs 16 end
| 51> %maxcore 3800
| 52> %base "QZ_Si-Si_43_AB"
| 53>
| 54> *xyz 0 1
| 55> Si         2.169658    0.283291    0.000010
| 56> Si         0.195954   -0.958065   -0.000016
| 57> C        -1.273495    0.299091    0.000000
| 58> H         0.067525   -1.829873    1.193195
| 59> H         0.067530   -1.829827   -1.193262
| 60> O        -1.015021    1.481169   -0.000013
| 61> H         2.232342    1.129504   -1.209443
| 62> H         2.232324    1.129479    1.209481
| 63> C        -2.694437   -0.193918    0.000023
| 64> H        -2.867500   -0.821659   -0.877026
| 65> H        -3.386616    0.646302    0.000020
| 66> H        -2.867479   -0.821634    0.877093
| 67> H         3.331074   -0.635845    0.000009
| 68> *
| 69>
| 70>
| 71>
| 72>
| 73>                          ****END OF INPUT****
 Total Charge           Charge          ....    0
 Multiplicity           Mult            ....    1
 Number of Electrons    NEL             ....   56
MP2 TOTAL ENERGY:     -733.809902692 Eh
FINAL SINGLE POINT ENERGY      -733.809902691975
MP2 TOTAL ENERGY:     -734.016927661 Eh
FINAL SINGLE POINT ENERGY      -734.016927661494

CARTESIAN COORDINATES (ANGSTROEM)
---------------------------------
  Si     2.169658    0.283291    0.000010
  Si     0.195954   -0.958065   -0.000016
  C     -1.273495    0.299091    0.000000
  H      0.067525   -1.829873    1.193195
  H      0.067530   -1.829827   -1.193262
  O     -1.015021    1.481169   -0.000013
  H      2.232342    1.129504   -1.209443
  H      2.232324    1.129479    1.209481
  C     -2.694437   -0.193918    0.000023
  H     -2.867500   -0.821659   -0.877026
  H     -3.386616    0.646302    0.000020
  H     -2.867479   -0.821634    0.877093
  H      3.331074   -0.635845    0.000009

 Multiplicity           Mult            ....    1
 Number of Electrons    NEL             ....   56
 Basis Dimension        Dim             ....  776

ORBITAL ENERGIES
----------------

  NO   OCC          E(Eh)            E(eV)
   0   2.0000     -68.778048     -1871.5458
   1   2.0000     -68.768597     -1871.2886
   2   2.0000     -20.558893      -559.4359
   3   2.0000     -11.322247      -308.0940
   4   2.0000     -11.235900      -305.7444
   5   2.0000      -6.129241      -166.7851
   6   2.0000      -6.119396      -166.5172
   7   2.0000      -4.235220      -115.2462
   8   2.0000      -4.235161      -115.2446
   9   2.0000      -4.235068      -115.2421
  10   2.0000      -4.225601      -114.9844
  11   2.0000      -4.225446      -114.9802
  12   2.0000      -4.225392      -114.9788
  13   2.0000      -1.396219       -37.9931
  14   2.0000      -1.015261       -27.6267
  15   2.0000      -0.804645       -21.8955
  16   2.0000      -0.735947       -20.0261
  17   2.0000      -0.683081       -18.5876
  18   2.0000      -0.629152       -17.1201
  19   2.0000      -0.612504       -16.6671
  20   2.0000      -0.606102       -16.4929
  21   2.0000      -0.544553       -14.8181
  22   2.0000      -0.516525       -14.0554
  23   2.0000      -0.494483       -13.4556
  24   2.0000      -0.483585       -13.1590
  25   2.0000      -0.477053       -12.9813
  26   2.0000      -0.415540       -11.3074
  27   2.0000      -0.384536       -10.4638
  28   0.0000       0.021541         0.5861
  29   0.0000       0.029828         0.8117
  30   0.0000       0.035828         0.9749
  31   0.0000       0.036683         0.9982
  32   0.0000       0.046193         1.2570

MULLIKEN ATOMIC CHARGES
-----------------------
   0 Si:    0.402160
   1 Si:    0.753016
   2 C :    0.448671
   3 H :   -0.189909
   4 H :   -0.189907
   5 O :   -0.822224
   6 H :   -0.129654
   7 H :   -0.129655
   8 C :   -0.853106
   9 H :    0.272132
  10 H :    0.347578
  11 H :    0.272134
  12 H :   -0.181235
Sum of atomic charges:   -0.0000000

LOEWDIN ATOMIC CHARGES
----------------------
   0 Si:    1.029637
   1 Si:    0.674888
   2 C :   -0.723178
   3 H :   -0.273338
   4 H :   -0.273337
   5 O :    0.637887
   6 H :   -0.306881
   7 H :   -0.306881
   8 C :    0.813011
   9 H :   -0.313086
  10 H :   -0.323314
  11 H :   -0.313087
  12 H :   -0.322321

  Mayer bond orders larger than 0.100000
B(  0-Si,  1-Si) :   0.7710 B(  0-Si,  6-H ) :   0.7604 B(  0-Si,  7-H ) :   0.7604
B(  0-Si, 12-H ) :   0.7607 B(  1-Si,  2-C ) :   0.7117 B(  1-Si,  3-H ) :   0.8268
B(  1-Si,  4-H ) :   0.8268 B(  2-C ,  5-O ) :   1.3570 B(  2-C ,  8-C ) :   0.9097
B(  5-O ,  8-C ) :   0.1371 B(  8-C ,  9-H ) :   0.9239 B(  8-C , 10-H ) :   0.9377
B(  8-C , 11-H ) :   0.9239

MP2 TOTAL ENERGY:     -734.084238148 Eh
FINAL SINGLE POINT ENERGY      -734.084238148103

DIPOLE MOMENT
-------------
                                X             Y             Z
Electronic contribution:      1.03098       2.01216      -0.00005
Nuclear contribution   :     -1.36227      -2.99530       0.00007
                        -----------------------------------------
Total Dipole Moment    :     -0.33128      -0.98314       0.00002
                        -----------------------------------------
Magnitude (a.u.)       :      1.03745
Magnitude (Debye)      :      2.63699

Rotational constants in cm-1:     0.202270     0.053807     0.044141
Rotational constants in MHz :  6063.908910  1613.086450  1323.323837

                             ****ORCA TERMINATED NORMALLY****
TOTAL RUN TIME: 0 days 0 hours 48 minutes 23 seconds 825 msec
