                         Program Version 5.0.4 -  RELEASE  -
|  1> ! ri-mp2 aug-cc-pvdz aug-cc-pvdz/c tightscf
|  2> %pal nprocs 16 end
|  3> %maxcore 3800
|  4> %base "DZ_B-Cl_71_AB"
|  5> %scf
|  6> STABPerform true
|  7> STABRestartUHFifUnstable true
|  8> end
|  9>
| 10> *xyz 0 1
| 11> B         0.145292   -0.122300    0.000027
| 12> Cl         1.853240   -0.516587   -0.000009
| 13> Cl        -0.349177    1.571153   -0.000005
| 14> O        -0.735730   -1.116315    0.000012
| 15> C        -2.148345   -0.942452    0.000003
| 16> H        -2.588826   -1.935258   -0.000016
| 17> H        -2.465386   -0.397805   -0.888070
| 18> H        -2.465399   -0.397833    0.888087
| 19> *
| 20>
| 21> $new_job
| 22> ! ri-mp2 aug-cc-pvtz aug-cc-pvtz/c tightscf
| 23> %pal nprocs 16 end
| 24> %maxcore 3800
| 25> %base "TZ_B-Cl_71_AB"
| 26>
| 27> *xyz 0 1
| 28> B         0.145292   -0.122300    0.000027
| 29> Cl         1.853240   -0.516587   -0.000009
| 30> Cl        -0.349177    1.571153   -0.000005
| 31> O        -0.735730   -1.116315    0.000012
| 32> C        -2.148345   -0.942452    0.000003
| 33> H        -2.588826   -1.935258   -0.000016
| 34> H        -2.465386   -0.397805   -0.888070
| 35> H        -2.465399   -0.397833    0.888087
| 36> *
| 37>
| 38> $new_job
| 39> ! ri-mp2 aug-cc-pvqz aug-cc-pvqz/c tightscf
| 40> %pal nprocs 16 end
| 41> %maxcore 3800
| 42> %base "QZ_B-Cl_71_AB"
| 43>
| 44> *xyz 0 1
| 45> B         0.145292   -0.122300    0.000027
| 46> Cl         1.853240   -0.516587   -0.000009
| 47> Cl        -0.349177    1.571153   -0.000005
| 48> O        -0.735730   -1.116315    0.000012
| 49> C        -2.148345   -0.942452    0.000003
| 50> H        -2.588826   -1.935258   -0.000016
| 51> H        -2.465386   -0.397805   -0.888070
| 52> H        -2.465399   -0.397833    0.888087
| 53> *
| 54>
| 55>
| 56>
| 57>
| 58>                          ****END OF INPUT****
 Total Charge           Charge          ....    0
 Multiplicity           Mult            ....    1
 Number of Electrons    NEL             ....   56
MP2 TOTAL ENERGY:    -1059.040786258 Eh
FINAL SINGLE POINT ENERGY     -1059.040786257557
MP2 TOTAL ENERGY:    -1059.287013398 Eh
FINAL SINGLE POINT ENERGY     -1059.287013397904

CARTESIAN COORDINATES (ANGSTROEM)
---------------------------------
  B      0.145292   -0.122300    0.000027
  Cl     1.853240   -0.516587   -0.000009
  Cl    -0.349177    1.571153   -0.000005
  O     -0.735730   -1.116315    0.000012
  C     -2.148345   -0.942452    0.000003
  H     -2.588826   -1.935258   -0.000016
  H     -2.465386   -0.397805   -0.888070
  H     -2.465399   -0.397833    0.888087

 Multiplicity           Mult            ....    1
 Number of Electrons    NEL             ....   56
 Basis Dimension        Dim             ....  546

ORBITAL ENERGIES
----------------

  NO   OCC          E(Eh)            E(eV)
   0   2.0000    -104.841773     -2852.8897
   1   2.0000    -104.834252     -2852.6850
   2   2.0000     -20.597536      -560.4875
   3   2.0000     -11.300238      -307.4951
   4   2.0000     -10.569652      -287.6149
   5   2.0000     -10.562094      -287.4092
   6   2.0000      -8.036517      -218.6848
   7   2.0000      -8.035398      -218.6543
   8   2.0000      -8.035231      -218.6498
   9   2.0000      -8.028995      -218.4801
  10   2.0000      -8.027824      -218.4482
  11   2.0000      -8.027650      -218.4435
  12   2.0000      -7.729633      -210.3340
  13   2.0000      -1.415231       -38.5104
  14   2.0000      -1.135739       -30.9050
  15   2.0000      -1.099499       -29.9189
  16   2.0000      -0.971057       -26.4238
  17   2.0000      -0.745130       -20.2760
  18   2.0000      -0.670660       -18.2496
  19   2.0000      -0.666777       -18.1439
  20   2.0000      -0.639448       -17.4003
  21   2.0000      -0.562898       -15.3172
  22   2.0000      -0.534961       -14.5570
  23   2.0000      -0.508497       -13.8369
  24   2.0000      -0.490205       -13.3392
  25   2.0000      -0.480275       -13.0689
  26   2.0000      -0.464728       -12.6459
  27   2.0000      -0.452192       -12.3048
  28   0.0000       0.023393         0.6366
  29   0.0000       0.036652         0.9973
  30   0.0000       0.037274         1.0143
  31   0.0000       0.040711         1.1078
  32   0.0000       0.055517         1.5107

MULLIKEN ATOMIC CHARGES
-----------------------
   0 B :    0.977775
   1 Cl:   -0.147956
   2 Cl:   -0.249544
   3 O :   -1.010727
   4 C :   -0.572511
   5 H :    0.429208
   6 H :    0.286876
   7 H :    0.286878
Sum of atomic charges:    0.0000000

LOEWDIN ATOMIC CHARGES
----------------------
   0 B :   -2.753305
   1 Cl:    1.194861
   2 Cl:    1.242012
   3 O :    0.754952
   4 C :    0.526607
   5 H :   -0.314696
   6 H :   -0.325216
   7 H :   -0.325215

  Mayer bond orders larger than 0.100000
B(  0-B ,  1-Cl) :   1.0578 B(  0-B ,  2-Cl) :   1.0175 B(  0-B ,  3-O ) :   0.6392
B(  3-O ,  4-C ) :   0.8324 B(  4-C ,  5-H ) :   0.8018 B(  4-C ,  6-H ) :   0.9142
B(  4-C ,  7-H ) :   0.9142

MP2 TOTAL ENERGY:    -1059.368102041 Eh
FINAL SINGLE POINT ENERGY     -1059.368102041109

DIPOLE MOMENT
-------------
                                X             Y             Z
Electronic contribution:      8.16435       3.73731       0.00002
Nuclear contribution   :     -9.14142      -3.87916      -0.00000
                        -----------------------------------------
Total Dipole Moment    :     -0.97707      -0.14185       0.00002
                        -----------------------------------------
Magnitude (a.u.)       :      0.98731
Magnitude (Debye)      :      2.50954

Rotational constants in cm-1:     0.127582     0.079776     0.049543
Rotational constants in MHz :  3824.799439  2391.616675  1485.251646

                             ****ORCA TERMINATED NORMALLY****
TOTAL RUN TIME: 0 days 0 hours 20 minutes 1 seconds 932 msec
