                         Program Version 5.0.4 -  RELEASE  -
|  1> ! ri-mp2 aug-cc-pvdz aug-cc-pvdz/c tightscf
|  2> %pal nprocs 16 end
|  3> %maxcore 3800
|  4> %base "DZ_Si-Cl_18_A"
|  5> %scf
|  6> STABPerform true
|  7> STABRestartUHFifUnstable true
|  8> end
|  9>
| 10> *xyz 0 2
| 11> C        -2.155444    0.442983    0.181881
| 12> Si        -0.751504   -0.704522   -0.222488
| 13> H        -2.037553    1.373719   -0.371414
| 14> H        -2.152481    0.680917    1.247447
| 15> H        -3.118192    0.000615   -0.070766
| 16> C         0.913532    0.212361   -0.019671
| 17> O         0.963893    1.407052   -0.084030
| 18> O         2.055068   -0.497736    0.151944
| 19> H         1.863807   -1.441085    0.215299
| 20> H        -0.734747   -1.957436    0.577698
| 21> *
| 22>
| 23> $new_job
| 24> ! ri-mp2 aug-cc-pvtz aug-cc-pvtz/c tightscf
| 25> %pal nprocs 16 end
| 26> %maxcore 3800
| 27> %base "TZ_Si-Cl_18_A"
| 28>
| 29> *xyz 0 2
| 30> C        -2.155444    0.442983    0.181881
| 31> Si        -0.751504   -0.704522   -0.222488
| 32> H        -2.037553    1.373719   -0.371414
| 33> H        -2.152481    0.680917    1.247447
| 34> H        -3.118192    0.000615   -0.070766
| 35> C         0.913532    0.212361   -0.019671
| 36> O         0.963893    1.407052   -0.084030
| 37> O         2.055068   -0.497736    0.151944
| 38> H         1.863807   -1.441085    0.215299
| 39> H        -0.734747   -1.957436    0.577698
| 40> *
| 41>
| 42> $new_job
| 43> ! ri-mp2 aug-cc-pvqz aug-cc-pvqz/c tightscf
| 44> %pal nprocs 16 end
| 45> %maxcore 3800
| 46> %base "QZ_Si-Cl_18_A"
| 47>
| 48> *xyz 0 2
| 49> C        -2.155444    0.442983    0.181881
| 50> Si        -0.751504   -0.704522   -0.222488
| 51> H        -2.037553    1.373719   -0.371414
| 52> H        -2.152481    0.680917    1.247447
| 53> H        -3.118192    0.000615   -0.070766
| 54> C         0.913532    0.212361   -0.019671
| 55> O         0.963893    1.407052   -0.084030
| 56> O         2.055068   -0.497736    0.151944
| 57> H         1.863807   -1.441085    0.215299
| 58> H        -0.734747   -1.957436    0.577698
| 59> *
| 60>
| 61>
| 62>
| 63>
| 64>                          ****END OF INPUT****
 Total Charge           Charge          ....    0
 Multiplicity           Mult            ....    2
 Number of Electrons    NEL             ....   47
MP2 TOTAL ENERGY:     -518.073069019 Eh
FINAL SINGLE POINT ENERGY      -518.073069018704
MP2 TOTAL ENERGY:     -518.304135381 Eh
FINAL SINGLE POINT ENERGY      -518.304135380969

CARTESIAN COORDINATES (ANGSTROEM)
---------------------------------
  C     -2.155444    0.442983    0.181881
  Si    -0.751504   -0.704522   -0.222488
  H     -2.037553    1.373719   -0.371414
  H     -2.152481    0.680917    1.247447
  H     -3.118192    0.000615   -0.070766
  C      0.913532    0.212361   -0.019671
  O      0.963893    1.407052   -0.084030
  O      2.055068   -0.497736    0.151944
  H      1.863807   -1.441085    0.215299
  H     -0.734747   -1.957436    0.577698

 Multiplicity           Mult            ....    2
 Number of Electrons    NEL             ....   47
 Basis Dimension        Dim             ....  634

ORBITAL ENERGIES
----------------
                 SPIN UP ORBITALS
  NO   OCC          E(Eh)            E(eV)
   0   1.0000     -68.802288     -1872.2054
   1   1.0000     -20.611026      -560.8545
   2   1.0000     -20.552411      -559.2595
   3   1.0000     -11.368713      -309.3584
   4   1.0000     -11.227383      -305.5126
   5   1.0000      -6.153320      -167.4404
   6   1.0000      -4.266172      -116.0884
   7   1.0000      -4.256332      -115.8207
   8   1.0000      -4.255813      -115.8066
   9   1.0000      -1.459415       -39.7127
  10   1.0000      -1.369487       -37.2656
  11   1.0000      -0.972638       -26.4668
  12   1.0000      -0.847629       -23.0652
  13   1.0000      -0.784163       -21.3382
  14   1.0000      -0.666369       -18.1328
  15   1.0000      -0.643566       -17.5123
  16   1.0000      -0.628400       -17.0996
  17   1.0000      -0.591034       -16.0828
  18   1.0000      -0.582194       -15.8423
  19   1.0000      -0.550801       -14.9881
  20   1.0000      -0.494426       -13.4540
  21   1.0000      -0.487089       -13.2544
  22   1.0000      -0.429833       -11.6964
  23   1.0000      -0.344286        -9.3685
  24   0.0000       0.019347         0.5265
  25   0.0000       0.027926         0.7599
  26   0.0000       0.034581         0.9410
  27   0.0000       0.039467         1.0740
  28   0.0000       0.051484         1.4010

                 SPIN DOWN ORBITALS
  NO   OCC          E(Eh)            E(eV)
   0   1.0000     -68.796562     -1872.0496
   1   1.0000     -20.611210      -560.8595
   2   1.0000     -20.548578      -559.1552
   3   1.0000     -11.369649      -309.3839
   4   1.0000     -11.226908      -305.4997
   5   1.0000      -6.144571      -167.2023
   6   1.0000      -4.252469      -115.7156
   7   1.0000      -4.251956      -115.7016
   8   1.0000      -4.243545      -115.4727
   9   1.0000      -1.457547       -39.6619
  10   1.0000      -1.363515       -37.1031
  11   1.0000      -0.966387       -26.2967
  12   1.0000      -0.843061       -22.9409
  13   1.0000      -0.769794       -20.9472
  14   1.0000      -0.659963       -17.9585
  15   1.0000      -0.626544       -17.0491
  16   1.0000      -0.621093       -16.9008
  17   1.0000      -0.588492       -16.0137
  18   1.0000      -0.572385       -15.5754
  19   1.0000      -0.546316       -14.8660
  20   1.0000      -0.480591       -13.0775
  21   1.0000      -0.475017       -12.9259
  22   1.0000      -0.421633       -11.4732
  23   0.0000       0.013513         0.3677
  24   0.0000       0.024251         0.6599
  25   0.0000       0.028805         0.7838
  26   0.0000       0.039205         1.0668
  27   0.0000       0.043244         1.1767

MULLIKEN ATOMIC CHARGES AND SPIN POPULATIONS
--------------------------------------------
   0 C :   -0.999290   -0.001210
   1 Si:    0.945126    0.949484
   2 H :    0.256714    0.001638
   3 H :    0.229924    0.024049
   4 H :    0.272931   -0.006206
   5 C :    0.635697   -0.055246
   6 O :   -0.739437    0.085900
   7 O :   -0.723108   -0.004213
   8 H :    0.354154   -0.001544
   9 H :   -0.232710    0.007349
Sum of atomic charges         :   -0.0000000

LOEWDIN ATOMIC CHARGES AND SPIN POPULATIONS
-------------------------------------------
   0 C :    0.859423    0.128816
   1 Si:    0.791213    0.506228
   2 H :   -0.373730    0.011425
   3 H :   -0.358965    0.017360
   4 H :   -0.373617    0.012848
   5 C :   -1.106395    0.127778
   6 O :    0.569787    0.061332
   7 O :    1.153479    0.000530
   8 H :   -0.866384    0.006925
   9 H :   -0.294811    0.126757

  Mayer bond orders larger than 0.100000
B(  0-C ,  1-Si) :   0.9003 B(  0-C ,  2-H ) :   0.9410 B(  0-C ,  3-H ) :   0.9466
B(  0-C ,  4-H ) :   0.9525 B(  1-Si,  5-C ) :   0.7369 B(  1-Si,  9-H ) :   0.9159
B(  5-C ,  6-O ) :   1.6345 B(  5-C ,  7-O ) :   0.8896 B(  7-O ,  8-H ) :   0.8483

MP2 TOTAL ENERGY:     -518.379715222 Eh
FINAL SINGLE POINT ENERGY      -518.379715221640

DIPOLE MOMENT
-------------
                                X             Y             Z
Electronic contribution:      5.01831      -0.04344      -1.46867
Nuclear contribution   :     -6.02611      -1.27352       1.59698
                        -----------------------------------------
Total Dipole Moment    :     -1.00779      -1.31696       0.12831
                        -----------------------------------------
Magnitude (a.u.)       :      1.66328
Magnitude (Debye)      :      4.22771

Rotational constants in cm-1:     0.259856     0.088275     0.068185
Rotational constants in MHz :  7790.289507  2646.412993  2044.120353

                             ****ORCA TERMINATED NORMALLY****
TOTAL RUN TIME: 0 days 0 hours 54 minutes 16 seconds 66 msec
