                         Program Version 5.0.4 -  RELEASE  -
|  1> ! ri-mp2 aug-cc-pvdz aug-cc-pvdz/c tightscf
|  2> %pal nprocs 16 end
|  3> %maxcore 3800
|  4> %base "DZ_B-B_31_A"
|  5> %scf
|  6> STABPerform true
|  7> STABRestartUHFifUnstable true
|  8> end
|  9>
| 10> *xyz 0 2
| 11> B         1.376670   -0.405846   -0.000000
| 12> N         0.231304    0.342723    0.000000
| 13> C        -1.135848   -0.149277    0.000000
| 14> H         0.297142    1.352807    0.000000
| 15> H        -1.118260   -1.236431   -0.000000
| 16> H        -1.675698    0.189967   -0.885819
| 17> H        -1.675697    0.189966    0.885820
| 18> H         2.485116    0.029521   -0.000000
| 19> *
| 20>
| 21> $new_job
| 22> ! ri-mp2 aug-cc-pvtz aug-cc-pvtz/c tightscf
| 23> %pal nprocs 16 end
| 24> %maxcore 3800
| 25> %base "TZ_B-B_31_A"
| 26>
| 27> *xyz 0 2
| 28> B         1.376670   -0.405846   -0.000000
| 29> N         0.231304    0.342723    0.000000
| 30> C        -1.135848   -0.149277    0.000000
| 31> H         0.297142    1.352807    0.000000
| 32> H        -1.118260   -1.236431   -0.000000
| 33> H        -1.675698    0.189967   -0.885819
| 34> H        -1.675697    0.189966    0.885820
| 35> H         2.485116    0.029521   -0.000000
| 36> *
| 37>
| 38> $new_job
| 39> ! ri-mp2 aug-cc-pvqz aug-cc-pvqz/c tightscf
| 40> %pal nprocs 16 end
| 41> %maxcore 3800
| 42> %base "QZ_B-B_31_A"
| 43>
| 44> *xyz 0 2
| 45> B         1.376670   -0.405846   -0.000000
| 46> N         0.231304    0.342723    0.000000
| 47> C        -1.135848   -0.149277    0.000000
| 48> H         0.297142    1.352807    0.000000
| 49> H        -1.118260   -1.236431   -0.000000
| 50> H        -1.675698    0.189967   -0.885819
| 51> H        -1.675697    0.189966    0.885820
| 52> H         2.485116    0.029521   -0.000000
| 53> *
| 54>
| 55>
| 56>
| 57>
| 58>                          ****END OF INPUT****
 Total Charge           Charge          ....    0
 Multiplicity           Mult            ....    2
 Number of Electrons    NEL             ....   23
MP2 TOTAL ENERGY:     -120.288935182 Eh
FINAL SINGLE POINT ENERGY      -120.288935181825
MP2 TOTAL ENERGY:     -120.399708337 Eh
FINAL SINGLE POINT ENERGY      -120.399708336587

CARTESIAN COORDINATES (ANGSTROEM)
---------------------------------
  B      1.376670   -0.405846   -0.000000
  N      0.231304    0.342723    0.000000
  C     -1.135848   -0.149277    0.000000
  H      0.297142    1.352807    0.000000
  H     -1.118260   -1.236431   -0.000000
  H     -1.675698    0.189967   -0.885819
  H     -1.675697    0.189966    0.885820
  H      2.485116    0.029521   -0.000000

 Multiplicity           Mult            ....    2
 Number of Electrons    NEL             ....   23
 Basis Dimension        Dim             ....  470

ORBITAL ENERGIES
----------------
                 SPIN UP ORBITALS
  NO   OCC          E(Eh)            E(eV)
   0   1.0000     -15.562590      -423.4796
   1   1.0000     -11.257717      -306.3381
   2   1.0000      -7.600269      -206.8138
   3   1.0000      -1.199008       -32.6267
   4   1.0000      -0.926172       -25.2024
   5   1.0000      -0.729270       -19.8444
   6   1.0000      -0.645629       -17.5685
   7   1.0000      -0.601963       -16.3803
   8   1.0000      -0.555831       -15.1249
   9   1.0000      -0.530689       -14.4408
  10   1.0000      -0.408833       -11.1249
  11   1.0000      -0.317575        -8.6417
  12   0.0000       0.023704         0.6450
  13   0.0000       0.034901         0.9497
  14   0.0000       0.035964         0.9786
  15   0.0000       0.038407         1.0451
  16   0.0000       0.052202         1.4205

                 SPIN DOWN ORBITALS
  NO   OCC          E(Eh)            E(eV)
   0   1.0000     -15.565234      -423.5516
   1   1.0000     -11.256764      -306.3121
   2   1.0000      -7.581768      -206.3104
   3   1.0000      -1.199256       -32.6334
   4   1.0000      -0.922617       -25.1057
   5   1.0000      -0.707222       -19.2445
   6   1.0000      -0.634929       -17.2773
   7   1.0000      -0.604873       -16.4594
   8   1.0000      -0.543912       -14.8006
   9   1.0000      -0.515332       -14.0229
  10   1.0000      -0.417704       -11.3663
  11   0.0000       0.022849         0.6218
  12   0.0000       0.034881         0.9492
  13   0.0000       0.035319         0.9611
  14   0.0000       0.038274         1.0415
  15   0.0000       0.051012         1.3881

MULLIKEN ATOMIC CHARGES AND SPIN POPULATIONS
--------------------------------------------
   0 B :    0.329684    1.021497
   1 N :   -0.532671   -0.084203
   2 C :   -0.696686    0.024058
   3 H :    0.243543    0.041359
   4 H :    0.355660   -0.005134
   5 H :    0.273386   -0.000927
   6 H :    0.273385   -0.000927
   7 H :   -0.246301    0.004277
Sum of atomic charges         :    0.0000000

LOEWDIN ATOMIC CHARGES AND SPIN POPULATIONS
-------------------------------------------
   0 B :    0.176217    0.551536
   1 N :    0.822651    0.161632
   2 C :    0.734738    0.049056
   3 H :   -0.531962    0.018341
   4 H :   -0.330263    0.036612
   5 H :   -0.290795    0.004039
   6 H :   -0.290795    0.004039
   7 H :   -0.289793    0.174744

  Mayer bond orders larger than 0.100000
B(  0-B ,  1-N ) :   1.3370 B(  0-B ,  7-H ) :   0.9020 B(  1-N ,  2-C ) :   0.9099
B(  1-N ,  3-H ) :   0.9917 B(  2-C ,  4-H ) :   0.8794 B(  2-C ,  5-H ) :   0.9327
B(  2-C ,  6-H ) :   0.9327

MP2 TOTAL ENERGY:     -120.434334598 Eh
FINAL SINGLE POINT ENERGY      -120.434334598435

DIPOLE MOMENT
-------------
                                X             Y             Z
Electronic contribution:      2.25717      -0.32091      -0.00000
Nuclear contribution   :     -2.88401       0.88198       0.00000
                        -----------------------------------------
Total Dipole Moment    :     -0.62683       0.56107       0.00000
                        -----------------------------------------
Magnitude (a.u.)       :      0.84126
Magnitude (Debye)      :      2.13832

Rotational constants in cm-1:     1.947263     0.327803     0.296166
Rotational constants in MHz : 58377.461395  9827.275524  8878.847753

                             ****ORCA TERMINATED NORMALLY****
TOTAL RUN TIME: 0 days 0 hours 18 minutes 50 seconds 44 msec
