                         Program Version 5.0.4 -  RELEASE  -
|  1> ! ri-mp2 aug-cc-pvdz aug-cc-pvdz/c tightscf
|  2> %pal nprocs 16 end
|  3> %maxcore 3800
|  4> %base "DZ_P-C_39_AB"
|  5>
|  6> *xyz 0 1
|  7> C        -0.482958    0.581958   -0.211674
|  8> P         1.156767   -0.206689    0.221580
|  9> N        -1.629669   -0.403433    0.098099
| 10> O         1.137762   -0.608301    1.616566
| 11> O         1.377365   -1.257045   -0.917224
| 12> O        -1.423053   -1.536142   -0.288551
| 13> O        -2.602578    0.009081    0.650758
| 14> F        -0.690912    1.681339    0.494410
| 15> F        -0.609901    0.866136   -1.511872
| 16> H         0.677482   -1.927355   -0.944193
| 17> O         2.187090    0.899977   -0.208960
| 18> H         2.571074    1.372152    0.540289
| 19> *
| 20>
| 21> $new_job
| 22> ! ri-mp2 aug-cc-pvtz aug-cc-pvtz/c tightscf
| 23> %pal nprocs 16 end
| 24> %maxcore 3800
| 25> %base "TZ_P-C_39_AB"
| 26>
| 27> *xyz 0 1
| 28> C        -0.482958    0.581958   -0.211674
| 29> P         1.156767   -0.206689    0.221580
| 30> N        -1.629669   -0.403433    0.098099
| 31> O         1.137762   -0.608301    1.616566
| 32> O         1.377365   -1.257045   -0.917224
| 33> O        -1.423053   -1.536142   -0.288551
| 34> O        -2.602578    0.009081    0.650758
| 35> F        -0.690912    1.681339    0.494410
| 36> F        -0.609901    0.866136   -1.511872
| 37> H         0.677482   -1.927355   -0.944193
| 38> O         2.187090    0.899977   -0.208960
| 39> H         2.571074    1.372152    0.540289
| 40> *
| 41>
| 42> $new_job
| 43> ! ri-mp2 aug-cc-pvqz aug-cc-pvqz/c tightscf
| 44> %pal nprocs 16 end
| 45> %maxcore 3800
| 46> %base "QZ_P-C_39_AB"
| 47>
| 48> *xyz 0 1
| 49> C        -0.482958    0.581958   -0.211674
| 50> P         1.156767   -0.206689    0.221580
| 51> N        -1.629669   -0.403433    0.098099
| 52> O         1.137762   -0.608301    1.616566
| 53> O         1.377365   -1.257045   -0.917224
| 54> O        -1.423053   -1.536142   -0.288551
| 55> O        -2.602578    0.009081    0.650758
| 56> F        -0.690912    1.681339    0.494410
| 57> F        -0.609901    0.866136   -1.511872
| 58> H         0.677482   -1.927355   -0.944193
| 59> O         2.187090    0.899977   -0.208960
| 60> H         2.571074    1.372152    0.540289
| 61> *
| 62>
| 63>
| 64>
| 65>
| 66>                          ****END OF INPUT****
 Total Charge           Charge          ....    0
 Multiplicity           Mult            ....    1
 Number of Electrons    NEL             ....   88
MP2 TOTAL ENERGY:    -1009.273225658 Eh
FINAL SINGLE POINT ENERGY     -1009.273225658230
MP2 TOTAL ENERGY:    -1009.903115498 Eh
FINAL SINGLE POINT ENERGY     -1009.903115497603

CARTESIAN COORDINATES (ANGSTROEM)
---------------------------------
  C     -0.482958    0.581958   -0.211674
  P      1.156767   -0.206689    0.221580
  N     -1.629669   -0.403433    0.098099
  O      1.137762   -0.608301    1.616566
  O      1.377365   -1.257045   -0.917224
  O     -1.423053   -1.536142   -0.288551
  O     -2.602578    0.009081    0.650758
  F     -0.690912    1.681339    0.494410
  F     -0.609901    0.866136   -1.511872
  H      0.677482   -1.927355   -0.944193
  O      2.187090    0.899977   -0.208960
  H      2.571074    1.372152    0.540289

 Multiplicity           Mult            ....    1
 Number of Electrons    NEL             ....   88
 Basis Dimension        Dim             ....  896

ORBITAL ENERGIES
----------------

  NO   OCC          E(Eh)            E(eV)
   0   2.0000     -80.122980     -2180.2571
   1   2.0000     -26.383809      -717.9399
   2   2.0000     -26.383188      -717.9230
   3   2.0000     -20.657647      -562.1231
   4   2.0000     -20.646829      -561.8288
   5   2.0000     -20.643607      -561.7411
   6   2.0000     -20.639213      -561.6215
   7   2.0000     -20.550757      -559.2145
   8   2.0000     -15.892149      -432.4474
   9   2.0000     -11.515781      -313.3603
  10   2.0000      -7.645161      -208.0354
  11   2.0000      -5.543609      -150.8493
  12   2.0000      -5.543270      -150.8401
  13   2.0000      -5.542052      -150.8069
  14   2.0000      -1.752824       -47.6968
  15   2.0000      -1.681235       -45.7487
  16   2.0000      -1.662871       -45.2490
  17   2.0000      -1.488648       -40.5082
  18   2.0000      -1.462978       -39.8097
  19   2.0000      -1.431757       -38.9601
  20   2.0000      -1.347987       -36.6806
  21   2.0000      -1.113770       -30.3072
  22   2.0000      -0.955511       -26.0008
  23   2.0000      -0.906249       -24.6603
  24   2.0000      -0.859975       -23.4011
  25   2.0000      -0.851692       -23.1757
  26   2.0000      -0.841826       -22.9072
  27   2.0000      -0.776066       -21.1178
  28   2.0000      -0.770024       -20.9534
  29   2.0000      -0.764638       -20.8069
  30   2.0000      -0.741267       -20.1709
  31   2.0000      -0.731192       -19.8968
  32   2.0000      -0.718313       -19.5463
  33   2.0000      -0.704105       -19.1597
  34   2.0000      -0.688291       -18.7294
  35   2.0000      -0.659200       -17.9377
  36   2.0000      -0.619872       -16.8676
  37   2.0000      -0.606279       -16.4977
  38   2.0000      -0.574319       -15.6280
  39   2.0000      -0.548719       -14.9314
  40   2.0000      -0.527679       -14.3589
  41   2.0000      -0.513306       -13.9678
  42   2.0000      -0.500329       -13.6146
  43   2.0000      -0.497637       -13.5414
  44   0.0000       0.020047         0.5455
  45   0.0000       0.032999         0.8980
  46   0.0000       0.045547         1.2394
  47   0.0000       0.048541         1.3209
  48   0.0000       0.057952         1.5770

MULLIKEN ATOMIC CHARGES
-----------------------
   0 C :    1.309792
   1 P :    2.390825
   2 N :    0.858604
   3 O :   -1.103656
   4 O :   -0.881144
   5 O :   -0.588847
   6 O :   -0.523050
   7 F :   -0.663207
   8 F :   -0.629480
   9 H :    0.385396
  10 O :   -0.944803
  11 H :    0.389571
Sum of atomic charges:    0.0000000

LOEWDIN ATOMIC CHARGES
----------------------
   0 C :   -1.755588
   1 P :   -0.721279
   2 N :   -0.936020
   3 O :    0.318457
   4 O :    1.110751
   5 O :    0.550518
   6 O :    0.551620
   7 F :    0.778867
   8 F :    0.766833
   9 H :   -0.930131
  10 O :    1.106702
  11 H :   -0.840732

  Mayer bond orders larger than 0.100000
B(  0-C ,  1-P ) :   0.7314 B(  0-C ,  2-N ) :   0.8296 B(  0-C ,  7-F ) :   0.4428
B(  0-C ,  8-F ) :   0.4228 B(  1-P ,  3-O ) :   1.4350 B(  1-P ,  4-O ) :   0.7225
B(  1-P , 10-O ) :   0.6088 B(  2-N ,  5-O ) :   1.2530 B(  2-N ,  6-O ) :   1.3501
B(  4-O ,  9-H ) :   0.8282 B(  5-O ,  6-O ) :   0.1440 B( 10-O , 11-H ) :   0.9136

MP2 TOTAL ENERGY:    -1010.112674816 Eh
FINAL SINGLE POINT ENERGY     -1010.112674816271

DIPOLE MOMENT
-------------
                                X             Y             Z
Electronic contribution:     -2.39604       3.26136      -0.96880
Nuclear contribution   :      3.20519      -2.72266       0.37716
                        -----------------------------------------
Total Dipole Moment    :      0.80916       0.53870      -0.59164
                        -----------------------------------------
Magnitude (a.u.)       :      1.13797
Magnitude (Debye)      :      2.89249

Rotational constants in cm-1:     0.060511     0.034515     0.031431
Rotational constants in MHz :  1814.068326  1034.729995   942.280434

                             ****ORCA TERMINATED NORMALLY****
TOTAL RUN TIME: 0 days 0 hours 17 minutes 22 seconds 770 msec
