                         Program Version 5.0.4 -  RELEASE  -
|  1> ! ri-mp2 aug-cc-pvdz aug-cc-pvdz/c tightscf
|  2> %pal nprocs 16 end
|  3> %maxcore 3800
|  4> %base "DZ_Si-Si_55_AB"
|  5> %scf
|  6> STABPerform true
|  7> STABRestartUHFifUnstable true
|  8> end
|  9>
| 10> *xyz 0 1
| 11> Si        -1.139727    1.190031    0.191727
| 12> Si         1.035627    1.161665   -0.648316
| 13> C        -1.770407   -0.606644   -0.079622
| 14> O        -1.161987   -1.519034   -0.518499
| 15> H        -2.073573    2.079313   -0.528026
| 16> H        -1.215080    1.449013    1.641547
| 17> F        -3.064728   -0.788505    0.293154
| 18> C         1.918721   -0.265885    0.306196
| 19> H         1.737161    2.422945   -0.335697
| 20> H         1.003038    0.951338   -2.113193
| 21> O         2.052892   -0.101517    1.496199
| 22> C         2.364220   -1.513624   -0.392526
| 23> H         3.048171   -1.263078   -1.206378
| 24> H         1.492394   -1.995126   -0.841576
| 25> H         2.845393   -2.190273    0.311299
| 26> *
| 27>
| 28> $new_job
| 29> ! ri-mp2 aug-cc-pvtz aug-cc-pvtz/c tightscf
| 30> %pal nprocs 16 end
| 31> %maxcore 3800
| 32> %base "TZ_Si-Si_55_AB"
| 33>
| 34> *xyz 0 1
| 35> Si        -1.139727    1.190031    0.191727
| 36> Si         1.035627    1.161665   -0.648316
| 37> C        -1.770407   -0.606644   -0.079622
| 38> O        -1.161987   -1.519034   -0.518499
| 39> H        -2.073573    2.079313   -0.528026
| 40> H        -1.215080    1.449013    1.641547
| 41> F        -3.064728   -0.788505    0.293154
| 42> C         1.918721   -0.265885    0.306196
| 43> H         1.737161    2.422945   -0.335697
| 44> H         1.003038    0.951338   -2.113193
| 45> O         2.052892   -0.101517    1.496199
| 46> C         2.364220   -1.513624   -0.392526
| 47> H         3.048171   -1.263078   -1.206378
| 48> H         1.492394   -1.995126   -0.841576
| 49> H         2.845393   -2.190273    0.311299
| 50> *
| 51>
| 52> $new_job
| 53> ! ri-mp2 aug-cc-pvqz aug-cc-pvqz/c tightscf
| 54> %pal nprocs 16 end
| 55> %maxcore 3800
| 56> %base "QZ_Si-Si_55_AB"
| 57>
| 58> *xyz 0 1
| 59> Si        -1.139727    1.190031    0.191727
| 60> Si         1.035627    1.161665   -0.648316
| 61> C        -1.770407   -0.606644   -0.079622
| 62> O        -1.161987   -1.519034   -0.518499
| 63> H        -2.073573    2.079313   -0.528026
| 64> H        -1.215080    1.449013    1.641547
| 65> F        -3.064728   -0.788505    0.293154
| 66> C         1.918721   -0.265885    0.306196
| 67> H         1.737161    2.422945   -0.335697
| 68> H         1.003038    0.951338   -2.113193
| 69> O         2.052892   -0.101517    1.496199
| 70> C         2.364220   -1.513624   -0.392526
| 71> H         3.048171   -1.263078   -1.206378
| 72> H         1.492394   -1.995126   -0.841576
| 73> H         2.845393   -2.190273    0.311299
| 74> *
| 75>
| 76>
| 77>
| 78>
| 79>                          ****END OF INPUT****
 Total Charge           Charge          ....    0
 Multiplicity           Mult            ....    1
 Number of Electrons    NEL             ....   78
MP2 TOTAL ENERGY:     -945.952955153 Eh
FINAL SINGLE POINT ENERGY      -945.952955153000
MP2 TOTAL ENERGY:     -946.331805350 Eh
FINAL SINGLE POINT ENERGY      -946.331805349541

CARTESIAN COORDINATES (ANGSTROEM)
---------------------------------
  Si    -1.139727    1.190031    0.191727
  Si     1.035627    1.161665   -0.648316
  C     -1.770407   -0.606644   -0.079622
  O     -1.161987   -1.519034   -0.518499
  H     -2.073573    2.079313   -0.528026
  H     -1.215080    1.449013    1.641547
  F     -3.064728   -0.788505    0.293154
  C      1.918721   -0.265885    0.306196
  H      1.737161    2.422945   -0.335697
  H      1.003038    0.951338   -2.113193
  O      2.052892   -0.101517    1.496199
  C      2.364220   -1.513624   -0.392526
  H      3.048171   -1.263078   -1.206378
  H      1.492394   -1.995126   -0.841576
  H      2.845393   -2.190273    0.311299

 Multiplicity           Mult            ....    1
 Number of Electrons    NEL             ....   78
 Basis Dimension        Dim             ....  970

ORBITAL ENERGIES
----------------

  NO   OCC          E(Eh)            E(eV)
   0   2.0000     -68.807397     -1872.3444
   1   2.0000     -68.792877     -1871.9494
   2   2.0000     -26.325399      -716.3505
   3   2.0000     -20.595218      -560.4244
   4   2.0000     -20.563592      -559.5638
   5   2.0000     -11.412258      -310.5433
   6   2.0000     -11.330106      -308.3079
   7   2.0000     -11.234742      -305.7129
   8   2.0000      -6.158114      -167.5708
   9   2.0000      -6.144147      -167.1907
  10   2.0000      -4.264454      -116.0417
  11   2.0000      -4.263946      -116.0279
  12   2.0000      -4.263858      -116.0255
  13   2.0000      -4.250299      -115.6565
  14   2.0000      -4.250100      -115.6511
  15   2.0000      -4.249899      -115.6456
  16   2.0000      -1.650038       -44.8998
  17   2.0000      -1.442633       -39.2560
  18   2.0000      -1.402503       -38.1641
  19   2.0000      -1.017912       -27.6988
  20   2.0000      -0.888636       -24.1810
  21   2.0000      -0.818078       -22.2610
  22   2.0000      -0.781759       -21.2728
  23   2.0000      -0.725533       -19.7427
  24   2.0000      -0.716914       -19.5082
  25   2.0000      -0.715922       -19.4812
  26   2.0000      -0.677536       -18.4367
  27   2.0000      -0.632033       -17.1985
  28   2.0000      -0.623361       -16.9625
  29   2.0000      -0.608846       -16.5675
  30   2.0000      -0.592275       -16.1166
  31   2.0000      -0.559764       -15.2319
  32   2.0000      -0.546884       -14.8815
  33   2.0000      -0.518536       -14.1101
  34   2.0000      -0.516295       -14.0491
  35   2.0000      -0.498734       -13.5712
  36   2.0000      -0.470358       -12.7991
  37   2.0000      -0.438654       -11.9364
  38   2.0000      -0.389967       -10.6115
  39   0.0000       0.020072         0.5462
  40   0.0000       0.026713         0.7269
  41   0.0000       0.034022         0.9258
  42   0.0000       0.035509         0.9662
  43   0.0000       0.044685         1.2160

MULLIKEN ATOMIC CHARGES
-----------------------
   0 Si:    0.824405
   1 Si:    0.884789
   2 C :    0.816037
   3 O :   -0.759012
   4 H :   -0.211362
   5 H :   -0.156749
   6 F :   -0.592734
   7 C :    0.616653
   8 H :   -0.271724
   9 H :   -0.238867
  10 O :   -0.889580
  11 C :   -0.967930
  12 H :    0.259897
  13 H :    0.323297
  14 H :    0.362881
Sum of atomic charges:   -0.0000000

LOEWDIN ATOMIC CHARGES
----------------------
   0 Si:    0.716624
   1 Si:    0.711448
   2 C :   -1.338101
   3 O :    0.570556
   4 H :   -0.276868
   5 H :   -0.265449
   6 F :    0.629493
   7 C :   -0.723543
   8 H :   -0.268576
   9 H :   -0.260687
  10 O :    0.647772
  11 C :    0.818884
  12 H :   -0.309207
  13 H :   -0.335761
  14 H :   -0.316586

  Mayer bond orders larger than 0.100000
B(  0-Si,  1-Si) :   0.8505 B(  0-Si,  2-C ) :   0.6495 B(  0-Si,  4-H ) :   0.8241
B(  0-Si,  5-H ) :   0.8284 B(  1-Si,  7-C ) :   0.6590 B(  1-Si,  8-H ) :   0.7772
B(  1-Si,  9-H ) :   0.7996 B(  2-C ,  3-O ) :   1.6594 B(  2-C ,  6-F ) :   0.5968
B(  7-C , 10-O ) :   1.2157 B(  7-C , 11-C ) :   0.9225 B( 10-O , 11-C ) :   0.1529
B( 11-C , 12-H ) :   0.9471 B( 11-C , 13-H ) :   0.8837 B( 11-C , 14-H ) :   0.9105

MP2 TOTAL ENERGY:     -946.456956586 Eh
FINAL SINGLE POINT ENERGY      -946.456956586119

DIPOLE MOMENT
-------------
                                X             Y             Z
Electronic contribution:     -9.35596      -1.15179       2.33246
Nuclear contribution   :      9.63673       2.01278      -3.23521
                        -----------------------------------------
Total Dipole Moment    :      0.28077       0.86099      -0.90275
                        -----------------------------------------
Magnitude (a.u.)       :      1.27871
Magnitude (Debye)      :      3.25022

Rotational constants in cm-1:     0.067522     0.029050     0.024245
Rotational constants in MHz :  2024.269211   870.886469   726.856744

                             ****ORCA TERMINATED NORMALLY****
TOTAL RUN TIME: 0 days 2 hours 8 minutes 50 seconds 264 msec
