                         Program Version 5.0.4 -  RELEASE  -
|  1> ! ri-mp2 aug-cc-pvdz aug-cc-pvdz/c tightscf
|  2> %pal nprocs 16 end
|  3> %maxcore 3800
|  4> %base "DZ_B-F_25_AB"
|  5> %scf
|  6> STABPerform true
|  7> STABRestartUHFifUnstable true
|  8> end
|  9>
| 10> *xyz 0 1
| 11> F         1.533495   -1.050098    0.000004
| 12> F         1.351356    1.198814   -0.000008
| 13> B         0.785887    0.019641   -0.000001
| 14> C        -0.809901   -0.144232    0.000000
| 15> O        -1.367272   -1.205747    0.000006
| 16> O        -1.460308    1.029096   -0.000001
| 17> H        -2.413049    0.841955    0.000001
| 18> *
| 19>
| 20> $new_job
| 21> ! ri-mp2 aug-cc-pvtz aug-cc-pvtz/c tightscf
| 22> %pal nprocs 16 end
| 23> %maxcore 3800
| 24> %base "TZ_B-F_25_AB"
| 25>
| 26> *xyz 0 1
| 27> F         1.533495   -1.050098    0.000004
| 28> F         1.351356    1.198814   -0.000008
| 29> B         0.785887    0.019641   -0.000001
| 30> C        -0.809901   -0.144232    0.000000
| 31> O        -1.367272   -1.205747    0.000006
| 32> O        -1.460308    1.029096   -0.000001
| 33> H        -2.413049    0.841955    0.000001
| 34> *
| 35>
| 36> $new_job
| 37> ! ri-mp2 aug-cc-pvqz aug-cc-pvqz/c tightscf
| 38> %pal nprocs 16 end
| 39> %maxcore 3800
| 40> %base "QZ_B-F_25_AB"
| 41>
| 42> *xyz 0 1
| 43> F         1.533495   -1.050098    0.000004
| 44> F         1.351356    1.198814   -0.000008
| 45> B         0.785887    0.019641   -0.000001
| 46> C        -0.809901   -0.144232    0.000000
| 47> O        -1.367272   -1.205747    0.000006
| 48> O        -1.460308    1.029096   -0.000001
| 49> H        -2.413049    0.841955    0.000001
| 50> *
| 51>
| 52>
| 53>
| 54>
| 55>                          ****END OF INPUT****
 Total Charge           Charge          ....    0
 Multiplicity           Mult            ....    1
 Number of Electrons    NEL             ....   46
MP2 TOTAL ENERGY:     -412.925174777 Eh
FINAL SINGLE POINT ENERGY      -412.925174777444
MP2 TOTAL ENERGY:     -413.276887053 Eh
FINAL SINGLE POINT ENERGY      -413.276887052857

CARTESIAN COORDINATES (ANGSTROEM)
---------------------------------
  F      1.533495   -1.050098    0.000004
  F      1.351356    1.198814   -0.000008
  B      0.785887    0.019641   -0.000001
  C     -0.809901   -0.144232    0.000000
  O     -1.367272   -1.205747    0.000006
  O     -1.460308    1.029096   -0.000001
  H     -2.413049    0.841955    0.000001

 Multiplicity           Mult            ....    1
 Number of Electrons    NEL             ....   46
 Basis Dimension        Dim             ....  526

ORBITAL ENERGIES
----------------

  NO   OCC          E(Eh)            E(eV)
   0   2.0000     -26.340591      -716.7639
   1   2.0000     -26.337855      -716.6895
   2   2.0000     -20.631577      -561.4138
   3   2.0000     -20.578726      -559.9756
   4   2.0000     -11.393561      -310.0345
   5   2.0000      -7.747807      -210.8285
   6   2.0000      -1.674492       -45.5653
   7   2.0000      -1.643607       -44.7248
   8   2.0000      -1.488849       -40.5136
   9   2.0000      -1.387964       -37.7684
  10   2.0000      -0.917520       -24.9670
  11   2.0000      -0.840713       -22.8770
  12   2.0000      -0.794550       -21.6208
  13   2.0000      -0.770525       -20.9670
  14   2.0000      -0.742218       -20.1968
  15   2.0000      -0.724779       -19.7222
  16   2.0000      -0.686313       -18.6755
  17   2.0000      -0.684678       -18.6310
  18   2.0000      -0.677227       -18.4283
  19   2.0000      -0.649091       -17.6627
  20   2.0000      -0.596472       -16.2308
  21   2.0000      -0.506072       -13.7709
  22   2.0000      -0.476045       -12.9538
  23   0.0000       0.024541         0.6678
  24   0.0000       0.036172         0.9843
  25   0.0000       0.037059         1.0084
  26   0.0000       0.041461         1.1282
  27   0.0000       0.054693         1.4883

MULLIKEN ATOMIC CHARGES
-----------------------
   0 F :   -0.721259
   1 F :   -0.741791
   2 B :    1.696399
   3 C :    0.728209
   4 O :   -0.651148
   5 O :   -0.619990
   6 H :    0.309581
Sum of atomic charges:    0.0000000

LOEWDIN ATOMIC CHARGES
----------------------
   0 F :    0.824192
   1 F :    0.821439
   2 B :   -1.774164
   3 C :   -0.941409
   4 O :    0.670275
   5 O :    1.209499
   6 H :   -0.809832

  Mayer bond orders larger than 0.100000
B(  0-F ,  2-B ) :   0.4562 B(  1-F ,  2-B ) :   0.4334 B(  2-B ,  3-C ) :   0.8547
B(  3-C ,  4-O ) :   1.6280 B(  3-C ,  5-O ) :   0.9821 B(  5-O ,  6-H ) :   0.9178

MP2 TOTAL ENERGY:     -413.392381586 Eh
FINAL SINGLE POINT ENERGY      -413.392381585523

DIPOLE MOMENT
-------------
                                X             Y             Z
Electronic contribution:      5.13421      -0.04494      -0.00001
Nuclear contribution   :     -5.46944       0.62289       0.00001
                        -----------------------------------------
Total Dipole Moment    :     -0.33523       0.57795      -0.00000
                        -----------------------------------------
Magnitude (a.u.)       :      0.66814
Magnitude (Debye)      :      1.69827

Rotational constants in cm-1:     0.188647     0.103100     0.066666
Rotational constants in MHz :  5655.487011  3090.863415  1998.586501

                             ****ORCA TERMINATED NORMALLY****
TOTAL RUN TIME: 0 days 0 hours 11 minutes 56 seconds 549 msec
