                         Program Version 5.0.4 -  RELEASE  -
|  1> ! ri-mp2 aug-cc-pvdz aug-cc-pvdz/c tightscf
|  2> %pal nprocs 16 end
|  3> %maxcore 3800
|  4> %base "DZ_B-F_49_A"
|  5> %scf
|  6> STABPerform true
|  7> STABRestartUHFifUnstable true
|  8> end
|  9>
| 10> *xyz 0 2
| 11> F        -2.140228   -0.107612   -0.037358
| 12> B        -1.031499   -0.768324   -0.189190
| 13> C         0.397395   -0.038474   -0.031014
| 14> O         1.442603   -0.705102   -0.645926
| 15> H         1.316342   -1.652030   -0.523950
| 16> O         0.580406    0.055747    1.354391
| 17> H         1.493018    0.340364    1.507057
| 18> O         0.404078    1.219740   -0.631401
| 19> H        -0.190884    1.789560   -0.131360
| 20> *
| 21>
| 22> $new_job
| 23> ! ri-mp2 aug-cc-pvtz aug-cc-pvtz/c tightscf
| 24> %pal nprocs 16 end
| 25> %maxcore 3800
| 26> %base "TZ_B-F_49_A"
| 27>
| 28> *xyz 0 2
| 29> F        -2.140228   -0.107612   -0.037358
| 30> B        -1.031499   -0.768324   -0.189190
| 31> C         0.397395   -0.038474   -0.031014
| 32> O         1.442603   -0.705102   -0.645926
| 33> H         1.316342   -1.652030   -0.523950
| 34> O         0.580406    0.055747    1.354391
| 35> H         1.493018    0.340364    1.507057
| 36> O         0.404078    1.219740   -0.631401
| 37> H        -0.190884    1.789560   -0.131360
| 38> *
| 39>
| 40> $new_job
| 41> ! ri-mp2 aug-cc-pvqz aug-cc-pvqz/c tightscf
| 42> %pal nprocs 16 end
| 43> %maxcore 3800
| 44> %base "QZ_B-F_49_A"
| 45>
| 46> *xyz 0 2
| 47> F        -2.140228   -0.107612   -0.037358
| 48> B        -1.031499   -0.768324   -0.189190
| 49> C         0.397395   -0.038474   -0.031014
| 50> O         1.442603   -0.705102   -0.645926
| 51> H         1.316342   -1.652030   -0.523950
| 52> O         0.580406    0.055747    1.354391
| 53> H         1.493018    0.340364    1.507057
| 54> O         0.404078    1.219740   -0.631401
| 55> H        -0.190884    1.789560   -0.131360
| 56> *
| 57>
| 58>
| 59>
| 60>
| 61>                          ****END OF INPUT****
 Total Charge           Charge          ....    0
 Multiplicity           Mult            ....    2
 Number of Electrons    NEL             ....   47
MP2 TOTAL ENERGY:     -389.370757448 Eh
FINAL SINGLE POINT ENERGY      -389.370757448457
MP2 TOTAL ENERGY:     -389.701516178 Eh
FINAL SINGLE POINT ENERGY      -389.701516178447

CARTESIAN COORDINATES (ANGSTROEM)
---------------------------------
  F     -2.140228   -0.107612   -0.037358
  B     -1.031499   -0.768324   -0.189190
  C      0.397395   -0.038474   -0.031014
  O      1.442603   -0.705102   -0.645926
  H      1.316342   -1.652030   -0.523950
  O      0.580406    0.055747    1.354391
  H      1.493018    0.340364    1.507057
  O      0.404078    1.219740   -0.631401
  H     -0.190884    1.789560   -0.131360

 Multiplicity           Mult            ....    2
 Number of Electrons    NEL             ....   47
 Basis Dimension        Dim             ....  618

ORBITAL ENERGIES
----------------
                 SPIN UP ORBITALS
  NO   OCC          E(Eh)            E(eV)
   0   1.0000     -26.338292      -716.7014
   1   1.0000     -20.586935      -560.1990
   2   1.0000     -20.585445      -560.1584
   3   1.0000     -20.582551      -560.0797
   4   1.0000     -11.397160      -310.1325
   5   1.0000      -7.701967      -209.5812
   6   1.0000      -1.657879       -45.1132
   7   1.0000      -1.474792       -40.1311
   8   1.0000      -1.364270       -37.1237
   9   1.0000      -1.360860       -37.0309
  10   1.0000      -0.921048       -25.0630
  11   1.0000      -0.831066       -22.6144
  12   1.0000      -0.797043       -21.6886
  13   1.0000      -0.738306       -20.0903
  14   1.0000      -0.709838       -19.3157
  15   1.0000      -0.699674       -19.0391
  16   1.0000      -0.691590       -18.8191
  17   1.0000      -0.643210       -17.5026
  18   1.0000      -0.617828       -16.8119
  19   1.0000      -0.555521       -15.1165
  20   1.0000      -0.531452       -14.4616
  21   1.0000      -0.500141       -13.6095
  22   1.0000      -0.491659       -13.3787
  23   1.0000      -0.371350       -10.1049
  24   0.0000       0.023637         0.6432
  25   0.0000       0.032868         0.8944
  26   0.0000       0.033533         0.9125
  27   0.0000       0.038189         1.0392
  28   0.0000       0.052640         1.4324

                 SPIN DOWN ORBITALS
  NO   OCC          E(Eh)            E(eV)
   0   1.0000     -26.335254      -716.6187
   1   1.0000     -20.586929      -560.1988
   2   1.0000     -20.585843      -560.1693
   3   1.0000     -20.581629      -560.0546
   4   1.0000     -11.393103      -310.0221
   5   1.0000      -7.683064      -209.0668
   6   1.0000      -1.649416       -44.8829
   7   1.0000      -1.472758       -40.0758
   8   1.0000      -1.364349       -37.1258
   9   1.0000      -1.359122       -36.9836
  10   1.0000      -0.908705       -24.7271
  11   1.0000      -0.821660       -22.3585
  12   1.0000      -0.788192       -21.4478
  13   1.0000      -0.719412       -19.5762
  14   1.0000      -0.705847       -19.2071
  15   1.0000      -0.690609       -18.7924
  16   1.0000      -0.684452       -18.6249
  17   1.0000      -0.641726       -17.4623
  18   1.0000      -0.615557       -16.7502
  19   1.0000      -0.553098       -15.0506
  20   1.0000      -0.525724       -14.3057
  21   1.0000      -0.496263       -13.5040
  22   1.0000      -0.467205       -12.7133
  23   0.0000       0.019207         0.5227
  24   0.0000       0.030528         0.8307
  25   0.0000       0.033967         0.9243
  26   0.0000       0.038994         1.0611
  27   0.0000       0.052011         1.4153

MULLIKEN ATOMIC CHARGES AND SPIN POPULATIONS
--------------------------------------------
   0 F :   -0.716766   -0.011726
   1 B :    0.742816    0.980970
   2 C :    1.426068    0.027179
   3 O :   -0.837631   -0.015898
   4 H :    0.364664   -0.001459
   5 O :   -0.811180    0.001543
   6 H :    0.309854    0.000891
   7 O :   -0.832271    0.019397
   8 H :    0.354446   -0.000895
Sum of atomic charges         :    0.0000000

LOEWDIN ATOMIC CHARGES AND SPIN POPULATIONS
-------------------------------------------
   0 F :    0.755303    0.147075
   1 B :   -0.711153    0.577480
   2 C :   -1.307935    0.171659
   3 O :    1.224212    0.016332
   4 H :   -0.820008    0.032386
   5 O :    1.227925    0.020244
   6 H :   -0.786099    0.002429
   7 O :    1.228438    0.026866
   8 H :   -0.810683    0.005528

  Mayer bond orders larger than 0.100000
B(  0-F ,  1-B ) :   0.4540 B(  1-B ,  2-C ) :   0.7968 B(  2-C ,  3-O ) :   0.6352
B(  2-C ,  5-O ) :   0.6170 B(  2-C ,  7-O ) :   0.6271 B(  3-O ,  4-H ) :   0.8737
B(  5-O ,  6-H ) :   0.8747 B(  7-O ,  8-H ) :   0.8617

MP2 TOTAL ENERGY:     -389.810640578 Eh
FINAL SINGLE POINT ENERGY      -389.810640578321

DIPOLE MOMENT
-------------
                                X             Y             Z
Electronic contribution:     -5.30354      -1.40828      -0.57821
Nuclear contribution   :      5.32582       1.15260       0.99099
                        -----------------------------------------
Total Dipole Moment    :      0.02228      -0.25569       0.41278
                        -----------------------------------------
Magnitude (a.u.)       :      0.48607
Magnitude (Debye)      :      1.23548

Rotational constants in cm-1:     0.187709     0.089043     0.088025
Rotational constants in MHz :  5627.382848  2669.439378  2638.917074

                             ****ORCA TERMINATED NORMALLY****
TOTAL RUN TIME: 0 days 0 hours 52 minutes 55 seconds 570 msec
