                         Program Version 5.0.4 -  RELEASE  -
|  1> ! ri-mp2 aug-cc-pvdz aug-cc-pvdz/c tightscf
|  2> %pal nprocs 16 end
|  3> %maxcore 3800
|  4> %base "DZ_B-Si_83_AB"
|  5>
|  6> *xyz 0 1
|  7> C        -0.139721   -0.155978   -0.102849
|  8> C        -1.033506   -1.170146   -0.443499
|  9> C        -2.402167   -0.975236   -0.365090
| 10> C        -2.905577    0.242156    0.061176
| 11> C        -2.035240    1.261724    0.409198
| 12> C        -0.668104    1.060729    0.330152
| 13> B         2.187996   -0.622895    1.769187
| 14> H        -3.077798   -1.774766   -0.639966
| 15> H        -3.974855    0.396733    0.121752
| 16> H        -2.422824    2.215133    0.743874
| 17> H        -0.003943    1.871036    0.607672
| 18> H        -0.654714   -2.126304   -0.783505
| 19> Si         1.719828   -0.427843   -0.168819
| 20> C         2.573621    1.006314   -1.018078
| 21> H         2.384688    1.942091   -0.490587
| 22> H         2.220106    1.118145   -2.043521
| 23> H         3.653979    0.857521   -1.048321
| 24> H         2.380032    0.338420    2.449724
| 25> H         2.189115   -1.679420    2.319850
| 26> H         1.952810   -1.671694   -0.945503
| 27> *
| 28>
| 29> $new_job
| 30> ! ri-mp2 aug-cc-pvtz aug-cc-pvtz/c tightscf
| 31> %pal nprocs 16 end
| 32> %maxcore 3800
| 33> %base "TZ_B-Si_83_AB"
| 34>
| 35> *xyz 0 1
| 36> C        -0.139721   -0.155978   -0.102849
| 37> C        -1.033506   -1.170146   -0.443499
| 38> C        -2.402167   -0.975236   -0.365090
| 39> C        -2.905577    0.242156    0.061176
| 40> C        -2.035240    1.261724    0.409198
| 41> C        -0.668104    1.060729    0.330152
| 42> B         2.187996   -0.622895    1.769187
| 43> H        -3.077798   -1.774766   -0.639966
| 44> H        -3.974855    0.396733    0.121752
| 45> H        -2.422824    2.215133    0.743874
| 46> H        -0.003943    1.871036    0.607672
| 47> H        -0.654714   -2.126304   -0.783505
| 48> Si         1.719828   -0.427843   -0.168819
| 49> C         2.573621    1.006314   -1.018078
| 50> H         2.384688    1.942091   -0.490587
| 51> H         2.220106    1.118145   -2.043521
| 52> H         3.653979    0.857521   -1.048321
| 53> H         2.380032    0.338420    2.449724
| 54> H         2.189115   -1.679420    2.319850
| 55> H         1.952810   -1.671694   -0.945503
| 56> *
| 57>
| 58> $new_job
| 59> ! ri-mp2 aug-cc-pvqz aug-cc-pvqz/c tightscf
| 60> %pal nprocs 16 end
| 61> %maxcore 3800
| 62> %base "QZ_B-Si_83_AB"
| 63>
| 64> *xyz 0 1
| 65> C        -0.139721   -0.155978   -0.102849
| 66> C        -1.033506   -1.170146   -0.443499
| 67> C        -2.402167   -0.975236   -0.365090
| 68> C        -2.905577    0.242156    0.061176
| 69> C        -2.035240    1.261724    0.409198
| 70> C        -0.668104    1.060729    0.330152
| 71> B         2.187996   -0.622895    1.769187
| 72> H        -3.077798   -1.774766   -0.639966
| 73> H        -3.974855    0.396733    0.121752
| 74> H        -2.422824    2.215133    0.743874
| 75> H        -0.003943    1.871036    0.607672
| 76> H        -0.654714   -2.126304   -0.783505
| 77> Si         1.719828   -0.427843   -0.168819
| 78> C         2.573621    1.006314   -1.018078
| 79> H         2.384688    1.942091   -0.490587
| 80> H         2.220106    1.118145   -2.043521
| 81> H         3.653979    0.857521   -1.048321
| 82> H         2.380032    0.338420    2.449724
| 83> H         2.189115   -1.679420    2.319850
| 84> H         1.952810   -1.671694   -0.945503
| 85> *
| 86>
| 87>
| 88>
| 89>
| 90>                          ****END OF INPUT****
 Total Charge           Charge          ....    0
 Multiplicity           Mult            ....    1
 Number of Electrons    NEL             ....   72
MP2 TOTAL ENERGY:     -586.253716872 Eh
FINAL SINGLE POINT ENERGY      -586.253716872422
MP2 TOTAL ENERGY:     -586.557531385 Eh
FINAL SINGLE POINT ENERGY      -586.557531384502

CARTESIAN COORDINATES (ANGSTROEM)
---------------------------------
  C     -0.139721   -0.155978   -0.102849
  C     -1.033506   -1.170146   -0.443499
  C     -2.402167   -0.975236   -0.365090
  C     -2.905577    0.242156    0.061176
  C     -2.035240    1.261724    0.409198
  C     -0.668104    1.060729    0.330152
  B      2.187996   -0.622895    1.769187
  H     -3.077798   -1.774766   -0.639966
  H     -3.974855    0.396733    0.121752
  H     -2.422824    2.215133    0.743874
  H     -0.003943    1.871036    0.607672
  H     -0.654714   -2.126304   -0.783505
  Si     1.719828   -0.427843   -0.168819
  C      2.573621    1.006314   -1.018078
  H      2.384688    1.942091   -0.490587
  H      2.220106    1.118145   -2.043521
  H      3.653979    0.857521   -1.048321
  H      2.380032    0.338420    2.449724
  H      2.189115   -1.679420    2.319850
  H      1.952810   -1.671694   -0.945503

 Multiplicity           Mult            ....    1
 Number of Electrons    NEL             ....   72
 Basis Dimension        Dim             .... 1230

ORBITAL ENERGIES
----------------

  NO   OCC          E(Eh)            E(eV)
   0   2.0000     -68.745257     -1870.6535
   1   2.0000     -11.235707      -305.7391
   2   2.0000     -11.235021      -305.7205
   3   2.0000     -11.234051      -305.6941
   4   2.0000     -11.232052      -305.6397
   5   2.0000     -11.231334      -305.6201
   6   2.0000     -11.218746      -305.2776
   7   2.0000     -11.201160      -304.7990
   8   2.0000      -7.599794      -206.8009
   9   2.0000      -6.096528      -165.8950
  10   2.0000      -4.203016      -114.3699
  11   2.0000      -4.202768      -114.3631
  12   2.0000      -4.202427      -114.3538
  13   2.0000      -1.154365       -31.4119
  14   2.0000      -1.017930       -27.6993
  15   2.0000      -1.016218       -27.6527
  16   2.0000      -0.943842       -25.6832
  17   2.0000      -0.826091       -22.4791
  18   2.0000      -0.823644       -22.4125
  19   2.0000      -0.730613       -19.8810
  20   2.0000      -0.694706       -18.9039
  21   2.0000      -0.641378       -17.4528
  22   2.0000      -0.626505       -17.0481
  23   2.0000      -0.615617       -16.7518
  24   2.0000      -0.588833       -16.0230
  25   2.0000      -0.562452       -15.3051
  26   2.0000      -0.556791       -15.1511
  27   2.0000      -0.536400       -14.5962
  28   2.0000      -0.508838       -13.8462
  29   2.0000      -0.497509       -13.5379
  30   2.0000      -0.492601       -13.4044
  31   2.0000      -0.448037       -12.1917
  32   2.0000      -0.439841       -11.9687
  33   2.0000      -0.404210       -10.9991
  34   2.0000      -0.339934        -9.2501
  35   2.0000      -0.332388        -9.0447
  36   0.0000       0.021122         0.5747
  37   0.0000       0.024768         0.6740
  38   0.0000       0.027833         0.7574
  39   0.0000       0.032331         0.8798
  40   0.0000       0.035397         0.9632

MULLIKEN ATOMIC CHARGES
-----------------------
   0 C :    0.101579
   1 C :   -0.723065
   2 C :   -0.217252
   3 C :   -0.389902
   4 C :   -0.124677
   5 C :   -0.511680
   6 B :    0.338644
   7 H :    0.259798
   8 H :    0.358424
   9 H :    0.245693
  10 H :    0.315260
  11 H :    0.285188
  12 Si:    1.277283
  13 C :   -1.183181
  14 H :    0.259302
  15 H :    0.263536
  16 H :    0.349584
  17 H :   -0.224732
  18 H :   -0.286592
  19 H :   -0.393209
Sum of atomic charges:    0.0000000

LOEWDIN ATOMIC CHARGES
----------------------
   0 C :   -0.084384
   1 C :    0.264603
   2 C :    0.339727
   3 C :    0.335355
   4 C :    0.343099
   5 C :    0.264830
   6 B :    0.410073
   7 H :   -0.319967
   8 H :   -0.320004
   9 H :   -0.319086
  10 H :   -0.332624
  11 H :   -0.339923
  12 Si:    0.538307
  13 C :    0.934755
  14 H :   -0.351815
  15 H :   -0.342938
  16 H :   -0.347858
  17 H :   -0.237771
  18 H :   -0.243979
  19 H :   -0.190399

  Mayer bond orders larger than 0.100000
B(  0-C ,  1-C ) :   0.8291 B(  0-C ,  2-C ) :  -0.3729 B(  0-C ,  4-C ) :  -0.3445
B(  0-C ,  5-C ) :   0.8386 B(  0-C , 10-H ) :  -0.1680 B(  0-C , 11-H ) :  -0.1284
B(  0-C , 12-Si) :   0.9374 B(  0-C , 19-H ) :  -0.1148 B(  1-C ,  2-C ) :   1.4240
B(  1-C ,  3-C ) :   0.1698 B(  1-C ,  4-C ) :   0.1463 B(  1-C ,  5-C ) :   0.1031
B(  1-C ,  7-H ) :  -0.1488 B(  1-C ,  8-H ) :  -0.1031 B(  1-C , 11-H ) :   0.9753
B(  2-C ,  3-C ) :   1.1076 B(  2-C ,  4-C ) :  -0.1121 B(  2-C ,  5-C ) :   0.1336
B(  2-C ,  7-H ) :   1.1035 B(  3-C ,  4-C ) :   1.1234 B(  3-C ,  5-C ) :   0.1784
B(  3-C ,  7-H ) :  -0.1052 B(  3-C ,  8-H ) :   0.9712 B(  4-C ,  5-C ) :   1.2827
B(  4-C ,  9-H ) :   1.1104 B(  5-C ,  9-H ) :  -0.1530 B(  5-C , 10-H ) :   0.9401
B(  5-C , 12-Si) :  -0.2068 B(  6-B , 12-Si) :   0.9229 B(  6-B , 17-H ) :   0.8851
B(  6-B , 18-H ) :   0.8871 B( 12-Si, 13-C ) :   0.7619 B( 12-Si, 19-H ) :   0.6535
B( 13-C , 14-H ) :   0.9308 B( 13-C , 15-H ) :   0.9550 B( 13-C , 16-H ) :   0.9014

MP2 TOTAL ENERGY:     -586.652605045 Eh
FINAL SINGLE POINT ENERGY      -586.652605045201

DIPOLE MOMENT
-------------
                                X             Y             Z
Electronic contribution:     -2.86980      -1.83933       1.06198
Nuclear contribution   :      2.80315       2.03224      -1.13362
                        -----------------------------------------
Total Dipole Moment    :     -0.06666       0.19291      -0.07165
                        -----------------------------------------
Magnitude (a.u.)       :      0.21631
Magnitude (Debye)      :      0.54982

Rotational constants in cm-1:     0.090991     0.028187     0.026567
Rotational constants in MHz :  2727.845859   845.024591   796.456620

                             ****ORCA TERMINATED NORMALLY****
TOTAL RUN TIME: 0 days 0 hours 54 minutes 56 seconds 116 msec
