                         Program Version 5.0.4 -  RELEASE  -
|  1> ! ri-mp2 aug-cc-pvdz aug-cc-pvdz/c tightscf
|  2> %pal nprocs 16 end
|  3> %maxcore 3800
|  4> %base "DZ_B-S_41_A"
|  5> %scf
|  6> STABPerform true
|  7> STABRestartUHFifUnstable true
|  8> end
|  9>
| 10> *xyz 0 2
| 11> S         1.933444    0.257227    0.000002
| 12> S         0.342427   -0.862491   -0.000003
| 13> C        -1.081220    0.316873    0.000000
| 14> C        -2.398058   -0.399697    0.000004
| 15> H        -3.204805    0.328432   -0.000017
| 16> H        -2.473167   -1.039900    0.879781
| 17> H        -2.473154   -1.039939   -0.879746
| 18> O        -0.923393    1.491570   -0.000004
| 19> *
| 20>
| 21> $new_job
| 22> ! ri-mp2 aug-cc-pvtz aug-cc-pvtz/c tightscf
| 23> %pal nprocs 16 end
| 24> %maxcore 3800
| 25> %base "TZ_B-S_41_A"
| 26>
| 27> *xyz 0 2
| 28> S         1.933444    0.257227    0.000002
| 29> S         0.342427   -0.862491   -0.000003
| 30> C        -1.081220    0.316873    0.000000
| 31> C        -2.398058   -0.399697    0.000004
| 32> H        -3.204805    0.328432   -0.000017
| 33> H        -2.473167   -1.039900    0.879781
| 34> H        -2.473154   -1.039939   -0.879746
| 35> O        -0.923393    1.491570   -0.000004
| 36> *
| 37>
| 38> $new_job
| 39> ! ri-mp2 aug-cc-pvqz aug-cc-pvqz/c tightscf
| 40> %pal nprocs 16 end
| 41> %maxcore 3800
| 42> %base "QZ_B-S_41_A"
| 43>
| 44> *xyz 0 2
| 45> S         1.933444    0.257227    0.000002
| 46> S         0.342427   -0.862491   -0.000003
| 47> C        -1.081220    0.316873    0.000000
| 48> C        -2.398058   -0.399697    0.000004
| 49> H        -3.204805    0.328432   -0.000017
| 50> H        -2.473167   -1.039900    0.879781
| 51> H        -2.473154   -1.039939   -0.879746
| 52> O        -0.923393    1.491570   -0.000004
| 53> *
| 54>
| 55>
| 56>
| 57>
| 58>                          ****END OF INPUT****
 Total Charge           Charge          ....    0
 Multiplicity           Mult            ....    2
 Number of Electrons    NEL             ....   55
MP2 TOTAL ENERGY:     -948.156246562 Eh
FINAL SINGLE POINT ENERGY      -948.156246561693
MP2 TOTAL ENERGY:     -948.390339368 Eh
FINAL SINGLE POINT ENERGY      -948.390339367720

CARTESIAN COORDINATES (ANGSTROEM)
---------------------------------
  S      1.933444    0.257227    0.000002
  S      0.342427   -0.862491   -0.000003
  C     -1.081220    0.316873    0.000000
  C     -2.398058   -0.399697    0.000004
  H     -3.204805    0.328432   -0.000017
  H     -2.473167   -1.039900    0.879781
  H     -2.473154   -1.039939   -0.879746
  O     -0.923393    1.491570   -0.000004

 Multiplicity           Mult            ....    2
 Number of Electrons    NEL             ....   55
 Basis Dimension        Dim             ....  546

ORBITAL ENERGIES
----------------
                 SPIN UP ORBITALS
  NO   OCC          E(Eh)            E(eV)
   0   1.0000     -92.011598     -2503.7629
   1   1.0000     -91.994516     -2503.2980
   2   1.0000     -20.580921      -560.0353
   3   1.0000     -11.377398      -309.5947
   4   1.0000     -11.260887      -306.4243
   5   1.0000      -9.012378      -245.2393
   6   1.0000      -8.995795      -244.7880
   7   1.0000      -6.695266      -182.1874
   8   1.0000      -6.692957      -182.1246
   9   1.0000      -6.691519      -182.0855
  10   1.0000      -6.689478      -182.0300
  11   1.0000      -6.673695      -181.6005
  12   1.0000      -6.671773      -181.5482
  13   1.0000      -1.437137       -39.1065
  14   1.0000      -1.106176       -30.1006
  15   1.0000      -1.041162       -28.3314
  16   1.0000      -0.892457       -24.2850
  17   1.0000      -0.750290       -20.4164
  18   1.0000      -0.666352       -18.1324
  19   1.0000      -0.657653       -17.8956
  20   1.0000      -0.637945       -17.3594
  21   1.0000      -0.578662       -15.7462
  22   1.0000      -0.552565       -15.0361
  23   1.0000      -0.512823       -13.9546
  24   1.0000      -0.507417       -13.8075
  25   1.0000      -0.447553       -12.1785
  26   1.0000      -0.376409       -10.2426
  27   1.0000      -0.373950       -10.1757
  28   0.0000       0.022350         0.6082
  29   0.0000       0.037533         1.0213
  30   0.0000       0.040660         1.1064
  31   0.0000       0.046528         1.2661
  32   0.0000       0.062318         1.6958

                 SPIN DOWN ORBITALS
  NO   OCC          E(Eh)            E(eV)
   0   1.0000     -92.009734     -2503.7122
   1   1.0000     -91.986183     -2503.0713
   2   1.0000     -20.579054      -559.9845
   3   1.0000     -11.378543      -309.6259
   4   1.0000     -11.260839      -306.4230
   5   1.0000      -9.010290      -245.1825
   6   1.0000      -8.986636      -244.5388
   7   1.0000      -6.692182      -182.1035
   8   1.0000      -6.690792      -182.0657
   9   1.0000      -6.686661      -181.9533
  10   1.0000      -6.669324      -181.4815
  11   1.0000      -6.666827      -181.4136
  12   1.0000      -6.652058      -181.0117
  13   1.0000      -1.433476       -39.0069
  14   1.0000      -1.084704       -29.5163
  15   1.0000      -1.031329       -28.0639
  16   1.0000      -0.843842       -22.9621
  17   1.0000      -0.737106       -20.0577
  18   1.0000      -0.663022       -18.0418
  19   1.0000      -0.651269       -17.7219
  20   1.0000      -0.633869       -17.2485
  21   1.0000      -0.578115       -15.7313
  22   1.0000      -0.538441       -14.6517
  23   1.0000      -0.491786       -13.3822
  24   1.0000      -0.442527       -12.0418
  25   1.0000      -0.421291       -11.4639
  26   1.0000      -0.362952        -9.8764
  27   0.0000       0.003941         0.1072
  28   0.0000       0.022416         0.6100
  29   0.0000       0.037716         1.0263
  30   0.0000       0.040690         1.1072
  31   0.0000       0.047375         1.2891

MULLIKEN ATOMIC CHARGES AND SPIN POPULATIONS
--------------------------------------------
   0 S :   -0.106080    0.909037
   1 S :    0.111728    0.092448
   2 C :    0.553635   -0.048610
   3 C :   -0.796140    0.003054
   4 H :    0.330991   -0.000738
   5 H :    0.275168   -0.000651
   6 H :    0.275164   -0.000651
   7 O :   -0.644465    0.046111
Sum of atomic charges         :    0.0000000

LOEWDIN ATOMIC CHARGES AND SPIN POPULATIONS
-------------------------------------------
   0 S :    0.354941    0.685607
   1 S :    0.401464    0.264660
   2 C :   -1.163611    0.020724
   3 C :    0.766502    0.002913
   4 H :   -0.321858   -0.000672
   5 H :   -0.322068    0.001360
   6 H :   -0.322069    0.001360
   7 O :    0.606699    0.024048

  Mayer bond orders larger than 0.100000
B(  0-S ,  1-S ) :   1.3605 B(  1-S ,  2-C ) :   0.8653 B(  2-C ,  3-C ) :   0.9614
B(  2-C ,  7-O ) :   1.5981 B(  3-C ,  4-H ) :   0.9134 B(  3-C ,  5-H ) :   0.9282
B(  3-C ,  6-H ) :   0.9282

MP2 TOTAL ENERGY:     -948.467199901 Eh
FINAL SINGLE POINT ENERGY      -948.467199901383

DIPOLE MOMENT
-------------
                                X             Y             Z
Electronic contribution:      7.07151       0.81603      -0.00001
Nuclear contribution   :     -7.93841      -1.64748       0.00002
                        -----------------------------------------
Total Dipole Moment    :     -0.86691      -0.83145       0.00000
                        -----------------------------------------
Magnitude (a.u.)       :      1.20118
Magnitude (Debye)      :      3.05316

Rotational constants in cm-1:     0.246410     0.069067     0.054490
Rotational constants in MHz :  7387.193985  2070.561595  1633.572696

                             ****ORCA TERMINATED NORMALLY****
TOTAL RUN TIME: 0 days 0 hours 45 minutes 17 seconds 167 msec
