                         Program Version 5.0.4 -  RELEASE  -
|  1> ! ri-mp2 aug-cc-pvdz aug-cc-pvdz/c tightscf
|  2> %pal nprocs 16 end
|  3> %maxcore 3800
|  4> %base "DZ_Si-Si_143_A"
|  5> %scf
|  6> STABPerform true
|  7> STABRestartUHFifUnstable true
|  8> end
|  9>
| 10> *xyz 0 2
| 11> Si        -1.835194   -0.120134   -0.065144
| 12> P         0.410094    0.019395   -0.111119
| 13> H        -2.351800   -0.190779    1.317928
| 14> H        -2.418672    1.001807   -0.827892
| 15> O         0.722824    1.251110    0.852962
| 16> H         1.594942    1.641320    0.705626
| 17> O         0.930036   -1.236107    0.742829
| 18> H         1.380959   -1.877941    0.180631
| 19> O         1.014125    0.087067   -1.445476
| 20> *
| 21>
| 22> $new_job
| 23> ! ri-mp2 aug-cc-pvtz aug-cc-pvtz/c tightscf
| 24> %pal nprocs 16 end
| 25> %maxcore 3800
| 26> %base "TZ_Si-Si_143_A"
| 27>
| 28> *xyz 0 2
| 29> Si        -1.835194   -0.120134   -0.065144
| 30> P         0.410094    0.019395   -0.111119
| 31> H        -2.351800   -0.190779    1.317928
| 32> H        -2.418672    1.001807   -0.827892
| 33> O         0.722824    1.251110    0.852962
| 34> H         1.594942    1.641320    0.705626
| 35> O         0.930036   -1.236107    0.742829
| 36> H         1.380959   -1.877941    0.180631
| 37> O         1.014125    0.087067   -1.445476
| 38> *
| 39>
| 40> $new_job
| 41> ! ri-mp2 aug-cc-pvqz aug-cc-pvqz/c tightscf
| 42> %pal nprocs 16 end
| 43> %maxcore 3800
| 44> %base "QZ_Si-Si_143_A"
| 45>
| 46> *xyz 0 2
| 47> Si        -1.835194   -0.120134   -0.065144
| 48> P         0.410094    0.019395   -0.111119
| 49> H        -2.351800   -0.190779    1.317928
| 50> H        -2.418672    1.001807   -0.827892
| 51> O         0.722824    1.251110    0.852962
| 52> H         1.594942    1.641320    0.705626
| 53> O         0.930036   -1.236107    0.742829
| 54> H         1.380959   -1.877941    0.180631
| 55> O         1.014125    0.087067   -1.445476
| 56> *
| 57>
| 58>
| 59>
| 60>
| 61>                          ****END OF INPUT****
 Total Charge           Charge          ....    0
 Multiplicity           Mult            ....    2
 Number of Electrons    NEL             ....   57
MP2 TOTAL ENERGY:     -857.461428780 Eh
FINAL SINGLE POINT ENERGY      -857.461428780361
MP2 TOTAL ENERGY:     -857.760503184 Eh
FINAL SINGLE POINT ENERGY      -857.760503184004

CARTESIAN COORDINATES (ANGSTROEM)
---------------------------------
  Si    -1.835194   -0.120134   -0.065144
  P      0.410094    0.019395   -0.111119
  H     -2.351800   -0.190779    1.317928
  H     -2.418672    1.001807   -0.827892
  O      0.722824    1.251110    0.852962
  H      1.594942    1.641320    0.705626
  O      0.930036   -1.236107    0.742829
  H      1.380959   -1.877941    0.180631
  O      1.014125    0.087067   -1.445476

 Multiplicity           Mult            ....    2
 Number of Electrons    NEL             ....   57
 Basis Dimension        Dim             ....  592

ORBITAL ENERGIES
----------------
                 SPIN UP ORBITALS
  NO   OCC          E(Eh)            E(eV)
   0   1.0000     -80.068867     -2178.7846
   1   1.0000     -68.806754     -1872.3270
   2   1.0000     -20.603951      -560.6620
   3   1.0000     -20.600592      -560.5706
   4   1.0000     -20.509665      -558.0963
   5   1.0000      -7.592051      -206.5902
   6   1.0000      -6.157688      -167.5592
   7   1.0000      -5.489887      -149.3874
   8   1.0000      -5.489212      -149.3690
   9   1.0000      -5.488537      -149.3507
  10   1.0000      -4.270507      -116.2064
  11   1.0000      -4.260401      -115.9314
  12   1.0000      -4.260134      -115.9242
  13   1.0000      -1.437742       -39.1229
  14   1.0000      -1.387258       -37.7492
  15   1.0000      -1.299988       -35.3745
  16   1.0000      -0.871221       -23.7071
  17   1.0000      -0.752330       -20.4720
  18   1.0000      -0.739608       -20.1258
  19   1.0000      -0.675653       -18.3855
  20   1.0000      -0.641895       -17.4669
  21   1.0000      -0.619638       -16.8612
  22   1.0000      -0.564250       -15.3540
  23   1.0000      -0.555524       -15.1166
  24   1.0000      -0.520438       -14.1618
  25   1.0000      -0.501480       -13.6460
  26   1.0000      -0.470308       -12.7977
  27   1.0000      -0.435209       -11.8427
  28   1.0000      -0.357489        -9.7278
  29   0.0000       0.022145         0.6026
  30   0.0000       0.031973         0.8700
  31   0.0000       0.033585         0.9139
  32   0.0000       0.044681         1.2158
  33   0.0000       0.051492         1.4012

                 SPIN DOWN ORBITALS
  NO   OCC          E(Eh)            E(eV)
   0   1.0000     -80.068715     -2178.7805
   1   1.0000     -68.800795     -1872.1648
   2   1.0000     -20.603010      -560.6364
   3   1.0000     -20.600863      -560.5780
   4   1.0000     -20.509843      -558.1012
   5   1.0000      -7.591796      -206.5833
   6   1.0000      -6.148559      -167.3108
   7   1.0000      -5.489835      -149.3860
   8   1.0000      -5.489122      -149.3666
   9   1.0000      -5.488025      -149.3367
  10   1.0000      -4.256273      -115.8191
  11   1.0000      -4.256036      -115.8126
  12   1.0000      -4.247290      -115.5746
  13   1.0000      -1.436742       -39.0957
  14   1.0000      -1.386438       -37.7269
  15   1.0000      -1.300483       -35.3879
  16   1.0000      -0.864824       -23.5331
  17   1.0000      -0.744437       -20.2571
  18   1.0000      -0.709518       -19.3070
  19   1.0000      -0.674931       -18.3658
  20   1.0000      -0.638308       -17.3692
  21   1.0000      -0.615278       -16.7426
  22   1.0000      -0.564841       -15.3701
  23   1.0000      -0.553394       -15.0586
  24   1.0000      -0.515610       -14.0305
  25   1.0000      -0.497961       -13.5502
  26   1.0000      -0.468656       -12.7528
  27   1.0000      -0.429692       -11.6925
  28   0.0000       0.011125         0.3027
  29   0.0000       0.023397         0.6367
  30   0.0000       0.032800         0.8925
  31   0.0000       0.038700         1.0531
  32   0.0000       0.046169         1.2563

MULLIKEN ATOMIC CHARGES AND SPIN POPULATIONS
--------------------------------------------
   0 Si:    0.501002    0.992981
   1 P :    1.955925    0.003511
   2 H :   -0.162529    0.005736
   3 H :   -0.177178    0.003698
   4 O :   -0.856082   -0.003227
   5 H :    0.372626    0.004210
   6 O :   -0.848975   -0.004547
   7 H :    0.368579    0.001761
   8 O :   -1.153367   -0.004123
Sum of atomic charges         :    0.0000000

LOEWDIN ATOMIC CHARGES AND SPIN POPULATIONS
-------------------------------------------
   0 Si:    1.030273    0.548347
   1 P :   -0.788649    0.157112
   2 H :   -0.381503    0.131772
   3 H :   -0.382480    0.129870
   4 O :    1.025733    0.022414
   5 H :   -0.863303    0.003238
   6 O :    1.029518    0.003648
   7 H :   -0.893201    0.001212
   8 O :    0.223612    0.002387

  Mayer bond orders larger than 0.100000
B(  0-Si,  1-P ) :   0.8955 B(  0-Si,  2-H ) :   0.8839 B(  0-Si,  3-H ) :   0.8737
B(  1-P ,  4-O ) :   0.6291 B(  1-P ,  6-O ) :   0.6716 B(  1-P ,  8-O ) :   1.4206
B(  4-O ,  5-H ) :   0.9072 B(  6-O ,  7-H ) :   0.9165

MP2 TOTAL ENERGY:     -857.858307027 Eh
FINAL SINGLE POINT ENERGY      -857.858307027011

DIPOLE MOMENT
-------------
                                X             Y             Z
Electronic contribution:      1.72729      -0.73711      -0.78852
Nuclear contribution   :     -1.95782       0.54430       1.43433
                        -----------------------------------------
Total Dipole Moment    :     -0.23052      -0.19281       0.64581
                        -----------------------------------------
Magnitude (a.u.)       :      0.71231
Magnitude (Debye)      :      1.81054

Rotational constants in cm-1:     0.147027     0.079710     0.079517
Rotational constants in MHz :  4407.754266  2389.658388  2383.846117

                             ****ORCA TERMINATED NORMALLY****
TOTAL RUN TIME: 0 days 0 hours 44 minutes 59 seconds 976 msec
