                         Program Version 5.0.4 -  RELEASE  -
|  1> ! ri-mp2 aug-cc-pvdz aug-cc-pvdz/c tightscf
|  2> %pal nprocs 16 end
|  3> %maxcore 3800
|  4> %base "DZ_B-P_3_AB"
|  5> %scf
|  6> STABPerform true
|  7> STABRestartUHFifUnstable true
|  8> end
|  9>
| 10> *xyz 0 1
| 11> P        -0.559983    1.308464   -0.222636
| 12> B        -1.568915   -0.324600   -0.036893
| 13> O        -1.223050   -1.387962   -0.808753
| 14> O        -2.673731   -0.446955    0.756145
| 15> C         1.152547    0.669529   -0.507274
| 16> C         1.743506   -0.233750    0.565712
| 17> H         1.796979    1.537385   -0.664649
| 18> H         1.113998    0.142081   -1.463424
| 19> C         3.153194   -0.695491    0.226440
| 20> H         1.096112   -1.102486    0.699422
| 21> H         1.750524    0.298836    1.520223
| 22> H         3.164881   -1.260293   -0.707422
| 23> H         3.559913   -1.337139    1.008908
| 24> H         3.828441    0.154084    0.107841
| 25> H        -1.828947   -2.131414   -0.711233
| 26> H        -2.884339    0.324026    1.287196
| 27> H        -0.474479    1.608561    1.158739
| 28> *
| 29>
| 30> $new_job
| 31> ! ri-mp2 aug-cc-pvtz aug-cc-pvtz/c tightscf
| 32> %pal nprocs 16 end
| 33> %maxcore 3800
| 34> %base "TZ_B-P_3_AB"
| 35>
| 36> *xyz 0 1
| 37> P        -0.559983    1.308464   -0.222636
| 38> B        -1.568915   -0.324600   -0.036893
| 39> O        -1.223050   -1.387962   -0.808753
| 40> O        -2.673731   -0.446955    0.756145
| 41> C         1.152547    0.669529   -0.507274
| 42> C         1.743506   -0.233750    0.565712
| 43> H         1.796979    1.537385   -0.664649
| 44> H         1.113998    0.142081   -1.463424
| 45> C         3.153194   -0.695491    0.226440
| 46> H         1.096112   -1.102486    0.699422
| 47> H         1.750524    0.298836    1.520223
| 48> H         3.164881   -1.260293   -0.707422
| 49> H         3.559913   -1.337139    1.008908
| 50> H         3.828441    0.154084    0.107841
| 51> H        -1.828947   -2.131414   -0.711233
| 52> H        -2.884339    0.324026    1.287196
| 53> H        -0.474479    1.608561    1.158739
| 54> *
| 55>
| 56> $new_job
| 57> ! ri-mp2 aug-cc-pvqz aug-cc-pvqz/c tightscf
| 58> %pal nprocs 16 end
| 59> %maxcore 3800
| 60> %base "QZ_B-P_3_AB"
| 61>
| 62> *xyz 0 1
| 63> P        -0.559983    1.308464   -0.222636
| 64> B        -1.568915   -0.324600   -0.036893
| 65> O        -1.223050   -1.387962   -0.808753
| 66> O        -2.673731   -0.446955    0.756145
| 67> C         1.152547    0.669529   -0.507274
| 68> C         1.743506   -0.233750    0.565712
| 69> H         1.796979    1.537385   -0.664649
| 70> H         1.113998    0.142081   -1.463424
| 71> C         3.153194   -0.695491    0.226440
| 72> H         1.096112   -1.102486    0.699422
| 73> H         1.750524    0.298836    1.520223
| 74> H         3.164881   -1.260293   -0.707422
| 75> H         3.559913   -1.337139    1.008908
| 76> H         3.828441    0.154084    0.107841
| 77> H        -1.828947   -2.131414   -0.711233
| 78> H        -2.884339    0.324026    1.287196
| 79> H        -0.474479    1.608561    1.158739
| 80> *
| 81>
| 82>
| 83>
| 84>
| 85>                          ****END OF INPUT****
 Total Charge           Charge          ....    0
 Multiplicity           Mult            ....    1
 Number of Electrons    NEL             ....   64
MP2 TOTAL ENERGY:     -635.795883380 Eh
FINAL SINGLE POINT ENERGY      -635.795883379666
MP2 TOTAL ENERGY:     -636.108796946 Eh
FINAL SINGLE POINT ENERGY      -636.108796946436

CARTESIAN COORDINATES (ANGSTROEM)
---------------------------------
  P     -0.559983    1.308464   -0.222636
  B     -1.568915   -0.324600   -0.036893
  O     -1.223050   -1.387962   -0.808753
  O     -2.673731   -0.446955    0.756145
  C      1.152547    0.669529   -0.507274
  C      1.743506   -0.233750    0.565712
  H      1.796979    1.537385   -0.664649
  H      1.113998    0.142081   -1.463424
  C      3.153194   -0.695491    0.226440
  H      1.096112   -1.102486    0.699422
  H      1.750524    0.298836    1.520223
  H      3.164881   -1.260293   -0.707422
  H      3.559913   -1.337139    1.008908
  H      3.828441    0.154084    0.107841
  H     -1.828947   -2.131414   -0.711233
  H     -2.884339    0.324026    1.287196
  H     -0.474479    1.608561    1.158739

 Multiplicity           Mult            ....    1
 Number of Electrons    NEL             ....   64
 Basis Dimension        Dim             .... 1024

ORBITAL ENERGIES
----------------

  NO   OCC          E(Eh)            E(eV)
   0   2.0000     -79.914735     -2174.5905
   1   2.0000     -20.575782      -559.8955
   2   2.0000     -20.569117      -559.7141
   3   2.0000     -11.225437      -305.4597
   4   2.0000     -11.220094      -305.3143
   5   2.0000     -11.210340      -305.0489
   6   2.0000      -7.648469      -208.1254
   7   2.0000      -7.460034      -202.9978
   8   2.0000      -5.354433      -145.7015
   9   2.0000      -5.353977      -145.6891
  10   2.0000      -5.353346      -145.6720
  11   2.0000      -1.392256       -37.8852
  12   2.0000      -1.351302       -36.7708
  13   2.0000      -1.065095       -28.9827
  14   2.0000      -0.948289       -25.8043
  15   2.0000      -0.829964       -22.5845
  16   2.0000      -0.793993       -21.6057
  17   2.0000      -0.763994       -20.7893
  18   2.0000      -0.730153       -19.8685
  19   2.0000      -0.637280       -17.3413
  20   2.0000      -0.614240       -16.7143
  21   2.0000      -0.583346       -15.8736
  22   2.0000      -0.580399       -15.7935
  23   2.0000      -0.569411       -15.4945
  24   2.0000      -0.545732       -14.8501
  25   2.0000      -0.536478       -14.5983
  26   2.0000      -0.509756       -13.8712
  27   2.0000      -0.490529       -13.3480
  28   2.0000      -0.477079       -12.9820
  29   2.0000      -0.467199       -12.7131
  30   2.0000      -0.434585       -11.8257
  31   2.0000      -0.341308        -9.2875
  32   0.0000       0.022199         0.6041
  33   0.0000       0.028916         0.7869
  34   0.0000       0.031779         0.8647
  35   0.0000       0.035109         0.9554
  36   0.0000       0.044086         1.1996

MULLIKEN ATOMIC CHARGES
-----------------------
   0 P :    0.254272
   1 B :    1.337691
   2 O :   -0.981010
   3 O :   -1.158519
   4 C :   -0.597500
   5 C :   -0.377287
   6 H :    0.318306
   7 H :    0.248300
   8 C :   -0.840230
   9 H :    0.277474
  10 H :    0.241984
  11 H :    0.226845
  12 H :    0.271732
  13 H :    0.227024
  14 H :    0.327256
  15 H :    0.352967
  16 H :   -0.129304
Sum of atomic charges:   -0.0000000

LOEWDIN ATOMIC CHARGES
----------------------
   0 P :    1.370840
   1 B :   -1.450923
   2 O :    1.298509
   3 O :    1.310722
   4 C :    0.306181
   5 C :    0.430832
   6 H :   -0.350315
   7 H :   -0.352240
   8 C :    0.926219
   9 H :   -0.305431
  10 H :   -0.287587
  11 H :   -0.282597
  12 H :   -0.281687
  13 H :   -0.284824
  14 H :   -0.791744
  15 H :   -0.816067
  16 H :   -0.439887

  Mayer bond orders larger than 0.100000
B(  0-P ,  1-B ) :   1.0154 B(  0-P ,  4-C ) :   0.7421 B(  0-P , 16-H ) :   0.9725
B(  1-B ,  2-O ) :   0.4373 B(  1-B ,  3-O ) :   0.4547 B(  2-O , 14-H ) :   0.9561
B(  3-O , 15-H ) :   0.9059 B(  4-C ,  5-C ) :   0.8781 B(  4-C ,  6-H ) :   0.8987
B(  4-C ,  7-H ) :   0.9226 B(  5-C ,  8-C ) :   0.9218 B(  5-C ,  9-H ) :   0.8698
B(  5-C , 10-H ) :   0.8804 B(  8-C , 11-H ) :   0.9612 B(  8-C , 12-H ) :   0.9883
B(  8-C , 13-H ) :   0.9651

MP2 TOTAL ENERGY:     -636.207882762 Eh
FINAL SINGLE POINT ENERGY      -636.207882761735

DIPOLE MOMENT
-------------
                                X             Y             Z
Electronic contribution:    -12.88573       2.57547      -1.96567
Nuclear contribution   :     12.89156      -2.78686       2.48276
                        -----------------------------------------
Total Dipole Moment    :      0.00583      -0.21139       0.51709
                        -----------------------------------------
Magnitude (a.u.)       :      0.55866
Magnitude (Debye)      :      1.42001

Rotational constants in cm-1:     0.109801     0.038075     0.032540
Rotational constants in MHz :  3291.760146  1141.468736   975.532537

                             ****ORCA TERMINATED NORMALLY****
TOTAL RUN TIME: 0 days 2 hours 29 minutes 18 seconds 475 msec
