                         Program Version 5.0.4 -  RELEASE  -
|  1> ! ri-mp2 aug-cc-pvdz aug-cc-pvdz/c tightscf
|  2> %pal nprocs 16 end
|  3> %maxcore 3800
|  4> %base "DZ_P-Si_4_AB"
|  5> %scf
|  6> STABPerform true
|  7> STABRestartUHFifUnstable true
|  8> end
|  9>
| 10> *xyz 0 1
| 11> C         1.627886   -0.151628   -0.020229
| 12> P        -1.091852   -0.569387    0.713663
| 13> C        -1.173642   -1.680400   -0.755968
| 14> H        -0.445162   -1.437753   -1.526896
| 15> H        -2.179618   -1.626943   -1.172617
| 16> H        -1.001867   -2.706158   -0.430572
| 17> O         1.900408   -0.897041   -0.929982
| 18> C         2.171282    1.252065    0.035952
| 19> Si        -1.404581    1.411647   -0.308465
| 20> H         3.010096    1.264050    0.736710
| 21> H         1.435659    1.964421    0.408056
| 22> H         2.527398    1.552324   -0.945773
| 23> C         0.737599   -0.590627    1.107244
| 24> H         0.880662    0.021929    1.997085
| 25> H         0.966227   -1.627121    1.356111
| 26> H        -2.826580    1.447417   -0.713034
| 27> H        -0.562225    1.617781   -1.509761
| 28> H        -1.144686    2.507669    0.652112
| 29> *
| 30>
| 31> $new_job
| 32> ! ri-mp2 aug-cc-pvtz aug-cc-pvtz/c tightscf
| 33> %pal nprocs 16 end
| 34> %maxcore 3800
| 35> %base "TZ_P-Si_4_AB"
| 36>
| 37> *xyz 0 1
| 38> C         1.627886   -0.151628   -0.020229
| 39> P        -1.091852   -0.569387    0.713663
| 40> C        -1.173642   -1.680400   -0.755968
| 41> H        -0.445162   -1.437753   -1.526896
| 42> H        -2.179618   -1.626943   -1.172617
| 43> H        -1.001867   -2.706158   -0.430572
| 44> O         1.900408   -0.897041   -0.929982
| 45> C         2.171282    1.252065    0.035952
| 46> Si        -1.404581    1.411647   -0.308465
| 47> H         3.010096    1.264050    0.736710
| 48> H         1.435659    1.964421    0.408056
| 49> H         2.527398    1.552324   -0.945773
| 50> C         0.737599   -0.590627    1.107244
| 51> H         0.880662    0.021929    1.997085
| 52> H         0.966227   -1.627121    1.356111
| 53> H        -2.826580    1.447417   -0.713034
| 54> H        -0.562225    1.617781   -1.509761
| 55> H        -1.144686    2.507669    0.652112
| 56> *
| 57>
| 58> $new_job
| 59> ! ri-mp2 aug-cc-pvqz aug-cc-pvqz/c tightscf
| 60> %pal nprocs 16 end
| 61> %maxcore 3800
| 62> %base "QZ_P-Si_4_AB"
| 63>
| 64> *xyz 0 1
| 65> C         1.627886   -0.151628   -0.020229
| 66> P        -1.091852   -0.569387    0.713663
| 67> C        -1.173642   -1.680400   -0.755968
| 68> H        -0.445162   -1.437753   -1.526896
| 69> H        -2.179618   -1.626943   -1.172617
| 70> H        -1.001867   -2.706158   -0.430572
| 71> O         1.900408   -0.897041   -0.929982
| 72> C         2.171282    1.252065    0.035952
| 73> Si        -1.404581    1.411647   -0.308465
| 74> H         3.010096    1.264050    0.736710
| 75> H         1.435659    1.964421    0.408056
| 76> H         2.527398    1.552324   -0.945773
| 77> C         0.737599   -0.590627    1.107244
| 78> H         0.880662    0.021929    1.997085
| 79> H         0.966227   -1.627121    1.356111
| 80> H        -2.826580    1.447417   -0.713034
| 81> H        -0.562225    1.617781   -1.509761
| 82> H        -1.144686    2.507669    0.652112
| 83> *
| 84>
| 85>
| 86>
| 87>
| 88>                          ****END OF INPUT****
 Total Charge           Charge          ....    0
 Multiplicity           Mult            ....    1
 Number of Electrons    NEL             ....   72
MP2 TOTAL ENERGY:     -863.454930685 Eh
FINAL SINGLE POINT ENERGY      -863.454930684879
MP2 TOTAL ENERGY:     -863.746412410 Eh
FINAL SINGLE POINT ENERGY      -863.746412409603

CARTESIAN COORDINATES (ANGSTROEM)
---------------------------------
  C      1.627886   -0.151628   -0.020229
  P     -1.091852   -0.569387    0.713663
  C     -1.173642   -1.680400   -0.755968
  H     -0.445162   -1.437753   -1.526896
  H     -2.179618   -1.626943   -1.172617
  H     -1.001867   -2.706158   -0.430572
  O      1.900408   -0.897041   -0.929982
  C      2.171282    1.252065    0.035952
  Si    -1.404581    1.411647   -0.308465
  H      3.010096    1.264050    0.736710
  H      1.435659    1.964421    0.408056
  H      2.527398    1.552324   -0.945773
  C      0.737599   -0.590627    1.107244
  H      0.880662    0.021929    1.997085
  H      0.966227   -1.627121    1.356111
  H     -2.826580    1.447417   -0.713034
  H     -0.562225    1.617781   -1.509761
  H     -1.144686    2.507669    0.652112

 Multiplicity           Mult            ....    1
 Number of Electrons    NEL             ....   72
 Basis Dimension        Dim             .... 1074

ORBITAL ENERGIES
----------------

  NO   OCC          E(Eh)            E(eV)
   0   2.0000     -79.938947     -2175.2493
   1   2.0000     -68.778013     -1871.5449
   2   2.0000     -20.543762      -559.0242
   3   2.0000     -11.334735      -308.4338
   4   2.0000     -11.246787      -306.0406
   5   2.0000     -11.237397      -305.7851
   6   2.0000     -11.225466      -305.4605
   7   2.0000      -7.481687      -203.5870
   8   2.0000      -6.128206      -166.7570
   9   2.0000      -5.375684      -146.2798
  10   2.0000      -5.375493      -146.2746
  11   2.0000      -5.374619      -146.2508
  12   2.0000      -4.234327      -115.2219
  13   2.0000      -4.234270      -115.2203
  14   2.0000      -4.234106      -115.2159
  15   2.0000      -1.393959       -37.9315
  16   2.0000      -1.056917       -28.7602
  17   2.0000      -0.998847       -27.1800
  18   2.0000      -0.955878       -26.0108
  19   2.0000      -0.791909       -21.5489
  20   2.0000      -0.746339       -20.3089
  21   2.0000      -0.688756       -18.7420
  22   2.0000      -0.655614       -17.8402
  23   2.0000      -0.645803       -17.5732
  24   2.0000      -0.614713       -16.7272
  25   2.0000      -0.583519       -15.8784
  26   2.0000      -0.575640       -15.6640
  27   2.0000      -0.568823       -15.4785
  28   2.0000      -0.546800       -14.8792
  29   2.0000      -0.508475       -13.8363
  30   2.0000      -0.497813       -13.5462
  31   2.0000      -0.493049       -13.4166
  32   2.0000      -0.462015       -12.5721
  33   2.0000      -0.432506       -11.7691
  34   2.0000      -0.420734       -11.4487
  35   2.0000      -0.335604        -9.1322
  36   0.0000       0.021828         0.5940
  37   0.0000       0.028919         0.7869
  38   0.0000       0.031322         0.8523
  39   0.0000       0.034634         0.9424
  40   0.0000       0.042965         1.1691

MULLIKEN ATOMIC CHARGES
-----------------------
   0 C :    1.170517
   1 P :    0.364892
   2 C :   -1.189797
   3 H :    0.292574
   4 H :    0.369441
   5 H :    0.331820
   6 O :   -0.941880
   7 C :   -1.026026
   8 Si:    0.887047
   9 H :    0.358002
  10 H :    0.236116
  11 H :    0.294334
  12 C :   -0.860824
  13 H :    0.302342
  14 H :    0.328184
  15 H :   -0.462448
  16 H :   -0.195247
  17 H :   -0.259046
Sum of atomic charges:   -0.0000000

LOEWDIN ATOMIC CHARGES
----------------------
   0 C :   -0.755409
   1 P :    0.875527
   2 C :    0.708437
   3 H :   -0.393851
   4 H :   -0.365884
   5 H :   -0.351530
   6 O :    0.758837
   7 C :    0.863235
   8 Si:    0.880045
   9 H :   -0.279051
  10 H :   -0.343713
  11 H :   -0.303104
  12 C :    0.289477
  13 H :   -0.373274
  14 H :   -0.370079
  15 H :   -0.295016
  16 H :   -0.260823
  17 H :   -0.283825

  Mayer bond orders larger than 0.100000
B(  0-C ,  6-O ) :   0.9428 B(  0-C ,  7-C ) :   0.8536 B(  0-C , 12-C ) :   0.9498
B(  1-P ,  2-C ) :   0.8621 B(  1-P ,  8-Si) :   0.8262 B(  1-P , 12-C ) :   0.7801
B(  2-C ,  3-H ) :   0.9018 B(  2-C ,  4-H ) :   0.8630 B(  2-C ,  5-H ) :   0.8976
B(  6-O ,  7-C ) :   0.1349 B(  6-O , 12-C ) :   0.1939 B(  7-C ,  9-H ) :   0.8806
B(  7-C , 10-H ) :   0.9699 B(  7-C , 11-H ) :   0.9652 B(  8-Si, 15-H ) :   0.6264
B(  8-Si, 16-H ) :   0.7843 B(  8-Si, 17-H ) :   0.7495 B( 12-C , 13-H ) :   0.9181
B( 12-C , 14-H ) :   0.8893

MP2 TOTAL ENERGY:     -863.838232147 Eh
FINAL SINGLE POINT ENERGY      -863.838232147359

DIPOLE MOMENT
-------------
                                X             Y             Z
Electronic contribution:     -1.81043      -2.88879       2.37741
Nuclear contribution   :      1.82891       3.44630      -1.83819
                        -----------------------------------------
Total Dipole Moment    :      0.01849       0.55752       0.53922
                        -----------------------------------------
Magnitude (a.u.)       :      0.77584
Magnitude (Debye)      :      1.97202

Rotational constants in cm-1:     0.070981     0.046110     0.036098
Rotational constants in MHz :  2127.965381  1382.337355  1082.192042

                             ****ORCA TERMINATED NORMALLY****
TOTAL RUN TIME: 0 days 2 hours 37 minutes 28 seconds 959 msec
