                         Program Version 5.0.4 -  RELEASE  -
|  1> ! ri-mp2 aug-cc-pvdz aug-cc-pvdz/c tightscf
|  2> %pal nprocs 16 end
|  3> %maxcore 3800
|  4> %base "DZ_Si-F_12_A"
|  5> %scf
|  6> STABPerform true
|  7> STABRestartUHFifUnstable true
|  8> end
|  9>
| 10> *xyz 0 2
| 11> Si         0.392356   -1.109402    0.000000
| 12> C        -1.067069    0.066485    0.000000
| 13> Cl         1.855098    0.376010    0.000000
| 14> F        -1.104291    1.372435    0.000000
| 15> F        -2.298736   -0.401263    0.000000
| 16> *
| 17>
| 18> $new_job
| 19> ! ri-mp2 aug-cc-pvtz aug-cc-pvtz/c tightscf
| 20> %pal nprocs 16 end
| 21> %maxcore 3800
| 22> %base "TZ_Si-F_12_A"
| 23>
| 24> *xyz 0 2
| 25> Si         0.392356   -1.109402    0.000000
| 26> C        -1.067069    0.066485    0.000000
| 27> Cl         1.855098    0.376010    0.000000
| 28> F        -1.104291    1.372435    0.000000
| 29> F        -2.298736   -0.401263    0.000000
| 30> *
| 31>
| 32> $new_job
| 33> ! ri-mp2 aug-cc-pvqz aug-cc-pvqz/c tightscf
| 34> %pal nprocs 16 end
| 35> %maxcore 3800
| 36> %base "QZ_Si-F_12_A"
| 37>
| 38> *xyz 0 2
| 39> Si         0.392356   -1.109402    0.000000
| 40> C        -1.067069    0.066485    0.000000
| 41> Cl         1.855098    0.376010    0.000000
| 42> F        -1.104291    1.372435    0.000000
| 43> F        -2.298736   -0.401263    0.000000
| 44> *
| 45>
| 46>
| 47>
| 48>
| 49>                          ****END OF INPUT****
 Total Charge           Charge          ....    0
 Multiplicity           Mult            ....    2
 Number of Electrons    NEL             ....   55
MP2 TOTAL ENERGY:     -985.920023258 Eh
FINAL SINGLE POINT ENERGY      -985.920023257830
MP2 TOTAL ENERGY:     -986.206683363 Eh
FINAL SINGLE POINT ENERGY      -986.206683363189

CARTESIAN COORDINATES (ANGSTROEM)
---------------------------------
  Si     0.392356   -1.109402    0.000000
  C     -1.067069    0.066485    0.000000
  Cl     1.855098    0.376010    0.000000
  F     -1.104291    1.372435    0.000000
  F     -2.298736   -0.401263    0.000000

 Multiplicity           Mult            ....    2
 Number of Electrons    NEL             ....   55
 Basis Dimension        Dim             ....  408

ORBITAL ENERGIES
----------------
                 SPIN UP ORBITALS
  NO   OCC          E(Eh)            E(eV)
   0   1.0000    -104.839087     -2852.8166
   1   1.0000     -68.853284     -1873.5931
   2   1.0000     -26.357133      -717.2141
   3   1.0000     -26.356578      -717.1990
   4   1.0000     -11.429416      -311.0102
   5   1.0000     -10.566226      -287.5216
   6   1.0000      -8.032619      -218.5787
   7   1.0000      -8.032605      -218.5783
   8   1.0000      -8.031537      -218.5492
   9   1.0000      -6.194901      -168.5718
  10   1.0000      -4.298754      -116.9750
  11   1.0000      -4.296447      -116.9123
  12   1.0000      -4.294190      -116.8508
  13   1.0000      -1.723626       -46.9023
  14   1.0000      -1.654662       -45.0256
  15   1.0000      -1.108330       -30.1592
  16   1.0000      -0.980245       -26.6738
  17   1.0000      -0.824309       -22.4306
  18   1.0000      -0.808501       -22.0004
  19   1.0000      -0.800657       -21.7870
  20   1.0000      -0.719019       -19.5655
  21   1.0000      -0.681748       -18.5513
  22   1.0000      -0.676888       -18.4190
  23   1.0000      -0.558793       -15.2055
  24   1.0000      -0.496917       -13.5218
  25   1.0000      -0.486735       -13.2447
  26   1.0000      -0.382977       -10.4213
  27   1.0000      -0.381968       -10.3939
  28   0.0000       0.017788         0.4840
  29   0.0000       0.035522         0.9666
  30   0.0000       0.038110         1.0370
  31   0.0000       0.040531         1.1029
  32   0.0000       0.055263         1.5038

                 SPIN DOWN ORBITALS
  NO   OCC          E(Eh)            E(eV)
   0   1.0000    -104.838820     -2852.8093
   1   1.0000     -68.852867     -1873.5818
   2   1.0000     -26.352934      -717.0998
   3   1.0000     -26.352318      -717.0830
   4   1.0000     -11.411031      -310.5099
   5   1.0000     -10.565956      -287.5143
   6   1.0000      -8.032767      -218.5827
   7   1.0000      -8.031578      -218.5503
   8   1.0000      -8.031004      -218.5347
   9   1.0000      -6.194247      -168.5540
  10   1.0000      -4.296810      -116.9222
  11   1.0000      -4.295445      -116.8850
  12   1.0000      -4.294284      -116.8534
  13   1.0000      -1.710045       -46.5327
  14   1.0000      -1.644453       -44.7478
  15   1.0000      -1.105652       -30.0863
  16   1.0000      -0.935955       -25.4686
  17   1.0000      -0.810414       -22.0525
  18   1.0000      -0.803237       -21.8572
  19   1.0000      -0.741894       -20.1880
  20   1.0000      -0.675414       -18.3789
  21   1.0000      -0.675172       -18.3724
  22   1.0000      -0.669993       -18.2314
  23   1.0000      -0.546680       -14.8759
  24   1.0000      -0.485983       -13.2243
  25   1.0000      -0.484537       -13.1849
  26   1.0000      -0.374831       -10.1997
  27   0.0000      -0.010336        -0.2813
  28   0.0000       0.036177         0.9844
  29   0.0000       0.038724         1.0537
  30   0.0000       0.040724         1.1082
  31   0.0000       0.047646         1.2965

MULLIKEN ATOMIC CHARGES AND SPIN POPULATIONS
--------------------------------------------
   0 Si:    0.920387    0.135813
   1 C :    0.656117    0.799259
   2 Cl:   -0.556267    0.012997
   3 F :   -0.497577    0.025733
   4 F :   -0.522660    0.026199
Sum of atomic charges         :   -0.0000000

LOEWDIN ATOMIC CHARGES AND SPIN POPULATIONS
-------------------------------------------
   0 Si:   -0.205092    0.194193
   1 C :   -1.611566    0.508628
   2 Cl:    0.609755    0.031469
   3 F :    0.613536    0.131034
   4 F :    0.593368    0.134676

  Mayer bond orders larger than 0.100000
B(  0-Si,  1-C ) :   0.9292 B(  0-Si,  2-Cl) :   0.7604 B(  1-C ,  3-F ) :   0.7130
B(  1-C ,  4-F ) :   0.7281

MP2 TOTAL ENERGY:     -986.302187427 Eh
FINAL SINGLE POINT ENERGY      -986.302187426954

DIPOLE MOMENT
-------------
                                X             Y             Z
Electronic contribution:     -0.69117       0.93901      -0.00000
Nuclear contribution   :      0.62130      -1.30062       0.00000
                        -----------------------------------------
Total Dipole Moment    :     -0.06986      -0.36162      -0.00000
                        -----------------------------------------
Magnitude (a.u.)       :      0.36830
Magnitude (Debye)      :      0.93615

Rotational constants in cm-1:     0.214863     0.063961     0.049289
Rotational constants in MHz :  6441.438139  1917.509199  1477.640232

                             ****ORCA TERMINATED NORMALLY****
TOTAL RUN TIME: 0 days 0 hours 8 minutes 30 seconds 343 msec
