                         Program Version 5.0.4 -  RELEASE  -
|  1> ! ri-mp2 aug-cc-pvdz aug-cc-pvdz/c tightscf
|  2> %pal nprocs 16 end
|  3> %maxcore 3800
|  4> %base "DZ_P-N_35_A"
|  5> %scf
|  6> STABPerform true
|  7> STABRestartUHFifUnstable true
|  8> end
|  9>
| 10> *xyz 0 2
| 11> C        -0.387752   -0.000064   -0.405127
| 12> C         0.402990   -1.192598    0.145355
| 13> C         0.402943    1.192653    0.145063
| 14> C         1.872834    0.773252   -0.007570
| 15> H         0.154949    1.327254    1.200751
| 16> H         0.171078    2.127363   -0.364036
| 17> C         1.872793   -0.773266   -0.007913
| 18> H         2.490501    1.186012    0.789243
| 19> H         2.276520    1.152306   -0.946612
| 20> H         2.490966   -1.186466    0.788279
| 21> H         2.275800   -1.151890   -0.947426
| 22> H         0.170960   -2.127524   -0.363275
| 23> H         0.155298   -1.326713    1.201180
| 24> P        -2.189486   -0.000006   -0.030809
| 25> H        -0.301026   -0.000214   -1.496838
| 26> H        -2.025598    0.000090    1.382017
| 27> *
| 28>
| 29> $new_job
| 30> ! ri-mp2 aug-cc-pvtz aug-cc-pvtz/c tightscf
| 31> %pal nprocs 16 end
| 32> %maxcore 3800
| 33> %base "TZ_P-N_35_A"
| 34>
| 35> *xyz 0 2
| 36> C        -0.387752   -0.000064   -0.405127
| 37> C         0.402990   -1.192598    0.145355
| 38> C         0.402943    1.192653    0.145063
| 39> C         1.872834    0.773252   -0.007570
| 40> H         0.154949    1.327254    1.200751
| 41> H         0.171078    2.127363   -0.364036
| 42> C         1.872793   -0.773266   -0.007913
| 43> H         2.490501    1.186012    0.789243
| 44> H         2.276520    1.152306   -0.946612
| 45> H         2.490966   -1.186466    0.788279
| 46> H         2.275800   -1.151890   -0.947426
| 47> H         0.170960   -2.127524   -0.363275
| 48> H         0.155298   -1.326713    1.201180
| 49> P        -2.189486   -0.000006   -0.030809
| 50> H        -0.301026   -0.000214   -1.496838
| 51> H        -2.025598    0.000090    1.382017
| 52> *
| 53>
| 54> $new_job
| 55> ! ri-mp2 aug-cc-pvqz aug-cc-pvqz/c tightscf
| 56> %pal nprocs 16 end
| 57> %maxcore 3800
| 58> %base "QZ_P-N_35_A"
| 59>
| 60> *xyz 0 2
| 61> C        -0.387752   -0.000064   -0.405127
| 62> C         0.402990   -1.192598    0.145355
| 63> C         0.402943    1.192653    0.145063
| 64> C         1.872834    0.773252   -0.007570
| 65> H         0.154949    1.327254    1.200751
| 66> H         0.171078    2.127363   -0.364036
| 67> C         1.872793   -0.773266   -0.007913
| 68> H         2.490501    1.186012    0.789243
| 69> H         2.276520    1.152306   -0.946612
| 70> H         2.490966   -1.186466    0.788279
| 71> H         2.275800   -1.151890   -0.947426
| 72> H         0.170960   -2.127524   -0.363275
| 73> H         0.155298   -1.326713    1.201180
| 74> P        -2.189486   -0.000006   -0.030809
| 75> H        -0.301026   -0.000214   -1.496838
| 76> H        -2.025598    0.000090    1.382017
| 77> *
| 78>
| 79>
| 80>
| 81>
| 82>                          ****END OF INPUT****
 Total Charge           Charge          ....    0
 Multiplicity           Mult            ....    2
 Number of Electrons    NEL             ....   55
MP2 TOTAL ENERGY:     -536.738644555 Eh
FINAL SINGLE POINT ENERGY      -536.738644554925
MP2 TOTAL ENERGY:     -536.961096121 Eh
FINAL SINGLE POINT ENERGY      -536.961096121497

CARTESIAN COORDINATES (ANGSTROEM)
---------------------------------
  C     -0.387752   -0.000064   -0.405127
  C      0.402990   -1.192598    0.145355
  C      0.402943    1.192653    0.145063
  C      1.872834    0.773252   -0.007570
  H      0.154949    1.327254    1.200751
  H      0.171078    2.127363   -0.364036
  C      1.872793   -0.773266   -0.007913
  H      2.490501    1.186012    0.789243
  H      2.276520    1.152306   -0.946612
  H      2.490966   -1.186466    0.788279
  H      2.275800   -1.151890   -0.947426
  H      0.170960   -2.127524   -0.363275
  H      0.155298   -1.326713    1.201180
  P     -2.189486   -0.000006   -0.030809
  H     -0.301026   -0.000214   -1.496838
  H     -2.025598    0.000090    1.382017

 Multiplicity           Mult            ....    2
 Number of Electrons    NEL             ....   55
 Basis Dimension        Dim             ....  944

ORBITAL ENERGIES
----------------
                 SPIN UP ORBITALS
  NO   OCC          E(Eh)            E(eV)
   0   1.0000     -79.938041     -2175.2247
   1   1.0000     -11.230043      -305.5850
   2   1.0000     -11.223015      -305.3938
   3   1.0000     -11.222976      -305.3927
   4   1.0000     -11.218452      -305.2696
   5   1.0000     -11.217885      -305.2542
   6   1.0000      -7.481447      -203.5805
   7   1.0000      -5.386334      -146.5696
   8   1.0000      -5.372329      -146.1885
   9   1.0000      -5.370529      -146.1395
  10   1.0000      -1.130954       -30.7748
  11   1.0000      -0.981517       -26.7084
  12   1.0000      -0.970132       -26.3986
  13   1.0000      -0.835787       -22.7429
  14   1.0000      -0.780463       -21.2375
  15   1.0000      -0.758379       -20.6365
  16   1.0000      -0.661113       -17.9898
  17   1.0000      -0.622780       -16.9467
  18   1.0000      -0.580627       -15.7997
  19   1.0000      -0.569750       -15.5037
  20   1.0000      -0.491606       -13.3773
  21   1.0000      -0.488894       -13.3035
  22   1.0000      -0.485699       -13.2165
  23   1.0000      -0.477603       -12.9962
  24   1.0000      -0.458784       -12.4842
  25   1.0000      -0.458186       -12.4679
  26   1.0000      -0.387658       -10.5487
  27   1.0000      -0.342527        -9.3206
  28   0.0000       0.025784         0.7016
  29   0.0000       0.031737         0.8636
  30   0.0000       0.032923         0.8959
  31   0.0000       0.036187         0.9847
  32   0.0000       0.049649         1.3510

                 SPIN DOWN ORBITALS
  NO   OCC          E(Eh)            E(eV)
   0   1.0000     -79.931100     -2175.0358
   1   1.0000     -11.231326      -305.6199
   2   1.0000     -11.222009      -305.3664
   3   1.0000     -11.221980      -305.3656
   4   1.0000     -11.218353      -305.2669
   5   1.0000     -11.217784      -305.2514
   6   1.0000      -7.472923      -203.3486
   7   1.0000      -5.367684      -146.0621
   8   1.0000      -5.367250      -146.0503
   9   1.0000      -5.353493      -145.6759
  10   1.0000      -1.128673       -30.7128
  11   1.0000      -0.974823       -26.5263
  12   1.0000      -0.967774       -26.3345
  13   1.0000      -0.807116       -21.9628
  14   1.0000      -0.777893       -21.1676
  15   1.0000      -0.733238       -19.9524
  16   1.0000      -0.660387       -17.9700
  17   1.0000      -0.618392       -16.8273
  18   1.0000      -0.579401       -15.7663
  19   1.0000      -0.564470       -15.3600
  20   1.0000      -0.485225       -13.2037
  21   1.0000      -0.484264       -13.1775
  22   1.0000      -0.476755       -12.9732
  23   1.0000      -0.475818       -12.9477
  24   1.0000      -0.458359       -12.4726
  25   1.0000      -0.454342       -12.3633
  26   1.0000      -0.370322       -10.0770
  27   0.0000       0.025974         0.7068
  28   0.0000       0.028937         0.7874
  29   0.0000       0.031774         0.8646
  30   0.0000       0.036701         0.9987
  31   0.0000       0.041439         1.1276

MULLIKEN ATOMIC CHARGES AND SPIN POPULATIONS
--------------------------------------------
   0 C :   -0.250912   -0.045620
   1 C :   -0.602911    0.000523
   2 C :   -0.602843    0.000483
   3 C :   -0.502171    0.007574
   4 H :    0.225426   -0.012539
   5 H :    0.347077   -0.010325
   6 C :   -0.502567    0.007577
   7 H :    0.293303    0.001092
   8 H :    0.205755   -0.000091
   9 H :    0.293517    0.001090
  10 H :    0.205737   -0.000090
  11 H :    0.347346   -0.010314
  12 H :    0.225312   -0.012529
  13 P :    0.174244    1.123949
  14 H :    0.265947    0.009212
  15 H :   -0.122260   -0.059992
Sum of atomic charges         :   -0.0000000

LOEWDIN ATOMIC CHARGES AND SPIN POPULATIONS
-------------------------------------------
   0 C :   -0.211102    0.159010
   1 C :    0.432769    0.028216
   2 C :    0.432803    0.028220
   3 C :    0.549107    0.003456
   4 H :   -0.293610    0.007350
   5 H :   -0.262895    0.007839
   6 C :    0.549063    0.003456
   7 H :   -0.262634    0.000839
   8 H :   -0.268716    0.000449
   9 H :   -0.262614    0.000839
  10 H :   -0.268721    0.000448
  11 H :   -0.262886    0.007841
  12 H :   -0.293577    0.007342
  13 P :    1.349760    0.573006
  14 H :   -0.367674    0.006636
  15 H :   -0.559073    0.165056

  Mayer bond orders larger than 0.100000
B(  0-C ,  1-C ) :   0.8620 B(  0-C ,  2-C ) :   0.8622 B(  0-C , 13-P ) :   0.7721
B(  0-C , 14-H ) :   0.9416 B(  1-C ,  6-C ) :   1.0052 B(  1-C , 11-H ) :   0.8413
B(  1-C , 12-H ) :   0.9650 B(  2-C ,  3-C ) :   1.0052 B(  2-C ,  4-H ) :   0.9650
B(  2-C ,  5-H ) :   0.8415 B(  3-C ,  6-C ) :   0.9478 B(  3-C ,  7-H ) :   0.8963
B(  3-C ,  8-H ) :   0.9720 B(  6-C ,  9-H ) :   0.8961 B(  6-C , 10-H ) :   0.9720
B( 13-P , 15-H ) :   0.9341

MP2 TOTAL ENERGY:     -537.029202813 Eh
FINAL SINGLE POINT ENERGY      -537.029202813067

DIPOLE MOMENT
-------------
                                X             Y             Z
Electronic contribution:     -9.50322      -0.00024      -1.21725
Nuclear contribution   :     10.15956       0.00023       1.30013
                        -----------------------------------------
Total Dipole Moment    :      0.65634      -0.00001       0.08288
                        -----------------------------------------
Magnitude (a.u.)       :      0.66155
Magnitude (Debye)      :      1.68153

Rotational constants in cm-1:     0.211757     0.060709     0.050851
Rotational constants in MHz :  6348.303489  1820.006523  1524.485214

                             ****ORCA TERMINATED NORMALLY****
TOTAL RUN TIME: 0 days 4 hours 15 minutes 41 seconds 882 msec
