                         Program Version 5.0.4 -  RELEASE  -
|  1> ! ri-mp2 aug-cc-pvdz aug-cc-pvdz/c tightscf
|  2> %pal nprocs 16 end
|  3> %maxcore 3800
|  4> %base "DZ_P-N_67_AB"
|  5> %scf
|  6> STABPerform true
|  7> STABRestartUHFifUnstable true
|  8> end
|  9>
| 10> *xyz 0 1
| 11> P        -0.690866   -0.793874    0.137766
| 12> N         0.710286    0.133617   -0.375162
| 13> O         0.811148    1.337953    0.349820
| 14> O         1.835528   -0.651330   -0.035059
| 15> C        -1.986617    0.441743   -0.236528
| 16> H        -1.769194    1.418215    0.188186
| 17> H        -2.928102    0.072175    0.172263
| 18> H        -2.102445    0.527485   -1.316428
| 19> H         2.390236   -0.624361   -0.822544
| 20> H         1.141688    1.976424   -0.292910
| 21> H        -0.594911   -0.540589    1.532151
| 22> *
| 23>
| 24> $new_job
| 25> ! ri-mp2 aug-cc-pvtz aug-cc-pvtz/c tightscf
| 26> %pal nprocs 16 end
| 27> %maxcore 3800
| 28> %base "TZ_P-N_67_AB"
| 29>
| 30> *xyz 0 1
| 31> P        -0.690866   -0.793874    0.137766
| 32> N         0.710286    0.133617   -0.375162
| 33> O         0.811148    1.337953    0.349820
| 34> O         1.835528   -0.651330   -0.035059
| 35> C        -1.986617    0.441743   -0.236528
| 36> H        -1.769194    1.418215    0.188186
| 37> H        -2.928102    0.072175    0.172263
| 38> H        -2.102445    0.527485   -1.316428
| 39> H         2.390236   -0.624361   -0.822544
| 40> H         1.141688    1.976424   -0.292910
| 41> H        -0.594911   -0.540589    1.532151
| 42> *
| 43>
| 44> $new_job
| 45> ! ri-mp2 aug-cc-pvqz aug-cc-pvqz/c tightscf
| 46> %pal nprocs 16 end
| 47> %maxcore 3800
| 48> %base "QZ_P-N_67_AB"
| 49>
| 50> *xyz 0 1
| 51> P        -0.690866   -0.793874    0.137766
| 52> N         0.710286    0.133617   -0.375162
| 53> O         0.811148    1.337953    0.349820
| 54> O         1.835528   -0.651330   -0.035059
| 55> C        -1.986617    0.441743   -0.236528
| 56> H        -1.769194    1.418215    0.188186
| 57> H        -2.928102    0.072175    0.172263
| 58> H        -2.102445    0.527485   -1.316428
| 59> H         2.390236   -0.624361   -0.822544
| 60> H         1.141688    1.976424   -0.292910
| 61> H        -0.594911   -0.540589    1.532151
| 62> *
| 63>
| 64>
| 65>
| 66>
| 67>                          ****END OF INPUT****
 Total Charge           Charge          ....    0
 Multiplicity           Mult            ....    1
 Number of Electrons    NEL             ....   50
MP2 TOTAL ENERGY:     -587.053979830 Eh
FINAL SINGLE POINT ENERGY      -587.053979829616
MP2 TOTAL ENERGY:     -587.315481582 Eh
FINAL SINGLE POINT ENERGY      -587.315481581657

CARTESIAN COORDINATES (ANGSTROEM)
---------------------------------
  P     -0.690866   -0.793874    0.137766
  N      0.710286    0.133617   -0.375162
  O      0.811148    1.337953    0.349820
  O      1.835528   -0.651330   -0.035059
  C     -1.986617    0.441743   -0.236528
  H     -1.769194    1.418215    0.188186
  H     -2.928102    0.072175    0.172263
  H     -2.102445    0.527485   -1.316428
  H      2.390236   -0.624361   -0.822544
  H      1.141688    1.976424   -0.292910
  H     -0.594911   -0.540589    1.532151

 Multiplicity           Mult            ....    1
 Number of Electrons    NEL             ....   50
 Basis Dimension        Dim             ....  680

ORBITAL ENERGIES
----------------

  NO   OCC          E(Eh)            E(eV)
   0   2.0000     -79.957679     -2175.7590
   1   2.0000     -20.600897      -560.5789
   2   2.0000     -20.599765      -560.5481
   3   2.0000     -15.666388      -426.3041
   4   2.0000     -11.224268      -305.4279
   5   2.0000      -7.497674      -204.0221
   6   2.0000      -5.391645      -146.7141
   7   2.0000      -5.391073      -146.6986
   8   2.0000      -5.390084      -146.6716
   9   2.0000      -1.468912       -39.9711
  10   2.0000      -1.353437       -36.8289
  11   2.0000      -1.052887       -28.6505
  12   2.0000      -0.966460       -26.2987
  13   2.0000      -0.779457       -21.2101
  14   2.0000      -0.723930       -19.6991
  15   2.0000      -0.714811       -19.4510
  16   2.0000      -0.644351       -17.5337
  17   2.0000      -0.607366       -16.5273
  18   2.0000      -0.583808       -15.8862
  19   2.0000      -0.563185       -15.3250
  20   2.0000      -0.505427       -13.7534
  21   2.0000      -0.499675       -13.5969
  22   2.0000      -0.481112       -13.0917
  23   2.0000      -0.410775       -11.1778
  24   2.0000      -0.364520        -9.9191
  25   0.0000       0.023328         0.6348
  26   0.0000       0.032068         0.8726
  27   0.0000       0.038661         1.0520
  28   0.0000       0.041267         1.1229
  29   0.0000       0.053492         1.4556

MULLIKEN ATOMIC CHARGES
-----------------------
   0 P :    0.712992
   1 N :   -0.008407
   2 O :   -0.582167
   3 O :   -0.604459
   4 C :   -1.042990
   5 H :    0.301934
   6 H :    0.341154
   7 H :    0.260777
   8 H :    0.357577
   9 H :    0.348873
  10 H :   -0.085284
Sum of atomic charges:    0.0000000

LOEWDIN ATOMIC CHARGES
----------------------
   0 P :    1.006211
   1 N :   -0.429313
   2 O :    0.995709
   3 O :    0.970490
   4 C :    0.709107
   5 H :   -0.379081
   6 H :   -0.376491
   7 H :   -0.371143
   8 H :   -0.858607
   9 H :   -0.845902
  10 H :   -0.420981

  Mayer bond orders larger than 0.100000
B(  0-P ,  1-N ) :   0.7458 B(  0-P ,  4-C ) :   0.9035 B(  0-P , 10-H ) :   0.9387
B(  1-N ,  2-O ) :   0.7484 B(  1-N ,  3-O ) :   0.7529 B(  2-O ,  9-H ) :   0.9057
B(  3-O ,  8-H ) :   0.9134 B(  4-C ,  5-H ) :   0.9025 B(  4-C ,  6-H ) :   0.8914
B(  4-C ,  7-H ) :   0.9306

MP2 TOTAL ENERGY:     -587.400025708 Eh
FINAL SINGLE POINT ENERGY      -587.400025708318

DIPOLE MOMENT
-------------
                                X             Y             Z
Electronic contribution:      3.03290      -2.92592      -0.02048
Nuclear contribution   :     -3.12117       3.55409      -0.65976
                        -----------------------------------------
Total Dipole Moment    :     -0.08827       0.62817      -0.68023
                        -----------------------------------------
Magnitude (a.u.)       :      0.93011
Magnitude (Debye)      :      2.36416

Rotational constants in cm-1:     0.226686     0.100637     0.076057
Rotational constants in MHz :  6795.871227  3017.007705  2280.145314

                             ****ORCA TERMINATED NORMALLY****
TOTAL RUN TIME: 0 days 0 hours 36 minutes 39 seconds 564 msec
