                         Program Version 5.0.4 -  RELEASE  -
|  1> ! ri-mp2 aug-cc-pvdz aug-cc-pvdz/c tightscf
|  2> %pal nprocs 16 end
|  3> %maxcore 3800
|  4> %base "DZ_P-Si_27_AB"
|  5> %scf
|  6> STABPerform true
|  7> STABRestartUHFifUnstable true
|  8> end
|  9>
| 10> *xyz 0 1
| 11> P         1.843112   -0.186274   -0.058664
| 12> Si        -0.256802    0.588078   -0.115449
| 13> C        -1.644746   -0.166880    0.827313
| 14> C        -1.613701   -0.517013   -0.684605
| 15> H        -1.401195   -1.551584   -0.925197
| 16> H        -2.420798   -0.114497   -1.283953
| 17> H        -2.469817    0.454323    1.154240
| 18> H        -1.449797   -0.986649    1.507670
| 19> H         1.446674   -1.462558    0.404205
| 20> H         2.133030    0.305707    1.235988
| 21> H        -0.338863    2.019626   -0.452953
| 22> *
| 23>
| 24> $new_job
| 25> ! ri-mp2 aug-cc-pvtz aug-cc-pvtz/c tightscf
| 26> %pal nprocs 16 end
| 27> %maxcore 3800
| 28> %base "TZ_P-Si_27_AB"
| 29>
| 30> *xyz 0 1
| 31> P         1.843112   -0.186274   -0.058664
| 32> Si        -0.256802    0.588078   -0.115449
| 33> C        -1.644746   -0.166880    0.827313
| 34> C        -1.613701   -0.517013   -0.684605
| 35> H        -1.401195   -1.551584   -0.925197
| 36> H        -2.420798   -0.114497   -1.283953
| 37> H        -2.469817    0.454323    1.154240
| 38> H        -1.449797   -0.986649    1.507670
| 39> H         1.446674   -1.462558    0.404205
| 40> H         2.133030    0.305707    1.235988
| 41> H        -0.338863    2.019626   -0.452953
| 42> *
| 43>
| 44> $new_job
| 45> ! ri-mp2 aug-cc-pvqz aug-cc-pvqz/c tightscf
| 46> %pal nprocs 16 end
| 47> %maxcore 3800
| 48> %base "QZ_P-Si_27_AB"
| 49>
| 50> *xyz 0 1
| 51> P         1.843112   -0.186274   -0.058664
| 52> Si        -0.256802    0.588078   -0.115449
| 53> C        -1.644746   -0.166880    0.827313
| 54> C        -1.613701   -0.517013   -0.684605
| 55> H        -1.401195   -1.551584   -0.925197
| 56> H        -2.420798   -0.114497   -1.283953
| 57> H        -2.469817    0.454323    1.154240
| 58> H        -1.449797   -0.986649    1.507670
| 59> H         1.446674   -1.462558    0.404205
| 60> H         2.133030    0.305707    1.235988
| 61> H        -0.338863    2.019626   -0.452953
| 62> *
| 63>
| 64>
| 65>
| 66>
| 67>                          ****END OF INPUT****
 Total Charge           Charge          ....    0
 Multiplicity           Mult            ....    1
 Number of Electrons    NEL             ....   48
MP2 TOTAL ENERGY:     -709.972121195 Eh
FINAL SINGLE POINT ENERGY      -709.972121195391
MP2 TOTAL ENERGY:     -710.130435000 Eh
FINAL SINGLE POINT ENERGY      -710.130434999833

CARTESIAN COORDINATES (ANGSTROEM)
---------------------------------
  P      1.843112   -0.186274   -0.058664
  Si    -0.256802    0.588078   -0.115449
  C     -1.644746   -0.166880    0.827313
  C     -1.613701   -0.517013   -0.684605
  H     -1.401195   -1.551584   -0.925197
  H     -2.420798   -0.114497   -1.283953
  H     -2.469817    0.454323    1.154240
  H     -1.449797   -0.986649    1.507670
  H      1.446674   -1.462558    0.404205
  H      2.133030    0.305707    1.235988
  H     -0.338863    2.019626   -0.452953

 Multiplicity           Mult            ....    1
 Number of Electrons    NEL             ....   48
 Basis Dimension        Dim             ....  650

ORBITAL ENERGIES
----------------

  NO   OCC          E(Eh)            E(eV)
   0   2.0000     -79.939639     -2175.2682
   1   2.0000     -68.770526     -1871.3411
   2   2.0000     -11.213914      -305.1461
   3   2.0000     -11.213025      -305.1219
   4   2.0000      -7.484224      -203.6561
   5   2.0000      -6.120810      -166.5557
   6   2.0000      -5.378017      -146.3433
   7   2.0000      -5.377780      -146.3368
   8   2.0000      -5.377114      -146.3187
   9   2.0000      -4.227465      -115.0352
  10   2.0000      -4.227183      -115.0275
  11   2.0000      -4.226986      -115.0221
  12   2.0000      -1.037655       -28.2360
  13   2.0000      -0.855382       -23.2761
  14   2.0000      -0.810758       -22.0618
  15   2.0000      -0.668054       -18.1787
  16   2.0000      -0.621244       -16.9049
  17   2.0000      -0.565886       -15.3985
  18   2.0000      -0.530538       -14.4367
  19   2.0000      -0.508679       -13.8419
  20   2.0000      -0.454922       -12.3791
  21   2.0000      -0.428729       -11.6663
  22   2.0000      -0.376257       -10.2385
  23   2.0000      -0.344856        -9.3840
  24   0.0000       0.024074         0.6551
  25   0.0000       0.032939         0.8963
  26   0.0000       0.034471         0.9380
  27   0.0000       0.037658         1.0247
  28   0.0000       0.049744         1.3536

MULLIKEN ATOMIC CHARGES
-----------------------
   0 P :   -0.004345
   1 Si:    1.058173
   2 C :   -0.959867
   3 C :   -0.980708
   4 H :    0.285209
   5 H :    0.342651
   6 H :    0.357788
   7 H :    0.295305
   8 H :   -0.047625
   9 H :   -0.061487
  10 H :   -0.285095
Sum of atomic charges:   -0.0000000

LOEWDIN ATOMIC CHARGES
----------------------
   0 P :    1.452597
   1 Si:    0.328172
   2 C :    0.492362
   3 C :    0.483869
   4 H :   -0.350022
   5 H :   -0.346783
   6 H :   -0.346859
   7 H :   -0.349841
   8 H :   -0.553324
   9 H :   -0.559274
  10 H :   -0.250897

  Mayer bond orders larger than 0.100000
B(  0-P ,  1-Si) :   1.0236 B(  0-P ,  8-H ) :   0.8957 B(  0-P ,  9-H ) :   0.9165
B(  1-Si,  2-C ) :   0.7539 B(  1-Si,  3-C ) :   0.7723 B(  1-Si, 10-H ) :   0.9280
B(  2-C ,  3-C ) :   1.1038 B(  2-C ,  6-H ) :   0.8506 B(  2-C ,  7-H ) :   0.9262
B(  3-C ,  4-H ) :   0.9396 B(  3-C ,  5-H ) :   0.8677

MP2 TOTAL ENERGY:     -710.179398711 Eh
FINAL SINGLE POINT ENERGY      -710.179398710706

DIPOLE MOMENT
-------------
                                X             Y             Z
Electronic contribution:      6.13087       1.18231      -1.46355
Nuclear contribution   :     -6.24116      -1.19406       1.70306
                        -----------------------------------------
Total Dipole Moment    :     -0.11030      -0.01175       0.23950
                        -----------------------------------------
Magnitude (a.u.)       :      0.26394
Magnitude (Debye)      :      0.67089

Rotational constants in cm-1:     0.361529     0.078179     0.077379
Rotational constants in MHz : 10838.362006  2343.748475  2319.751944

                             ****ORCA TERMINATED NORMALLY****
TOTAL RUN TIME: 0 days 0 hours 29 minutes 6 seconds 442 msec
