                         Program Version 5.0.4 -  RELEASE  -
|  1> ! ri-mp2 aug-cc-pvdz aug-cc-pvdz/c tightscf
|  2> %pal nprocs 16 end
|  3> %maxcore 3800
|  4> %base "DZ_P-N_41_AB"
|  5> %scf
|  6> STABPerform true
|  7> STABRestartUHFifUnstable true
|  8> end
|  9>
| 10> *xyz 0 1
| 11> N        -0.127575    0.412197   -0.000023
| 12> P        -1.761661   -0.154395    0.000006
| 13> N         0.942479   -0.451027   -0.000003
| 14> O         0.695766   -1.638199   -0.000002
| 15> O         2.047896    0.049708    0.000011
| 16> C         0.208984    1.827572   -0.000004
| 17> H        -0.726181    2.379637   -0.000044
| 18> H         0.787456    2.089905   -0.884177
| 19> H         0.787382    2.089905    0.884219
| 20> H        -1.665624   -1.114585    1.029733
| 21> H        -1.665643   -1.114624   -1.029687
| 22> *
| 23>
| 24> $new_job
| 25> ! ri-mp2 aug-cc-pvtz aug-cc-pvtz/c tightscf
| 26> %pal nprocs 16 end
| 27> %maxcore 3800
| 28> %base "TZ_P-N_41_AB"
| 29>
| 30> *xyz 0 1
| 31> N        -0.127575    0.412197   -0.000023
| 32> P        -1.761661   -0.154395    0.000006
| 33> N         0.942479   -0.451027   -0.000003
| 34> O         0.695766   -1.638199   -0.000002
| 35> O         2.047896    0.049708    0.000011
| 36> C         0.208984    1.827572   -0.000004
| 37> H        -0.726181    2.379637   -0.000044
| 38> H         0.787456    2.089905   -0.884177
| 39> H         0.787382    2.089905    0.884219
| 40> H        -1.665624   -1.114585    1.029733
| 41> H        -1.665643   -1.114624   -1.029687
| 42> *
| 43>
| 44> $new_job
| 45> ! ri-mp2 aug-cc-pvqz aug-cc-pvqz/c tightscf
| 46> %pal nprocs 16 end
| 47> %maxcore 3800
| 48> %base "QZ_P-N_41_AB"
| 49>
| 50> *xyz 0 1
| 51> N        -0.127575    0.412197   -0.000023
| 52> P        -1.761661   -0.154395    0.000006
| 53> N         0.942479   -0.451027   -0.000003
| 54> O         0.695766   -1.638199   -0.000002
| 55> O         2.047896    0.049708    0.000011
| 56> C         0.208984    1.827572   -0.000004
| 57> H        -0.726181    2.379637   -0.000044
| 58> H         0.787456    2.089905   -0.884177
| 59> H         0.787382    2.089905    0.884219
| 60> H        -1.665624   -1.114585    1.029733
| 61> H        -1.665643   -1.114624   -1.029687
| 62> *
| 63>
| 64>
| 65>
| 66>
| 67>                          ****END OF INPUT****
 Total Charge           Charge          ....    0
 Multiplicity           Mult            ....    1
 Number of Electrons    NEL             ....   56
MP2 TOTAL ENERGY:     -641.069439298 Eh
FINAL SINGLE POINT ENERGY      -641.069439297636
MP2 TOTAL ENERGY:     -641.369202017 Eh
FINAL SINGLE POINT ENERGY      -641.369202016600

CARTESIAN COORDINATES (ANGSTROEM)
---------------------------------
  N     -0.127575    0.412197   -0.000023
  P     -1.761661   -0.154395    0.000006
  N      0.942479   -0.451027   -0.000003
  O      0.695766   -1.638199   -0.000002
  O      2.047896    0.049708    0.000011
  C      0.208984    1.827572   -0.000004
  H     -0.726181    2.379637   -0.000044
  H      0.787456    2.089905   -0.884177
  H      0.787382    2.089905    0.884219
  H     -1.665624   -1.114585    1.029733
  H     -1.665643   -1.114624   -1.029687

 Multiplicity           Mult            ....    1
 Number of Electrons    NEL             ....   56
 Basis Dimension        Dim             ....  714

ORBITAL ENERGIES
----------------

  NO   OCC          E(Eh)            E(eV)
   0   2.0000     -79.990927     -2176.6638
   1   2.0000     -20.597955      -560.4988
   2   2.0000     -20.596821      -560.4680
   3   2.0000     -15.885158      -432.2571
   4   2.0000     -15.648624      -425.8207
   5   2.0000     -11.284685      -307.0719
   6   2.0000      -7.530589      -204.9177
   7   2.0000      -5.424831      -147.6172
   8   2.0000      -5.423890      -147.5915
   9   2.0000      -5.423395      -147.5781
  10   2.0000      -1.635928       -44.5159
  11   2.0000      -1.416222       -38.5374
  12   2.0000      -1.288100       -35.0510
  13   2.0000      -1.010915       -27.5084
  14   2.0000      -0.934311       -25.4239
  15   2.0000      -0.812875       -22.1194
  16   2.0000      -0.765157       -20.8210
  17   2.0000      -0.761458       -20.7203
  18   2.0000      -0.740124       -20.1398
  19   2.0000      -0.626016       -17.0348
  20   2.0000      -0.623892       -16.9770
  21   2.0000      -0.579110       -15.7584
  22   2.0000      -0.559453       -15.2235
  23   2.0000      -0.518462       -14.1081
  24   2.0000      -0.500579       -13.6214
  25   2.0000      -0.465523       -12.6675
  26   2.0000      -0.431297       -11.7362
  27   2.0000      -0.406049       -11.0492
  28   0.0000       0.021569         0.5869
  29   0.0000       0.032597         0.8870
  30   0.0000       0.037969         1.0332
  31   0.0000       0.041518         1.1298
  32   0.0000       0.054429         1.4811

MULLIKEN ATOMIC CHARGES
-----------------------
   0 N :   -0.358383
   1 P :    0.404209
   2 N :    1.057406
   3 O :   -0.585660
   4 O :   -0.634307
   5 C :   -0.793274
   6 H :    0.420474
   7 H :    0.289532
   8 H :    0.289532
   9 H :   -0.044764
  10 H :   -0.044765
Sum of atomic charges:   -0.0000000

LOEWDIN ATOMIC CHARGES
----------------------
   0 N :   -0.060303
   1 P :    1.375085
   2 N :   -1.090220
   3 O :    0.509818
   4 O :    0.547640
   5 C :    0.627873
   6 H :   -0.354423
   7 H :   -0.307901
   8 H :   -0.307895
   9 H :   -0.469837
  10 H :   -0.469837

  Mayer bond orders larger than 0.100000
B(  0-N ,  1-P ) :   0.6730 B(  0-N ,  2-N ) :   1.0039 B(  0-N ,  3-O ) :   0.1536
B(  0-N ,  4-O ) :   0.2131 B(  0-N ,  5-C ) :   0.8004 B(  1-P ,  9-H ) :   0.9409
B(  1-P , 10-H ) :   0.9409 B(  2-N ,  3-O ) :   1.2125 B(  2-N ,  4-O ) :   1.1210
B(  3-O ,  4-O ) :   0.1145 B(  5-C ,  6-H ) :   0.8289 B(  5-C ,  7-H ) :   0.9529
B(  5-C ,  8-H ) :   0.9529

MP2 TOTAL ENERGY:     -641.468165560 Eh
FINAL SINGLE POINT ENERGY      -641.468165560023

DIPOLE MOMENT
-------------
                                X             Y             Z
Electronic contribution:     -0.34853      -3.42222      -0.00003
Nuclear contribution   :     -0.73675       4.33395       0.00004
                        -----------------------------------------
Total Dipole Moment    :     -1.08528       0.91173       0.00000
                        -----------------------------------------
Magnitude (a.u.)       :      1.41743
Magnitude (Debye)      :      3.60281

Rotational constants in cm-1:     0.154194     0.086215     0.056678
Rotational constants in MHz :  4622.629972  2584.661726  1699.153777

                             ****ORCA TERMINATED NORMALLY****
TOTAL RUN TIME: 0 days 0 hours 43 minutes 44 seconds 785 msec
