                         Program Version 5.0.4 -  RELEASE  -
|  1> ! ri-mp2 aug-cc-pvdz aug-cc-pvdz/c tightscf
|  2> %pal nprocs 16 end
|  3> %maxcore 3800
|  4> %base "DZ_B-B_32_A"
|  5> %scf
|  6> STABPerform true
|  7> STABRestartUHFifUnstable true
|  8> end
|  9>
| 10> *xyz 0 2
| 11> B         0.496017    1.508969   -0.000002
| 12> N         0.042459    0.216408   -0.000000
| 13> C        -1.366659   -0.134578   -0.000000
| 14> H        -1.615453   -0.726977   -0.884748
| 15> H        -1.968671    0.769720   -0.000003
| 16> H        -1.615454   -0.726972    0.884750
| 17> C         0.922107   -0.943347    0.000002
| 18> H         1.959439   -0.620594    0.000001
| 19> H         0.743706   -1.560707   -0.884510
| 20> H         0.743706   -1.560703    0.884516
| 21> H         1.642745    1.834089   -0.000002
| 22> *
| 23>
| 24> $new_job
| 25> ! ri-mp2 aug-cc-pvtz aug-cc-pvtz/c tightscf
| 26> %pal nprocs 16 end
| 27> %maxcore 3800
| 28> %base "TZ_B-B_32_A"
| 29>
| 30> *xyz 0 2
| 31> B         0.496017    1.508969   -0.000002
| 32> N         0.042459    0.216408   -0.000000
| 33> C        -1.366659   -0.134578   -0.000000
| 34> H        -1.615453   -0.726977   -0.884748
| 35> H        -1.968671    0.769720   -0.000003
| 36> H        -1.615454   -0.726972    0.884750
| 37> C         0.922107   -0.943347    0.000002
| 38> H         1.959439   -0.620594    0.000001
| 39> H         0.743706   -1.560707   -0.884510
| 40> H         0.743706   -1.560703    0.884516
| 41> H         1.642745    1.834089   -0.000002
| 42> *
| 43>
| 44> $new_job
| 45> ! ri-mp2 aug-cc-pvqz aug-cc-pvqz/c tightscf
| 46> %pal nprocs 16 end
| 47> %maxcore 3800
| 48> %base "QZ_B-B_32_A"
| 49>
| 50> *xyz 0 2
| 51> B         0.496017    1.508969   -0.000002
| 52> N         0.042459    0.216408   -0.000000
| 53> C        -1.366659   -0.134578   -0.000000
| 54> H        -1.615453   -0.726977   -0.884748
| 55> H        -1.968671    0.769720   -0.000003
| 56> H        -1.615454   -0.726972    0.884750
| 57> C         0.922107   -0.943347    0.000002
| 58> H         1.959439   -0.620594    0.000001
| 59> H         0.743706   -1.560707   -0.884510
| 60> H         0.743706   -1.560703    0.884516
| 61> H         1.642745    1.834089   -0.000002
| 62> *
| 63>
| 64>
| 65>
| 66>
| 67>                          ****END OF INPUT****
 Total Charge           Charge          ....    0
 Multiplicity           Mult            ....    2
 Number of Electrons    NEL             ....   31
MP2 TOTAL ENERGY:     -159.467189715 Eh
FINAL SINGLE POINT ENERGY      -159.467189715415
MP2 TOTAL ENERGY:     -159.616418120 Eh
FINAL SINGLE POINT ENERGY      -159.616418119748

CARTESIAN COORDINATES (ANGSTROEM)
---------------------------------
  B      0.496017    1.508969   -0.000002
  N      0.042459    0.216408   -0.000000
  C     -1.366659   -0.134578   -0.000000
  H     -1.615453   -0.726977   -0.884748
  H     -1.968671    0.769720   -0.000003
  H     -1.615454   -0.726972    0.884750
  C      0.922107   -0.943347    0.000002
  H      1.959439   -0.620594    0.000001
  H      0.743706   -1.560707   -0.884510
  H      0.743706   -1.560703    0.884516
  H      1.642745    1.834089   -0.000002

 Multiplicity           Mult            ....    2
 Number of Electrons    NEL             ....   31
 Basis Dimension        Dim             ....  642

ORBITAL ENERGIES
----------------
                 SPIN UP ORBITALS
  NO   OCC          E(Eh)            E(eV)
   0   1.0000     -15.563817      -423.5130
   1   1.0000     -11.256804      -306.3132
   2   1.0000     -11.254365      -306.2468
   3   1.0000      -7.595108      -206.6734
   4   1.0000      -1.223093       -33.2821
   5   1.0000      -0.968180       -26.3455
   6   1.0000      -0.890092       -24.2206
   7   1.0000      -0.704064       -19.1586
   8   1.0000      -0.633479       -17.2378
   9   1.0000      -0.630069       -17.1450
  10   1.0000      -0.575910       -15.6713
  11   1.0000      -0.554297       -15.0832
  12   1.0000      -0.527848       -14.3635
  13   1.0000      -0.523627       -14.2486
  14   1.0000      -0.386334       -10.5127
  15   1.0000      -0.314579        -8.5601
  16   0.0000       0.024011         0.6534
  17   0.0000       0.033321         0.9067
  18   0.0000       0.035170         0.9570
  19   0.0000       0.038002         1.0341
  20   0.0000       0.049834         1.3561

                 SPIN DOWN ORBITALS
  NO   OCC          E(Eh)            E(eV)
   0   1.0000     -15.566854      -423.5956
   1   1.0000     -11.255273      -306.2715
   2   1.0000     -11.253372      -306.2198
   3   1.0000      -7.576336      -206.1626
   4   1.0000      -1.224106       -33.3096
   5   1.0000      -0.964346       -26.2412
   6   1.0000      -0.883072       -24.0296
   7   1.0000      -0.690602       -18.7922
   8   1.0000      -0.637843       -17.3566
   9   1.0000      -0.622319       -16.9342
  10   1.0000      -0.554554       -15.0902
  11   1.0000      -0.554135       -15.0788
  12   1.0000      -0.526706       -14.3324
  13   1.0000      -0.509209       -13.8563
  14   1.0000      -0.395475       -10.7614
  15   0.0000       0.023980         0.6525
  16   0.0000       0.033973         0.9244
  17   0.0000       0.033984         0.9248
  18   0.0000       0.037027         1.0076
  19   0.0000       0.049405         1.3444

MULLIKEN ATOMIC CHARGES AND SPIN POPULATIONS
--------------------------------------------
   0 B :    0.190594    1.101675
   1 N :   -0.141787   -0.167644
   2 C :   -0.822533    0.031141
   3 H :    0.273751   -0.000784
   4 H :    0.359447    0.002792
   5 H :    0.273752   -0.000784
   6 C :   -0.784092    0.034087
   7 H :    0.347952   -0.007629
   8 H :    0.285187   -0.002347
   9 H :    0.285188   -0.002347
  10 H :   -0.267460    0.011840
Sum of atomic charges         :    0.0000000

LOEWDIN ATOMIC CHARGES AND SPIN POPULATIONS
-------------------------------------------
   0 B :    0.143854    0.541761
   1 N :    0.429597    0.146982
   2 C :    0.718542    0.054293
   3 H :   -0.281603    0.002761
   4 H :   -0.319087    0.040215
   5 H :   -0.281604    0.002761
   6 C :    0.726454    0.023346
   7 H :   -0.317863    0.009935
   8 H :   -0.278168    0.003033
   9 H :   -0.278169    0.003033
  10 H :   -0.261954    0.171879

  Mayer bond orders larger than 0.100000
B(  0-B ,  1-N ) :   1.1725 B(  0-B , 10-H ) :   0.9064 B(  1-N ,  2-C ) :   0.8843
B(  1-N ,  6-C ) :   0.8963 B(  2-C ,  3-H ) :   0.9393 B(  2-C ,  4-H ) :   0.8832
B(  2-C ,  5-H ) :   0.9393 B(  6-C ,  7-H ) :   0.9049 B(  6-C ,  8-H ) :   0.9267
B(  6-C ,  9-H ) :   0.9267

MP2 TOTAL ENERGY:     -159.662305903 Eh
FINAL SINGLE POINT ENERGY      -159.662305903125

DIPOLE MOMENT
-------------
                                X             Y             Z
Electronic contribution:      0.40065       3.14013      -0.00000
Nuclear contribution   :     -0.53062      -3.96517       0.00000
                        -----------------------------------------
Total Dipole Moment    :     -0.12997      -0.82504       0.00000
                        -----------------------------------------
Magnitude (a.u.)       :      0.83522
Magnitude (Debye)      :      2.12295

Rotational constants in cm-1:     0.341133     0.304475     0.171192
Rotational constants in MHz : 10226.906118  9127.918281  5132.197382

                             ****ORCA TERMINATED NORMALLY****
TOTAL RUN TIME: 0 days 0 hours 56 minutes 26 seconds 934 msec
