                         Program Version 5.0.4 -  RELEASE  -
|  1> ! ri-mp2 aug-cc-pvdz aug-cc-pvdz/c tightscf
|  2> %pal nprocs 16 end
|  3> %maxcore 3800
|  4> %base "DZ_B-Si_77_AB"
|  5>
|  6> *xyz 0 1
|  7> Si         0.015283   -0.083959    0.017307
|  8> N        -0.960603   -1.020767   -1.212507
|  9> B         2.019876   -0.378125    0.059432
| 10> N        -0.868389   -0.288561    1.613164
| 11> O        -0.718855   -1.462561    1.930858
| 12> O         2.834085    0.683944    0.115727
| 13> O        -0.371301   -0.789224   -2.268102
| 14> O         2.433903   -1.652010    0.024820
| 15> O        -1.946046   -1.686532   -1.075021
| 16> O        -1.468322    0.551322    2.231747
| 17> N        -0.367989    1.673787   -0.427421
| 18> O         0.538577    2.427451   -0.071197
| 19> O        -1.390885    2.020306   -0.952024
| 20> H         3.392260   -1.769240    0.034136
| 21> H         2.384028    1.542508    0.119297
| 22> *
| 23>
| 24> $new_job
| 25> ! ri-mp2 aug-cc-pvtz aug-cc-pvtz/c tightscf
| 26> %pal nprocs 16 end
| 27> %maxcore 3800
| 28> %base "TZ_B-Si_77_AB"
| 29>
| 30> *xyz 0 1
| 31> Si         0.015283   -0.083959    0.017307
| 32> N        -0.960603   -1.020767   -1.212507
| 33> B         2.019876   -0.378125    0.059432
| 34> N        -0.868389   -0.288561    1.613164
| 35> O        -0.718855   -1.462561    1.930858
| 36> O         2.834085    0.683944    0.115727
| 37> O        -0.371301   -0.789224   -2.268102
| 38> O         2.433903   -1.652010    0.024820
| 39> O        -1.946046   -1.686532   -1.075021
| 40> O        -1.468322    0.551322    2.231747
| 41> N        -0.367989    1.673787   -0.427421
| 42> O         0.538577    2.427451   -0.071197
| 43> O        -1.390885    2.020306   -0.952024
| 44> H         3.392260   -1.769240    0.034136
| 45> H         2.384028    1.542508    0.119297
| 46> *
| 47>
| 48> $new_job
| 49> ! ri-mp2 aug-cc-pvqz aug-cc-pvqz/c tightscf
| 50> %pal nprocs 16 end
| 51> %maxcore 3800
| 52> %base "QZ_B-Si_77_AB"
| 53>
| 54> *xyz 0 1
| 55> Si         0.015283   -0.083959    0.017307
| 56> N        -0.960603   -1.020767   -1.212507
| 57> B         2.019876   -0.378125    0.059432
| 58> N        -0.868389   -0.288561    1.613164
| 59> O        -0.718855   -1.462561    1.930858
| 60> O         2.834085    0.683944    0.115727
| 61> O        -0.371301   -0.789224   -2.268102
| 62> O         2.433903   -1.652010    0.024820
| 63> O        -1.946046   -1.686532   -1.075021
| 64> O        -1.468322    0.551322    2.231747
| 65> N        -0.367989    1.673787   -0.427421
| 66> O         0.538577    2.427451   -0.071197
| 67> O        -1.390885    2.020306   -0.952024
| 68> H         3.392260   -1.769240    0.034136
| 69> H         2.384028    1.542508    0.119297
| 70> *
| 71>
| 72>
| 73>
| 74>
| 75>                          ****END OF INPUT****
 Total Charge           Charge          ....    0
 Multiplicity           Mult            ....    1
 Number of Electrons    NEL             ....  106
MP2 TOTAL ENERGY:    -1079.245781256 Eh
FINAL SINGLE POINT ENERGY     -1079.245781256474
MP2 TOTAL ENERGY:    -1079.926993243 Eh
FINAL SINGLE POINT ENERGY     -1079.926993242571

CARTESIAN COORDINATES (ANGSTROEM)
---------------------------------
  Si     0.015283   -0.083959    0.017307
  N     -0.960603   -1.020767   -1.212507
  B      2.019876   -0.378125    0.059432
  N     -0.868389   -0.288561    1.613164
  O     -0.718855   -1.462561    1.930858
  O      2.834085    0.683944    0.115727
  O     -0.371301   -0.789224   -2.268102
  O      2.433903   -1.652010    0.024820
  O     -1.946046   -1.686532   -1.075021
  O     -1.468322    0.551322    2.231747
  N     -0.367989    1.673787   -0.427421
  O      0.538577    2.427451   -0.071197
  O     -1.390885    2.020306   -0.952024
  H      3.392260   -1.769240    0.034136
  H      2.384028    1.542508    0.119297

 Multiplicity           Mult            ....    1
 Number of Electrons    NEL             ....  106
 Basis Dimension        Dim             .... 1136

ORBITAL ENERGIES
----------------

  NO   OCC          E(Eh)            E(eV)
   0   2.0000     -68.949808     -1876.2197
   1   2.0000     -20.661725      -562.2341
   2   2.0000     -20.659655      -562.1778
   3   2.0000     -20.654945      -562.0496
   4   2.0000     -20.648555      -561.8757
   5   2.0000     -20.648169      -561.8652
   6   2.0000     -20.648023      -561.8613
   7   2.0000     -20.628741      -561.3366
   8   2.0000     -20.626425      -561.2736
   9   2.0000     -15.871178      -431.8767
  10   2.0000     -15.870399      -431.8555
  11   2.0000     -15.867676      -431.7814
  12   2.0000      -7.723336      -210.1627
  13   2.0000      -6.292514      -171.2280
  14   2.0000      -4.398707      -119.6949
  15   2.0000      -4.398486      -119.6889
  16   2.0000      -4.396580      -119.6370
  17   2.0000      -1.657038       -45.0903
  18   2.0000      -1.651213       -44.9318
  19   2.0000      -1.649409       -44.8827
  20   2.0000      -1.455315       -39.6011
  21   2.0000      -1.454087       -39.5677
  22   2.0000      -1.452231       -39.5172
  23   2.0000      -1.446008       -39.3479
  24   2.0000      -1.412203       -38.4280
  25   2.0000      -1.059153       -28.8210
  26   2.0000      -0.983596       -26.7650
  27   2.0000      -0.980619       -26.6840
  28   2.0000      -0.861869       -23.4526
  29   2.0000      -0.841063       -22.8865
  30   2.0000      -0.823310       -22.4034
  31   2.0000      -0.822861       -22.3912
  32   2.0000      -0.800499       -21.7827
  33   2.0000      -0.775670       -21.1070
  34   2.0000      -0.772484       -21.0204
  35   2.0000      -0.770218       -20.9587
  36   2.0000      -0.758564       -20.6416
  37   2.0000      -0.757528       -20.6134
  38   2.0000      -0.751515       -20.4498
  39   2.0000      -0.694079       -18.8868
  40   2.0000      -0.636642       -17.3239
  41   2.0000      -0.629403       -17.1269
  42   2.0000      -0.587092       -15.9756
  43   2.0000      -0.561765       -15.2864
  44   2.0000      -0.558932       -15.2093
  45   2.0000      -0.555628       -15.1194
  46   2.0000      -0.548810       -14.9339
  47   2.0000      -0.510007       -13.8780
  48   2.0000      -0.508581       -13.8392
  49   2.0000      -0.503974       -13.7138
  50   2.0000      -0.500504       -13.6194
  51   2.0000      -0.495715       -13.4891
  52   2.0000      -0.494884       -13.4665
  53   0.0000       0.007465         0.2031
  54   0.0000       0.013111         0.3568
  55   0.0000       0.022476         0.6116
  56   0.0000       0.028206         0.7675
  57   0.0000       0.031268         0.8509

MULLIKEN ATOMIC CHARGES
-----------------------
   0 Si:    1.528135
   1 N :    0.693474
   2 B :    1.349339
   3 N :    0.727593
   4 O :   -0.603411
   5 O :   -1.169837
   6 O :   -0.630779
   7 O :   -0.976785
   8 O :   -0.555989
   9 O :   -0.597118
  10 N :    0.774900
  11 O :   -0.669020
  12 O :   -0.571769
  13 H :    0.330935
  14 H :    0.370333
Sum of atomic charges:    0.0000000

LOEWDIN ATOMIC CHARGES
----------------------
   0 Si:   -0.312182
   1 N :   -0.849360
   2 B :   -1.136006
   3 N :   -0.856651
   4 O :    0.493741
   5 O :    1.344849
   6 O :    0.496498
   7 O :    1.315324
   8 O :    0.504826
   9 O :    0.490245
  10 N :   -0.819287
  11 O :    0.536910
  12 O :    0.509554
  13 H :   -0.763356
  14 H :   -0.955104

  Mayer bond orders larger than 0.100000
B(  0-Si,  1-N ) :   0.5784 B(  0-Si,  2-B ) :   0.9909 B(  0-Si,  3-N ) :   0.5401
B(  0-Si,  4-O ) :   0.1261 B(  0-Si,  7-O ) :  -0.1580 B(  0-Si,  8-O ) :   0.1052
B(  0-Si, 10-N ) :   0.5286 B(  1-N ,  6-O ) :   1.2496 B(  1-N ,  8-O ) :   1.2420
B(  2-B ,  5-O ) :   0.5317 B(  2-B ,  7-O ) :   0.4302 B(  3-N ,  4-O ) :   1.2640
B(  3-N ,  9-O ) :   1.2666 B(  4-O ,  9-O ) :   0.1427 B(  5-O ,  7-O ) :  -0.1057
B(  5-O , 14-H ) :   0.8955 B(  6-O ,  8-O ) :   0.1423 B(  7-O , 13-H ) :   0.9480
B( 10-N , 11-O ) :   1.1344 B( 10-N , 12-O ) :   1.2850 B( 11-O , 12-O ) :   0.1484

MP2 TOTAL ENERGY:    -1080.157776791 Eh
FINAL SINGLE POINT ENERGY     -1080.157776791332

DIPOLE MOMENT
-------------
                                X             Y             Z
Electronic contribution:     -2.04014      -0.24984       0.00069
Nuclear contribution   :      3.90124       0.08179       0.09753
                        -----------------------------------------
Total Dipole Moment    :      1.86109      -0.16804       0.09822
                        -----------------------------------------
Magnitude (a.u.)       :      1.87124
Magnitude (Debye)      :      4.75632

Rotational constants in cm-1:     0.024713     0.022013     0.020589
Rotational constants in MHz :   740.868391   659.934207   617.252881

                             ****ORCA TERMINATED NORMALLY****
TOTAL RUN TIME: 0 days 0 hours 35 minutes 18 seconds 777 msec
