                         Program Version 5.0.4 -  RELEASE  -
|  1> ! ri-mp2 aug-cc-pvdz aug-cc-pvdz/c tightscf
|  2> %pal nprocs 16 end
|  3> %maxcore 3800
|  4> %base "DZ_P-N_87_AB"
|  5> %scf
|  6> STABPerform true
|  7> STABRestartUHFifUnstable true
|  8> end
|  9>
| 10> *xyz 0 1
| 11> C         2.617121    0.340094    1.065266
| 12> C         2.410581   -0.099927   -0.376191
| 13> H         1.841516    1.039905    1.378192
| 14> H         3.578782    0.837562    1.190100
| 15> H         2.594386   -0.514251    1.744988
| 16> C         1.086468   -0.820143   -0.587079
| 17> H         3.222187   -0.763563   -0.680259
| 18> H         2.444033    0.767306   -1.036201
| 19> C        -0.121187    0.075390   -0.445598
| 20> H         0.986617   -1.673559    0.090324
| 21> H         1.028617   -1.231642   -1.600239
| 22> O        -0.103248    1.245873   -0.735959
| 23> N        -2.666929    0.617593    0.402062
| 24> P        -1.689432   -0.730403    0.157857
| 25> H        -1.126207   -0.921271    1.446316
| 26> H        -3.499547    0.640772   -0.163161
| 27> H        -2.192317    1.512184    0.396931
| 28> *
| 29>
| 30> $new_job
| 31> ! ri-mp2 aug-cc-pvtz aug-cc-pvtz/c tightscf
| 32> %pal nprocs 16 end
| 33> %maxcore 3800
| 34> %base "TZ_P-N_87_AB"
| 35>
| 36> *xyz 0 1
| 37> C         2.617121    0.340094    1.065266
| 38> C         2.410581   -0.099927   -0.376191
| 39> H         1.841516    1.039905    1.378192
| 40> H         3.578782    0.837562    1.190100
| 41> H         2.594386   -0.514251    1.744988
| 42> C         1.086468   -0.820143   -0.587079
| 43> H         3.222187   -0.763563   -0.680259
| 44> H         2.444033    0.767306   -1.036201
| 45> C        -0.121187    0.075390   -0.445598
| 46> H         0.986617   -1.673559    0.090324
| 47> H         1.028617   -1.231642   -1.600239
| 48> O        -0.103248    1.245873   -0.735959
| 49> N        -2.666929    0.617593    0.402062
| 50> P        -1.689432   -0.730403    0.157857
| 51> H        -1.126207   -0.921271    1.446316
| 52> H        -3.499547    0.640772   -0.163161
| 53> H        -2.192317    1.512184    0.396931
| 54> *
| 55>
| 56> $new_job
| 57> ! ri-mp2 aug-cc-pvqz aug-cc-pvqz/c tightscf
| 58> %pal nprocs 16 end
| 59> %maxcore 3800
| 60> %base "QZ_P-N_87_AB"
| 61>
| 62> *xyz 0 1
| 63> C         2.617121    0.340094    1.065266
| 64> C         2.410581   -0.099927   -0.376191
| 65> H         1.841516    1.039905    1.378192
| 66> H         3.578782    0.837562    1.190100
| 67> H         2.594386   -0.514251    1.744988
| 68> C         1.086468   -0.820143   -0.587079
| 69> H         3.222187   -0.763563   -0.680259
| 70> H         2.444033    0.767306   -1.036201
| 71> C        -0.121187    0.075390   -0.445598
| 72> H         0.986617   -1.673559    0.090324
| 73> H         1.028617   -1.231642   -1.600239
| 74> O        -0.103248    1.245873   -0.735959
| 75> N        -2.666929    0.617593    0.402062
| 76> P        -1.689432   -0.730403    0.157857
| 77> H        -1.126207   -0.921271    1.446316
| 78> H        -3.499547    0.640772   -0.163161
| 79> H        -2.192317    1.512184    0.396931
| 80> *
| 81>
| 82>
| 83>
| 84>
| 85>                          ****END OF INPUT****
 Total Charge           Charge          ....    0
 Multiplicity           Mult            ....    1
 Number of Electrons    NEL             ....   64
MP2 TOTAL ENERGY:     -628.466780354 Eh
FINAL SINGLE POINT ENERGY      -628.466780354141
MP2 TOTAL ENERGY:     -628.774141689 Eh
FINAL SINGLE POINT ENERGY      -628.774141689483

CARTESIAN COORDINATES (ANGSTROEM)
---------------------------------
  C      2.617121    0.340094    1.065266
  C      2.410581   -0.099927   -0.376191
  H      1.841516    1.039905    1.378192
  H      3.578782    0.837562    1.190100
  H      2.594386   -0.514251    1.744988
  C      1.086468   -0.820143   -0.587079
  H      3.222187   -0.763563   -0.680259
  H      2.444033    0.767306   -1.036201
  C     -0.121187    0.075390   -0.445598
  H      0.986617   -1.673559    0.090324
  H      1.028617   -1.231642   -1.600239
  O     -0.103248    1.245873   -0.735959
  N     -2.666929    0.617593    0.402062
  P     -1.689432   -0.730403    0.157857
  H     -1.126207   -0.921271    1.446316
  H     -3.499547    0.640772   -0.163161
  H     -2.192317    1.512184    0.396931

 Multiplicity           Mult            ....    1
 Number of Electrons    NEL             ....   64
 Basis Dimension        Dim             .... 1024

ORBITAL ENERGIES
----------------

  NO   OCC          E(Eh)            E(eV)
   0   2.0000     -79.964755     -2175.9516
   1   2.0000     -20.555102      -559.3328
   2   2.0000     -15.553499      -423.2322
   3   2.0000     -11.329993      -308.3048
   4   2.0000     -11.239761      -305.8494
   5   2.0000     -11.226333      -305.4841
   6   2.0000     -11.214399      -305.1593
   7   2.0000      -7.504636      -204.2115
   8   2.0000      -5.398832      -146.9097
   9   2.0000      -5.398404      -146.8980
  10   2.0000      -5.398024      -146.8877
  11   2.0000      -1.400056       -38.0975
  12   2.0000      -1.171159       -31.8689
  13   2.0000      -1.082923       -29.4678
  14   2.0000      -0.976754       -26.5788
  15   2.0000      -0.878654       -23.9094
  16   2.0000      -0.814087       -22.1524
  17   2.0000      -0.726604       -19.7719
  18   2.0000      -0.685168       -18.6444
  19   2.0000      -0.655500       -17.8371
  20   2.0000      -0.635067       -17.2810
  21   2.0000      -0.629434       -17.1278
  22   2.0000      -0.588169       -16.0049
  23   2.0000      -0.566221       -15.4076
  24   2.0000      -0.559159       -15.2155
  25   2.0000      -0.525476       -14.2989
  26   2.0000      -0.498228       -13.5575
  27   2.0000      -0.486260       -13.2318
  28   2.0000      -0.484837       -13.1931
  29   2.0000      -0.461058       -12.5460
  30   2.0000      -0.390740       -10.6326
  31   2.0000      -0.362379        -9.8608
  32   0.0000       0.024561         0.6683
  33   0.0000       0.030033         0.8172
  34   0.0000       0.032283         0.8785
  35   0.0000       0.035653         0.9702
  36   0.0000       0.045731         1.2444

MULLIKEN ATOMIC CHARGES
-----------------------
   0 C :   -0.902964
   1 C :   -0.361938
   2 H :    0.247521
   3 H :    0.310546
   4 H :    0.214344
   5 C :   -0.403336
   6 H :    0.236556
   7 H :    0.227787
   8 C :    0.516706
   9 H :    0.237690
  10 H :    0.377770
  11 O :   -0.892496
  12 N :   -0.964626
  13 P :    0.676245
  14 H :   -0.082790
  15 H :    0.252885
  16 H :    0.310100
Sum of atomic charges:   -0.0000000

LOEWDIN ATOMIC CHARGES
----------------------
   0 C :    0.919331
   1 C :    0.481658
   2 H :   -0.292588
   3 H :   -0.277793
   4 H :   -0.281379
   5 C :    0.380897
   6 H :   -0.271046
   7 H :   -0.292723
   8 C :   -0.838786
   9 H :   -0.323555
  10 H :   -0.284986
  11 O :    0.689639
  12 N :    0.996209
  13 P :    1.083612
  14 H :   -0.427125
  15 H :   -0.615218
  16 H :   -0.646148

  Mayer bond orders larger than 0.100000
B(  0-C ,  1-C ) :   0.9350 B(  0-C ,  2-H ) :   0.9436 B(  0-C ,  3-H ) :   0.9476
B(  0-C ,  4-H ) :   0.9604 B(  1-C ,  5-C ) :   0.9587 B(  1-C ,  6-H ) :   0.9408
B(  1-C ,  7-H ) :   0.8884 B(  5-C ,  8-C ) :   0.8400 B(  5-C ,  9-H ) :   0.9498
B(  5-C , 10-H ) :   0.7545 B(  5-C , 11-O ) :   0.1400 B(  8-C , 11-O ) :   1.2080
B(  8-C , 13-P ) :   0.8405 B( 12-N , 13-P ) :   0.8597 B( 12-N , 15-H ) :   0.9692
B( 12-N , 16-H ) :   0.8883 B( 13-P , 14-H ) :   0.9256

MP2 TOTAL ENERGY:     -628.871260575 Eh
FINAL SINGLE POINT ENERGY      -628.871260574837

DIPOLE MOMENT
-------------
                                X             Y             Z
Electronic contribution:    -10.34799      -0.89037      -2.61911
Nuclear contribution   :     10.56581       0.41610       2.63133
                        -----------------------------------------
Total Dipole Moment    :      0.21782      -0.47427       0.01222
                        -----------------------------------------
Magnitude (a.u.)       :      0.52204
Magnitude (Debye)      :      1.32692

Rotational constants in cm-1:     0.148204     0.036646     0.035001
Rotational constants in MHz :  4443.042375  1098.615595  1049.315061

                             ****ORCA TERMINATED NORMALLY****
TOTAL RUN TIME: 0 days 2 hours 6 minutes 57 seconds 639 msec
