                         Program Version 5.0.4 -  RELEASE  -
|  1> ! ri-mp2 aug-cc-pvdz aug-cc-pvdz/c tightscf
|  2> %pal nprocs 16 end
|  3> %maxcore 3800
|  4> %base "DZ_B-F_59_A"
|  5> %scf
|  6> STABPerform true
|  7> STABRestartUHFifUnstable true
|  8> end
|  9>
| 10> *xyz 0 2
| 11> F         1.904297    0.001612   -0.000002
| 12> B         0.610260   -0.001979    0.000007
| 13> N        -0.632298    0.034590   -0.000004
| 14> N        -1.915919   -0.146921   -0.000000
| 15> H        -2.352456    0.781701    0.000010
| 16> *
| 17>
| 18> $new_job
| 19> ! ri-mp2 aug-cc-pvtz aug-cc-pvtz/c tightscf
| 20> %pal nprocs 16 end
| 21> %maxcore 3800
| 22> %base "TZ_B-F_59_A"
| 23>
| 24> *xyz 0 2
| 25> F         1.904297    0.001612   -0.000002
| 26> B         0.610260   -0.001979    0.000007
| 27> N        -0.632298    0.034590   -0.000004
| 28> N        -1.915919   -0.146921   -0.000000
| 29> H        -2.352456    0.781701    0.000010
| 30> *
| 31>
| 32> $new_job
| 33> ! ri-mp2 aug-cc-pvqz aug-cc-pvqz/c tightscf
| 34> %pal nprocs 16 end
| 35> %maxcore 3800
| 36> %base "QZ_B-F_59_A"
| 37>
| 38> *xyz 0 2
| 39> F         1.904297    0.001612   -0.000002
| 40> B         0.610260   -0.001979    0.000007
| 41> N        -0.632298    0.034590   -0.000004
| 42> N        -1.915919   -0.146921   -0.000000
| 43> H        -2.352456    0.781701    0.000010
| 44> *
| 45>
| 46>
| 47>
| 48>
| 49>                          ****END OF INPUT****
 Total Charge           Charge          ....    0
 Multiplicity           Mult            ....    2
 Number of Electrons    NEL             ....   29
MP2 TOTAL ENERGY:     -234.197240052 Eh
FINAL SINGLE POINT ENERGY      -234.197240051598
MP2 TOTAL ENERGY:     -234.395379775 Eh
FINAL SINGLE POINT ENERGY      -234.395379774908

CARTESIAN COORDINATES (ANGSTROEM)
---------------------------------
  F      1.904297    0.001612   -0.000002
  B      0.610260   -0.001979    0.000007
  N     -0.632298    0.034590   -0.000004
  N     -1.915919   -0.146921   -0.000000
  H     -2.352456    0.781701    0.000010

 Multiplicity           Mult            ....    2
 Number of Electrons    NEL             ....   29
 Basis Dimension        Dim             ....  366

ORBITAL ENERGIES
----------------
                 SPIN UP ORBITALS
  NO   OCC          E(Eh)            E(eV)
   0   1.0000     -26.360940      -717.3177
   1   1.0000     -15.625614      -425.1946
   2   1.0000     -15.586503      -424.1303
   3   1.0000      -7.696228      -209.4250
   4   1.0000      -1.674754       -45.5724
   5   1.0000      -1.325230       -36.0613
   6   1.0000      -1.029748       -28.0209
   7   1.0000      -0.822132       -22.3714
   8   1.0000      -0.743484       -20.2312
   9   1.0000      -0.742303       -20.1991
  10   1.0000      -0.730609       -19.8809
  11   1.0000      -0.612722       -16.6730
  12   1.0000      -0.597699       -16.2642
  13   1.0000      -0.388273       -10.5654
  14   1.0000      -0.371695       -10.1143
  15   0.0000       0.024296         0.6611
  16   0.0000       0.033925         0.9232
  17   0.0000       0.036183         0.9846
  18   0.0000       0.038856         1.0573
  19   0.0000       0.056255         1.5308

                 SPIN DOWN ORBITALS
  NO   OCC          E(Eh)            E(eV)
   0   1.0000     -26.359857      -717.2882
   1   1.0000     -15.595590      -424.3776
   2   1.0000     -15.591971      -424.2791
   3   1.0000      -7.692062      -209.3117
   4   1.0000      -1.672235       -45.5038
   5   1.0000      -1.283289       -34.9201
   6   1.0000      -0.978493       -26.6262
   7   1.0000      -0.820956       -22.3393
   8   1.0000      -0.738140       -20.0858
   9   1.0000      -0.730385       -19.8748
  10   1.0000      -0.714485       -19.4421
  11   1.0000      -0.575836       -15.6693
  12   1.0000      -0.499622       -13.5954
  13   1.0000      -0.375624       -10.2213
  14   0.0000       0.024913         0.6779
  15   0.0000       0.034159         0.9295
  16   0.0000       0.036234         0.9860
  17   0.0000       0.039008         1.0615
  18   0.0000       0.056778         1.5450

MULLIKEN ATOMIC CHARGES AND SPIN POPULATIONS
--------------------------------------------
   0 F :   -0.810535    0.004402
   1 B :    0.881220    0.241303
   2 N :    0.152452   -0.174786
   3 N :   -0.498967    0.971119
   4 H :    0.275831   -0.042038
Sum of atomic charges         :    0.0000000

LOEWDIN ATOMIC CHARGES AND SPIN POPULATIONS
-------------------------------------------
   0 F :    0.793099    0.040325
   1 B :   -1.015905    0.120865
   2 N :    0.234673    0.166940
   3 N :    0.688291    0.538969
   4 H :   -0.700158    0.132901

  Mayer bond orders larger than 0.100000
B(  0-F ,  1-B ) :   0.5487 B(  0-F ,  2-N ) :  -0.1892 B(  1-B ,  2-N ) :   2.1879
B(  1-B ,  3-N ) :   0.1061 B(  2-N ,  3-N ) :   0.7279 B(  3-N ,  4-H ) :   0.9224

MP2 TOTAL ENERGY:     -234.460184771 Eh
FINAL SINGLE POINT ENERGY      -234.460184771099

DIPOLE MOMENT
-------------
                                X             Y             Z
Electronic contribution:      4.68696      -0.18271       0.00001
Nuclear contribution   :     -4.38808       0.72308       0.00001
                        -----------------------------------------
Total Dipole Moment    :      0.29888       0.54037       0.00002
                        -----------------------------------------
Magnitude (a.u.)       :      0.61752
Magnitude (Debye)      :      1.56961

Rotational constants in cm-1:    18.766409     0.124721     0.123897
Rotational constants in MHz : 562602.785606  3739.035201  3714.349783

                             ****ORCA TERMINATED NORMALLY****
TOTAL RUN TIME: 0 days 0 hours 10 minutes 42 seconds 950 msec
