                         Program Version 5.0.4 -  RELEASE  -
|  1> ! ri-mp2 aug-cc-pvdz aug-cc-pvdz/c tightscf
|  2> %pal nprocs 16 end
|  3> %maxcore 3800
|  4> %base "DZ_B-S_27_AB"
|  5>
|  6> *xyz 0 1
|  7> F         4.095902   -0.239014    0.090067
|  8> F         0.155435    2.123917   -0.595457
|  9> S        -2.646024    1.212464    0.520644
| 10> C        -0.029941   -0.144730    0.035055
| 11> C         2.128401    0.965163   -0.259188
| 12> H         2.687422    1.854511   -0.508850
| 13> C         0.751060    0.965169   -0.262849
| 14> C         0.679853   -1.309315    0.352955
| 15> H         0.124883   -2.204632    0.597805
| 16> C         2.758685   -0.213126    0.072498
| 17> C         2.059144   -1.359515    0.383681
| 18> H         2.591864   -2.263491    0.640016
| 19> B        -1.588325   -0.153107    0.036951
| 20> S        -2.382473   -1.697720   -0.452131
| 21> H        -1.698356    2.111168    0.808563
| 22> H        -3.653495   -1.353924   -0.202896
| 23> *
| 24>
| 25> $new_job
| 26> ! ri-mp2 aug-cc-pvtz aug-cc-pvtz/c tightscf
| 27> %pal nprocs 16 end
| 28> %maxcore 3800
| 29> %base "TZ_B-S_27_AB"
| 30>
| 31> *xyz 0 1
| 32> F         4.095902   -0.239014    0.090067
| 33> F         0.155435    2.123917   -0.595457
| 34> S        -2.646024    1.212464    0.520644
| 35> C        -0.029941   -0.144730    0.035055
| 36> C         2.128401    0.965163   -0.259188
| 37> H         2.687422    1.854511   -0.508850
| 38> C         0.751060    0.965169   -0.262849
| 39> C         0.679853   -1.309315    0.352955
| 40> H         0.124883   -2.204632    0.597805
| 41> C         2.758685   -0.213126    0.072498
| 42> C         2.059144   -1.359515    0.383681
| 43> H         2.591864   -2.263491    0.640016
| 44> B        -1.588325   -0.153107    0.036951
| 45> S        -2.382473   -1.697720   -0.452131
| 46> H        -1.698356    2.111168    0.808563
| 47> H        -3.653495   -1.353924   -0.202896
| 48> *
| 49>
| 50> $new_job
| 51> ! ri-mp2 aug-cc-pvqz aug-cc-pvqz/c tightscf
| 52> %pal nprocs 16 end
| 53> %maxcore 3800
| 54> %base "QZ_B-S_27_AB"
| 55>
| 56> *xyz 0 1
| 57> F         4.095902   -0.239014    0.090067
| 58> F         0.155435    2.123917   -0.595457
| 59> S        -2.646024    1.212464    0.520644
| 60> C        -0.029941   -0.144730    0.035055
| 61> C         2.128401    0.965163   -0.259188
| 62> H         2.687422    1.854511   -0.508850
| 63> C         0.751060    0.965169   -0.262849
| 64> C         0.679853   -1.309315    0.352955
| 65> H         0.124883   -2.204632    0.597805
| 66> C         2.758685   -0.213126    0.072498
| 67> C         2.059144   -1.359515    0.383681
| 68> H         2.591864   -2.263491    0.640016
| 69> B        -1.588325   -0.153107    0.036951
| 70> S        -2.382473   -1.697720   -0.452131
| 71> H        -1.698356    2.111168    0.808563
| 72> H        -3.653495   -1.353924   -0.202896
| 73> *
| 74>
| 75>
| 76>
| 77>
| 78>                          ****END OF INPUT****
 Total Charge           Charge          ....    0
 Multiplicity           Mult            ....    1
 Number of Electrons    NEL             ....   96
MP2 TOTAL ENERGY:    -1250.434774999 Eh
FINAL SINGLE POINT ENERGY     -1250.434774999259
MP2 TOTAL ENERGY:    -1250.917692779 Eh
FINAL SINGLE POINT ENERGY     -1250.917692779082

CARTESIAN COORDINATES (ANGSTROEM)
---------------------------------
  F      4.095902   -0.239014    0.090067
  F      0.155435    2.123917   -0.595457
  S     -2.646024    1.212464    0.520644
  C     -0.029941   -0.144730    0.035055
  C      2.128401    0.965163   -0.259188
  H      2.687422    1.854511   -0.508850
  C      0.751060    0.965169   -0.262849
  C      0.679853   -1.309315    0.352955
  H      0.124883   -2.204632    0.597805
  C      2.758685   -0.213126    0.072498
  C      2.059144   -1.359515    0.383681
  H      2.591864   -2.263491    0.640016
  B     -1.588325   -0.153107    0.036951
  S     -2.382473   -1.697720   -0.452131
  H     -1.698356    2.111168    0.808563
  H     -3.653495   -1.353924   -0.202896

 Multiplicity           Mult            ....    1
 Number of Electrons    NEL             ....   96
 Basis Dimension        Dim             .... 1118

ORBITAL ENERGIES
----------------

  NO   OCC          E(Eh)            E(eV)
   0   2.0000     -91.960179     -2502.3637
   1   2.0000     -91.957924     -2502.3023
   2   2.0000     -26.327542      -716.4088
   3   2.0000     -26.327471      -716.4069
   4   2.0000     -11.355966      -309.0116
   5   2.0000     -11.354655      -308.9759
   6   2.0000     -11.272365      -306.7366
   7   2.0000     -11.257344      -306.3279
   8   2.0000     -11.252462      -306.1951
   9   2.0000     -11.244180      -305.9697
  10   2.0000      -8.965473      -243.9629
  11   2.0000      -8.963259      -243.9027
  12   2.0000      -7.661574      -208.4820
  13   2.0000      -6.647048      -180.8754
  14   2.0000      -6.646062      -180.8485
  15   2.0000      -6.645609      -180.8362
  16   2.0000      -6.644846      -180.8155
  17   2.0000      -6.643879      -180.7891
  18   2.0000      -6.643444      -180.7773
  19   2.0000      -1.650635       -44.9161
  20   2.0000      -1.649906       -44.8962
  21   2.0000      -1.192137       -32.4397
  22   2.0000      -1.062503       -28.9122
  23   2.0000      -1.051258       -28.6062
  24   2.0000      -1.010491       -27.4969
  25   2.0000      -0.966737       -26.3062
  26   2.0000      -0.884466       -24.0675
  27   2.0000      -0.877932       -23.8897
  28   2.0000      -0.789977       -21.4964
  29   2.0000      -0.758651       -20.6439
  30   2.0000      -0.721443       -19.6315
  31   2.0000      -0.718947       -19.5635
  32   2.0000      -0.712325       -19.3833
  33   2.0000      -0.700706       -19.0672
  34   2.0000      -0.684871       -18.6363
  35   2.0000      -0.637564       -17.3490
  36   2.0000      -0.621391       -16.9089
  37   2.0000      -0.600081       -16.3290
  38   2.0000      -0.582664       -15.8551
  39   2.0000      -0.551810       -15.0155
  40   2.0000      -0.538502       -14.6534
  41   2.0000      -0.524657       -14.2766
  42   2.0000      -0.466084       -12.6828
  43   2.0000      -0.457941       -12.4612
  44   2.0000      -0.439370       -11.9559
  45   2.0000      -0.372927       -10.1478
  46   2.0000      -0.369885       -10.0651
  47   2.0000      -0.356681        -9.7058
  48   0.0000       0.022203         0.6042
  49   0.0000       0.028698         0.7809
  50   0.0000       0.031672         0.8618
  51   0.0000       0.036545         0.9944
  52   0.0000       0.043009         1.1703

MULLIKEN ATOMIC CHARGES
-----------------------
   0 F :   -0.766973
   1 F :   -0.768646
   2 S :   -0.141933
   3 C :   -0.122513
   4 C :   -0.718766
   5 H :    0.475326
   6 C :    1.063200
   7 C :   -0.553735
   8 H :    0.165951
   9 C :    0.993486
  10 C :   -0.485180
  11 H :    0.385416
  12 B :    0.552505
  13 S :   -0.087563
  14 H :    0.012851
  15 H :   -0.003427
Sum of atomic charges:    0.0000000

LOEWDIN ATOMIC CHARGES
----------------------
   0 F :    0.800456
   1 F :    0.821516
   2 S :    1.704283
   3 C :   -0.144863
   4 C :    0.269474
   5 H :   -0.333762
   6 C :   -0.731318
   7 C :    0.256891
   8 H :   -0.360737
   9 C :   -0.696742
  10 C :    0.325177
  11 H :   -0.325418
  12 B :   -1.667834
  13 S :    1.695536
  14 H :   -0.816845
  15 H :   -0.795814

  Mayer bond orders larger than 0.100000
B(  0-F ,  4-C ) :   0.1084 B(  0-F ,  9-C ) :  -0.1449 B(  0-F , 10-C ) :   0.1523
B(  1-F ,  3-C ) :   0.2939 B(  1-F ,  6-C ) :  -0.1797 B(  2-S , 12-B ) :   1.0441
B(  2-S , 14-H ) :   1.0758 B(  3-C ,  4-C ) :  -0.1817 B(  3-C ,  6-C ) :   1.2011
B(  3-C ,  7-C ) :   1.0215 B(  3-C , 10-C ) :  -0.2412 B(  3-C , 12-B ) :   0.9240
B(  4-C ,  5-H ) :   0.6853 B(  4-C ,  6-C ) :   1.4300 B(  4-C ,  7-C ) :   0.1299
B(  4-C ,  9-C ) :   1.5037 B(  6-C ,  9-C ) :  -0.2090 B(  7-C ,  8-H ) :   1.1034
B(  7-C , 10-C ) :   1.1798 B(  7-C , 11-H ) :  -0.1322 B(  9-C , 10-C ) :   1.3849
B( 10-C , 11-H ) :   0.8787 B( 12-B , 13-S ) :   1.0380 B( 13-S , 15-H ) :   1.0935

MP2 TOTAL ENERGY:    -1251.075860983 Eh
FINAL SINGLE POINT ENERGY     -1251.075860982993

DIPOLE MOMENT
-------------
                                X             Y             Z
Electronic contribution:      2.71590       3.21950      -1.44366
Nuclear contribution   :     -2.57230      -3.39612       1.70954
                        -----------------------------------------
Total Dipole Moment    :      0.14359      -0.17662       0.26588
                        -----------------------------------------
Magnitude (a.u.)       :      0.35001
Magnitude (Debye)      :      0.88965

Rotational constants in cm-1:     0.049409     0.016507     0.012921
Rotational constants in MHz :  1481.230401   494.881107   387.349084

                             ****ORCA TERMINATED NORMALLY****
TOTAL RUN TIME: 0 days 0 hours 49 minutes 16 seconds 516 msec
