                         Program Version 5.0.4 -  RELEASE  -
|  1> ! ri-mp2 aug-cc-pvdz aug-cc-pvdz/c tightscf
|  2> %pal nprocs 16 end
|  3> %maxcore 3800
|  4> %base "DZ_Si-Si_97_AB"
|  5>
|  6> *xyz 0 1
|  7> Si        -2.080444   -0.696881   -0.222050
|  8> Si        -0.661608    1.103686    0.231347
|  9> H        -3.426065   -0.176877   -0.552978
| 10> H        -2.171513   -1.588892    0.949200
| 11> H        -1.545156   -1.433798   -1.386536
| 12> O         0.919339    0.853773   -0.418847
| 13> H        -0.525462    1.411407    1.666717
| 14> H        -1.006948    2.328159   -0.514564
| 15> N         1.562736   -0.267119    0.013010
| 16> O         0.944121   -0.956869    0.795904
| 17> O         2.652130   -0.442585   -0.424940
| 18> *
| 19>
| 20> $new_job
| 21> ! ri-mp2 aug-cc-pvtz aug-cc-pvtz/c tightscf
| 22> %pal nprocs 16 end
| 23> %maxcore 3800
| 24> %base "TZ_Si-Si_97_AB"
| 25>
| 26> *xyz 0 1
| 27> Si        -2.080444   -0.696881   -0.222050
| 28> Si        -0.661608    1.103686    0.231347
| 29> H        -3.426065   -0.176877   -0.552978
| 30> H        -2.171513   -1.588892    0.949200
| 31> H        -1.545156   -1.433798   -1.386536
| 32> O         0.919339    0.853773   -0.418847
| 33> H        -0.525462    1.411407    1.666717
| 34> H        -1.006948    2.328159   -0.514564
| 35> N         1.562736   -0.267119    0.013010
| 36> O         0.944121   -0.956869    0.795904
| 37> O         2.652130   -0.442585   -0.424940
| 38> *
| 39>
| 40> $new_job
| 41> ! ri-mp2 aug-cc-pvqz aug-cc-pvqz/c tightscf
| 42> %pal nprocs 16 end
| 43> %maxcore 3800
| 44> %base "QZ_Si-Si_97_AB"
| 45>
| 46> *xyz 0 1
| 47> Si        -2.080444   -0.696881   -0.222050
| 48> Si        -0.661608    1.103686    0.231347
| 49> H        -3.426065   -0.176877   -0.552978
| 50> H        -2.171513   -1.588892    0.949200
| 51> H        -1.545156   -1.433798   -1.386536
| 52> O         0.919339    0.853773   -0.418847
| 53> H        -0.525462    1.411407    1.666717
| 54> H        -1.006948    2.328159   -0.514564
| 55> N         1.562736   -0.267119    0.013010
| 56> O         0.944121   -0.956869    0.795904
| 57> O         2.652130   -0.442585   -0.424940
| 58> *
| 59>
| 60>
| 61>
| 62>
| 63>                          ****END OF INPUT****
 Total Charge           Charge          ....    0
 Multiplicity           Mult            ....    1
 Number of Electrons    NEL             ....   64
MP2 TOTAL ENERGY:     -860.706821419 Eh
FINAL SINGLE POINT ENERGY      -860.706821419195
MP2 TOTAL ENERGY:     -861.012285424 Eh
FINAL SINGLE POINT ENERGY      -861.012285423652

CARTESIAN COORDINATES (ANGSTROEM)
---------------------------------
  Si    -2.080444   -0.696881   -0.222050
  Si    -0.661608    1.103686    0.231347
  H     -3.426065   -0.176877   -0.552978
  H     -2.171513   -1.588892    0.949200
  H     -1.545156   -1.433798   -1.386536
  O      0.919339    0.853773   -0.418847
  H     -0.525462    1.411407    1.666717
  H     -1.006948    2.328159   -0.514564
  N      1.562736   -0.267119    0.013010
  O      0.944121   -0.956869    0.795904
  O      2.652130   -0.442585   -0.424940

 Multiplicity           Mult            ....    1
 Number of Electrons    NEL             ....   64
 Basis Dimension        Dim             ....  718

ORBITAL ENERGIES
----------------

  NO   OCC          E(Eh)            E(eV)
   0   2.0000     -68.826099     -1872.8534
   1   2.0000     -68.784185     -1871.7128
   2   2.0000     -20.656797      -562.1000
   3   2.0000     -20.637348      -561.5708
   4   2.0000     -20.629731      -561.3635
   5   2.0000     -15.932767      -433.5526
   6   2.0000      -6.171940      -167.9470
   7   2.0000      -6.135098      -166.9445
   8   2.0000      -4.278805      -116.4322
   9   2.0000      -4.277817      -116.4053
  10   2.0000      -4.277479      -116.3961
  11   2.0000      -4.241313      -115.4120
  12   2.0000      -4.241159      -115.4078
  13   2.0000      -4.241030      -115.4043
  14   2.0000      -1.691170       -46.0191
  15   2.0000      -1.462678       -39.8015
  16   2.0000      -1.422535       -38.7091
  17   2.0000      -0.950203       -25.8563
  18   2.0000      -0.827114       -22.5069
  19   2.0000      -0.797805       -21.7094
  20   2.0000      -0.786262       -21.3953
  21   2.0000      -0.762273       -20.7425
  22   2.0000      -0.690968       -18.8022
  23   2.0000      -0.613787       -16.7020
  24   2.0000      -0.582930       -15.8623
  25   2.0000      -0.547777       -14.9058
  26   2.0000      -0.527931       -14.3657
  27   2.0000      -0.509822       -13.8730
  28   2.0000      -0.504385       -13.7250
  29   2.0000      -0.497194       -13.5293
  30   2.0000      -0.487413       -13.2632
  31   2.0000      -0.425033       -11.5657
  32   0.0000       0.023568         0.6413
  33   0.0000       0.027495         0.7482
  34   0.0000       0.035602         0.9688
  35   0.0000       0.041055         1.1172
  36   0.0000       0.049189         1.3385

MULLIKEN ATOMIC CHARGES
-----------------------
   0 Si:    0.365728
   1 Si:    1.166689
   2 H :   -0.184567
   3 H :   -0.121131
   4 H :   -0.130972
   5 O :   -0.721650
   6 H :   -0.189542
   7 H :   -0.263464
   8 N :    1.153136
   9 O :   -0.558420
  10 O :   -0.515806
Sum of atomic charges:    0.0000000

LOEWDIN ATOMIC CHARGES
----------------------
   0 Si:    1.034244
   1 Si:    0.341875
   2 H :   -0.321580
   3 H :   -0.308460
   4 H :   -0.306120
   5 O :    0.448592
   6 H :   -0.272467
   7 H :   -0.291380
   8 N :   -1.327133
   9 O :    0.489926
  10 O :    0.512501

  Mayer bond orders larger than 0.100000
B(  0-Si,  1-Si) :   0.7862 B(  0-Si,  2-H ) :   0.7366 B(  0-Si,  3-H ) :   0.7796
B(  0-Si,  4-H ) :   0.7599 B(  1-Si,  5-O ) :   0.3332 B(  1-Si,  6-H ) :   0.8816
B(  1-Si,  7-H ) :   0.8535 B(  5-O ,  8-N ) :   0.9287 B(  8-N ,  9-O ) :   1.3723
B(  8-N , 10-O ) :   1.4801 B(  9-O , 10-O ) :   0.1248

MP2 TOTAL ENERGY:     -861.115347280 Eh
FINAL SINGLE POINT ENERGY      -861.115347280199

DIPOLE MOMENT
-------------
                                X             Y             Z
Electronic contribution:      7.15841       0.01053      -0.10088
Nuclear contribution   :     -8.22179       0.49276       0.15666
                        -----------------------------------------
Total Dipole Moment    :     -1.06338       0.50329       0.05578
                        -----------------------------------------
Magnitude (a.u.)       :      1.17779
Magnitude (Debye)      :      2.99370

Rotational constants in cm-1:     0.146195     0.047750     0.040274
Rotational constants in MHz :  4382.830762  1431.504461  1207.395650

                             ****ORCA TERMINATED NORMALLY****
TOTAL RUN TIME: 0 days 0 hours 7 minutes 31 seconds 789 msec
