                         Program Version 5.0.4 -  RELEASE  -
|  1> ! ri-mp2 aug-cc-pvdz aug-cc-pvdz/c tightscf
|  2> %pal nprocs 16 end
|  3> %maxcore 3800
|  4> %base "DZ_Si-S_43_AB"
|  5>
|  6> *xyz 0 1
|  7> Si         2.447588    0.000000    0.863046
|  8> S         1.460119    0.000000   -1.028168
|  9> C        -0.225095    0.000000   -0.435708
| 10> C        -0.888406   -1.200605   -0.221682
| 11> C        -2.203672   -1.198002    0.209331
| 12> C        -0.888406    1.200605   -0.221682
| 13> C        -2.203672    1.198002    0.209331
| 14> C        -2.863394    0.000000    0.426277
| 15> H        -3.891646    0.000000    0.762183
| 16> H        -2.714417   -2.137327    0.374488
| 17> H        -0.369775   -2.133404   -0.395161
| 18> H        -0.369775    2.133404   -0.395161
| 19> H        -2.714417    2.137328    0.374488
| 20> H         3.894199    0.000000    0.565811
| 21> H         2.086780   -1.201678    1.643104
| 22> H         2.086780    1.201679    1.643104
| 23> *
| 24>
| 25> $new_job
| 26> ! ri-mp2 aug-cc-pvtz aug-cc-pvtz/c tightscf
| 27> %pal nprocs 16 end
| 28> %maxcore 3800
| 29> %base "TZ_Si-S_43_AB"
| 30>
| 31> *xyz 0 1
| 32> Si         2.447588    0.000000    0.863046
| 33> S         1.460119    0.000000   -1.028168
| 34> C        -0.225095    0.000000   -0.435708
| 35> C        -0.888406   -1.200605   -0.221682
| 36> C        -2.203672   -1.198002    0.209331
| 37> C        -0.888406    1.200605   -0.221682
| 38> C        -2.203672    1.198002    0.209331
| 39> C        -2.863394    0.000000    0.426277
| 40> H        -3.891646    0.000000    0.762183
| 41> H        -2.714417   -2.137327    0.374488
| 42> H        -0.369775   -2.133404   -0.395161
| 43> H        -0.369775    2.133404   -0.395161
| 44> H        -2.714417    2.137328    0.374488
| 45> H         3.894199    0.000000    0.565811
| 46> H         2.086780   -1.201678    1.643104
| 47> H         2.086780    1.201679    1.643104
| 48> *
| 49>
| 50> $new_job
| 51> ! ri-mp2 aug-cc-pvqz aug-cc-pvqz/c tightscf
| 52> %pal nprocs 16 end
| 53> %maxcore 3800
| 54> %base "QZ_Si-S_43_AB"
| 55>
| 56> *xyz 0 1
| 57> Si         2.447588    0.000000    0.863046
| 58> S         1.460119    0.000000   -1.028168
| 59> C        -0.225095    0.000000   -0.435708
| 60> C        -0.888406   -1.200605   -0.221682
| 61> C        -2.203672   -1.198002    0.209331
| 62> C        -0.888406    1.200605   -0.221682
| 63> C        -2.203672    1.198002    0.209331
| 64> C        -2.863394    0.000000    0.426277
| 65> H        -3.891646    0.000000    0.762183
| 66> H        -2.714417   -2.137327    0.374488
| 67> H        -0.369775   -2.133404   -0.395161
| 68> H        -0.369775    2.133404   -0.395161
| 69> H        -2.714417    2.137328    0.374488
| 70> H         3.894199    0.000000    0.565811
| 71> H         2.086780   -1.201678    1.643104
| 72> H         2.086780    1.201679    1.643104
| 73> *
| 74>
| 75>
| 76>
| 77>
| 78>                          ****END OF INPUT****
 Total Charge           Charge          ....    0
 Multiplicity           Mult            ....    1
 Number of Electrons    NEL             ....   74
MP2 TOTAL ENERGY:     -919.434935496 Eh
FINAL SINGLE POINT ENERGY      -919.434935496314
MP2 TOTAL ENERGY:     -919.727419956 Eh
FINAL SINGLE POINT ENERGY      -919.727419955697

CARTESIAN COORDINATES (ANGSTROEM)
---------------------------------
  Si     2.447588    0.000000    0.863046
  S      1.460119    0.000000   -1.028168
  C     -0.225095    0.000000   -0.435708
  C     -0.888406   -1.200605   -0.221682
  C     -2.203672   -1.198002    0.209331
  C     -0.888406    1.200605   -0.221682
  C     -2.203672    1.198002    0.209331
  C     -2.863394    0.000000    0.426277
  H     -3.891646    0.000000    0.762183
  H     -2.714417   -2.137327    0.374488
  H     -0.369775   -2.133404   -0.395161
  H     -0.369775    2.133404   -0.395161
  H     -2.714417    2.137328    0.374488
  H      3.894199    0.000000    0.565811
  H      2.086780   -1.201678    1.643104
  H      2.086780    1.201679    1.643104

 Multiplicity           Mult            ....    1
 Number of Electrons    NEL             ....   74
 Basis Dimension        Dim             .... 1016

ORBITAL ENERGIES
----------------

  NO   OCC          E(Eh)            E(eV)
   0   2.0000     -91.945288     -2501.9585
   1   2.0000     -68.792056     -1871.9270
   2   2.0000     -11.271984      -306.7263
   3   2.0000     -11.243265      -305.9448
   4   2.0000     -11.243260      -305.9447
   5   2.0000     -11.242179      -305.9152
   6   2.0000     -11.240992      -305.8829
   7   2.0000     -11.240372      -305.8661
   8   2.0000      -8.949489      -243.5280
   9   2.0000      -6.630958      -180.4375
  10   2.0000      -6.630229      -180.4177
  11   2.0000      -6.629520      -180.3984
  12   2.0000      -6.139479      -167.0637
  13   2.0000      -4.246098      -115.5422
  14   2.0000      -4.245564      -115.5277
  15   2.0000      -4.245298      -115.5204
  16   2.0000      -1.172664       -31.9098
  17   2.0000      -1.057142       -28.7663
  18   2.0000      -1.029216       -28.0064
  19   2.0000      -0.943849       -25.6834
  20   2.0000      -0.840505       -22.8713
  21   2.0000      -0.812471       -22.1084
  22   2.0000      -0.720899       -19.6167
  23   2.0000      -0.696020       -18.9397
  24   2.0000      -0.642151       -17.4738
  25   2.0000      -0.635514       -17.2932
  26   2.0000      -0.599184       -16.3046
  27   2.0000      -0.568232       -15.4624
  28   2.0000      -0.534370       -14.5410
  29   2.0000      -0.508100       -13.8261
  30   2.0000      -0.504281       -13.7222
  31   2.0000      -0.498403       -13.5622
  32   2.0000      -0.475059       -12.9270
  33   2.0000      -0.448257       -12.1977
  34   2.0000      -0.367596       -10.0028
  35   2.0000      -0.349176        -9.5016
  36   2.0000      -0.337571        -9.1858
  37   0.0000       0.022766         0.6195
  38   0.0000       0.028893         0.7862
  39   0.0000       0.029240         0.7956
  40   0.0000       0.036690         0.9984
  41   0.0000       0.041658         1.1336

MULLIKEN ATOMIC CHARGES
-----------------------
   0 Si:    0.664147
   1 S :   -0.378303
   2 C :   -0.050059
   3 C :   -0.374942
   4 C :   -0.230540
   5 C :   -0.374941
   6 C :   -0.230541
   7 C :   -0.267442
   8 H :    0.329620
   9 H :    0.256060
  10 H :    0.421131
  11 H :    0.421132
  12 H :    0.256060
  13 H :   -0.193587
  14 H :   -0.123897
  15 H :   -0.123898
Sum of atomic charges:   -0.0000000

LOEWDIN ATOMIC CHARGES
----------------------
   0 Si:    0.631204
   1 S :    1.130259
   2 C :   -0.639144
   3 C :    0.213305
   4 C :    0.334424
   5 C :    0.213304
   6 C :    0.334424
   7 C :    0.334965
   8 H :   -0.320123
   9 H :   -0.319767
  10 H :   -0.345105
  11 H :   -0.345105
  12 H :   -0.319766
  13 H :   -0.320345
  14 H :   -0.291266
  15 H :   -0.291265

  Mayer bond orders larger than 0.100000
B(  0-Si,  1-S ) :   0.8323 B(  0-Si, 13-H ) :   0.7831 B(  0-Si, 14-H ) :   0.7498
B(  0-Si, 15-H ) :   0.7498 B(  1-S ,  2-C ) :   0.9463 B(  1-S ,  3-C ) :  -0.1582
B(  1-S ,  5-C ) :  -0.1582 B(  2-C ,  3-C ) :   1.0556 B(  2-C ,  4-C ) :  -0.2016
B(  2-C ,  5-C ) :   1.0556 B(  2-C ,  6-C ) :  -0.2016 B(  3-C ,  4-C ) :   1.3302
B(  3-C ,  6-C ) :   0.1465 B(  3-C ,  9-H ) :  -0.1255 B(  3-C , 10-H ) :   0.8846
B(  4-C ,  5-C ) :   0.1465 B(  4-C ,  6-C ) :  -0.1215 B(  4-C ,  7-C ) :   1.0904
B(  4-C ,  9-H ) :   1.1000 B(  5-C ,  6-C ) :   1.3302 B(  5-C , 11-H ) :   0.8846
B(  5-C , 12-H ) :  -0.1255 B(  6-C ,  7-C ) :   1.0904 B(  6-C , 12-H ) :   1.1000
B(  7-C ,  8-H ) :   0.9939 B(  7-C ,  9-H ) :  -0.1100 B(  7-C , 12-H ) :  -0.1100

MP2 TOTAL ENERGY:     -919.821647054 Eh
FINAL SINGLE POINT ENERGY      -919.821647054384

DIPOLE MOMENT
-------------
                                X             Y             Z
Electronic contribution:      1.68567      -0.00000      -4.03004
Nuclear contribution   :     -2.16568       0.00000       4.51005
                        -----------------------------------------
Total Dipole Moment    :     -0.48000      -0.00000       0.48000
                        -----------------------------------------
Magnitude (a.u.)       :      0.67883
Magnitude (Debye)      :      1.72544

Rotational constants in cm-1:     0.106243     0.028378     0.027359
Rotational constants in MHz :  3185.073599   850.744932   820.193462

                             ****ORCA TERMINATED NORMALLY****
TOTAL RUN TIME: 0 days 0 hours 30 minutes 16 seconds 445 msec
