                         Program Version 5.0.4 -  RELEASE  -
|  1> ! ri-mp2 aug-cc-pvdz aug-cc-pvdz/c tightscf
|  2> %pal nprocs 16 end
|  3> %maxcore 3800
|  4> %base "DZ_Si-Cl_72_AB"
|  5> %scf
|  6> STABPerform true
|  7> STABRestartUHFifUnstable true
|  8> end
|  9>
| 10> *xyz 0 1
| 11> Si        -0.560477    0.439898   -0.000001
| 12> C         1.231316   -0.225741   -0.000001
| 13> Cl        -1.875583   -1.068962    0.000007
| 14> F        -0.740039    1.334084   -1.276097
| 15> F        -0.740035    1.334093    1.276089
| 16> F         1.476273   -0.980902    1.082082
| 17> F         2.121276    0.778999   -0.000009
| 18> F         1.476268   -0.980916   -1.082075
| 19> *
| 20>
| 21> $new_job
| 22> ! ri-mp2 aug-cc-pvtz aug-cc-pvtz/c tightscf
| 23> %pal nprocs 16 end
| 24> %maxcore 3800
| 25> %base "TZ_Si-Cl_72_AB"
| 26>
| 27> *xyz 0 1
| 28> Si        -0.560477    0.439898   -0.000001
| 29> C         1.231316   -0.225741   -0.000001
| 30> Cl        -1.875583   -1.068962    0.000007
| 31> F        -0.740039    1.334084   -1.276097
| 32> F        -0.740035    1.334093    1.276089
| 33> F         1.476273   -0.980902    1.082082
| 34> F         2.121276    0.778999   -0.000009
| 35> F         1.476268   -0.980916   -1.082075
| 36> *
| 37>
| 38> $new_job
| 39> ! ri-mp2 aug-cc-pvqz aug-cc-pvqz/c tightscf
| 40> %pal nprocs 16 end
| 41> %maxcore 3800
| 42> %base "QZ_Si-Cl_72_AB"
| 43>
| 44> *xyz 0 1
| 45> Si        -0.560477    0.439898   -0.000001
| 46> C         1.231316   -0.225741   -0.000001
| 47> Cl        -1.875583   -1.068962    0.000007
| 48> F        -0.740039    1.334084   -1.276097
| 49> F        -0.740035    1.334093    1.276089
| 50> F         1.476273   -0.980902    1.082082
| 51> F         2.121276    0.778999   -0.000009
| 52> F         1.476268   -0.980916   -1.082075
| 53> *
| 54>
| 55>
| 56>
| 57>
| 58>                          ****END OF INPUT****
 Total Charge           Charge          ....    0
 Multiplicity           Mult            ....    1
 Number of Electrons    NEL             ....   82
MP2 TOTAL ENERGY:    -1285.127495707 Eh
FINAL SINGLE POINT ENERGY     -1285.127495706628
MP2 TOTAL ENERGY:    -1285.684919995 Eh
FINAL SINGLE POINT ENERGY     -1285.684919994640

CARTESIAN COORDINATES (ANGSTROEM)
---------------------------------
  Si    -0.560477    0.439898   -0.000001
  C      1.231316   -0.225741   -0.000001
  Cl    -1.875583   -1.068962    0.000007
  F     -0.740039    1.334084   -1.276097
  F     -0.740035    1.334093    1.276089
  F      1.476273   -0.980902    1.082082
  F      2.121276    0.778999   -0.000009
  F      1.476268   -0.980916   -1.082075

 Multiplicity           Mult            ....    1
 Number of Electrons    NEL             ....   82
 Basis Dimension        Dim             ....  648

ORBITAL ENERGIES
----------------

  NO   OCC          E(Eh)            E(eV)
   0   2.0000    -104.879267     -2853.9099
   1   2.0000     -68.927134     -1875.6027
   2   2.0000     -26.354807      -717.1508
   3   2.0000     -26.354787      -717.1502
   4   2.0000     -26.354433      -717.1406
   5   2.0000     -26.341155      -716.7793
   6   2.0000     -26.341146      -716.7790
   7   2.0000     -11.512361      -313.2673
   8   2.0000     -10.606892      -288.6282
   9   2.0000      -8.073706      -219.6967
  10   2.0000      -8.072452      -219.6626
  11   2.0000      -8.072436      -219.6622
  12   2.0000      -6.262666      -170.4158
  13   2.0000      -4.371128      -118.9444
  14   2.0000      -4.371111      -118.9440
  15   2.0000      -4.369906      -118.9112
  16   2.0000      -1.745555       -47.4990
  17   2.0000      -1.658301       -45.1247
  18   2.0000      -1.651808       -44.9480
  19   2.0000      -1.651291       -44.9339
  20   2.0000      -1.638843       -44.5952
  21   2.0000      -1.154612       -31.4186
  22   2.0000      -0.994621       -27.0650
  23   2.0000      -0.868829       -23.6420
  24   2.0000      -0.838207       -22.8088
  25   2.0000      -0.837778       -22.7971
  26   2.0000      -0.812601       -22.1120
  27   2.0000      -0.768422       -20.9098
  28   2.0000      -0.742567       -20.2063
  29   2.0000      -0.730834       -19.8870
  30   2.0000      -0.727239       -19.7892
  31   2.0000      -0.724321       -19.7098
  32   2.0000      -0.710631       -19.3373
  33   2.0000      -0.694768       -18.9056
  34   2.0000      -0.682300       -18.5663
  35   2.0000      -0.680679       -18.5222
  36   2.0000      -0.666862       -18.1462
  37   2.0000      -0.624343       -16.9892
  38   2.0000      -0.547827       -14.9071
  39   2.0000      -0.522261       -14.2114
  40   2.0000      -0.514506       -14.0004
  41   0.0000       0.033361         0.9078
  42   0.0000       0.040412         1.0997
  43   0.0000       0.041342         1.1250
  44   0.0000       0.042004         1.1430
  45   0.0000       0.075890         2.0651

MULLIKEN ATOMIC CHARGES
-----------------------
   0 Si:    2.281606
   1 C :    1.479202
   2 Cl:   -0.512914
   3 F :   -0.711554
   4 F :   -0.711554
   5 F :   -0.614253
   6 F :   -0.596282
   7 F :   -0.614253
Sum of atomic charges:    0.0000000

LOEWDIN ATOMIC CHARGES
----------------------
   0 Si:   -1.731875
   1 C :   -2.182731
   2 Cl:    1.004743
   3 F :    0.428274
   4 F :    0.428274
   5 F :    0.681972
   6 F :    0.689371
   7 F :    0.681972

  Mayer bond orders larger than 0.100000
B(  0-Si,  1-C ) :   0.7777 B(  0-Si,  2-Cl) :   0.6972 B(  0-Si,  3-F ) :   0.4834
B(  0-Si,  4-F ) :   0.4834 B(  1-C ,  5-F ) :   0.5540 B(  1-C ,  6-F ) :   0.5347
B(  1-C ,  7-F ) :   0.5540

MP2 TOTAL ENERGY:    -1285.870681707 Eh
FINAL SINGLE POINT ENERGY     -1285.870681707138

DIPOLE MOMENT
-------------
                                X             Y             Z
Electronic contribution:      0.25225      -0.14816      -0.00000
Nuclear contribution   :     -0.75114       0.03223       0.00000
                        -----------------------------------------
Total Dipole Moment    :     -0.49889      -0.11594       0.00000
                        -----------------------------------------
Magnitude (a.u.)       :      0.51219
Magnitude (Debye)      :      1.30187

Rotational constants in cm-1:     0.062753     0.037695     0.033506
Rotational constants in MHz :  1881.300024  1130.064911  1004.489049

                             ****ORCA TERMINATED NORMALLY****
TOTAL RUN TIME: 0 days 0 hours 24 minutes 47 seconds 758 msec
