                         Program Version 5.0.4 -  RELEASE  -
|  1> ! ri-mp2 aug-cc-pvdz aug-cc-pvdz/c tightscf
|  2> %pal nprocs 16 end
|  3> %maxcore 3800
|  4> %base "DZ_S-F_30_AB"
|  5> %scf
|  6> STABPerform true
|  7> STABRestartUHFifUnstable true
|  8> end
|  9>
| 10> *xyz 0 1
| 11> F        -1.761825    0.546611   -0.000002
| 12> S        -0.764756   -0.702519    0.000001
| 13> C         0.754434    0.194584    0.000000
| 14> O         0.873699    1.376543   -0.000004
| 15> O         1.748391   -0.704553    0.000003
| 16> H         2.589199   -0.222613    0.000002
| 17> *
| 18>
| 19> $new_job
| 20> ! ri-mp2 aug-cc-pvtz aug-cc-pvtz/c tightscf
| 21> %pal nprocs 16 end
| 22> %maxcore 3800
| 23> %base "TZ_S-F_30_AB"
| 24>
| 25> *xyz 0 1
| 26> F        -1.761825    0.546611   -0.000002
| 27> S        -0.764756   -0.702519    0.000001
| 28> C         0.754434    0.194584    0.000000
| 29> O         0.873699    1.376543   -0.000004
| 30> O         1.748391   -0.704553    0.000003
| 31> H         2.589199   -0.222613    0.000002
| 32> *
| 33>
| 34> $new_job
| 35> ! ri-mp2 aug-cc-pvqz aug-cc-pvqz/c tightscf
| 36> %pal nprocs 16 end
| 37> %maxcore 3800
| 38> %base "QZ_S-F_30_AB"
| 39>
| 40> *xyz 0 1
| 41> F        -1.761825    0.546611   -0.000002
| 42> S        -0.764756   -0.702519    0.000001
| 43> C         0.754434    0.194584    0.000000
| 44> O         0.873699    1.376543   -0.000004
| 45> O         1.748391   -0.704553    0.000003
| 46> H         2.589199   -0.222613    0.000002
| 47> *
| 48>
| 49>
| 50>
| 51>
| 52>                          ****END OF INPUT****
 Total Charge           Charge          ....    0
 Multiplicity           Mult            ....    1
 Number of Electrons    NEL             ....   48
MP2 TOTAL ENERGY:     -686.029145880 Eh
FINAL SINGLE POINT ENERGY      -686.029145879943
MP2 TOTAL ENERGY:     -686.322833866 Eh
FINAL SINGLE POINT ENERGY      -686.322833866268

CARTESIAN COORDINATES (ANGSTROEM)
---------------------------------
  F     -1.761825    0.546611   -0.000002
  S     -0.764756   -0.702519    0.000001
  C      0.754434    0.194584    0.000000
  O      0.873699    1.376543   -0.000004
  O      1.748391   -0.704553    0.000003
  H      2.589199   -0.222613    0.000002

 Multiplicity           Mult            ....    1
 Number of Electrons    NEL             ....   48
 Basis Dimension        Dim             ....  450

ORBITAL ENERGIES
----------------

  NO   OCC          E(Eh)            E(eV)
   0   2.0000     -92.069815     -2505.3470
   1   2.0000     -26.335517      -716.6258
   2   2.0000     -20.646832      -561.8289
   3   2.0000     -20.580630      -560.0274
   4   2.0000     -11.435615      -311.1789
   5   2.0000      -9.064445      -246.6561
   6   2.0000      -6.745907      -183.5655
   7   2.0000      -6.744084      -183.5158
   8   2.0000      -6.742801      -183.4810
   9   2.0000      -1.639941       -44.6251
  10   2.0000      -1.504842       -40.9488
  11   2.0000      -1.405903       -38.2566
  12   2.0000      -1.048923       -28.5427
  13   2.0000      -0.867008       -23.5925
  14   2.0000      -0.754881       -20.5413
  15   2.0000      -0.738406       -20.0931
  16   2.0000      -0.721172       -19.6241
  17   2.0000      -0.693561       -18.8728
  18   2.0000      -0.670574       -18.2473
  19   2.0000      -0.656631       -17.8679
  20   2.0000      -0.578585       -15.7441
  21   2.0000      -0.526188       -14.3183
  22   2.0000      -0.471847       -12.8396
  23   2.0000      -0.412644       -11.2286
  24   0.0000       0.021348         0.5809
  25   0.0000       0.045668         1.2427
  26   0.0000       0.057014         1.5514
  27   0.0000       0.070198         1.9102
  28   0.0000       0.083638         2.2759

MULLIKEN ATOMIC CHARGES
-----------------------
   0 F :   -0.585253
   1 S :    0.783827
   2 C :    0.623186
   3 O :   -0.593783
   4 O :   -0.553441
   5 H :    0.325464
Sum of atomic charges:    0.0000000

LOEWDIN ATOMIC CHARGES
----------------------
   0 F :    0.089122
   1 S :    0.625044
   2 C :   -1.592973
   3 O :    0.579392
   4 O :    1.114670
   5 H :   -0.815255

  Mayer bond orders larger than 0.100000
B(  0-F ,  1-S ) :   0.6530 B(  1-S ,  2-C ) :   1.0378 B(  2-C ,  3-O ) :   1.7246
B(  2-C ,  4-O ) :   0.9930 B(  4-O ,  5-H ) :   0.8813

MP2 TOTAL ENERGY:     -686.421909866 Eh
FINAL SINGLE POINT ENERGY      -686.421909865524

DIPOLE MOMENT
-------------
                                X             Y             Z
Electronic contribution:     -3.43388      -0.12653      -0.00000
Nuclear contribution   :      4.12299      -0.68512       0.00000
                        -----------------------------------------
Total Dipole Moment    :      0.68911      -0.81165       0.00000
                        -----------------------------------------
Magnitude (a.u.)       :      1.06473
Magnitude (Debye)      :      2.70632

Rotational constants in cm-1:     0.279772     0.110733     0.079333
Rotational constants in MHz :  8387.355191  3319.691099  2378.347850

                             ****ORCA TERMINATED NORMALLY****
TOTAL RUN TIME: 0 days 0 hours 12 minutes 12 seconds 48 msec
