                         Program Version 5.0.4 -  RELEASE  -
|  1> ! ri-mp2 aug-cc-pvdz aug-cc-pvdz/c tightscf
|  2> %pal nprocs 16 end
|  3> %maxcore 3800
|  4> %base "DZ_B-Cl_12_AB"
|  5> %scf
|  6> STABPerform true
|  7> STABRestartUHFifUnstable true
|  8> end
|  9>
| 10> *xyz 0 1
| 11> Cl        -0.933751   -1.503551    0.002036
| 12> Cl        -0.933733    1.503560    0.002036
| 13> B        -0.045080   -0.000001    0.022937
| 14> P         1.849583   -0.000009   -0.115458
| 15> H         2.114443   -1.059512    0.773971
| 16> H         2.114451    1.059490    0.773974
| 17> *
| 18>
| 19> $new_job
| 20> ! ri-mp2 aug-cc-pvtz aug-cc-pvtz/c tightscf
| 21> %pal nprocs 16 end
| 22> %maxcore 3800
| 23> %base "TZ_B-Cl_12_AB"
| 24>
| 25> *xyz 0 1
| 26> Cl        -0.933751   -1.503551    0.002036
| 27> Cl        -0.933733    1.503560    0.002036
| 28> B        -0.045080   -0.000001    0.022937
| 29> P         1.849583   -0.000009   -0.115458
| 30> H         2.114443   -1.059512    0.773971
| 31> H         2.114451    1.059490    0.773974
| 32> *
| 33>
| 34> $new_job
| 35> ! ri-mp2 aug-cc-pvqz aug-cc-pvqz/c tightscf
| 36> %pal nprocs 16 end
| 37> %maxcore 3800
| 38> %base "QZ_B-Cl_12_AB"
| 39>
| 40> *xyz 0 1
| 41> Cl        -0.933751   -1.503551    0.002036
| 42> Cl        -0.933733    1.503560    0.002036
| 43> B        -0.045080   -0.000001    0.022937
| 44> P         1.849583   -0.000009   -0.115458
| 45> H         2.114443   -1.059512    0.773971
| 46> H         2.114451    1.059490    0.773974
| 47> *
| 48>
| 49>
| 50>
| 51>
| 52>                          ****END OF INPUT****
 Total Charge           Charge          ....    0
 Multiplicity           Mult            ....    1
 Number of Electrons    NEL             ....   56
MP2 TOTAL ENERGY:    -1286.190600606 Eh
FINAL SINGLE POINT ENERGY     -1286.190600606255
MP2 TOTAL ENERGY:    -1286.373333122 Eh
FINAL SINGLE POINT ENERGY     -1286.373333122101

CARTESIAN COORDINATES (ANGSTROEM)
---------------------------------
  Cl    -0.933751   -1.503551    0.002036
  Cl    -0.933733    1.503560    0.002036
  B     -0.045080   -0.000001    0.022937
  P      1.849583   -0.000009   -0.115458
  H      2.114443   -1.059512    0.773971
  H      2.114451    1.059490    0.773974

 Multiplicity           Mult            ....    1
 Number of Electrons    NEL             ....   56
 Basis Dimension        Dim             ....  424

ORBITAL ENERGIES
----------------

  NO   OCC          E(Eh)            E(eV)
   0   2.0000    -104.850146     -2853.1175
   1   2.0000    -104.850145     -2853.1175
   2   2.0000     -79.948063     -2175.4974
   3   2.0000     -10.577855      -287.8381
   4   2.0000     -10.577847      -287.8378
   5   2.0000      -8.044654      -218.9062
   6   2.0000      -8.044653      -218.9061
   7   2.0000      -8.043576      -218.8768
   8   2.0000      -8.043574      -218.8768
   9   2.0000      -8.043311      -218.8696
  10   2.0000      -8.043311      -218.8696
  11   2.0000      -7.725941      -210.2335
  12   2.0000      -7.493910      -203.9197
  13   2.0000      -5.387974      -146.6142
  14   2.0000      -5.387740      -146.6079
  15   2.0000      -5.387250      -146.5945
  16   2.0000      -1.152997       -31.3746
  17   2.0000      -1.108802       -30.1720
  18   2.0000      -0.878029       -23.8924
  19   2.0000      -0.678246       -18.4560
  20   2.0000      -0.593640       -16.1538
  21   2.0000      -0.563424       -15.3315
  22   2.0000      -0.534182       -14.5358
  23   2.0000      -0.529072       -14.3968
  24   2.0000      -0.475551       -12.9404
  25   2.0000      -0.461781       -12.5657
  26   2.0000      -0.457655       -12.4534
  27   2.0000      -0.383060       -10.4236
  28   0.0000       0.025049         0.6816
  29   0.0000       0.037187         1.0119
  30   0.0000       0.040112         1.0915
  31   0.0000       0.041035         1.1166
  32   0.0000       0.058596         1.5945

MULLIKEN ATOMIC CHARGES
-----------------------
   0 Cl:   -0.175380
   1 Cl:   -0.175381
   2 B :    0.289524
   3 P :    0.178464
   4 H :   -0.058614
   5 H :   -0.058614
Sum of atomic charges:    0.0000000

LOEWDIN ATOMIC CHARGES
----------------------
   0 Cl:    1.173133
   1 Cl:    1.173133
   2 B :   -2.659320
   3 P :    1.371426
   4 H :   -0.529186
   5 H :   -0.529186

  Mayer bond orders larger than 0.100000
B(  0-Cl,  2-B ) :   1.0926 B(  1-Cl,  2-B ) :   1.0926 B(  2-B ,  3-P ) :   1.0353
B(  3-P ,  4-H ) :   0.9216 B(  3-P ,  5-H ) :   0.9216

MP2 TOTAL ENERGY:    -1286.435533187 Eh
FINAL SINGLE POINT ENERGY     -1286.435533186618

DIPOLE MOMENT
-------------
                                X             Y             Z
Electronic contribution:     -4.42454       0.00002      -1.20418
Nuclear contribution   :      4.74529      -0.00002       1.49782
                        -----------------------------------------
Total Dipole Moment    :      0.32075      -0.00000       0.29364
                        -----------------------------------------
Magnitude (a.u.)       :      0.43486
Magnitude (Debye)      :      1.10534

Rotational constants in cm-1:     0.102734     0.094605     0.049696
Rotational constants in MHz :  3079.873829  2836.182774  1489.843105

                             ****ORCA TERMINATED NORMALLY****
TOTAL RUN TIME: 0 days 0 hours 8 minutes 34 seconds 319 msec
