                         Program Version 5.0.4 -  RELEASE  -
|  1> ! ri-mp2 aug-cc-pvdz aug-cc-pvdz/c tightscf
|  2> %pal nprocs 16 end
|  3> %maxcore 3800
|  4> %base "DZ_B-F_45_AB"
|  5> %scf
|  6> STABPerform true
|  7> STABRestartUHFifUnstable true
|  8> end
|  9>
| 10> *xyz 0 1
| 11> F        -1.251198    1.273334    0.000000
| 12> B        -0.949778   -0.010625   -0.000001
| 13> C         1.546279   -0.146021   -0.000000
| 14> O         2.680072    0.073928    0.000000
| 15> N         0.388771   -0.459636   -0.000001
| 16> F        -1.936663   -0.878304    0.000001
| 17> *
| 18>
| 19> $new_job
| 20> ! ri-mp2 aug-cc-pvtz aug-cc-pvtz/c tightscf
| 21> %pal nprocs 16 end
| 22> %maxcore 3800
| 23> %base "TZ_B-F_45_AB"
| 24>
| 25> *xyz 0 1
| 26> F        -1.251198    1.273334    0.000000
| 27> B        -0.949778   -0.010625   -0.000001
| 28> C         1.546279   -0.146021   -0.000000
| 29> O         2.680072    0.073928    0.000000
| 30> N         0.388771   -0.459636   -0.000001
| 31> F        -1.936663   -0.878304    0.000001
| 32> *
| 33>
| 34> $new_job
| 35> ! ri-mp2 aug-cc-pvqz aug-cc-pvqz/c tightscf
| 36> %pal nprocs 16 end
| 37> %maxcore 3800
| 38> %base "QZ_B-F_45_AB"
| 39>
| 40> *xyz 0 1
| 41> F        -1.251198    1.273334    0.000000
| 42> B        -0.949778   -0.010625   -0.000001
| 43> C         1.546279   -0.146021   -0.000000
| 44> O         2.680072    0.073928    0.000000
| 45> N         0.388771   -0.459636   -0.000001
| 46> F        -1.936663   -0.878304    0.000001
| 47> *
| 48>
| 49>
| 50>
| 51>
| 52>                          ****END OF INPUT****
 Total Charge           Charge          ....    0
 Multiplicity           Mult            ....    1
 Number of Electrons    NEL             ....   44
MP2 TOTAL ENERGY:     -391.918943293 Eh
FINAL SINGLE POINT ENERGY      -391.918943292646
MP2 TOTAL ENERGY:     -392.253025591 Eh
FINAL SINGLE POINT ENERGY      -392.253025590657

CARTESIAN COORDINATES (ANGSTROEM)
---------------------------------
  F     -1.251198    1.273334    0.000000
  B     -0.949778   -0.010625   -0.000001
  C      1.546279   -0.146021   -0.000000
  O      2.680072    0.073928    0.000000
  N      0.388771   -0.459636   -0.000001
  F     -1.936663   -0.878304    0.000001

 Multiplicity           Mult            ....    1
 Number of Electrons    NEL             ....   44
 Basis Dimension        Dim             ....  480

ORBITAL ENERGIES
----------------

  NO   OCC          E(Eh)            E(eV)
   0   2.0000     -26.329570      -716.4640
   1   2.0000     -26.327538      -716.4087
   2   2.0000     -20.642771      -561.7184
   3   2.0000     -15.604799      -424.6282
   4   2.0000     -11.439398      -311.2819
   5   2.0000      -7.760410      -211.1715
   6   2.0000      -1.664099       -45.2824
   7   2.0000      -1.632466       -44.4217
   8   2.0000      -1.504501       -40.9396
   9   2.0000      -1.293849       -35.2074
  10   2.0000      -0.896325       -24.3902
  11   2.0000      -0.820163       -22.3178
  12   2.0000      -0.786066       -21.3899
  13   2.0000      -0.760591       -20.6967
  14   2.0000      -0.737564       -20.0701
  15   2.0000      -0.689071       -18.7506
  16   2.0000      -0.684393       -18.6233
  17   2.0000      -0.680526       -18.5181
  18   2.0000      -0.678001       -18.4493
  19   2.0000      -0.664999       -18.0955
  20   2.0000      -0.493128       -13.4187
  21   2.0000      -0.492270       -13.3953
  22   0.0000       0.028697         0.7809
  23   0.0000       0.035785         0.9738
  24   0.0000       0.037949         1.0326
  25   0.0000       0.039112         1.0643
  26   0.0000       0.073211         1.9922

MULLIKEN ATOMIC CHARGES
-----------------------
   0 F :   -0.707812
   1 B :    1.595843
   2 C :    1.107834
   3 O :   -0.533951
   4 N :   -0.747000
   5 F :   -0.714914
Sum of atomic charges:    0.0000000

LOEWDIN ATOMIC CHARGES
----------------------
   0 F :    0.804924
   1 B :   -2.004701
   2 C :   -0.747882
   3 O :    0.631911
   4 N :    0.515397
   5 F :    0.800351

  Mayer bond orders larger than 0.100000
B(  0-F ,  1-B ) :   0.5282 B(  1-B ,  4-N ) :   0.9962 B(  1-B ,  5-F ) :   0.4945
B(  2-C ,  3-O ) :   1.8451 B(  2-C ,  4-N ) :   2.0278 B(  3-O ,  4-N ) :   0.2485

MP2 TOTAL ENERGY:     -392.361788550 Eh
FINAL SINGLE POINT ENERGY      -392.361788550051

DIPOLE MOMENT
-------------
                                X             Y             Z
Electronic contribution:     -3.60397       0.33776      -0.00000
Nuclear contribution   :      3.60133      -0.34856      -0.00000
                        -----------------------------------------
Total Dipole Moment    :     -0.00264      -0.01080      -0.00000
                        -----------------------------------------
Magnitude (a.u.)       :      0.01112
Magnitude (Debye)      :      0.02827

Rotational constants in cm-1:     0.345722     0.065765     0.055255
Rotational constants in MHz : 10364.495884  1971.596538  1656.489227

                             ****ORCA TERMINATED NORMALLY****
TOTAL RUN TIME: 0 days 0 hours 9 minutes 39 seconds 812 msec
