                         Program Version 5.0.4 -  RELEASE  -
|  1> ! ri-mp2 aug-cc-pvdz aug-cc-pvdz/c tightscf
|  2> %pal nprocs 16 end
|  3> %maxcore 3800
|  4> %base "DZ_S-Cl_6_AB"
|  5> %scf
|  6> STABPerform true
|  7> STABRestartUHFifUnstable true
|  8> end
|  9>
| 10> *xyz 0 1
| 11> Cl         1.590146   -0.528241    0.048092
| 12> N        -1.263818    0.281609    0.443323
| 13> S         0.087110    0.923850   -0.178803
| 14> C        -1.966572   -0.803558   -0.220667
| 15> H        -1.320218    0.270942    1.451688
| 16> H        -2.043065   -0.576144   -1.281614
| 17> H        -2.969529   -0.888585    0.196125
| 18> H        -1.447262   -1.757631   -0.102181
| 19> *
| 20>
| 21> $new_job
| 22> ! ri-mp2 aug-cc-pvtz aug-cc-pvtz/c tightscf
| 23> %pal nprocs 16 end
| 24> %maxcore 3800
| 25> %base "TZ_S-Cl_6_AB"
| 26>
| 27> *xyz 0 1
| 28> Cl         1.590146   -0.528241    0.048092
| 29> N        -1.263818    0.281609    0.443323
| 30> S         0.087110    0.923850   -0.178803
| 31> C        -1.966572   -0.803558   -0.220667
| 32> H        -1.320218    0.270942    1.451688
| 33> H        -2.043065   -0.576144   -1.281614
| 34> H        -2.969529   -0.888585    0.196125
| 35> H        -1.447262   -1.757631   -0.102181
| 36> *
| 37>
| 38> $new_job
| 39> ! ri-mp2 aug-cc-pvqz aug-cc-pvqz/c tightscf
| 40> %pal nprocs 16 end
| 41> %maxcore 3800
| 42> %base "QZ_S-Cl_6_AB"
| 43>
| 44> *xyz 0 1
| 45> Cl         1.590146   -0.528241    0.048092
| 46> N        -1.263818    0.281609    0.443323
| 47> S         0.087110    0.923850   -0.178803
| 48> C        -1.966572   -0.803558   -0.220667
| 49> H        -1.320218    0.270942    1.451688
| 50> H        -2.043065   -0.576144   -1.281614
| 51> H        -2.969529   -0.888585    0.196125
| 52> H        -1.447262   -1.757631   -0.102181
| 53> *
| 54>
| 55>
| 56>
| 57>
| 58>                          ****END OF INPUT****
 Total Charge           Charge          ....    0
 Multiplicity           Mult            ....    1
 Number of Electrons    NEL             ....   50
MP2 TOTAL ENERGY:     -952.291649259 Eh
FINAL SINGLE POINT ENERGY      -952.291649259015
MP2 TOTAL ENERGY:     -952.499994988 Eh
FINAL SINGLE POINT ENERGY      -952.499994988362

CARTESIAN COORDINATES (ANGSTROEM)
---------------------------------
  Cl     1.590146   -0.528241    0.048092
  N     -1.263818    0.281609    0.443323
  S      0.087110    0.923850   -0.178803
  C     -1.966572   -0.803558   -0.220667
  H     -1.320218    0.270942    1.451688
  H     -2.043065   -0.576144   -1.281614
  H     -2.969529   -0.888585    0.196125
  H     -1.447262   -1.757631   -0.102181

 Multiplicity           Mult            ....    1
 Number of Electrons    NEL             ....   50
 Basis Dimension        Dim             ....  512

ORBITAL ENERGIES
----------------

  NO   OCC          E(Eh)            E(eV)
   0   2.0000    -104.828836     -2852.5377
   1   2.0000     -92.031303     -2504.2991
   2   2.0000     -15.608574      -424.7309
   3   2.0000     -11.270832      -306.6949
   4   2.0000     -10.553583      -287.1776
   5   2.0000      -9.025489      -245.5961
   6   2.0000      -8.020420      -218.2467
   7   2.0000      -8.018825      -218.2033
   8   2.0000      -8.018613      -218.1976
   9   2.0000      -6.706639      -182.4969
  10   2.0000      -6.705006      -182.4525
  11   2.0000      -6.703689      -182.4166
  12   2.0000      -1.262581       -34.3566
  13   2.0000      -1.097796       -29.8725
  14   2.0000      -0.973044       -26.4779
  15   2.0000      -0.861041       -23.4301
  16   2.0000      -0.691813       -18.8252
  17   2.0000      -0.630341       -17.1524
  18   2.0000      -0.626370       -17.0444
  19   2.0000      -0.559843       -15.2341
  20   2.0000      -0.520628       -14.1670
  21   2.0000      -0.488196       -13.2845
  22   2.0000      -0.447355       -12.1732
  23   2.0000      -0.409603       -11.1459
  24   2.0000      -0.362649        -9.8682
  25   0.0000       0.022652         0.6164
  26   0.0000       0.036194         0.9849
  27   0.0000       0.040886         1.1126
  28   0.0000       0.044286         1.2051
  29   0.0000       0.063008         1.7145

MULLIKEN ATOMIC CHARGES
-----------------------
   0 Cl:   -0.342844
   1 N :   -0.555130
   2 S :    0.488582
   3 C :   -0.740846
   4 H :    0.256596
   5 H :    0.307653
   6 H :    0.295262
   7 H :    0.290726
Sum of atomic charges:    0.0000000

LOEWDIN ATOMIC CHARGES
----------------------
   0 Cl:    0.376348
   1 N :    0.213080
   2 S :    0.375277
   3 C :    0.633813
   4 H :   -0.637621
   5 H :   -0.340849
   6 H :   -0.305873
   7 H :   -0.314175

  Mayer bond orders larger than 0.100000
B(  0-Cl,  2-S ) :   0.8896 B(  1-N ,  2-S ) :   1.0624 B(  1-N ,  3-C ) :   0.9225
B(  1-N ,  4-H ) :   0.9388 B(  3-C ,  5-H ) :   0.9185 B(  3-C ,  6-H ) :   0.9233
B(  3-C ,  7-H ) :   0.9200

MP2 TOTAL ENERGY:     -952.566977323 Eh
FINAL SINGLE POINT ENERGY      -952.566977323177

DIPOLE MOMENT
-------------
                                X             Y             Z
Electronic contribution:      8.58516       1.96425       0.10179
Nuclear contribution   :     -9.68761      -2.13918       0.19571
                        -----------------------------------------
Total Dipole Moment    :     -1.10245      -0.17493       0.29750
                        -----------------------------------------
Magnitude (a.u.)       :      1.15521
Magnitude (Debye)      :      2.93631

Rotational constants in cm-1:     0.289514     0.091953     0.074898
Rotational constants in MHz :  8679.416160  2756.687137  2245.383218

                             ****ORCA TERMINATED NORMALLY****
TOTAL RUN TIME: 0 days 0 hours 13 minutes 4 seconds 766 msec
