                         Program Version 5.0.4 -  RELEASE  -
|  1> ! ri-mp2 aug-cc-pvdz aug-cc-pvdz/c tightscf
|  2> %pal nprocs 16 end
|  3> %maxcore 3800
|  4> %base "DZ_B-Si_63_AB"
|  5>
|  6> *xyz 0 1
|  7> C        -2.863299    0.636463   -0.099858
|  8> C        -1.816887    1.447934    0.305744
|  9> C        -0.538360    0.928662    0.415463
| 10> C        -2.624949   -0.694443   -0.397199
| 11> C        -1.344500   -1.209585   -0.284772
| 12> C        -0.278893   -0.411035    0.126822
| 13> H        -3.862765    1.042083   -0.187732
| 14> H        -1.996807    2.490587    0.533515
| 15> H         0.270971    1.581370    0.717347
| 16> H        -3.437695   -1.332732   -0.718685
| 17> H        -1.173495   -2.252296   -0.524246
| 18> B         2.933534    0.127609   -0.247952
| 19> O         2.678378    1.443474   -0.420585
| 20> H         3.446060    1.968946   -0.667689
| 21> Si         1.442522   -1.122870    0.302433
| 22> H         4.057818   -0.264796   -0.406157
| 23> H         1.694840   -1.510325    1.716920
| 24> H         1.512391   -2.376465   -0.490090
| 25> *
| 26>
| 27> $new_job
| 28> ! ri-mp2 aug-cc-pvtz aug-cc-pvtz/c tightscf
| 29> %pal nprocs 16 end
| 30> %maxcore 3800
| 31> %base "TZ_B-Si_63_AB"
| 32>
| 33> *xyz 0 1
| 34> C        -2.863299    0.636463   -0.099858
| 35> C        -1.816887    1.447934    0.305744
| 36> C        -0.538360    0.928662    0.415463
| 37> C        -2.624949   -0.694443   -0.397199
| 38> C        -1.344500   -1.209585   -0.284772
| 39> C        -0.278893   -0.411035    0.126822
| 40> H        -3.862765    1.042083   -0.187732
| 41> H        -1.996807    2.490587    0.533515
| 42> H         0.270971    1.581370    0.717347
| 43> H        -3.437695   -1.332732   -0.718685
| 44> H        -1.173495   -2.252296   -0.524246
| 45> B         2.933534    0.127609   -0.247952
| 46> O         2.678378    1.443474   -0.420585
| 47> H         3.446060    1.968946   -0.667689
| 48> Si         1.442522   -1.122870    0.302433
| 49> H         4.057818   -0.264796   -0.406157
| 50> H         1.694840   -1.510325    1.716920
| 51> H         1.512391   -2.376465   -0.490090
| 52> *
| 53>
| 54> $new_job
| 55> ! ri-mp2 aug-cc-pvqz aug-cc-pvqz/c tightscf
| 56> %pal nprocs 16 end
| 57> %maxcore 3800
| 58> %base "QZ_B-Si_63_AB"
| 59>
| 60> *xyz 0 1
| 61> C        -2.863299    0.636463   -0.099858
| 62> C        -1.816887    1.447934    0.305744
| 63> C        -0.538360    0.928662    0.415463
| 64> C        -2.624949   -0.694443   -0.397199
| 65> C        -1.344500   -1.209585   -0.284772
| 66> C        -0.278893   -0.411035    0.126822
| 67> H        -3.862765    1.042083   -0.187732
| 68> H        -1.996807    2.490587    0.533515
| 69> H         0.270971    1.581370    0.717347
| 70> H        -3.437695   -1.332732   -0.718685
| 71> H        -1.173495   -2.252296   -0.524246
| 72> B         2.933534    0.127609   -0.247952
| 73> O         2.678378    1.443474   -0.420585
| 74> H         3.446060    1.968946   -0.667689
| 75> Si         1.442522   -1.122870    0.302433
| 76> H         4.057818   -0.264796   -0.406157
| 77> H         1.694840   -1.510325    1.716920
| 78> H         1.512391   -2.376465   -0.490090
| 79> *
| 80>
| 81>
| 82>
| 83>
| 84>                          ****END OF INPUT****
 Total Charge           Charge          ....    0
 Multiplicity           Mult            ....    1
 Number of Electrons    NEL             ....   72
MP2 TOTAL ENERGY:     -622.197760550 Eh
FINAL SINGLE POINT ENERGY      -622.197760550057
MP2 TOTAL ENERGY:     -622.526289444 Eh
FINAL SINGLE POINT ENERGY      -622.526289443581

CARTESIAN COORDINATES (ANGSTROEM)
---------------------------------
  C     -2.863299    0.636463   -0.099858
  C     -1.816887    1.447934    0.305744
  C     -0.538360    0.928662    0.415463
  C     -2.624949   -0.694443   -0.397199
  C     -1.344500   -1.209585   -0.284772
  C     -0.278893   -0.411035    0.126822
  H     -3.862765    1.042083   -0.187732
  H     -1.996807    2.490587    0.533515
  H      0.270971    1.581370    0.717347
  H     -3.437695   -1.332732   -0.718685
  H     -1.173495   -2.252296   -0.524246
  B      2.933534    0.127609   -0.247952
  O      2.678378    1.443474   -0.420585
  H      3.446060    1.968946   -0.667689
  Si     1.442522   -1.122870    0.302433
  H      4.057818   -0.264796   -0.406157
  H      1.694840   -1.510325    1.716920
  H      1.512391   -2.376465   -0.490090

 Multiplicity           Mult            ....    1
 Number of Electrons    NEL             ....   72
 Basis Dimension        Dim             .... 1138

ORBITAL ENERGIES
----------------

  NO   OCC          E(Eh)            E(eV)
   0   2.0000     -68.746344     -1870.6831
   1   2.0000     -20.587523      -560.2150
   2   2.0000     -11.230966      -305.6101
   3   2.0000     -11.230548      -305.5988
   4   2.0000     -11.229020      -305.5572
   5   2.0000     -11.226750      -305.4954
   6   2.0000     -11.226277      -305.4825
   7   2.0000     -11.214794      -305.1701
   8   2.0000      -7.623473      -207.4453
   9   2.0000      -6.097923      -165.9329
  10   2.0000      -4.204346      -114.4061
  11   2.0000      -4.204050      -114.3980
  12   2.0000      -4.203746      -114.3898
  13   2.0000      -1.381850       -37.6021
  14   2.0000      -1.149563       -31.2812
  15   2.0000      -1.012756       -27.5585
  16   2.0000      -1.011129       -27.5142
  17   2.0000      -0.822403       -22.3787
  18   2.0000      -0.821373       -22.3507
  19   2.0000      -0.779468       -21.2104
  20   2.0000      -0.717780       -19.5318
  21   2.0000      -0.678449       -18.4615
  22   2.0000      -0.650278       -17.6950
  23   2.0000      -0.621716       -16.9178
  24   2.0000      -0.620778       -16.8922
  25   2.0000      -0.583381       -15.8746
  26   2.0000      -0.552581       -15.0365
  27   2.0000      -0.551887       -15.0176
  28   2.0000      -0.532587       -14.4924
  29   2.0000      -0.505833       -13.7644
  30   2.0000      -0.488107       -13.2821
  31   2.0000      -0.465747       -12.6736
  32   2.0000      -0.443071       -12.0566
  33   2.0000      -0.399987       -10.8842
  34   2.0000      -0.334488        -9.1019
  35   2.0000      -0.331519        -9.0211
  36   0.0000       0.018799         0.5115
  37   0.0000       0.026745         0.7278
  38   0.0000       0.029700         0.8082
  39   0.0000       0.034774         0.9463
  40   0.0000       0.038344         1.0434

MULLIKEN ATOMIC CHARGES
-----------------------
   0 C :   -0.371788
   1 C :   -0.234767
   2 C :   -0.408553
   3 C :   -0.274389
   4 C :   -0.522037
   5 C :    0.043443
   6 H :    0.347200
   7 H :    0.244307
   8 H :    0.448980
   9 H :    0.261622
  10 H :    0.289142
  11 B :    0.954210
  12 O :   -0.984678
  13 H :    0.342774
  14 Si:    0.704554
  15 H :   -0.396783
  16 H :   -0.196896
  17 H :   -0.246342
Sum of atomic charges:    0.0000000

LOEWDIN ATOMIC CHARGES
----------------------
   0 C :    0.332166
   1 C :    0.340259
   2 C :    0.254674
   3 C :    0.335075
   4 C :    0.248705
   5 C :   -0.113680
   6 H :   -0.320676
   7 H :   -0.320313
   8 H :   -0.352708
   9 H :   -0.321698
  10 H :   -0.343957
  11 B :   -0.410548
  12 O :    1.276030
  13 H :   -0.789259
  14 Si:    0.876601
  15 H :   -0.225402
  16 H :   -0.233141
  17 H :   -0.232129

  Mayer bond orders larger than 0.100000
B(  0-C ,  1-C ) :   1.1699 B(  0-C ,  3-C ) :   1.1407 B(  0-C ,  4-C ) :   0.1202
B(  0-C ,  6-H ) :   0.9776 B(  0-C ,  9-H ) :  -0.1025 B(  1-C ,  2-C ) :   1.2531
B(  1-C ,  3-C ) :  -0.1015 B(  1-C ,  4-C ) :   0.1462 B(  1-C ,  5-C ) :  -0.2727
B(  1-C ,  7-H ) :   1.1151 B(  2-C ,  3-C ) :   0.1158 B(  2-C ,  5-C ) :   0.9004
B(  2-C ,  7-H ) :  -0.1399 B(  2-C ,  8-H ) :   0.8094 B(  2-C , 14-Si) :  -0.1343
B(  3-C ,  4-C ) :   1.3256 B(  3-C ,  5-C ) :  -0.2849 B(  3-C ,  9-H ) :   1.1036
B(  4-C ,  5-C ) :   0.9161 B(  4-C ,  9-H ) :  -0.1519 B(  4-C , 10-H ) :   0.9728
B(  4-C , 14-Si) :  -0.1265 B(  5-C ,  8-H ) :  -0.1740 B(  5-C , 10-H ) :  -0.1428
B(  5-C , 14-Si) :   0.9760 B(  5-C , 17-H ) :  -0.1178 B( 11-B , 12-O ) :   0.5271
B( 11-B , 14-Si) :   0.8285 B( 11-B , 15-H ) :   0.8418 B( 12-O , 13-H ) :   0.9473
B( 12-O , 14-Si) :  -0.1020 B( 14-Si, 16-H ) :   0.7494 B( 14-Si, 17-H ) :   0.6919

MP2 TOTAL ENERGY:     -622.631644208 Eh
FINAL SINGLE POINT ENERGY      -622.631644207701

DIPOLE MOMENT
-------------
                                X             Y             Z
Electronic contribution:      2.32553       1.16152      -0.39882
Nuclear contribution   :     -1.88656      -0.66156       0.14711
                        -----------------------------------------
Total Dipole Moment    :      0.43897       0.49995      -0.25171
                        -----------------------------------------
Magnitude (a.u.)       :      0.71134
Magnitude (Debye)      :      1.80809

Rotational constants in cm-1:     0.092952     0.028222     0.022691
Rotational constants in MHz :  2786.636752   846.072776   680.263181

                             ****ORCA TERMINATED NORMALLY****
TOTAL RUN TIME: 0 days 0 hours 35 minutes 51 seconds 993 msec
