                         Program Version 5.0.4 -  RELEASE  -
|  1> ! ri-mp2 aug-cc-pvdz aug-cc-pvdz/c tightscf
|  2> %pal nprocs 16 end
|  3> %maxcore 3800
|  4> %base "DZ_P-Cl_8_AB"
|  5> %scf
|  6> STABPerform true
|  7> STABRestartUHFifUnstable true
|  8> end
|  9>
| 10> *xyz 0 1
| 11> Cl         3.238805   -2.076513   -0.246391
| 12> Cl         2.833848    0.510904    1.533613
| 13> O         0.999692    2.463779   -0.868376
| 14> C         0.065530    1.918297    0.082400
| 15> H        -0.833330    2.535586    0.146696
| 16> H         0.499295    1.791758    1.070354
| 17> C        -0.126301    0.677330   -0.809241
| 18> P         2.620664   -0.106892   -0.422552
| 19> C         0.806975   -0.483059   -0.459936
| 20> H         0.720123   -1.249563   -1.235359
| 21> H         0.535829   -0.954248    0.485804
| 22> C         0.477498    1.598121   -1.885076
| 23> H         1.256825    1.194296   -2.533232
| 24> H        -0.279902    2.105093   -2.490556
| 25> C        -1.545110    0.197627   -1.076523
| 26> P        -2.265700   -0.889768    0.221938
| 27> Cl        -4.185996   -0.947024   -0.520913
| 28> Cl        -2.446667    0.497423    1.741387
| 29> H        -1.560323   -0.417839   -1.982193
| 30> H        -2.211897    1.043271   -1.245857
| 31> *
| 32>
| 33> $new_job
| 34> ! ri-mp2 aug-cc-pvtz aug-cc-pvtz/c tightscf
| 35> %pal nprocs 16 end
| 36> %maxcore 3800
| 37> %base "TZ_P-Cl_8_AB"
| 38>
| 39> *xyz 0 1
| 40> Cl         3.238805   -2.076513   -0.246391
| 41> Cl         2.833848    0.510904    1.533613
| 42> O         0.999692    2.463779   -0.868376
| 43> C         0.065530    1.918297    0.082400
| 44> H        -0.833330    2.535586    0.146696
| 45> H         0.499295    1.791758    1.070354
| 46> C        -0.126301    0.677330   -0.809241
| 47> P         2.620664   -0.106892   -0.422552
| 48> C         0.806975   -0.483059   -0.459936
| 49> H         0.720123   -1.249563   -1.235359
| 50> H         0.535829   -0.954248    0.485804
| 51> C         0.477498    1.598121   -1.885076
| 52> H         1.256825    1.194296   -2.533232
| 53> H        -0.279902    2.105093   -2.490556
| 54> C        -1.545110    0.197627   -1.076523
| 55> P        -2.265700   -0.889768    0.221938
| 56> Cl        -4.185996   -0.947024   -0.520913
| 57> Cl        -2.446667    0.497423    1.741387
| 58> H        -1.560323   -0.417839   -1.982193
| 59> H        -2.211897    1.043271   -1.245857
| 60> *
| 61>
| 62> $new_job
| 63> ! ri-mp2 aug-cc-pvqz aug-cc-pvqz/c tightscf
| 64> %pal nprocs 16 end
| 65> %maxcore 3800
| 66> %base "QZ_P-Cl_8_AB"
| 67>
| 68> *xyz 0 1
| 69> Cl         3.238805   -2.076513   -0.246391
| 70> Cl         2.833848    0.510904    1.533613
| 71> O         0.999692    2.463779   -0.868376
| 72> C         0.065530    1.918297    0.082400
| 73> H        -0.833330    2.535586    0.146696
| 74> H         0.499295    1.791758    1.070354
| 75> C        -0.126301    0.677330   -0.809241
| 76> P         2.620664   -0.106892   -0.422552
| 77> C         0.806975   -0.483059   -0.459936
| 78> H         0.720123   -1.249563   -1.235359
| 79> H         0.535829   -0.954248    0.485804
| 80> C         0.477498    1.598121   -1.885076
| 81> H         1.256825    1.194296   -2.533232
| 82> H        -0.279902    2.105093   -2.490556
| 83> C        -1.545110    0.197627   -1.076523
| 84> P        -2.265700   -0.889768    0.221938
| 85> Cl        -4.185996   -0.947024   -0.520913
| 86> Cl        -2.446667    0.497423    1.741387
| 87> H        -1.560323   -0.417839   -1.982193
| 88> H        -2.211897    1.043271   -1.245857
| 89> *
| 90>
| 91>
| 92>
| 93>
| 94>                          ****END OF INPUT****
 Total Charge           Charge          ....    0
 Multiplicity           Mult            ....    1
 Number of Electrons    NEL             ....  144
MP2 TOTAL ENERGY:    -2790.199566214 Eh
FINAL SINGLE POINT ENERGY     -2790.199566213833
MP2 TOTAL ENERGY:    -2790.772648961 Eh
FINAL SINGLE POINT ENERGY     -2790.772648960752

CARTESIAN COORDINATES (ANGSTROEM)
---------------------------------
  Cl     3.238805   -2.076513   -0.246391
  Cl     2.833848    0.510904    1.533613
  O      0.999692    2.463779   -0.868376
  C      0.065530    1.918297    0.082400
  H     -0.833330    2.535586    0.146696
  H      0.499295    1.791758    1.070354
  C     -0.126301    0.677330   -0.809241
  P      2.620664   -0.106892   -0.422552
  C      0.806975   -0.483059   -0.459936
  H      0.720123   -1.249563   -1.235359
  H      0.535829   -0.954248    0.485804
  C      0.477498    1.598121   -1.885076
  H      1.256825    1.194296   -2.533232
  H     -0.279902    2.105093   -2.490556
  C     -1.545110    0.197627   -1.076523
  P     -2.265700   -0.889768    0.221938
  Cl    -4.185996   -0.947024   -0.520913
  Cl    -2.446667    0.497423    1.741387
  H     -1.560323   -0.417839   -1.982193
  H     -2.211897    1.043271   -1.245857

 Multiplicity           Mult            ....    1
 Number of Electrons    NEL             ....  144
 Basis Dimension        Dim             .... 1352

ORBITAL ENERGIES
----------------

  NO   OCC          E(Eh)            E(eV)
   0   2.0000    -104.854091     -2853.2249
   1   2.0000    -104.853834     -2853.2179
   2   2.0000    -104.844372     -2852.9604
   3   2.0000    -104.842685     -2852.9145
   4   2.0000     -80.055982     -2178.4340
   5   2.0000     -80.049356     -2178.2537
   6   2.0000     -20.572429      -559.8043
   7   2.0000     -11.301761      -307.5365
   8   2.0000     -11.295058      -307.3542
   9   2.0000     -11.282666      -307.0169
  10   2.0000     -11.271053      -306.7009
  11   2.0000     -11.268484      -306.6310
  12   2.0000     -10.580546      -287.9113
  13   2.0000     -10.580436      -287.9083
  14   2.0000     -10.571047      -287.6528
  15   2.0000     -10.569214      -287.6029
  16   2.0000      -8.047342      -218.9793
  17   2.0000      -8.047219      -218.9760
  18   2.0000      -8.045906      -218.9402
  19   2.0000      -8.045818      -218.9378
  20   2.0000      -8.045782      -218.9369
  21   2.0000      -8.045688      -218.9343
  22   2.0000      -8.037833      -218.7206
  23   2.0000      -8.036410      -218.6818
  24   2.0000      -8.036290      -218.6786
  25   2.0000      -8.035998      -218.6706
  26   2.0000      -8.034598      -218.6325
  27   2.0000      -8.034484      -218.6294
  28   2.0000      -7.588984      -206.5068
  29   2.0000      -7.581860      -206.3129
  30   2.0000      -5.481970      -149.1720
  31   2.0000      -5.481243      -149.1522
  32   2.0000      -5.479641      -149.1086
  33   2.0000      -5.474656      -148.9730
  34   2.0000      -5.473952      -148.9538
  35   2.0000      -5.472430      -148.9124
  36   2.0000      -1.411867       -38.4189
  37   2.0000      -1.167089       -31.7581
  38   2.0000      -1.153342       -31.3840
  39   2.0000      -1.116492       -30.3813
  40   2.0000      -1.105909       -30.0933
  41   2.0000      -1.095283       -29.8042
  42   2.0000      -0.996857       -27.1259
  43   2.0000      -0.961024       -26.1508
  44   2.0000      -0.949603       -25.8400
  45   2.0000      -0.801950       -21.8222
  46   2.0000      -0.782751       -21.2997
  47   2.0000      -0.756845       -20.5948
  48   2.0000      -0.709489       -19.3062
  49   2.0000      -0.675998       -18.3948
  50   2.0000      -0.664796       -18.0900
  51   2.0000      -0.630849       -17.1663
  52   2.0000      -0.617805       -16.8113
  53   2.0000      -0.586744       -15.9661
  54   2.0000      -0.574920       -15.6444
  55   2.0000      -0.571639       -15.5551
  56   2.0000      -0.566032       -15.4025
  57   2.0000      -0.551403       -15.0045
  58   2.0000      -0.546767       -14.8783
  59   2.0000      -0.527036       -14.3414
  60   2.0000      -0.522179       -14.2092
  61   2.0000      -0.502276       -13.6676
  62   2.0000      -0.490806       -13.3555
  63   2.0000      -0.485988       -13.2244
  64   2.0000      -0.473045       -12.8722
  65   2.0000      -0.467823       -12.7301
  66   2.0000      -0.464968       -12.6524
  67   2.0000      -0.460850       -12.5404
  68   2.0000      -0.453093       -12.3293
  69   2.0000      -0.438503       -11.9323
  70   2.0000      -0.388426       -10.5696
  71   2.0000      -0.374919       -10.2021
  72   0.0000       0.019823         0.5394
  73   0.0000       0.028893         0.7862
  74   0.0000       0.033654         0.9158
  75   0.0000       0.036319         0.9883
  76   0.0000       0.045961         1.2507

MULLIKEN ATOMIC CHARGES
-----------------------
   0 Cl:   -0.597594
   1 Cl:   -0.581945
   2 O :   -1.012230
   3 C :   -0.399343
   4 H :    0.287096
   5 H :    0.484317
   6 C :    0.958030
   7 P :    0.993633
   8 C :   -0.426186
   9 H :    0.213991
  10 H :    0.218486
  11 C :   -0.384314
  12 H :    0.383218
  13 H :    0.304041
  14 C :   -0.592339
  15 P :    0.956792
  16 Cl:   -0.578160
  17 Cl:   -0.566136
  18 H :    0.170986
  19 H :    0.167658
Sum of atomic charges:    0.0000000

LOEWDIN ATOMIC CHARGES
----------------------
   0 Cl:    0.704539
   1 Cl:    0.770243
   2 O :    0.885604
   3 C :    0.094515
   4 H :   -0.302283
   5 H :   -0.370673
   6 C :   -0.476150
   7 P :   -0.548235
   8 C :    0.149198
   9 H :   -0.395325
  10 H :   -0.422353
  11 C :    0.141921
  12 H :   -0.304236
  13 H :   -0.268596
  14 C :    0.184230
  15 P :   -0.564411
  16 Cl:    0.714052
  17 Cl:    0.762479
  18 H :   -0.363985
  19 H :   -0.390535

  Mayer bond orders larger than 0.100000
B(  0-Cl,  7-P ) :   0.7789 B(  0-Cl,  8-C ) :  -0.2422 B(  1-Cl,  5-H ) :  -0.1058
B(  1-Cl,  7-P ) :   0.7732 B(  1-Cl,  8-C ) :  -0.2679 B(  2-O ,  3-C ) :   0.8395
B(  2-O ,  6-C ) :  -0.2970 B(  2-O , 11-C ) :   0.9724 B(  3-C ,  4-H ) :   0.9818
B(  3-C ,  5-H ) :   0.8175 B(  3-C ,  6-C ) :   0.6311 B(  3-C , 11-C ) :   0.1641
B(  6-C ,  8-C ) :   0.7216 B(  6-C , 11-C ) :   0.6348 B(  6-C , 14-C ) :   0.5855
B(  6-C , 15-P ) :  -0.1645 B(  7-P ,  8-C ) :   0.7614 B(  8-C ,  9-H ) :   0.9822
B(  8-C , 10-H ) :   0.9231 B( 11-C , 12-H ) :   0.8787 B( 11-C , 13-H ) :   0.9615
B( 14-C , 15-P ) :   0.8933 B( 14-C , 16-Cl) :  -0.2077 B( 14-C , 17-Cl) :  -0.2276
B( 14-C , 18-H ) :   1.0164 B( 14-C , 19-H ) :   1.0332 B( 15-P , 16-Cl) :   0.7689
B( 15-P , 17-Cl) :   0.7758

MP2 TOTAL ENERGY:    -2790.958791777 Eh
FINAL SINGLE POINT ENERGY     -2790.958791777492

DIPOLE MOMENT
-------------
                                X             Y             Z
Electronic contribution:      0.60106      -9.38394       9.57277
Nuclear contribution   :     -1.31004       9.31868     -10.51661
                        -----------------------------------------
Total Dipole Moment    :     -0.70898      -0.06526      -0.94384
                        -----------------------------------------
Magnitude (a.u.)       :      1.18226
Magnitude (Debye)      :      3.00507

Rotational constants in cm-1:     0.022872     0.007536     0.007155
Rotational constants in MHz :   685.698007   225.920936   214.488196

                             ****ORCA TERMINATED NORMALLY****
TOTAL RUN TIME: 0 days 4 hours 31 minutes 34 seconds 421 msec
