                         Program Version 5.0.4 -  RELEASE  -
|  1> ! ri-mp2 aug-cc-pvdz aug-cc-pvdz/c tightscf
|  2> %pal nprocs 16 end
|  3> %maxcore 3800
|  4> %base "DZ_Si-S_28_AB"
|  5> %scf
|  6> STABPerform true
|  7> STABRestartUHFifUnstable true
|  8> end
|  9>
| 10> *xyz 0 1
| 11> Si        -1.494153    0.244668    0.614977
| 12> S         0.138454    1.121097   -0.472653
| 13> S         1.364555   -0.540038   -0.573568
| 14> C         2.360666   -0.356532    0.918873
| 15> H         3.054141   -1.197554    0.926653
| 16> H         1.739162   -0.395793    1.810160
| 17> H         2.922511    0.573708    0.893354
| 18> C        -2.344532   -1.091215   -0.356087
| 19> H        -2.765089   -0.691588   -1.278654
| 20> H        -3.153390   -1.531326    0.229814
| 21> H        -1.639697   -1.881656   -0.612757
| 22> H        -2.406464    1.377875    0.890238
| 23> H        -0.977983   -0.289483    1.894335
| 24> *
| 25>
| 26> $new_job
| 27> ! ri-mp2 aug-cc-pvtz aug-cc-pvtz/c tightscf
| 28> %pal nprocs 16 end
| 29> %maxcore 3800
| 30> %base "TZ_Si-S_28_AB"
| 31>
| 32> *xyz 0 1
| 33> Si        -1.494153    0.244668    0.614977
| 34> S         0.138454    1.121097   -0.472653
| 35> S         1.364555   -0.540038   -0.573568
| 36> C         2.360666   -0.356532    0.918873
| 37> H         3.054141   -1.197554    0.926653
| 38> H         1.739162   -0.395793    1.810160
| 39> H         2.922511    0.573708    0.893354
| 40> C        -2.344532   -1.091215   -0.356087
| 41> H        -2.765089   -0.691588   -1.278654
| 42> H        -3.153390   -1.531326    0.229814
| 43> H        -1.639697   -1.881656   -0.612757
| 44> H        -2.406464    1.377875    0.890238
| 45> H        -0.977983   -0.289483    1.894335
| 46> *
| 47>
| 48> $new_job
| 49> ! ri-mp2 aug-cc-pvqz aug-cc-pvqz/c tightscf
| 50> %pal nprocs 16 end
| 51> %maxcore 3800
| 52> %base "QZ_Si-S_28_AB"
| 53>
| 54> *xyz 0 1
| 55> Si        -1.494153    0.244668    0.614977
| 56> S         0.138454    1.121097   -0.472653
| 57> S         1.364555   -0.540038   -0.573568
| 58> C         2.360666   -0.356532    0.918873
| 59> H         3.054141   -1.197554    0.926653
| 60> H         1.739162   -0.395793    1.810160
| 61> H         2.922511    0.573708    0.893354
| 62> C        -2.344532   -1.091215   -0.356087
| 63> H        -2.765089   -0.691588   -1.278654
| 64> H        -3.153390   -1.531326    0.229814
| 65> H        -1.639697   -1.881656   -0.612757
| 66> H        -2.406464    1.377875    0.890238
| 67> H        -0.977983   -0.289483    1.894335
| 68> *
| 69>
| 70>
| 71>
| 72>
| 73>                          ****END OF INPUT****
 Total Charge           Charge          ....    0
 Multiplicity           Mult            ....    1
 Number of Electrons    NEL             ....   66
MP2 TOTAL ENERGY:    -1165.128951538 Eh
FINAL SINGLE POINT ENERGY     -1165.128951537832
MP2 TOTAL ENERGY:    -1165.356743551 Eh
FINAL SINGLE POINT ENERGY     -1165.356743551122

CARTESIAN COORDINATES (ANGSTROEM)
---------------------------------
  Si    -1.494153    0.244668    0.614977
  S      0.138454    1.121097   -0.472653
  S      1.364555   -0.540038   -0.573568
  C      2.360666   -0.356532    0.918873
  H      3.054141   -1.197554    0.926653
  H      1.739162   -0.395793    1.810160
  H      2.922511    0.573708    0.893354
  C     -2.344532   -1.091215   -0.356087
  H     -2.765089   -0.691588   -1.278654
  H     -3.153390   -1.531326    0.229814
  H     -1.639697   -1.881656   -0.612757
  H     -2.406464    1.377875    0.890238
  H     -0.977983   -0.289483    1.894335

 Multiplicity           Mult            ....    1
 Number of Electrons    NEL             ....   66
 Basis Dimension        Dim             ....  780

ORBITAL ENERGIES
----------------

  NO   OCC          E(Eh)            E(eV)
   0   2.0000     -91.975799     -2502.7887
   1   2.0000     -91.958851     -2502.3275
   2   2.0000     -68.788515     -1871.8307
   3   2.0000     -11.257998      -306.3457
   4   2.0000     -11.209578      -305.0281
   5   2.0000      -8.975822      -244.2445
   6   2.0000      -8.961512      -243.8551
   7   2.0000      -6.657226      -181.1523
   8   2.0000      -6.656032      -181.1198
   9   2.0000      -6.655133      -181.0954
  10   2.0000      -6.642826      -180.7605
  11   2.0000      -6.641700      -180.7298
  12   2.0000      -6.641111      -180.7138
  13   2.0000      -6.135925      -166.9670
  14   2.0000      -4.242698      -115.4497
  15   2.0000      -4.242096      -115.4333
  16   2.0000      -4.241512      -115.4174
  17   2.0000      -1.072576       -29.1863
  18   2.0000      -0.968007       -26.3408
  19   2.0000      -0.944245       -25.6942
  20   2.0000      -0.815563       -22.1926
  21   2.0000      -0.681232       -18.5373
  22   2.0000      -0.601586       -16.3700
  23   2.0000      -0.598709       -16.2917
  24   2.0000      -0.570696       -15.5294
  25   2.0000      -0.567388       -15.4394
  26   2.0000      -0.526965       -14.3395
  27   2.0000      -0.490053       -13.3350
  28   2.0000      -0.477242       -12.9864
  29   2.0000      -0.464826       -12.6485
  30   2.0000      -0.441527       -12.0146
  31   2.0000      -0.365951        -9.9580
  32   2.0000      -0.345783        -9.4092
  33   0.0000       0.023637         0.6432
  34   0.0000       0.031263         0.8507
  35   0.0000       0.034506         0.9390
  36   0.0000       0.037339         1.0160
  37   0.0000       0.047393         1.2896

MULLIKEN ATOMIC CHARGES
-----------------------
   0 Si:    1.106350
   1 S :   -0.415818
   2 S :    0.014620
   3 C :   -0.980070
   4 H :    0.348233
   5 H :    0.325654
   6 H :    0.297767
   7 C :   -0.977011
   8 H :    0.261914
   9 H :    0.265536
  10 H :    0.266184
  11 H :   -0.284569
  12 H :   -0.228790
Sum of atomic charges:   -0.0000000

LOEWDIN ATOMIC CHARGES
----------------------
   0 Si:    0.201536
   1 S :    0.628141
   2 S :    0.702138
   3 C :    0.445089
   4 H :   -0.399164
   5 H :   -0.401827
   6 H :   -0.389494
   7 C :    0.853234
   8 H :   -0.365654
   9 H :   -0.360881
  10 H :   -0.379547
  11 H :   -0.275756
  12 H :   -0.257815

  Mayer bond orders larger than 0.100000
B(  0-Si,  1-S ) :   0.7094 B(  0-Si,  7-C ) :   0.8712 B(  0-Si, 11-H ) :   0.8200
B(  0-Si, 12-H ) :   0.8331 B(  1-S ,  2-S ) :   1.0926 B(  2-S ,  3-C ) :   1.0035
B(  3-C ,  4-H ) :   0.8438 B(  3-C ,  5-H ) :   0.8708 B(  3-C ,  6-H ) :   0.9073
B(  7-C ,  8-H ) :   0.9458 B(  7-C ,  9-H ) :   0.9378 B(  7-C , 10-H ) :   0.9428

MP2 TOTAL ENERGY:    -1165.428104540 Eh
FINAL SINGLE POINT ENERGY     -1165.428104540394

DIPOLE MOMENT
-------------
                                X             Y             Z
Electronic contribution:      3.10958       3.66864      -4.16397
Nuclear contribution   :     -3.17380      -4.05750       4.73513
                        -----------------------------------------
Total Dipole Moment    :     -0.06421      -0.38886       0.57116
                        -----------------------------------------
Magnitude (a.u.)       :      0.69394
Magnitude (Debye)      :      1.76386

Rotational constants in cm-1:     0.131387     0.047418     0.044144
Rotational constants in MHz :  3938.874920  1421.544449  1323.411160

                             ****ORCA TERMINATED NORMALLY****
TOTAL RUN TIME: 0 days 0 hours 50 minutes 21 seconds 464 msec
