                         Program Version 5.0.4 -  RELEASE  -
|  1> ! ri-mp2 aug-cc-pvdz aug-cc-pvdz/c tightscf
|  2> %pal nprocs 16 end
|  3> %maxcore 3800
|  4> %base "DZ_B-P_79_AB"
|  5>
|  6> *xyz 0 1
|  7> P        -2.411015   -0.461166   -0.351049
|  8> B        -0.967867    0.715646   -0.174519
|  9> C         0.517132    0.316156   -0.072649
| 10> C         1.496923    1.314714   -0.055763
| 11> C         0.949647   -1.012797    0.011455
| 12> C         2.290307   -1.329152    0.104028
| 13> C         3.238881   -0.316961    0.122730
| 14> C         2.842006    1.007074    0.044171
| 15> H         4.290129   -0.563373    0.198377
| 16> H         3.581479    1.796867    0.057860
| 17> H         1.188892    2.350359   -0.123540
| 18> H         0.220494   -1.813005    0.001836
| 19> H         2.601862   -2.363600    0.164215
| 20> C        -3.847322    0.352224    0.469438
| 21> H        -3.679137    0.559509    1.523594
| 22> H        -4.732030   -0.273365    0.366335
| 23> H        -4.040988    1.292952   -0.044269
| 24> H        -1.236130    1.875014   -0.288186
| 25> H        -2.115464   -1.509645    0.541645
| 26> *
| 27>
| 28> $new_job
| 29> ! ri-mp2 aug-cc-pvtz aug-cc-pvtz/c tightscf
| 30> %pal nprocs 16 end
| 31> %maxcore 3800
| 32> %base "TZ_B-P_79_AB"
| 33>
| 34> *xyz 0 1
| 35> P        -2.411015   -0.461166   -0.351049
| 36> B        -0.967867    0.715646   -0.174519
| 37> C         0.517132    0.316156   -0.072649
| 38> C         1.496923    1.314714   -0.055763
| 39> C         0.949647   -1.012797    0.011455
| 40> C         2.290307   -1.329152    0.104028
| 41> C         3.238881   -0.316961    0.122730
| 42> C         2.842006    1.007074    0.044171
| 43> H         4.290129   -0.563373    0.198377
| 44> H         3.581479    1.796867    0.057860
| 45> H         1.188892    2.350359   -0.123540
| 46> H         0.220494   -1.813005    0.001836
| 47> H         2.601862   -2.363600    0.164215
| 48> C        -3.847322    0.352224    0.469438
| 49> H        -3.679137    0.559509    1.523594
| 50> H        -4.732030   -0.273365    0.366335
| 51> H        -4.040988    1.292952   -0.044269
| 52> H        -1.236130    1.875014   -0.288186
| 53> H        -2.115464   -1.509645    0.541645
| 54> *
| 55>
| 56> $new_job
| 57> ! ri-mp2 aug-cc-pvqz aug-cc-pvqz/c tightscf
| 58> %pal nprocs 16 end
| 59> %maxcore 3800
| 60> %base "QZ_B-P_79_AB"
| 61>
| 62> *xyz 0 1
| 63> P        -2.411015   -0.461166   -0.351049
| 64> B        -0.967867    0.715646   -0.174519
| 65> C         0.517132    0.316156   -0.072649
| 66> C         1.496923    1.314714   -0.055763
| 67> C         0.949647   -1.012797    0.011455
| 68> C         2.290307   -1.329152    0.104028
| 69> C         3.238881   -0.316961    0.122730
| 70> C         2.842006    1.007074    0.044171
| 71> H         4.290129   -0.563373    0.198377
| 72> H         3.581479    1.796867    0.057860
| 73> H         1.188892    2.350359   -0.123540
| 74> H         0.220494   -1.813005    0.001836
| 75> H         2.601862   -2.363600    0.164215
| 76> C        -3.847322    0.352224    0.469438
| 77> H        -3.679137    0.559509    1.523594
| 78> H        -4.732030   -0.273365    0.366335
| 79> H        -4.040988    1.292952   -0.044269
| 80> H        -1.236130    1.875014   -0.288186
| 81> H        -2.115464   -1.509645    0.541645
| 82> *
| 83>
| 84>
| 85>
| 86>
| 87>                          ****END OF INPUT****
 Total Charge           Charge          ....    0
 Multiplicity           Mult            ....    1
 Number of Electrons    NEL             ....   72
MP2 TOTAL ENERGY:     -637.524194115 Eh
FINAL SINGLE POINT ENERGY      -637.524194114612
MP2 TOTAL ENERGY:     -637.832501313 Eh
FINAL SINGLE POINT ENERGY      -637.832501312864

CARTESIAN COORDINATES (ANGSTROEM)
---------------------------------
  P     -2.411015   -0.461166   -0.351049
  B     -0.967867    0.715646   -0.174519
  C      0.517132    0.316156   -0.072649
  C      1.496923    1.314714   -0.055763
  C      0.949647   -1.012797    0.011455
  C      2.290307   -1.329152    0.104028
  C      3.238881   -0.316961    0.122730
  C      2.842006    1.007074    0.044171
  H      4.290129   -0.563373    0.198377
  H      3.581479    1.796867    0.057860
  H      1.188892    2.350359   -0.123540
  H      0.220494   -1.813005    0.001836
  H      2.601862   -2.363600    0.164215
  C     -3.847322    0.352224    0.469438
  H     -3.679137    0.559509    1.523594
  H     -4.732030   -0.273365    0.366335
  H     -4.040988    1.292952   -0.044269
  H     -1.236130    1.875014   -0.288186
  H     -2.115464   -1.509645    0.541645

 Multiplicity           Mult            ....    1
 Number of Electrons    NEL             ....   72
 Basis Dimension        Dim             .... 1184

ORBITAL ENERGIES
----------------

  NO   OCC          E(Eh)            E(eV)
   0   2.0000     -79.913903     -2174.5679
   1   2.0000     -11.244958      -305.9909
   2   2.0000     -11.241107      -305.8861
   3   2.0000     -11.240899      -305.8804
   4   2.0000     -11.233711      -305.6848
   5   2.0000     -11.233313      -305.6740
   6   2.0000     -11.226216      -305.4809
   7   2.0000     -11.215149      -305.1797
   8   2.0000      -7.595017      -206.6709
   9   2.0000      -7.459764      -202.9905
  10   2.0000      -5.354377      -145.7000
  11   2.0000      -5.353956      -145.6885
  12   2.0000      -5.353613      -145.6792
  13   2.0000      -1.158759       -31.5314
  14   2.0000      -1.022655       -27.8279
  15   2.0000      -1.022152       -27.8142
  16   2.0000      -0.978143       -26.6166
  17   2.0000      -0.839760       -22.8510
  18   2.0000      -0.830938       -22.6110
  19   2.0000      -0.794159       -21.6102
  20   2.0000      -0.715792       -19.4777
  21   2.0000      -0.658851       -17.9283
  22   2.0000      -0.632710       -17.2169
  23   2.0000      -0.618184       -16.8216
  24   2.0000      -0.592766       -16.1300
  25   2.0000      -0.580987       -15.8095
  26   2.0000      -0.573396       -15.6029
  27   2.0000      -0.541951       -14.7472
  28   2.0000      -0.510863       -13.9013
  29   2.0000      -0.498460       -13.5638
  30   2.0000      -0.492628       -13.4051
  31   2.0000      -0.462123       -12.5750
  32   2.0000      -0.443657       -12.0725
  33   2.0000      -0.359190        -9.7740
  34   2.0000      -0.343092        -9.3360
  35   2.0000      -0.321782        -8.7561
  36   0.0000       0.021124         0.5748
  37   0.0000       0.026408         0.7186
  38   0.0000       0.028222         0.7680
  39   0.0000       0.036473         0.9925
  40   0.0000       0.038048         1.0353

MULLIKEN ATOMIC CHARGES
-----------------------
   0 P :    0.456272
   1 B :    0.526488
   2 C :    0.183097
   3 C :   -0.513164
   4 C :   -0.446342
   5 C :   -0.288809
   6 C :   -0.358782
   7 C :   -0.288876
   8 H :    0.364019
   9 H :    0.269019
  10 H :    0.230249
  11 H :    0.240222
  12 H :    0.243673
  13 C :   -1.170582
  14 H :    0.319647
  15 H :    0.363666
  16 H :    0.310897
  17 H :   -0.340664
  18 H :   -0.100029
Sum of atomic charges:   -0.0000000

LOEWDIN ATOMIC CHARGES
----------------------
   0 P :    1.347726
   1 B :   -0.357005
   2 C :   -0.017696
   3 C :    0.309929
   4 C :    0.293174
   5 C :    0.356102
   6 C :    0.341913
   7 C :    0.354026
   8 H :   -0.315382
   9 H :   -0.320824
  10 H :   -0.326874
  11 H :   -0.353213
  12 H :   -0.319791
  13 C :    0.730458
  14 H :   -0.348975
  15 H :   -0.369426
  16 H :   -0.372414
  17 H :   -0.203220
  18 H :   -0.428508

  Mayer bond orders larger than 0.100000
B(  0-P ,  1-B ) :   1.0509 B(  0-P , 13-C ) :   0.9048 B(  0-P , 18-H ) :   0.9524
B(  1-B ,  2-C ) :   1.0339 B(  1-B , 17-H ) :   0.7297 B(  2-C ,  3-C ) :   0.8760
B(  2-C ,  4-C ) :   0.8280 B(  2-C ,  5-C ) :  -0.3406 B(  2-C ,  6-C ) :  -0.1126
B(  2-C ,  7-C ) :  -0.3669 B(  3-C ,  4-C ) :   0.1368 B(  3-C ,  5-C ) :   0.1613
B(  3-C ,  6-C ) :   0.1435 B(  3-C ,  7-C ) :   1.3073 B(  3-C ,  9-H ) :  -0.1479
B(  3-C , 10-H ) :   1.0259 B(  4-C ,  5-C ) :   1.2574 B(  4-C ,  7-C ) :   0.1335
B(  4-C , 11-H ) :   0.9953 B(  4-C , 12-H ) :  -0.1563 B(  5-C ,  6-C ) :   1.1679
B(  5-C , 12-H ) :   1.1353 B(  6-C ,  7-C ) :   1.1416 B(  6-C ,  8-H ) :   0.9627
B(  6-C ,  9-H ) :  -0.1114 B(  7-C ,  9-H ) :   1.1092 B( 13-C , 14-H ) :   0.8719
B( 13-C , 15-H ) :   0.8845 B( 13-C , 16-H ) :   0.8862

MP2 TOTAL ENERGY:     -637.929259924 Eh
FINAL SINGLE POINT ENERGY      -637.929259923686

DIPOLE MOMENT
-------------
                                X             Y             Z
Electronic contribution:      1.14047      -1.12668      -2.38978
Nuclear contribution   :     -0.84032       1.20782       2.85761
                        -----------------------------------------
Total Dipole Moment    :      0.30014       0.08114       0.46783
                        -----------------------------------------
Magnitude (a.u.)       :      0.56173
Magnitude (Debye)      :      1.42780

Rotational constants in cm-1:     0.142265     0.020978     0.018689
Rotational constants in MHz :  4264.991386   628.913738   560.271666

                             ****ORCA TERMINATED NORMALLY****
TOTAL RUN TIME: 0 days 0 hours 50 minutes 11 seconds 44 msec
