                         Program Version 5.0.4 -  RELEASE  -
|  1> ! ri-mp2 aug-cc-pvdz aug-cc-pvdz/c tightscf
|  2> %pal nprocs 16 end
|  3> %maxcore 3800
|  4> %base "DZ_P-C_30_AB"
|  5>
|  6> *xyz 0 1
|  7> C         0.294494   -0.270927    0.582746
|  8> P        -2.478914   -0.370291   -0.120277
|  9> C        -2.102431    1.238999   -0.928415
| 10> H        -1.065773    1.332105   -1.246180
| 11> H        -2.334038    2.049218   -0.236441
| 12> H        -2.752776    1.352654   -1.795393
| 13> C         0.975282   -1.260730   -0.118440
| 14> C         2.238155   -1.028350   -0.631221
| 15> C         2.846609    0.204253   -0.454435
| 16> C         2.181347    1.196792    0.243021
| 17> C         0.917394    0.958484    0.757287
| 18> H         0.405830    1.739876    1.305981
| 19> H         0.507113   -2.226975   -0.262978
| 20> H         2.752154   -1.813897   -1.169557
| 21> H         3.834730    0.387000   -0.854833
| 22> H         2.648136    2.161748    0.391456
| 23> C        -1.086467   -0.516982    1.106170
| 24> H        -1.316357    0.173705    1.919259
| 25> H        -1.167786   -1.522050    1.523760
| 26> H        -1.913818   -1.208252   -1.111203
| 27> *
| 28>
| 29> $new_job
| 30> ! ri-mp2 aug-cc-pvtz aug-cc-pvtz/c tightscf
| 31> %pal nprocs 16 end
| 32> %maxcore 3800
| 33> %base "TZ_P-C_30_AB"
| 34>
| 35> *xyz 0 1
| 36> C         0.294494   -0.270927    0.582746
| 37> P        -2.478914   -0.370291   -0.120277
| 38> C        -2.102431    1.238999   -0.928415
| 39> H        -1.065773    1.332105   -1.246180
| 40> H        -2.334038    2.049218   -0.236441
| 41> H        -2.752776    1.352654   -1.795393
| 42> C         0.975282   -1.260730   -0.118440
| 43> C         2.238155   -1.028350   -0.631221
| 44> C         2.846609    0.204253   -0.454435
| 45> C         2.181347    1.196792    0.243021
| 46> C         0.917394    0.958484    0.757287
| 47> H         0.405830    1.739876    1.305981
| 48> H         0.507113   -2.226975   -0.262978
| 49> H         2.752154   -1.813897   -1.169557
| 50> H         3.834730    0.387000   -0.854833
| 51> H         2.648136    2.161748    0.391456
| 52> C        -1.086467   -0.516982    1.106170
| 53> H        -1.316357    0.173705    1.919259
| 54> H        -1.167786   -1.522050    1.523760
| 55> H        -1.913818   -1.208252   -1.111203
| 56> *
| 57>
| 58> $new_job
| 59> ! ri-mp2 aug-cc-pvqz aug-cc-pvqz/c tightscf
| 60> %pal nprocs 16 end
| 61> %maxcore 3800
| 62> %base "QZ_P-C_30_AB"
| 63>
| 64> *xyz 0 1
| 65> C         0.294494   -0.270927    0.582746
| 66> P        -2.478914   -0.370291   -0.120277
| 67> C        -2.102431    1.238999   -0.928415
| 68> H        -1.065773    1.332105   -1.246180
| 69> H        -2.334038    2.049218   -0.236441
| 70> H        -2.752776    1.352654   -1.795393
| 71> C         0.975282   -1.260730   -0.118440
| 72> C         2.238155   -1.028350   -0.631221
| 73> C         2.846609    0.204253   -0.454435
| 74> C         2.181347    1.196792    0.243021
| 75> C         0.917394    0.958484    0.757287
| 76> H         0.405830    1.739876    1.305981
| 77> H         0.507113   -2.226975   -0.262978
| 78> H         2.752154   -1.813897   -1.169557
| 79> H         3.834730    0.387000   -0.854833
| 80> H         2.648136    2.161748    0.391456
| 81> C        -1.086467   -0.516982    1.106170
| 82> H        -1.316357    0.173705    1.919259
| 83> H        -1.167786   -1.522050    1.523760
| 84> H        -1.913818   -1.208252   -1.111203
| 85> *
| 86>
| 87>
| 88>
| 89>
| 90>                          ****END OF INPUT****
 Total Charge           Charge          ....    0
 Multiplicity           Mult            ....    1
 Number of Electrons    NEL             ....   74
MP2 TOTAL ENERGY:     -651.364413869 Eh
FINAL SINGLE POINT ENERGY      -651.364413869127
MP2 TOTAL ENERGY:     -651.689845100 Eh
FINAL SINGLE POINT ENERGY      -651.689845099797

CARTESIAN COORDINATES (ANGSTROEM)
---------------------------------
  C      0.294494   -0.270927    0.582746
  P     -2.478914   -0.370291   -0.120277
  C     -2.102431    1.238999   -0.928415
  H     -1.065773    1.332105   -1.246180
  H     -2.334038    2.049218   -0.236441
  H     -2.752776    1.352654   -1.795393
  C      0.975282   -1.260730   -0.118440
  C      2.238155   -1.028350   -0.631221
  C      2.846609    0.204253   -0.454435
  C      2.181347    1.196792    0.243021
  C      0.917394    0.958484    0.757287
  H      0.405830    1.739876    1.305981
  H      0.507113   -2.226975   -0.262978
  H      2.752154   -1.813897   -1.169557
  H      3.834730    0.387000   -0.854833
  H      2.648136    2.161748    0.391456
  C     -1.086467   -0.516982    1.106170
  H     -1.316357    0.173705    1.919259
  H     -1.167786   -1.522050    1.523760
  H     -1.913818   -1.208252   -1.111203

 Multiplicity           Mult            ....    1
 Number of Electrons    NEL             ....   74
 Basis Dimension        Dim             .... 1230

ORBITAL ENERGIES
----------------

  NO   OCC          E(Eh)            E(eV)
   0   2.0000     -79.931327     -2175.0420
   1   2.0000     -11.242047      -305.9117
   2   2.0000     -11.233456      -305.6779
   3   2.0000     -11.233391      -305.6761
   4   2.0000     -11.233223      -305.6715
   5   2.0000     -11.229116      -305.5598
   6   2.0000     -11.228931      -305.5547
   7   2.0000     -11.228713      -305.5488
   8   2.0000     -11.218336      -305.2664
   9   2.0000      -7.473338      -203.3599
  10   2.0000      -5.367389      -146.0541
  11   2.0000      -5.367215      -146.0493
  12   2.0000      -5.366147      -146.0203
  13   2.0000      -1.162351       -31.6292
  14   2.0000      -1.058736       -28.8097
  15   2.0000      -1.018207       -27.7068
  16   2.0000      -0.982511       -26.7355
  17   2.0000      -0.934131       -25.4190
  18   2.0000      -0.831300       -22.6208
  19   2.0000      -0.810818       -22.0635
  20   2.0000      -0.750935       -20.4340
  21   2.0000      -0.697817       -18.9886
  22   2.0000      -0.643876       -17.5207
  23   2.0000      -0.636094       -17.3090
  24   2.0000      -0.590148       -16.0588
  25   2.0000      -0.586817       -15.9681
  26   2.0000      -0.580574       -15.7982
  27   2.0000      -0.569374       -15.4935
  28   2.0000      -0.550621       -14.9832
  29   2.0000      -0.514904       -14.0112
  30   2.0000      -0.497511       -13.5380
  31   2.0000      -0.492634       -13.4053
  32   2.0000      -0.471888       -12.8407
  33   2.0000      -0.463582       -12.6147
  34   2.0000      -0.357629        -9.7316
  35   2.0000      -0.339977        -9.2512
  36   2.0000      -0.316465        -8.6114
  37   0.0000       0.024349         0.6626
  38   0.0000       0.028091         0.7644
  39   0.0000       0.029736         0.8092
  40   0.0000       0.033745         0.9183
  41   0.0000       0.041432         1.1274

MULLIKEN ATOMIC CHARGES
-----------------------
   0 C :    0.572051
   1 P :    0.459604
   2 C :   -1.163608
   3 H :    0.341444
   4 H :    0.248529
   5 H :    0.376861
   6 C :   -0.488460
   7 C :   -0.360332
   8 C :   -0.361805
   9 C :   -0.278452
  10 C :   -0.483470
  11 H :    0.267021
  12 H :    0.292922
  13 H :    0.239010
  14 H :    0.334755
  15 H :    0.226933
  16 C :   -0.549200
  17 H :    0.129406
  18 H :    0.318788
  19 H :   -0.121997
Sum of atomic charges:    0.0000000

LOEWDIN ATOMIC CHARGES
----------------------
   0 C :   -0.172252
   1 P :    1.269310
   2 C :    0.742117
   3 H :   -0.365902
   4 H :   -0.358403
   5 H :   -0.366035
   6 C :    0.321453
   7 C :    0.343577
   8 C :    0.335067
   9 C :    0.343367
  10 C :    0.318416
  11 H :   -0.313710
  12 H :   -0.316758
  13 H :   -0.319043
  14 H :   -0.323673
  15 H :   -0.318431
  16 C :    0.324940
  17 H :   -0.367030
  18 H :   -0.362482
  19 H :   -0.414527

  Mayer bond orders larger than 0.100000
B(  0-C ,  6-C ) :   1.0980 B(  0-C ,  7-C ) :  -0.2749 B(  0-C ,  9-C ) :  -0.3601
B(  0-C , 10-C ) :   1.0235 B(  0-C , 16-C ) :   0.7013 B(  0-C , 17-H ) :  -0.1059
B(  1-P ,  2-C ) :   0.9164 B(  1-P , 16-C ) :   0.7800 B(  1-P , 19-H ) :   0.9541
B(  2-C ,  3-H ) :   0.8537 B(  2-C ,  4-H ) :   0.9340 B(  2-C ,  5-H ) :   0.8942
B(  6-C ,  7-C ) :   1.3588 B(  6-C ,  9-C ) :   0.1436 B(  6-C , 12-H ) :   0.9616
B(  6-C , 13-H ) :  -0.1349 B(  6-C , 16-C ) :  -0.1784 B(  7-C ,  8-C ) :   1.1201
B(  7-C , 10-C ) :   0.1418 B(  7-C , 13-H ) :   1.1397 B(  8-C ,  9-C ) :   1.1174
B(  8-C , 10-C ) :   0.1003 B(  8-C , 13-H ) :  -0.1028 B(  8-C , 14-H ) :   0.9959
B(  8-C , 15-H ) :  -0.1081 B(  9-C , 10-C ) :   1.3618 B(  9-C , 15-H ) :   1.1710
B( 10-C , 11-H ) :   0.9928 B( 10-C , 15-H ) :  -0.1466 B( 10-C , 16-C ) :  -0.1477
B( 16-C , 17-H ) :   1.0947 B( 16-C , 18-H ) :   0.9665

MP2 TOTAL ENERGY:     -651.791072536 Eh
FINAL SINGLE POINT ENERGY      -651.791072536017

DIPOLE MOMENT
-------------
                                X             Y             Z
Electronic contribution:     -1.57612      -2.57284       1.36409
Nuclear contribution   :      1.96999       2.79442      -1.43009
                        -----------------------------------------
Total Dipole Moment    :      0.39388       0.22159      -0.06601
                        -----------------------------------------
Magnitude (a.u.)       :      0.45672
Magnitude (Debye)      :      1.16090

Rotational constants in cm-1:     0.095811     0.027785     0.025502
Rotational constants in MHz :  2872.352347   832.971120   764.539263

                             ****ORCA TERMINATED NORMALLY****
TOTAL RUN TIME: 0 days 0 hours 55 minutes 27 seconds 900 msec
