                         Program Version 5.0.4 -  RELEASE  -
|  1> ! ri-mp2 aug-cc-pvdz aug-cc-pvdz/c tightscf
|  2> %pal nprocs 16 end
|  3> %maxcore 3800
|  4> %base "DZ_Si-Si_60_AB"
|  5> %scf
|  6> STABPerform true
|  7> STABRestartUHFifUnstable true
|  8> end
|  9>
| 10> *xyz 0 1
| 11> Si        -0.936858   -0.938767   -0.248526
| 12> Si         1.347908   -0.911698    0.270080
| 13> O        -1.543031    0.515956    0.237925
| 14> H        -1.644003   -2.049552    0.445841
| 15> H        -1.188276   -1.123934   -1.702667
| 16> C        -2.899057    0.881034    0.090393
| 17> H        -3.027324    1.889627    0.480358
| 18> H        -3.552675    0.204515    0.648302
| 19> H        -3.199065    0.870900   -0.961422
| 20> O         2.103518    0.387707   -0.390861
| 21> H         2.013825   -2.109671   -0.282937
| 22> H         1.506923   -0.909159    1.748130
| 23> C         1.826438    1.726751   -0.029674
| 24> H         2.422053    2.378166   -0.667016
| 25> H         2.096953    1.914352    1.013176
| 26> H         0.768717    1.965246   -0.164353
| 27> *
| 28>
| 29> $new_job
| 30> ! ri-mp2 aug-cc-pvtz aug-cc-pvtz/c tightscf
| 31> %pal nprocs 16 end
| 32> %maxcore 3800
| 33> %base "TZ_Si-Si_60_AB"
| 34>
| 35> *xyz 0 1
| 36> Si        -0.936858   -0.938767   -0.248526
| 37> Si         1.347908   -0.911698    0.270080
| 38> O        -1.543031    0.515956    0.237925
| 39> H        -1.644003   -2.049552    0.445841
| 40> H        -1.188276   -1.123934   -1.702667
| 41> C        -2.899057    0.881034    0.090393
| 42> H        -3.027324    1.889627    0.480358
| 43> H        -3.552675    0.204515    0.648302
| 44> H        -3.199065    0.870900   -0.961422
| 45> O         2.103518    0.387707   -0.390861
| 46> H         2.013825   -2.109671   -0.282937
| 47> H         1.506923   -0.909159    1.748130
| 48> C         1.826438    1.726751   -0.029674
| 49> H         2.422053    2.378166   -0.667016
| 50> H         2.096953    1.914352    1.013176
| 51> H         0.768717    1.965246   -0.164353
| 52> *
| 53>
| 54> $new_job
| 55> ! ri-mp2 aug-cc-pvqz aug-cc-pvqz/c tightscf
| 56> %pal nprocs 16 end
| 57> %maxcore 3800
| 58> %base "QZ_Si-Si_60_AB"
| 59>
| 60> *xyz 0 1
| 61> Si        -0.936858   -0.938767   -0.248526
| 62> Si         1.347908   -0.911698    0.270080
| 63> O        -1.543031    0.515956    0.237925
| 64> H        -1.644003   -2.049552    0.445841
| 65> H        -1.188276   -1.123934   -1.702667
| 66> C        -2.899057    0.881034    0.090393
| 67> H        -3.027324    1.889627    0.480358
| 68> H        -3.552675    0.204515    0.648302
| 69> H        -3.199065    0.870900   -0.961422
| 70> O         2.103518    0.387707   -0.390861
| 71> H         2.013825   -2.109671   -0.282937
| 72> H         1.506923   -0.909159    1.748130
| 73> C         1.826438    1.726751   -0.029674
| 74> H         2.422053    2.378166   -0.667016
| 75> H         2.096953    1.914352    1.013176
| 76> H         0.768717    1.965246   -0.164353
| 77> *
| 78>
| 79>
| 80>
| 81>
| 82>                          ****END OF INPUT****
 Total Charge           Charge          ....    0
 Multiplicity           Mult            ....    1
 Number of Electrons    NEL             ....   66
MP2 TOTAL ENERGY:     -810.120411249 Eh
FINAL SINGLE POINT ENERGY      -810.120411249069
MP2 TOTAL ENERGY:     -810.416619885 Eh
FINAL SINGLE POINT ENERGY      -810.416619885060

CARTESIAN COORDINATES (ANGSTROEM)
---------------------------------
  Si    -0.936858   -0.938767   -0.248526
  Si     1.347908   -0.911698    0.270080
  O     -1.543031    0.515956    0.237925
  H     -1.644003   -2.049552    0.445841
  H     -1.188276   -1.123934   -1.702667
  C     -2.899057    0.881034    0.090393
  H     -3.027324    1.889627    0.480358
  H     -3.552675    0.204515    0.648302
  H     -3.199065    0.870900   -0.961422
  O      2.103518    0.387707   -0.390861
  H      2.013825   -2.109671   -0.282937
  H      1.506923   -0.909159    1.748130
  C      1.826438    1.726751   -0.029674
  H      2.422053    2.378166   -0.667016
  H      2.096953    1.914352    1.013176
  H      0.768717    1.965246   -0.164353

 Multiplicity           Mult            ....    1
 Number of Electrons    NEL             ....   66
 Basis Dimension        Dim             ....  948

ORBITAL ENERGIES
----------------

  NO   OCC          E(Eh)            E(eV)
   0   2.0000     -68.782075     -1871.6554
   1   2.0000     -68.781614     -1871.6429
   2   2.0000     -20.551074      -559.2231
   3   2.0000     -20.544809      -559.0527
   4   2.0000     -11.281711      -306.9910
   5   2.0000     -11.273704      -306.7731
   6   2.0000      -6.128449      -166.7636
   7   2.0000      -6.127772      -166.7451
   8   2.0000      -4.235061      -115.2419
   9   2.0000      -4.234960      -115.2391
  10   2.0000      -4.234747      -115.2333
  11   2.0000      -4.234393      -115.2237
  12   2.0000      -4.234366      -115.2230
  13   2.0000      -4.233963      -115.2120
  14   2.0000      -1.354722       -36.8639
  15   2.0000      -1.348197       -36.6863
  16   2.0000      -0.936209       -25.4755
  17   2.0000      -0.929187       -25.2845
  18   2.0000      -0.747056       -20.3284
  19   2.0000      -0.705011       -19.1843
  20   2.0000      -0.640946       -17.4410
  21   2.0000      -0.634858       -17.2754
  22   2.0000      -0.625753       -17.0276
  23   2.0000      -0.622655       -16.9433
  24   2.0000      -0.610350       -16.6085
  25   2.0000      -0.583168       -15.8688
  26   2.0000      -0.502409       -13.6712
  27   2.0000      -0.493784       -13.4365
  28   2.0000      -0.483322       -13.1519
  29   2.0000      -0.479417       -13.0456
  30   2.0000      -0.451868       -12.2959
  31   2.0000      -0.439640       -11.9632
  32   2.0000      -0.383071       -10.4239
  33   0.0000       0.024643         0.6706
  34   0.0000       0.031108         0.8465
  35   0.0000       0.033474         0.9109
  36   0.0000       0.035868         0.9760
  37   0.0000       0.045455         1.2369

MULLIKEN ATOMIC CHARGES
-----------------------
   0 Si:    0.924235
   1 Si:    1.173128
   2 O :   -0.800549
   3 H :   -0.271173
   4 H :   -0.225423
   5 C :   -0.671689
   6 H :    0.382556
   7 H :    0.310402
   8 H :    0.309944
   9 O :   -0.961063
  10 H :   -0.318252
  11 H :   -0.252029
  12 C :   -0.688542
  13 H :    0.432499
  14 H :    0.290787
  15 H :    0.365169
Sum of atomic charges:    0.0000000

LOEWDIN ATOMIC CHARGES
----------------------
   0 Si:    0.425282
   1 Si:    0.442733
   2 O :    0.616747
   3 H :   -0.262650
   4 H :   -0.258958
   5 C :    0.462096
   6 H :   -0.328837
   7 H :   -0.323965
   8 H :   -0.324215
   9 O :    0.619298
  10 H :   -0.280766
  11 H :   -0.259554
  12 C :    0.462239
  13 H :   -0.327058
  14 H :   -0.319297
  15 H :   -0.343096

  Mayer bond orders larger than 0.100000
B(  0-Si,  1-Si) :   0.9542 B(  0-Si,  2-O ) :   0.4457 B(  0-Si,  3-H ) :   0.7965
B(  0-Si,  4-H ) :   0.8177 B(  1-Si,  9-O ) :   0.5433 B(  1-Si, 10-H ) :   0.8148
B(  1-Si, 11-H ) :   0.8500 B(  2-O ,  5-C ) :   0.9563 B(  5-C ,  6-H ) :   0.8758
B(  5-C ,  7-H ) :   0.8838 B(  5-C ,  8-H ) :   0.8886 B(  9-O , 12-C ) :   0.8954
B( 12-C , 13-H ) :   0.8301 B( 12-C , 14-H ) :   0.9088 B( 12-C , 15-H ) :   0.8335

MP2 TOTAL ENERGY:     -810.509668712 Eh
FINAL SINGLE POINT ENERGY      -810.509668712310

DIPOLE MOMENT
-------------
                                X             Y             Z
Electronic contribution:      3.21473      -2.86333      -0.44196
Nuclear contribution   :     -3.87149       3.20047       0.56130
                        -----------------------------------------
Total Dipole Moment    :     -0.65676       0.33714       0.11934
                        -----------------------------------------
Magnitude (a.u.)       :      0.74782
Magnitude (Debye)      :      1.90081

Rotational constants in cm-1:     0.116316     0.042588     0.033213
Rotational constants in MHz :  3487.052379  1276.764501   995.694287

                             ****ORCA TERMINATED NORMALLY****
TOTAL RUN TIME: 0 days 1 hours 11 minutes 4 seconds 895 msec
