                         Program Version 5.0.4 -  RELEASE  -
|  1> ! ri-mp2 aug-cc-pvdz aug-cc-pvdz/c tightscf
|  2> %pal nprocs 16 end
|  3> %maxcore 3800
|  4> %base "DZ_B-B_11_A"
|  5> %scf
|  6> STABPerform true
|  7> STABRestartUHFifUnstable true
|  8> end
|  9>
| 10> *xyz 0 2
| 11> B         0.000000    0.000000    0.683648
| 12> Cl         0.000000    1.529776   -0.100537
| 13> Cl        -0.000000   -1.529776   -0.100537
| 14> *
| 15>
| 16> $new_job
| 17> ! ri-mp2 aug-cc-pvtz aug-cc-pvtz/c tightscf
| 18> %pal nprocs 16 end
| 19> %maxcore 3800
| 20> %base "TZ_B-B_11_A"
| 21>
| 22> *xyz 0 2
| 23> B         0.000000    0.000000    0.683648
| 24> Cl         0.000000    1.529776   -0.100537
| 25> Cl        -0.000000   -1.529776   -0.100537
| 26> *
| 27>
| 28> $new_job
| 29> ! ri-mp2 aug-cc-pvqz aug-cc-pvqz/c tightscf
| 30> %pal nprocs 16 end
| 31> %maxcore 3800
| 32> %base "QZ_B-B_11_A"
| 33>
| 34> *xyz 0 2
| 35> B         0.000000    0.000000    0.683648
| 36> Cl         0.000000    1.529776   -0.100537
| 37> Cl        -0.000000   -1.529776   -0.100537
| 38> *
| 39>
| 40>
| 41>
| 42>
| 43>                          ****END OF INPUT****
 Total Charge           Charge          ....    0
 Multiplicity           Mult            ....    2
 Number of Electrons    NEL             ....   39
MP2 TOTAL ENERGY:     -944.068687400 Eh
FINAL SINGLE POINT ENERGY      -944.068687399534
MP2 TOTAL ENERGY:     -944.205527811 Eh
FINAL SINGLE POINT ENERGY      -944.205527810907

CARTESIAN COORDINATES (ANGSTROEM)
---------------------------------
  B      0.000000    0.000000    0.683648
  Cl     0.000000    1.529776   -0.100537
  Cl    -0.000000   -1.529776   -0.100537

 Multiplicity           Mult            ....    2
 Number of Electrons    NEL             ....   39
 Basis Dimension        Dim             ....  248

ORBITAL ENERGIES
----------------
                 SPIN UP ORBITALS
  NO   OCC          E(Eh)            E(eV)
   0   1.0000    -104.861473     -2853.4258
   1   1.0000    -104.861473     -2853.4257
   2   1.0000     -10.589060      -288.1430
   3   1.0000     -10.589052      -288.1428
   4   1.0000      -8.057070      -219.2440
   5   1.0000      -8.057068      -219.2440
   6   1.0000      -8.054423      -219.1720
   7   1.0000      -8.054420      -219.1719
   8   1.0000      -8.054130      -219.1640
   9   1.0000      -8.054129      -219.1640
  10   1.0000      -7.739673      -210.6072
  11   1.0000      -1.164967       -31.7004
  12   1.0000      -1.124998       -30.6128
  13   1.0000      -0.700483       -19.0611
  14   1.0000      -0.599058       -16.3012
  15   1.0000      -0.562774       -15.3139
  16   1.0000      -0.533964       -14.5299
  17   1.0000      -0.482118       -13.1191
  18   1.0000      -0.479707       -13.0535
  19   1.0000      -0.363161        -9.8821
  20   0.0000       0.037029         1.0076
  21   0.0000       0.038073         1.0360
  22   0.0000       0.040606         1.1050
  23   0.0000       0.040771         1.1094
  24   0.0000       0.060830         1.6553

                 SPIN DOWN ORBITALS
  NO   OCC          E(Eh)            E(eV)
   0   1.0000    -104.860506     -2853.3994
   1   1.0000    -104.860506     -2853.3994
   2   1.0000     -10.587918      -288.1119
   3   1.0000     -10.587908      -288.1116
   4   1.0000      -8.054646      -219.1781
   5   1.0000      -8.054646      -219.1781
   6   1.0000      -8.054202      -219.1660
   7   1.0000      -8.054201      -219.1659
   8   1.0000      -8.052127      -219.1095
   9   1.0000      -8.052125      -219.1095
  10   1.0000      -7.716928      -209.9883
  11   1.0000      -1.153568       -31.3902
  12   1.0000      -1.116967       -30.3942
  13   1.0000      -0.668998       -18.2044
  14   1.0000      -0.582815       -15.8592
  15   1.0000      -0.531000       -14.4492
  16   1.0000      -0.520422       -14.1614
  17   1.0000      -0.484869       -13.1940
  18   1.0000      -0.471009       -12.8168
  19   0.0000       0.025314         0.6888
  20   0.0000       0.039954         1.0872
  21   0.0000       0.041088         1.1181
  22   0.0000       0.041113         1.1187
  23   0.0000       0.080741         2.1971

MULLIKEN ATOMIC CHARGES AND SPIN POPULATIONS
--------------------------------------------
   0 B :    0.319480    0.939582
   1 Cl:   -0.159740    0.030209
   2 Cl:   -0.159740    0.030209
Sum of atomic charges         :   -0.0000000

LOEWDIN ATOMIC CHARGES AND SPIN POPULATIONS
-------------------------------------------
   0 B :   -2.069369    0.644669
   1 Cl:    1.034685    0.177666
   2 Cl:    1.034685    0.177666

  Mayer bond orders larger than 0.100000
B(  0-B ,  1-Cl) :   1.2082 B(  0-B ,  2-Cl) :   1.2082

MP2 TOTAL ENERGY:     -944.252638996 Eh
FINAL SINGLE POINT ENERGY      -944.252638995809

DIPOLE MOMENT
-------------
                                X             Y             Z
Electronic contribution:     -0.00000      -0.00000       0.24943
Nuclear contribution   :      0.00000       0.00000      -0.23593
                        -----------------------------------------
Total Dipole Moment    :     -0.00000      -0.00000       0.01350
                        -----------------------------------------
Magnitude (a.u.)       :      0.01350
Magnitude (Debye)      :      0.03431

Rotational constants in cm-1:     2.922525     0.101592     0.098179
Rotational constants in MHz : 87615.100170  3045.642550  2943.327719

                             ****ORCA TERMINATED NORMALLY****
TOTAL RUN TIME: 0 days 0 hours 3 minutes 55 seconds 420 msec
