                         Program Version 5.0.4 -  RELEASE  -
|  1> ! ri-mp2 aug-cc-pvdz aug-cc-pvdz/c tightscf
|  2> %pal nprocs 16 end
|  3> %maxcore 3800
|  4> %base "DZ_S-Cl_21_AB"
|  5> %scf
|  6> STABPerform true
|  7> STABRestartUHFifUnstable true
|  8> end
|  9>
| 10> *xyz 0 1
| 11> Cl         1.482442   -0.593189    0.070108
| 12> S         0.210231    0.975152   -0.204669
| 13> C        -1.305021    0.305144    0.500181
| 14> C        -1.909292   -0.854272   -0.264664
| 15> H        -1.119274    0.052345    1.543541
| 16> H        -2.129388   -0.571168   -1.293230
| 17> H        -2.835752   -1.177030    0.212676
| 18> H        -1.227091   -1.702994   -0.283421
| 19> H        -1.967836    1.175409    0.490206
| 20> *
| 21>
| 22> $new_job
| 23> ! ri-mp2 aug-cc-pvtz aug-cc-pvtz/c tightscf
| 24> %pal nprocs 16 end
| 25> %maxcore 3800
| 26> %base "TZ_S-Cl_21_AB"
| 27>
| 28> *xyz 0 1
| 29> Cl         1.482442   -0.593189    0.070108
| 30> S         0.210231    0.975152   -0.204669
| 31> C        -1.305021    0.305144    0.500181
| 32> C        -1.909292   -0.854272   -0.264664
| 33> H        -1.119274    0.052345    1.543541
| 34> H        -2.129388   -0.571168   -1.293230
| 35> H        -2.835752   -1.177030    0.212676
| 36> H        -1.227091   -1.702994   -0.283421
| 37> H        -1.967836    1.175409    0.490206
| 38> *
| 39>
| 40> $new_job
| 41> ! ri-mp2 aug-cc-pvqz aug-cc-pvqz/c tightscf
| 42> %pal nprocs 16 end
| 43> %maxcore 3800
| 44> %base "QZ_S-Cl_21_AB"
| 45>
| 46> *xyz 0 1
| 47> Cl         1.482442   -0.593189    0.070108
| 48> S         0.210231    0.975152   -0.204669
| 49> C        -1.305021    0.305144    0.500181
| 50> C        -1.909292   -0.854272   -0.264664
| 51> H        -1.119274    0.052345    1.543541
| 52> H        -2.129388   -0.571168   -1.293230
| 53> H        -2.835752   -1.177030    0.212676
| 54> H        -1.227091   -1.702994   -0.283421
| 55> H        -1.967836    1.175409    0.490206
| 56> *
| 57>
| 58>
| 59>
| 60>
| 61>                          ****END OF INPUT****
 Total Charge           Charge          ....    0
 Multiplicity           Mult            ....    1
 Number of Electrons    NEL             ....   50
MP2 TOTAL ENERGY:     -936.274426567 Eh
FINAL SINGLE POINT ENERGY      -936.274426567343
MP2 TOTAL ENERGY:     -936.470002678 Eh
FINAL SINGLE POINT ENERGY      -936.470002677779

CARTESIAN COORDINATES (ANGSTROEM)
---------------------------------
  Cl     1.482442   -0.593189    0.070108
  S      0.210231    0.975152   -0.204669
  C     -1.305021    0.305144    0.500181
  C     -1.909292   -0.854272   -0.264664
  H     -1.119274    0.052345    1.543541
  H     -2.129388   -0.571168   -1.293230
  H     -2.835752   -1.177030    0.212676
  H     -1.227091   -1.702994   -0.283421
  H     -1.967836    1.175409    0.490206

 Multiplicity           Mult            ....    1
 Number of Electrons    NEL             ....   50
 Basis Dimension        Dim             ....  558

ORBITAL ENERGIES
----------------

  NO   OCC          E(Eh)            E(eV)
   0   2.0000    -104.846935     -2853.0302
   1   2.0000     -92.002618     -2503.5185
   2   2.0000     -11.274670      -306.7994
   3   2.0000     -11.230062      -305.5855
   4   2.0000     -10.571356      -287.6612
   5   2.0000      -9.000965      -244.9287
   6   2.0000      -8.038372      -218.7352
   7   2.0000      -8.036514      -218.6847
   8   2.0000      -8.036330      -218.6796
   9   2.0000      -6.682317      -181.8351
  10   2.0000      -6.680601      -181.7884
  11   2.0000      -6.679513      -181.7588
  12   2.0000      -1.146838       -31.2071
  13   2.0000      -1.060217       -28.8500
  14   2.0000      -0.929710       -25.2987
  15   2.0000      -0.812251       -22.1025
  16   2.0000      -0.647501       -17.6194
  17   2.0000      -0.610550       -16.6139
  18   2.0000      -0.567333       -15.4379
  19   2.0000      -0.537392       -14.6232
  20   2.0000      -0.515928       -14.0391
  21   2.0000      -0.499229       -13.5847
  22   2.0000      -0.493301       -13.4234
  23   2.0000      -0.433854       -11.8058
  24   2.0000      -0.354688        -9.6516
  25   0.0000       0.025189         0.6854
  26   0.0000       0.034884         0.9493
  27   0.0000       0.036735         0.9996
  28   0.0000       0.045529         1.2389
  29   0.0000       0.056174         1.5286

MULLIKEN ATOMIC CHARGES
-----------------------
   0 Cl:   -0.322444
   1 S :    0.152642
   2 C :   -0.394916
   3 C :   -0.799931
   4 H :    0.256003
   5 H :    0.273533
   6 H :    0.253532
   7 H :    0.270342
   8 H :    0.311240
Sum of atomic charges:    0.0000000

LOEWDIN ATOMIC CHARGES
----------------------
   0 Cl:    0.488811
   1 S :    0.461236
   2 C :   -0.016030
   3 C :    0.797867
   4 H :   -0.388138
   5 H :   -0.309857
   6 H :   -0.290966
   7 H :   -0.341155
   8 H :   -0.401768

  Mayer bond orders larger than 0.100000
B(  0-Cl,  1-S ) :   0.9703 B(  0-Cl,  2-C ) :  -0.1351 B(  1-S ,  2-C ) :   0.9401
B(  2-C ,  3-C ) :   0.9862 B(  2-C ,  4-H ) :   0.8991 B(  2-C ,  8-H ) :   0.8374
B(  3-C ,  5-H ) :   0.9302 B(  3-C ,  6-H ) :   0.9252 B(  3-C ,  7-H ) :   0.9254

MP2 TOTAL ENERGY:     -936.531612743 Eh
FINAL SINGLE POINT ENERGY      -936.531612743056

DIPOLE MOMENT
-------------
                                X             Y             Z
Electronic contribution:     10.16596       1.36091      -0.35391
Nuclear contribution   :    -11.09117      -1.36602       0.55986
                        -----------------------------------------
Total Dipole Moment    :     -0.92521      -0.00511       0.20595
                        -----------------------------------------
Magnitude (a.u.)       :      0.94787
Magnitude (Debye)      :      2.40930

Rotational constants in cm-1:     0.246552     0.098198     0.076443
Rotational constants in MHz :  7391.435764  2943.891175  2291.695013

                             ****ORCA TERMINATED NORMALLY****
TOTAL RUN TIME: 0 days 0 hours 16 minutes 5 seconds 864 msec
