                         Program Version 5.0.4 -  RELEASE  -
|  1> ! ri-mp2 aug-cc-pvdz aug-cc-pvdz/c tightscf
|  2> %pal nprocs 16 end
|  3> %maxcore 3800
|  4> %base "DZ_S-F_46_AB"
|  5>
|  6> *xyz 0 1
|  7> F         1.577711    0.708165    0.000001
|  8> S         0.499534   -0.532455    0.000000
|  9> N        -1.039868   -0.311951    0.000000
| 10> O        -1.864108    0.541182    0.000000
| 11> *
| 12>
| 13> $new_job
| 14> ! ri-mp2 aug-cc-pvtz aug-cc-pvtz/c tightscf
| 15> %pal nprocs 16 end
| 16> %maxcore 3800
| 17> %base "TZ_S-F_46_AB"
| 18>
| 19> *xyz 0 1
| 20> F         1.577711    0.708165    0.000001
| 21> S         0.499534   -0.532455    0.000000
| 22> N        -1.039868   -0.311951    0.000000
| 23> O        -1.864108    0.541182    0.000000
| 24> *
| 25>
| 26> $new_job
| 27> ! ri-mp2 aug-cc-pvqz aug-cc-pvqz/c tightscf
| 28> %pal nprocs 16 end
| 29> %maxcore 3800
| 30> %base "QZ_S-F_46_AB"
| 31>
| 32> *xyz 0 1
| 33> F         1.577711    0.708165    0.000001
| 34> S         0.499534   -0.532455    0.000000
| 35> N        -1.039868   -0.311951    0.000000
| 36> O        -1.864108    0.541182    0.000000
| 37> *
| 38>
| 39>
| 40>
| 41>
| 42>                          ****END OF INPUT****
 Total Charge           Charge          ....    0
 Multiplicity           Mult            ....    1
 Number of Electrons    NEL             ....   40
MP2 TOTAL ENERGY:     -626.889990865 Eh
FINAL SINGLE POINT ENERGY      -626.889990865213
MP2 TOTAL ENERGY:     -627.133597736 Eh
FINAL SINGLE POINT ENERGY      -627.133597736209

CARTESIAN COORDINATES (ANGSTROEM)
---------------------------------
  F      1.577711    0.708165    0.000001
  S      0.499534   -0.532455    0.000000
  N     -1.039868   -0.311951    0.000000
  O     -1.864108    0.541182    0.000000

 Multiplicity           Mult            ....    1
 Number of Electrons    NEL             ....   40
 Basis Dimension        Dim             ....  324

ORBITAL ENERGIES
----------------

  NO   OCC          E(Eh)            E(eV)
   0   2.0000     -92.113630     -2506.5393
   1   2.0000     -26.333249      -716.5641
   2   2.0000     -20.658643      -562.1502
   3   2.0000     -15.774056      -429.2339
   4   2.0000      -9.104380      -247.7428
   5   2.0000      -6.785868      -184.6529
   6   2.0000      -6.782547      -184.5625
   7   2.0000      -6.781883      -184.5444
   8   2.0000      -1.630127       -44.3580
   9   2.0000      -1.569570       -42.7102
  10   2.0000      -1.194920       -32.5154
  11   2.0000      -0.885215       -24.0879
  12   2.0000      -0.776260       -21.1231
  13   2.0000      -0.735563       -20.0157
  14   2.0000      -0.716743       -19.5036
  15   2.0000      -0.689442       -18.7607
  16   2.0000      -0.667298       -18.1581
  17   2.0000      -0.580338       -15.7918
  18   2.0000      -0.433611       -11.7991
  19   2.0000      -0.433324       -11.7913
  20   0.0000       0.045406         1.2356
  21   0.0000       0.047875         1.3027
  22   0.0000       0.055639         1.5140
  23   0.0000       0.059704         1.6246
  24   0.0000       0.075918         2.0658

MULLIKEN ATOMIC CHARGES
-----------------------
   0 F :   -0.553589
   1 S :    1.135310
   2 N :   -0.163981
   3 O :   -0.417740
Sum of atomic charges:    0.0000000

LOEWDIN ATOMIC CHARGES
----------------------
   0 F :    0.022352
   1 S :    0.510070
   2 N :   -0.806546
   3 O :    0.274124

  Mayer bond orders larger than 0.100000
B(  0-F ,  1-S ) :   0.6211 B(  1-S ,  2-N ) :   1.3545 B(  1-S ,  3-O ) :   0.1808
B(  2-N ,  3-O ) :   1.6442

MP2 TOTAL ENERGY:     -627.216377969 Eh
FINAL SINGLE POINT ENERGY      -627.216377968508

DIPOLE MOMENT
-------------
                                X             Y             Z
Electronic contribution:      1.79005       0.08622       0.00000
Nuclear contribution   :     -1.49111      -0.62669      -0.00000
                        -----------------------------------------
Total Dipole Moment    :      0.29894      -0.54046      -0.00000
                        -----------------------------------------
Magnitude (a.u.)       :      0.61763
Magnitude (Debye)      :      1.56988

Rotational constants in cm-1:     0.683928     0.133780     0.111893
Rotational constants in MHz : 20503.642377  4010.612652  3354.463247

                             ****ORCA TERMINATED NORMALLY****
TOTAL RUN TIME: 0 days 0 hours 1 minutes 0 seconds 792 msec
