                         Program Version 5.0.4 -  RELEASE  -
|  1> ! ri-mp2 aug-cc-pvdz aug-cc-pvdz/c tightscf
|  2> %pal nprocs 16 end
|  3> %maxcore 3800
|  4> %base "DZ_S-F_90_AB"
|  5> %scf
|  6> STABPerform true
|  7> STABRestartUHFifUnstable true
|  8> end
|  9>
| 10> *xyz 0 1
| 11> S        -1.250942   -0.569197   -0.000012
| 12> F        -1.709460    1.006485    0.000008
| 13> N         0.336816   -0.572732   -0.000001
| 14> C         1.192552    0.358258    0.000013
| 15> C         2.653803    0.076591    0.000005
| 16> H         2.838504   -0.995181   -0.000005
| 17> H         3.127603    0.522089    0.877579
| 18> H         3.127599    0.522105   -0.877563
| 19> H         0.870662    1.399798    0.000013
| 20> *
| 21>
| 22> $new_job
| 23> ! ri-mp2 aug-cc-pvtz aug-cc-pvtz/c tightscf
| 24> %pal nprocs 16 end
| 25> %maxcore 3800
| 26> %base "TZ_S-F_90_AB"
| 27>
| 28> *xyz 0 1
| 29> S        -1.250942   -0.569197   -0.000012
| 30> F        -1.709460    1.006485    0.000008
| 31> N         0.336816   -0.572732   -0.000001
| 32> C         1.192552    0.358258    0.000013
| 33> C         2.653803    0.076591    0.000005
| 34> H         2.838504   -0.995181   -0.000005
| 35> H         3.127603    0.522089    0.877579
| 36> H         3.127599    0.522105   -0.877563
| 37> H         0.870662    1.399798    0.000013
| 38> *
| 39>
| 40> $new_job
| 41> ! ri-mp2 aug-cc-pvqz aug-cc-pvqz/c tightscf
| 42> %pal nprocs 16 end
| 43> %maxcore 3800
| 44> %base "QZ_S-F_90_AB"
| 45>
| 46> *xyz 0 1
| 47> S        -1.250942   -0.569197   -0.000012
| 48> F        -1.709460    1.006485    0.000008
| 49> N         0.336816   -0.572732   -0.000001
| 50> C         1.192552    0.358258    0.000013
| 51> C         2.653803    0.076591    0.000005
| 52> H         2.838504   -0.995181   -0.000005
| 53> H         3.127603    0.522089    0.877579
| 54> H         3.127599    0.522105   -0.877563
| 55> H         0.870662    1.399798    0.000013
| 56> *
| 57>
| 58>
| 59>
| 60>
| 61>                          ****END OF INPUT****
 Total Charge           Charge          ....    0
 Multiplicity           Mult            ....    1
 Number of Electrons    NEL             ....   48
MP2 TOTAL ENERGY:     -630.256631265 Eh
FINAL SINGLE POINT ENERGY      -630.256631264994
MP2 TOTAL ENERGY:     -630.516708707 Eh
FINAL SINGLE POINT ENERGY      -630.516708707062

CARTESIAN COORDINATES (ANGSTROEM)
---------------------------------
  S     -1.250942   -0.569197   -0.000012
  F     -1.709460    1.006485    0.000008
  N      0.336816   -0.572732   -0.000001
  C      1.192552    0.358258    0.000013
  C      2.653803    0.076591    0.000005
  H      2.838504   -0.995181   -0.000005
  H      3.127603    0.522089    0.877579
  H      3.127599    0.522105   -0.877563
  H      0.870662    1.399798    0.000013

 Multiplicity           Mult            ....    1
 Number of Electrons    NEL             ....   48
 Basis Dimension        Dim             ....  588

ORBITAL ENERGIES
----------------

  NO   OCC          E(Eh)            E(eV)
   0   2.0000     -92.053386     -2504.9000
   1   2.0000     -26.299240      -715.6387
   2   2.0000     -15.605949      -424.6595
   3   2.0000     -11.306019      -307.6524
   4   2.0000     -11.241793      -305.9048
   5   2.0000      -9.044804      -246.1216
   6   2.0000      -6.726550      -183.0387
   7   2.0000      -6.724170      -182.9740
   8   2.0000      -6.722773      -182.9360
   9   2.0000      -1.597503       -43.4703
  10   2.0000      -1.278405       -34.7872
  11   2.0000      -1.051226       -28.6053
  12   2.0000      -0.945299       -25.7229
  13   2.0000      -0.793792       -21.6002
  14   2.0000      -0.730060       -19.8659
  15   2.0000      -0.682684       -18.5768
  16   2.0000      -0.678670       -18.4675
  17   2.0000      -0.620897       -16.8955
  18   2.0000      -0.603162       -16.4129
  19   2.0000      -0.565012       -15.3748
  20   2.0000      -0.537883       -14.6365
  21   2.0000      -0.522373       -14.2145
  22   2.0000      -0.449220       -12.2239
  23   2.0000      -0.339238        -9.2311
  24   0.0000       0.023981         0.6525
  25   0.0000       0.035208         0.9581
  26   0.0000       0.038868         1.0577
  27   0.0000       0.044032         1.1982
  28   0.0000       0.059672         1.6238

MULLIKEN ATOMIC CHARGES
-----------------------
   0 S :    0.876091
   1 F :   -0.629467
   2 N :   -0.690371
   3 C :   -0.138635
   4 C :   -0.688228
   5 H :    0.297192
   6 H :    0.254855
   7 H :    0.254859
   8 H :    0.463703
Sum of atomic charges:    0.0000000

LOEWDIN ATOMIC CHARGES
----------------------
   0 S :    0.485831
   1 F :    0.056492
   2 N :   -0.074738
   3 C :   -0.056476
   4 C :    0.872607
   5 H :   -0.325503
   6 H :   -0.300707
   7 H :   -0.300707
   8 H :   -0.356799

  Mayer bond orders larger than 0.100000
B(  0-S ,  1-F ) :   0.5567 B(  0-S ,  2-N ) :   1.1625 B(  2-N ,  3-C ) :   1.6010
B(  3-C ,  4-C ) :   0.9591 B(  3-C ,  8-H ) :   0.7313 B(  4-C ,  5-H ) :   0.9191
B(  4-C ,  6-H ) :   0.9408 B(  4-C ,  7-H ) :   0.9408

MP2 TOTAL ENERGY:     -630.601245772 Eh
FINAL SINGLE POINT ENERGY      -630.601245771850

DIPOLE MOMENT
-------------
                                X             Y             Z
Electronic contribution:    -10.31404      -0.26441      -0.00002
Nuclear contribution   :     11.32005       0.45405       0.00002
                        -----------------------------------------
Total Dipole Moment    :      1.00601       0.18965      -0.00000
                        -----------------------------------------
Magnitude (a.u.)       :      1.02373
Magnitude (Debye)      :      2.60211

Rotational constants in cm-1:     0.412629     0.070916     0.061198
Rotational constants in MHz : 12370.317490  2126.009775  1834.663223

                             ****ORCA TERMINATED NORMALLY****
TOTAL RUN TIME: 0 days 0 hours 21 minutes 27 seconds 838 msec
