                         Program Version 5.0.4 -  RELEASE  -
|  1> ! ri-mp2 aug-cc-pvdz aug-cc-pvdz/c tightscf
|  2> %pal nprocs 16 end
|  3> %maxcore 3800
|  4> %base "DZ_Si-Si_45_A"
|  5> %scf
|  6> STABPerform true
|  7> STABRestartUHFifUnstable true
|  8> end
|  9>
| 10> *xyz 0 2
| 11> Si         1.831717    0.119769   -0.189311
| 12> C        -0.943807   -0.220304    0.090530
| 13> O        -1.342162   -1.271172   -0.345153
| 14> C         0.317068   -0.139200    0.911700
| 15> H         0.447366   -1.079827    1.445737
| 16> H         0.270106    0.682075    1.628133
| 17> H         1.989634   -0.997360   -1.146464
| 18> H         1.734998    1.408962   -0.916772
| 19> C        -1.671799    1.073951   -0.163484
| 20> H        -2.447861    0.921977   -0.908465
| 21> H        -0.982038    1.852980   -0.490918
| 22> H        -2.127707    1.417119    0.767848
| 23> *
| 24>
| 25> $new_job
| 26> ! ri-mp2 aug-cc-pvtz aug-cc-pvtz/c tightscf
| 27> %pal nprocs 16 end
| 28> %maxcore 3800
| 29> %base "TZ_Si-Si_45_A"
| 30>
| 31> *xyz 0 2
| 32> Si         1.831717    0.119769   -0.189311
| 33> C        -0.943807   -0.220304    0.090530
| 34> O        -1.342162   -1.271172   -0.345153
| 35> C         0.317068   -0.139200    0.911700
| 36> H         0.447366   -1.079827    1.445737
| 37> H         0.270106    0.682075    1.628133
| 38> H         1.989634   -0.997360   -1.146464
| 39> H         1.734998    1.408962   -0.916772
| 40> C        -1.671799    1.073951   -0.163484
| 41> H        -2.447861    0.921977   -0.908465
| 42> H        -0.982038    1.852980   -0.490918
| 43> H        -2.127707    1.417119    0.767848
| 44> *
| 45>
| 46> $new_job
| 47> ! ri-mp2 aug-cc-pvqz aug-cc-pvqz/c tightscf
| 48> %pal nprocs 16 end
| 49> %maxcore 3800
| 50> %base "QZ_Si-Si_45_A"
| 51>
| 52> *xyz 0 2
| 53> Si         1.831717    0.119769   -0.189311
| 54> C        -0.943807   -0.220304    0.090530
| 55> O        -1.342162   -1.271172   -0.345153
| 56> C         0.317068   -0.139200    0.911700
| 57> H         0.447366   -1.079827    1.445737
| 58> H         0.270106    0.682075    1.628133
| 59> H         1.989634   -0.997360   -1.146464
| 60> H         1.734998    1.408962   -0.916772
| 61> C        -1.671799    1.073951   -0.163484
| 62> H        -2.447861    0.921977   -0.908465
| 63> H        -0.982038    1.852980   -0.490918
| 64> H        -2.127707    1.417119    0.767848
| 65> *
| 66>
| 67>
| 68>
| 69>
| 70>                          ****END OF INPUT****
 Total Charge           Charge          ....    0
 Multiplicity           Mult            ....    2
 Number of Electrons    NEL             ....   47
MP2 TOTAL ENERGY:     -482.172931775 Eh
FINAL SINGLE POINT ENERGY      -482.172931774987
MP2 TOTAL ENERGY:     -482.377621300 Eh
FINAL SINGLE POINT ENERGY      -482.377621300113

CARTESIAN COORDINATES (ANGSTROEM)
---------------------------------
  Si     1.831717    0.119769   -0.189311
  C     -0.943807   -0.220304    0.090530
  O     -1.342162   -1.271172   -0.345153
  C      0.317068   -0.139200    0.911700
  H      0.447366   -1.079827    1.445737
  H      0.270106    0.682075    1.628133
  H      1.989634   -0.997360   -1.146464
  H      1.734998    1.408962   -0.916772
  C     -1.671799    1.073951   -0.163484
  H     -2.447861    0.921977   -0.908465
  H     -0.982038    1.852980   -0.490918
  H     -2.127707    1.417119    0.767848

 Multiplicity           Mult            ....    2
 Number of Electrons    NEL             ....   47
 Basis Dimension        Dim             ....  726

ORBITAL ENERGIES
----------------
                 SPIN UP ORBITALS
  NO   OCC          E(Eh)            E(eV)
   0   1.0000     -68.791182     -1871.9032
   1   1.0000     -20.542029      -558.9770
   2   1.0000     -11.334256      -308.4208
   3   1.0000     -11.235363      -305.7298
   4   1.0000     -11.233793      -305.6871
   5   1.0000      -6.141348      -167.1146
   6   1.0000      -4.254060      -115.7588
   7   1.0000      -4.244106      -115.4880
   8   1.0000      -4.243979      -115.4845
   9   1.0000      -1.393487       -37.9187
  10   1.0000      -1.047608       -28.5069
  11   1.0000      -0.971632       -26.4394
  12   1.0000      -0.753074       -20.4922
  13   1.0000      -0.709457       -19.3053
  14   1.0000      -0.652014       -17.7422
  15   1.0000      -0.645423       -17.5628
  16   1.0000      -0.606190       -16.4953
  17   1.0000      -0.575317       -15.6552
  18   1.0000      -0.545888       -14.8544
  19   1.0000      -0.523564       -14.2469
  20   1.0000      -0.489173       -13.3111
  21   1.0000      -0.461320       -12.5531
  22   1.0000      -0.421823       -11.4784
  23   1.0000      -0.336629        -9.1602
  24   0.0000       0.020787         0.5656
  25   0.0000       0.030973         0.8428
  26   0.0000       0.031516         0.8576
  27   0.0000       0.036954         1.0056
  28   0.0000       0.047412         1.2901

                 SPIN DOWN ORBITALS
  NO   OCC          E(Eh)            E(eV)
   0   1.0000     -68.785414     -1871.7463
   1   1.0000     -20.540091      -558.9243
   2   1.0000     -11.334177      -308.4186
   3   1.0000     -11.235254      -305.7268
   4   1.0000     -11.233492      -305.6789
   5   1.0000      -6.132452      -166.8725
   6   1.0000      -4.240235      -115.3827
   7   1.0000      -4.240138      -115.3800
   8   1.0000      -4.231605      -115.1478
   9   1.0000      -1.389431       -37.8083
  10   1.0000      -1.044820       -28.4310
  11   1.0000      -0.969122       -26.3711
  12   1.0000      -0.744370       -20.2553
  13   1.0000      -0.677175       -18.4269
  14   1.0000      -0.650067       -17.6892
  15   1.0000      -0.642936       -17.4952
  16   1.0000      -0.601314       -16.3626
  17   1.0000      -0.573277       -15.5997
  18   1.0000      -0.544665       -14.8211
  19   1.0000      -0.516033       -14.0420
  20   1.0000      -0.481229       -13.0949
  21   1.0000      -0.453320       -12.3355
  22   1.0000      -0.412716       -11.2306
  23   0.0000       0.017804         0.4845
  24   0.0000       0.025806         0.7022
  25   0.0000       0.031705         0.8627
  26   0.0000       0.036602         0.9960
  27   0.0000       0.040582         1.1043

MULLIKEN ATOMIC CHARGES AND SPIN POPULATIONS
--------------------------------------------
   0 Si:    0.566393    0.979243
   1 C :    0.871091   -0.021505
   2 O :   -0.816954    0.046438
   3 C :   -0.646350   -0.031914
   4 H :    0.263845    0.002758
   5 H :    0.259522    0.005639
   6 H :   -0.192664    0.007790
   7 H :   -0.215705    0.005498
   8 C :   -0.931994    0.008053
   9 H :    0.310334    0.000551
  10 H :    0.255333   -0.000759
  11 H :    0.277148   -0.001791
Sum of atomic charges         :   -0.0000000

LOEWDIN ATOMIC CHARGES AND SPIN POPULATIONS
-------------------------------------------
   0 Si:    1.107969    0.535930
   1 C :   -0.765651    0.015473
   2 O :    0.732114    0.030837
   3 C :    0.375037    0.129849
   4 H :   -0.387079    0.014814
   5 H :   -0.376995    0.015633
   6 H :   -0.321929    0.125642
   7 H :   -0.324872    0.126988
   8 C :    0.871471    0.002047
   9 H :   -0.312252    0.000189
  10 H :   -0.310115    0.003119
  11 H :   -0.287699   -0.000521

  Mayer bond orders larger than 0.100000
B(  0-Si,  3-C ) :   0.7236 B(  0-Si,  6-H ) :   0.8637 B(  0-Si,  7-H ) :   0.8399
B(  1-C ,  2-O ) :   1.2150 B(  1-C ,  3-C ) :   0.9430 B(  1-C ,  8-C ) :   0.9199
B(  2-O ,  3-C ) :   0.1514 B(  2-O ,  8-C ) :   0.1163 B(  3-C ,  4-H ) :   0.9475
B(  3-C ,  5-H ) :   0.9346 B(  8-C ,  9-H ) :   0.9500 B(  8-C , 10-H ) :   0.9526
B(  8-C , 11-H ) :   0.9046

MP2 TOTAL ENERGY:     -482.442723815 Eh
FINAL SINGLE POINT ENERGY      -482.442723815010

DIPOLE MOMENT
-------------
                                X             Y             Z
Electronic contribution:      1.60133      -3.15563       0.18007
Nuclear contribution   :     -1.26354       4.23113       0.38999
                        -----------------------------------------
Total Dipole Moment    :      0.33778       1.07549       0.57006
                        -----------------------------------------
Magnitude (a.u.)       :      1.26323
Magnitude (Debye)      :      3.21087

Rotational constants in cm-1:     0.230048     0.080415     0.070485
Rotational constants in MHz :  6896.669363  2410.795619  2113.083686

                             ****ORCA TERMINATED NORMALLY****
TOTAL RUN TIME: 0 days 1 hours 48 minutes 38 seconds 104 msec
