                         Program Version 5.0.4 -  RELEASE  -
|  1> ! ri-mp2 aug-cc-pvdz aug-cc-pvdz/c tightscf
|  2> %pal nprocs 16 end
|  3> %maxcore 3800
|  4> %base "DZ_B-Si_56_AB"
|  5>
|  6> *xyz 0 1
|  7> C        -1.452711    2.253199   -0.621817
|  8> C        -0.135580    2.125608   -0.210246
|  9> C        -2.325253    1.188516   -0.501055
| 10> C        -1.844252    0.010685    0.034689
| 11> C        -0.536147   -0.132427    0.451443
| 12> C         0.348753    0.936884    0.334830
| 13> H        -0.231783   -1.081426    0.871912
| 14> H        -1.802439    3.187989   -1.038003
| 15> H         0.529322    2.974175   -0.312191
| 16> B         3.019297   -0.663402   -0.323131
| 17> O         2.347763   -1.325792   -1.306975
| 18> O         4.326769   -0.960642   -0.128769
| 19> H        -3.356991    1.254449   -0.809901
| 20> N        -2.760974   -1.133926    0.167104
| 21> O        -3.914748   -0.970729   -0.165273
| 22> O        -2.305870   -2.171463    0.598073
| 23> H         4.656050   -1.639138   -0.731376
| 24> H         1.425051   -1.077937   -1.410465
| 25> Si         2.147381    0.740336    0.855481
| 26> H         2.795830    2.064223    0.714617
| 27> H         2.191786    0.341676    2.281095
| 28> *
| 29>
| 30> $new_job
| 31> ! ri-mp2 aug-cc-pvtz aug-cc-pvtz/c tightscf
| 32> %pal nprocs 16 end
| 33> %maxcore 3800
| 34> %base "TZ_B-Si_56_AB"
| 35>
| 36> *xyz 0 1
| 37> C        -1.452711    2.253199   -0.621817
| 38> C        -0.135580    2.125608   -0.210246
| 39> C        -2.325253    1.188516   -0.501055
| 40> C        -1.844252    0.010685    0.034689
| 41> C        -0.536147   -0.132427    0.451443
| 42> C         0.348753    0.936884    0.334830
| 43> H        -0.231783   -1.081426    0.871912
| 44> H        -1.802439    3.187989   -1.038003
| 45> H         0.529322    2.974175   -0.312191
| 46> B         3.019297   -0.663402   -0.323131
| 47> O         2.347763   -1.325792   -1.306975
| 48> O         4.326769   -0.960642   -0.128769
| 49> H        -3.356991    1.254449   -0.809901
| 50> N        -2.760974   -1.133926    0.167104
| 51> O        -3.914748   -0.970729   -0.165273
| 52> O        -2.305870   -2.171463    0.598073
| 53> H         4.656050   -1.639138   -0.731376
| 54> H         1.425051   -1.077937   -1.410465
| 55> Si         2.147381    0.740336    0.855481
| 56> H         2.795830    2.064223    0.714617
| 57> H         2.191786    0.341676    2.281095
| 58> *
| 59>
| 60> $new_job
| 61> ! ri-mp2 aug-cc-pvqz aug-cc-pvqz/c tightscf
| 62> %pal nprocs 16 end
| 63> %maxcore 3800
| 64> %base "QZ_B-Si_56_AB"
| 65>
| 66> *xyz 0 1
| 67> C        -1.452711    2.253199   -0.621817
| 68> C        -0.135580    2.125608   -0.210246
| 69> C        -2.325253    1.188516   -0.501055
| 70> C        -1.844252    0.010685    0.034689
| 71> C        -0.536147   -0.132427    0.451443
| 72> C         0.348753    0.936884    0.334830
| 73> H        -0.231783   -1.081426    0.871912
| 74> H        -1.802439    3.187989   -1.038003
| 75> H         0.529322    2.974175   -0.312191
| 76> B         3.019297   -0.663402   -0.323131
| 77> O         2.347763   -1.325792   -1.306975
| 78> O         4.326769   -0.960642   -0.128769
| 79> H        -3.356991    1.254449   -0.809901
| 80> N        -2.760974   -1.133926    0.167104
| 81> O        -3.914748   -0.970729   -0.165273
| 82> O        -2.305870   -2.171463    0.598073
| 83> H         4.656050   -1.639138   -0.731376
| 84> H         1.425051   -1.077937   -1.410465
| 85> Si         2.147381    0.740336    0.855481
| 86> H         2.795830    2.064223    0.714617
| 87> H         2.191786    0.341676    2.281095
| 88> *
| 89>
| 90>
| 91>
| 92>
| 93>                          ****END OF INPUT****
 Total Charge           Charge          ....    0
 Multiplicity           Mult            ....    1
 Number of Electrons    NEL             ....  102
MP2 TOTAL ENERGY:     -901.422012329 Eh
FINAL SINGLE POINT ENERGY      -901.422012328667
MP2 TOTAL ENERGY:     -901.974174762 Eh
FINAL SINGLE POINT ENERGY      -901.974174761937

CARTESIAN COORDINATES (ANGSTROEM)
---------------------------------
  C     -1.452711    2.253199   -0.621817
  C     -0.135580    2.125608   -0.210246
  C     -2.325253    1.188516   -0.501055
  C     -1.844252    0.010685    0.034689
  C     -0.536147   -0.132427    0.451443
  C      0.348753    0.936884    0.334830
  H     -0.231783   -1.081426    0.871912
  H     -1.802439    3.187989   -1.038003
  H      0.529322    2.974175   -0.312191
  B      3.019297   -0.663402   -0.323131
  O      2.347763   -1.325792   -1.306975
  O      4.326769   -0.960642   -0.128769
  H     -3.356991    1.254449   -0.809901
  N     -2.760974   -1.133926    0.167104
  O     -3.914748   -0.970729   -0.165273
  O     -2.305870   -2.171463    0.598073
  H      4.656050   -1.639138   -0.731376
  H      1.425051   -1.077937   -1.410465
  Si     2.147381    0.740336    0.855481
  H      2.795830    2.064223    0.714617
  H      2.191786    0.341676    2.281095

 Multiplicity           Mult            ....    1
 Number of Electrons    NEL             ....  102
 Basis Dimension        Dim             .... 1412

ORBITAL ENERGIES
----------------

  NO   OCC          E(Eh)            E(eV)
   0   2.0000     -68.769895     -1871.3240
   1   2.0000     -20.604102      -560.6661
   2   2.0000     -20.603736      -560.6562
   3   2.0000     -20.583667      -560.1101
   4   2.0000     -20.576291      -559.9093
   5   2.0000     -15.857092      -431.4934
   6   2.0000     -11.312934      -307.8406
   7   2.0000     -11.279057      -306.9187
   8   2.0000     -11.277833      -306.8854
   9   2.0000     -11.274411      -306.7923
  10   2.0000     -11.266185      -306.5685
  11   2.0000     -11.253089      -306.2121
  12   2.0000      -7.649378      -208.1502
  13   2.0000      -6.121512      -166.5748
  14   2.0000      -4.227875      -115.0463
  15   2.0000      -4.227691      -115.0413
  16   2.0000      -4.227305      -115.0308
  17   2.0000      -1.622374       -44.1470
  18   2.0000      -1.412702       -38.4416
  19   2.0000      -1.398923       -38.0666
  20   2.0000      -1.358114       -36.9562
  21   2.0000      -1.208485       -32.8846
  22   2.0000      -1.098615       -29.8948
  23   2.0000      -1.058752       -28.8101
  24   2.0000      -0.965650       -26.2767
  25   2.0000      -0.871233       -23.7075
  26   2.0000      -0.836181       -22.7537
  27   2.0000      -0.797070       -21.6894
  28   2.0000      -0.785121       -21.3642
  29   2.0000      -0.752102       -20.4657
  30   2.0000      -0.737098       -20.0575
  31   2.0000      -0.732527       -19.9331
  32   2.0000      -0.717380       -19.5209
  33   2.0000      -0.702489       -19.1157
  34   2.0000      -0.667210       -18.1557
  35   2.0000      -0.642377       -17.4800
  36   2.0000      -0.622905       -16.9501
  37   2.0000      -0.588161       -16.0047
  38   2.0000      -0.587031       -15.9739
  39   2.0000      -0.575629       -15.6637
  40   2.0000      -0.552503       -15.0344
  41   2.0000      -0.547948       -14.9104
  42   2.0000      -0.514547       -14.0015
  43   2.0000      -0.505584       -13.7577
  44   2.0000      -0.500903       -13.6303
  45   2.0000      -0.489335       -13.3155
  46   2.0000      -0.475581       -12.9412
  47   2.0000      -0.462605       -12.5881
  48   2.0000      -0.435321       -11.8457
  49   2.0000      -0.383946       -10.4477
  50   2.0000      -0.370708       -10.0875
  51   0.0000       0.016310         0.4438
  52   0.0000       0.023682         0.6444
  53   0.0000       0.029042         0.7903
  54   0.0000       0.031442         0.8556
  55   0.0000       0.032066         0.8726

MULLIKEN ATOMIC CHARGES
-----------------------
   0 C :   -0.286758
   1 C :   -0.466997
   2 C :   -0.301844
   3 C :   -0.066530
   4 C :   -0.137320
   5 C :    0.112549
   6 H :    0.438768
   7 H :    0.219543
   8 H :    0.304862
   9 B :    1.395487
  10 O :   -1.187246
  11 O :   -1.086401
  12 H :    0.408032
  13 N :    0.795581
  14 O :   -0.625529
  15 O :   -0.622315
  16 H :    0.335545
  17 H :    0.403291
  18 Si:    0.794870
  19 H :   -0.255363
  20 H :   -0.172225
Sum of atomic charges:   -0.0000000

LOEWDIN ATOMIC CHARGES
----------------------
   0 C :    0.370926
   1 C :    0.281074
   2 C :    0.324452
   3 C :   -0.298040
   4 C :    0.228019
   5 C :   -0.096979
   6 H :   -0.362395
   7 H :   -0.312122
   8 H :   -0.333444
   9 B :   -1.177948
  10 O :    1.324524
  11 O :    1.279379
  12 H :   -0.345659
  13 N :   -0.841918
  14 O :    0.555224
  15 O :    0.557837
  16 H :   -0.801632
  17 H :   -0.830241
  18 Si:    0.923062
  19 H :   -0.221209
  20 H :   -0.222910

  Mayer bond orders larger than 0.100000
B(  0-C ,  1-C ) :   1.2896 B(  0-C ,  2-C ) :   1.2970 B(  0-C ,  3-C ) :  -0.2836
B(  0-C ,  4-C ) :   0.1113 B(  0-C ,  5-C ) :  -0.4005 B(  0-C ,  7-H ) :   1.1845
B(  1-C ,  2-C ) :   0.1766 B(  1-C ,  5-C ) :   0.7787 B(  1-C ,  7-H ) :  -0.1460
B(  1-C ,  8-H ) :   0.9534 B(  1-C , 18-Si) :  -0.1573 B(  2-C ,  3-C ) :   1.1934
B(  2-C ,  7-H ) :  -0.1395 B(  2-C , 12-H ) :   0.7904 B(  3-C ,  4-C ) :   1.3530
B(  3-C ,  5-C ) :  -0.4607 B(  3-C ,  6-H ) :  -0.1245 B(  3-C , 13-N ) :   0.7865
B(  3-C , 14-O ) :   0.3142 B(  3-C , 15-O ) :   0.3192 B(  4-C ,  5-C ) :   1.1547
B(  4-C ,  6-H ) :   0.7457 B(  4-C , 13-N ) :  -0.1383 B(  4-C , 15-O ) :  -0.1014
B(  4-C , 18-Si) :  -0.2203 B(  5-C ,  6-H ) :  -0.1179 B(  5-C ,  8-H ) :  -0.1292
B(  5-C , 18-Si) :   0.9230 B(  5-C , 19-H ) :  -0.1632 B(  9-B , 10-O ) :   0.4100
B(  9-B , 11-O ) :   0.4385 B(  9-B , 18-Si) :   0.7447 B( 10-O , 11-O ) :  -0.1356
B( 10-O , 17-H ) :   0.8759 B( 11-O , 16-H ) :   0.9361 B( 11-O , 18-Si) :  -0.1860
B( 13-N , 14-O ) :   1.1315 B( 13-N , 15-O ) :   1.1409 B( 18-Si, 19-H ) :   0.6856
B( 18-Si, 20-H ) :   0.7078

MP2 TOTAL ENERGY:     -902.156245895 Eh
FINAL SINGLE POINT ENERGY      -902.156245894909

DIPOLE MOMENT
-------------
                                X             Y             Z
Electronic contribution:     -2.83280      -4.87500      -0.33571
Nuclear contribution   :      3.53364       6.24328      -0.23402
                        -----------------------------------------
Total Dipole Moment    :      0.70084       1.36827      -0.56973
                        -----------------------------------------
Magnitude (a.u.)       :      1.63950
Magnitude (Debye)      :      4.16727

Rotational constants in cm-1:     0.039837     0.012777     0.010635
Rotational constants in MHz :  1194.296889   383.031947   318.815715

                             ****ORCA TERMINATED NORMALLY****
TOTAL RUN TIME: 0 days 1 hours 10 minutes 53 seconds 513 msec
