                         Program Version 5.0.4 -  RELEASE  -
|  1> ! ri-mp2 aug-cc-pvdz aug-cc-pvdz/c tightscf
|  2> %pal nprocs 16 end
|  3> %maxcore 3800
|  4> %base "DZ_B-Si_52_AB"
|  5> %scf
|  6> STABPerform true
|  7> STABRestartUHFifUnstable true
|  8> end
|  9>
| 10> *xyz 0 1
| 11> Si         0.382500   -0.011106    0.000005
| 12> B        -1.486779   -0.791252   -0.000008
| 13> O        -2.555382    0.041739   -0.000033
| 14> C         1.302634   -0.613558   -1.525596
| 15> H         0.822910   -0.270714   -2.443877
| 16> H         1.344815   -1.703497   -1.560052
| 17> C         1.302587   -0.613494    1.525659
| 18> H         1.344768   -1.703432    1.560162
| 19> H         0.822835   -0.270612    2.443911
| 20> H         2.329153   -0.241427    1.530160
| 21> H         2.329201   -0.241491   -1.530082
| 22> C         0.338048    1.863639   -0.000034
| 23> H         1.345696    2.283898   -0.000026
| 24> H        -0.184091    2.244095    0.879177
| 25> H        -0.184062    2.244060   -0.879278
| 26> H        -3.407577   -0.405545   -0.000037
| 27> H        -1.701316   -1.977026    0.000006
| 28> *
| 29>
| 30> $new_job
| 31> ! ri-mp2 aug-cc-pvtz aug-cc-pvtz/c tightscf
| 32> %pal nprocs 16 end
| 33> %maxcore 3800
| 34> %base "TZ_B-Si_52_AB"
| 35>
| 36> *xyz 0 1
| 37> Si         0.382500   -0.011106    0.000005
| 38> B        -1.486779   -0.791252   -0.000008
| 39> O        -2.555382    0.041739   -0.000033
| 40> C         1.302634   -0.613558   -1.525596
| 41> H         0.822910   -0.270714   -2.443877
| 42> H         1.344815   -1.703497   -1.560052
| 43> C         1.302587   -0.613494    1.525659
| 44> H         1.344768   -1.703432    1.560162
| 45> H         0.822835   -0.270612    2.443911
| 46> H         2.329153   -0.241427    1.530160
| 47> H         2.329201   -0.241491   -1.530082
| 48> C         0.338048    1.863639   -0.000034
| 49> H         1.345696    2.283898   -0.000026
| 50> H        -0.184091    2.244095    0.879177
| 51> H        -0.184062    2.244060   -0.879278
| 52> H        -3.407577   -0.405545   -0.000037
| 53> H        -1.701316   -1.977026    0.000006
| 54> *
| 55>
| 56> $new_job
| 57> ! ri-mp2 aug-cc-pvqz aug-cc-pvqz/c tightscf
| 58> %pal nprocs 16 end
| 59> %maxcore 3800
| 60> %base "QZ_B-Si_52_AB"
| 61>
| 62> *xyz 0 1
| 63> Si         0.382500   -0.011106    0.000005
| 64> B        -1.486779   -0.791252   -0.000008
| 65> O        -2.555382    0.041739   -0.000033
| 66> C         1.302634   -0.613558   -1.525596
| 67> H         0.822910   -0.270714   -2.443877
| 68> H         1.344815   -1.703497   -1.560052
| 69> C         1.302587   -0.613494    1.525659
| 70> H         1.344768   -1.703432    1.560162
| 71> H         0.822835   -0.270612    2.443911
| 72> H         2.329153   -0.241427    1.530160
| 73> H         2.329201   -0.241491   -1.530082
| 74> C         0.338048    1.863639   -0.000034
| 75> H         1.345696    2.283898   -0.000026
| 76> H        -0.184091    2.244095    0.879177
| 77> H        -0.184062    2.244060   -0.879278
| 78> H        -3.407577   -0.405545   -0.000037
| 79> H        -1.701316   -1.977026    0.000006
| 80> *
| 81>
| 82>
| 83>
| 84>
| 85>                          ****END OF INPUT****
 Total Charge           Charge          ....    0
 Multiplicity           Mult            ....    1
 Number of Electrons    NEL             ....   56
MP2 TOTAL ENERGY:     -509.423469640 Eh
FINAL SINGLE POINT ENERGY      -509.423469639578
MP2 TOTAL ENERGY:     -509.672431347 Eh
FINAL SINGLE POINT ENERGY      -509.672431347371

CARTESIAN COORDINATES (ANGSTROEM)
---------------------------------
  Si     0.382500   -0.011106    0.000005
  B     -1.486779   -0.791252   -0.000008
  O     -2.555382    0.041739   -0.000033
  C      1.302634   -0.613558   -1.525596
  H      0.822910   -0.270714   -2.443877
  H      1.344815   -1.703497   -1.560052
  C      1.302587   -0.613494    1.525659
  H      1.344768   -1.703432    1.560162
  H      0.822835   -0.270612    2.443911
  H      2.329153   -0.241427    1.530160
  H      2.329201   -0.241491   -1.530082
  C      0.338048    1.863639   -0.000034
  H      1.345696    2.283898   -0.000026
  H     -0.184091    2.244095    0.879177
  H     -0.184062    2.244060   -0.879278
  H     -3.407577   -0.405545   -0.000037
  H     -1.701316   -1.977026    0.000006

 Multiplicity           Mult            ....    1
 Number of Electrons    NEL             ....   56
 Basis Dimension        Dim             ....  990

ORBITAL ENERGIES
----------------

  NO   OCC          E(Eh)            E(eV)
   0   2.0000     -68.727578     -1870.1725
   1   2.0000     -20.577511      -559.9425
   2   2.0000     -11.189726      -304.4879
   3   2.0000     -11.189719      -304.4877
   4   2.0000     -11.185565      -304.3747
   5   2.0000      -7.607820      -207.0193
   6   2.0000      -6.078690      -165.4096
   7   2.0000      -4.185025      -113.8803
   8   2.0000      -4.184990      -113.8794
   9   2.0000      -4.184883      -113.8765
  10   2.0000      -1.370524       -37.2939
  11   2.0000      -0.959066       -26.0975
  12   2.0000      -0.916850       -24.9487
  13   2.0000      -0.914757       -24.8918
  14   2.0000      -0.765231       -20.8230
  15   2.0000      -0.650222       -17.6935
  16   2.0000      -0.624763       -17.0007
  17   2.0000      -0.568831       -15.4787
  18   2.0000      -0.555467       -15.1150
  19   2.0000      -0.554085       -15.0774
  20   2.0000      -0.541196       -14.7267
  21   2.0000      -0.533233       -14.5100
  22   2.0000      -0.532621       -14.4934
  23   2.0000      -0.522984       -14.2311
  24   2.0000      -0.516286       -14.0489
  25   2.0000      -0.422955       -11.5092
  26   2.0000      -0.421099       -11.4587
  27   2.0000      -0.373886       -10.1739
  28   0.0000       0.019941         0.5426
  29   0.0000       0.027979         0.7613
  30   0.0000       0.031628         0.8606
  31   0.0000       0.033289         0.9058
  32   0.0000       0.045938         1.2500

MULLIKEN ATOMIC CHARGES
-----------------------
   0 Si:    1.481003
   1 B :    0.571351
   2 O :   -1.057672
   3 C :   -1.188832
   4 H :    0.279584
   5 H :    0.283890
   6 C :   -1.188833
   7 H :    0.283890
   8 H :    0.279584
   9 H :    0.276622
  10 H :    0.276622
  11 C :   -1.195198
  12 H :    0.297767
  13 H :    0.270539
  14 H :    0.270538
  15 H :    0.352808
  16 H :   -0.293663
Sum of atomic charges:    0.0000000

LOEWDIN ATOMIC CHARGES
----------------------
   0 Si:    0.273059
   1 B :   -0.347371
   2 O :    1.280015
   3 C :    0.957568
   4 H :   -0.342051
   5 H :   -0.342994
   6 C :    0.957568
   7 H :   -0.342993
   8 H :   -0.342051
   9 H :   -0.340807
  10 H :   -0.340806
  11 C :    0.960481
  12 H :   -0.340021
  13 H :   -0.341540
  14 H :   -0.341539
  15 H :   -0.797740
  16 H :   -0.208777

  Mayer bond orders larger than 0.100000
B(  0-Si,  1-B ) :   0.7866 B(  0-Si,  2-O ) :  -0.1341 B(  0-Si,  3-C ) :   0.7767
B(  0-Si,  6-C ) :   0.7767 B(  0-Si, 11-C ) :   0.8096 B(  1-B ,  2-O ) :   0.5890
B(  1-B , 16-H ) :   0.8059 B(  2-O , 15-H ) :   0.9309 B(  3-C ,  4-H ) :   0.9556
B(  3-C ,  5-H ) :   0.9577 B(  3-C , 10-H ) :   0.9327 B(  6-C ,  7-H ) :   0.9577
B(  6-C ,  8-H ) :   0.9556 B(  6-C ,  9-H ) :   0.9327 B( 11-C , 12-H ) :   0.9279
B( 11-C , 13-H ) :   0.9661 B( 11-C , 14-H ) :   0.9662

MP2 TOTAL ENERGY:     -509.748965538 Eh
FINAL SINGLE POINT ENERGY      -509.748965538403

DIPOLE MOMENT
-------------
                                X             Y             Z
Electronic contribution:     -6.56376      -0.93523      -0.00007
Nuclear contribution   :      6.18241       0.61571       0.00007
                        -----------------------------------------
Total Dipole Moment    :     -0.38136      -0.31952       0.00000
                        -----------------------------------------
Magnitude (a.u.)       :      0.49752
Magnitude (Debye)      :      1.26460

Rotational constants in cm-1:     0.103852     0.058971     0.058148
Rotational constants in MHz :  3113.411468  1767.898136  1743.219495

                             ****ORCA TERMINATED NORMALLY****
TOTAL RUN TIME: 0 days 1 hours 56 minutes 39 seconds 394 msec
