                         Program Version 5.0.4 -  RELEASE  -
|  1> ! ri-mp2 aug-cc-pvdz aug-cc-pvdz/c tightscf
|  2> %pal nprocs 16 end
|  3> %maxcore 3800
|  4> %base "DZ_B-B_67_A"
|  5> %scf
|  6> STABPerform true
|  7> STABRestartUHFifUnstable true
|  8> end
|  9>
| 10> *xyz 0 2
| 11> B        -1.509719   -0.885565    0.000010
| 12> B        -0.170769    0.010253    0.000001
| 13> O        -0.253298    1.381384   -0.000001
| 14> C         1.238715   -0.709607   -0.000008
| 15> H         0.603575    1.817529   -0.000010
| 16> H         1.193689   -1.799078   -0.000014
| 17> H         1.814727   -0.408795    0.880670
| 18> H         1.814728   -0.408783   -0.880681
| 19> H        -2.430182   -1.617743    0.000037
| 20> *
| 21>
| 22> $new_job
| 23> ! ri-mp2 aug-cc-pvtz aug-cc-pvtz/c tightscf
| 24> %pal nprocs 16 end
| 25> %maxcore 3800
| 26> %base "TZ_B-B_67_A"
| 27>
| 28> *xyz 0 2
| 29> B        -1.509719   -0.885565    0.000010
| 30> B        -0.170769    0.010253    0.000001
| 31> O        -0.253298    1.381384   -0.000001
| 32> C         1.238715   -0.709607   -0.000008
| 33> H         0.603575    1.817529   -0.000010
| 34> H         1.193689   -1.799078   -0.000014
| 35> H         1.814727   -0.408795    0.880670
| 36> H         1.814728   -0.408783   -0.880681
| 37> H        -2.430182   -1.617743    0.000037
| 38> *
| 39>
| 40> $new_job
| 41> ! ri-mp2 aug-cc-pvqz aug-cc-pvqz/c tightscf
| 42> %pal nprocs 16 end
| 43> %maxcore 3800
| 44> %base "QZ_B-B_67_A"
| 45>
| 46> *xyz 0 2
| 47> B        -1.509719   -0.885565    0.000010
| 48> B        -0.170769    0.010253    0.000001
| 49> O        -0.253298    1.381384   -0.000001
| 50> C         1.238715   -0.709607   -0.000008
| 51> H         0.603575    1.817529   -0.000010
| 52> H         1.193689   -1.799078   -0.000014
| 53> H         1.814727   -0.408795    0.880670
| 54> H         1.814728   -0.408783   -0.880681
| 55> H        -2.430182   -1.617743    0.000037
| 56> *
| 57>
| 58>
| 59>
| 60>
| 61>                          ****END OF INPUT****
 Total Charge           Charge          ....    0
 Multiplicity           Mult            ....    2
 Number of Electrons    NEL             ....   29
MP2 TOTAL ENERGY:     -165.500259441 Eh
FINAL SINGLE POINT ENERGY      -165.500259440776
MP2 TOTAL ENERGY:     -165.648113278 Eh
FINAL SINGLE POINT ENERGY      -165.648113278219

CARTESIAN COORDINATES (ANGSTROEM)
---------------------------------
  B     -1.509719   -0.885565    0.000010
  B     -0.170769    0.010253    0.000001
  O     -0.253298    1.381384   -0.000001
  C      1.238715   -0.709607   -0.000008
  H      0.603575    1.817529   -0.000010
  H      1.193689   -1.799078   -0.000014
  H      1.814727   -0.408795    0.880670
  H      1.814728   -0.408783   -0.880681
  H     -2.430182   -1.617743    0.000037

 Multiplicity           Mult            ....    2
 Number of Electrons    NEL             ....   29
 Basis Dimension        Dim             ....  550

ORBITAL ENERGIES
----------------
                 SPIN UP ORBITALS
  NO   OCC          E(Eh)            E(eV)
   0   1.0000     -20.560115      -559.4692
   1   1.0000     -11.196615      -304.6754
   2   1.0000      -7.618179      -207.3012
   3   1.0000      -7.599637      -206.7966
   4   1.0000      -1.355591       -36.8875
   5   1.0000      -0.949252       -25.8304
   6   1.0000      -0.762943       -20.7607
   7   1.0000      -0.672017       -18.2865
   8   1.0000      -0.614179       -16.7127
   9   1.0000      -0.569242       -15.4899
  10   1.0000      -0.568498       -15.4696
  11   1.0000      -0.522691       -14.2231
  12   1.0000      -0.519161       -14.1271
  13   1.0000      -0.440590       -11.9891
  14   1.0000      -0.302000        -8.2178
  15   0.0000       0.022907         0.6233
  16   0.0000       0.028258         0.7689
  17   0.0000       0.031523         0.8578
  18   0.0000       0.037942         1.0324
  19   0.0000       0.047916         1.3039

                 SPIN DOWN ORBITALS
  NO   OCC          E(Eh)            E(eV)
   0   1.0000     -20.558009      -559.4119
   1   1.0000     -11.197009      -304.6861
   2   1.0000      -7.606442      -206.9818
   3   1.0000      -7.600323      -206.8153
   4   1.0000      -1.350248       -36.7421
   5   1.0000      -0.948181       -25.8013
   6   1.0000      -0.749457       -20.3938
   7   1.0000      -0.629762       -17.1367
   8   1.0000      -0.612763       -16.6741
   9   1.0000      -0.564774       -15.3683
  10   1.0000      -0.560049       -15.2397
  11   1.0000      -0.516435       -14.0529
  12   1.0000      -0.507824       -13.8186
  13   1.0000      -0.432605       -11.7718
  14   0.0000       0.023321         0.6346
  15   0.0000       0.028426         0.7735
  16   0.0000       0.033688         0.9167
  17   0.0000       0.034353         0.9348
  18   0.0000       0.048185         1.3112

MULLIKEN ATOMIC CHARGES AND SPIN POPULATIONS
--------------------------------------------
   0 B :    0.397877    0.954437
   1 B :    0.793128    0.057712
   2 O :   -1.079082    0.029331
   3 C :   -0.859635   -0.007110
   4 H :    0.332499   -0.005759
   5 H :    0.281503   -0.000207
   6 H :    0.240198    0.004219
   7 H :    0.240201    0.004219
   8 H :   -0.346688   -0.036841
Sum of atomic charges         :   -0.0000000

LOEWDIN ATOMIC CHARGES AND SPIN POPULATIONS
-------------------------------------------
   0 B :    0.529278    0.454584
   1 B :   -0.812834    0.262147
   2 O :    1.303630    0.052020
   3 C :    0.977186    0.049166
   4 H :   -0.792667    0.002439
   5 H :   -0.319915    0.006355
   6 H :   -0.304893    0.003900
   7 H :   -0.304892    0.003900
   8 H :   -0.274894    0.165489

  Mayer bond orders larger than 0.100000
B(  0-B ,  1-B ) :   1.3010 B(  0-B ,  2-O ) :  -0.1354 B(  0-B ,  8-H ) :   0.9168
B(  1-B ,  2-O ) :   0.4668 B(  1-B ,  3-C ) :   0.8439 B(  2-O ,  4-H ) :   0.9236
B(  3-C ,  5-H ) :   0.9319 B(  3-C ,  6-H ) :   0.9417 B(  3-C ,  7-H ) :   0.9417

MP2 TOTAL ENERGY:     -165.694766687 Eh
FINAL SINGLE POINT ENERGY      -165.694766687294

DIPOLE MOMENT
-------------
                                X             Y             Z
Electronic contribution:     -3.88668       1.52487       0.00001
Nuclear contribution   :      4.33032      -1.68340      -0.00001
                        -----------------------------------------
Total Dipole Moment    :      0.44363      -0.15853       0.00000
                        -----------------------------------------
Magnitude (a.u.)       :      0.47111
Magnitude (Debye)      :      1.19746

Rotational constants in cm-1:     0.300347     0.280789     0.149134
Rotational constants in MHz :  9004.177597  8417.848256  4470.932528

                             ****ORCA TERMINATED NORMALLY****
TOTAL RUN TIME: 0 days 0 hours 26 minutes 0 seconds 220 msec
