                         Program Version 5.0.4 -  RELEASE  -
|  1> ! ri-mp2 aug-cc-pvdz aug-cc-pvdz/c tightscf
|  2> %pal nprocs 16 end
|  3> %maxcore 3800
|  4> %base "DZ_S-F_60_AB"
|  5>
|  6> *xyz 0 1
|  7> F        -2.063437    0.728244   -0.190674
|  8> S        -1.126811   -0.564980    0.094365
|  9> C         0.399102    0.247453    0.209313
| 10> N         1.407310   -0.342372   -0.274188
| 11> H         0.461298    1.182398    0.763053
| 12> O         2.579363    0.302719    0.062480
| 13> H         3.257934   -0.206775   -0.393227
| 14> *
| 15>
| 16> $new_job
| 17> ! ri-mp2 aug-cc-pvtz aug-cc-pvtz/c tightscf
| 18> %pal nprocs 16 end
| 19> %maxcore 3800
| 20> %base "TZ_S-F_60_AB"
| 21>
| 22> *xyz 0 1
| 23> F        -2.063437    0.728244   -0.190674
| 24> S        -1.126811   -0.564980    0.094365
| 25> C         0.399102    0.247453    0.209313
| 26> N         1.407310   -0.342372   -0.274188
| 27> H         0.461298    1.182398    0.763053
| 28> O         2.579363    0.302719    0.062480
| 29> H         3.257934   -0.206775   -0.393227
| 30> *
| 31>
| 32> $new_job
| 33> ! ri-mp2 aug-cc-pvqz aug-cc-pvqz/c tightscf
| 34> %pal nprocs 16 end
| 35> %maxcore 3800
| 36> %base "QZ_S-F_60_AB"
| 37>
| 38> *xyz 0 1
| 39> F        -2.063437    0.728244   -0.190674
| 40> S        -1.126811   -0.564980    0.094365
| 41> C         0.399102    0.247453    0.209313
| 42> N         1.407310   -0.342372   -0.274188
| 43> H         0.461298    1.182398    0.763053
| 44> O         2.579363    0.302719    0.062480
| 45> H         3.257934   -0.206775   -0.393227
| 46> *
| 47>
| 48>
| 49>
| 50>
| 51>                          ****END OF INPUT****
 Total Charge           Charge          ....    0
 Multiplicity           Mult            ....    1
 Number of Electrons    NEL             ....   48
MP2 TOTAL ENERGY:     -666.088352627 Eh
FINAL SINGLE POINT ENERGY      -666.088352627043
MP2 TOTAL ENERGY:     -666.366504702 Eh
FINAL SINGLE POINT ENERGY      -666.366504701608

CARTESIAN COORDINATES (ANGSTROEM)
---------------------------------
  F     -2.063437    0.728244   -0.190674
  S     -1.126811   -0.564980    0.094365
  C      0.399102    0.247453    0.209313
  N      1.407310   -0.342372   -0.274188
  H      0.461298    1.182398    0.763053
  O      2.579363    0.302719    0.062480
  H      3.257934   -0.206775   -0.393227

 Multiplicity           Mult            ....    1
 Number of Electrons    NEL             ....   48
 Basis Dimension        Dim             ....  496

ORBITAL ENERGIES
----------------

  NO   OCC          E(Eh)            E(eV)
   0   2.0000     -92.051708     -2504.8543
   1   2.0000     -26.320878      -716.2275
   2   2.0000     -20.624651      -561.2253
   3   2.0000     -15.657193      -426.0539
   4   2.0000     -11.320331      -308.0419
   5   2.0000      -9.046206      -246.1598
   6   2.0000      -6.727723      -183.0706
   7   2.0000      -6.725916      -183.0215
   8   2.0000      -6.724526      -182.9837
   9   2.0000      -1.620489       -44.0957
  10   2.0000      -1.463162       -39.8147
  11   2.0000      -1.201727       -32.7006
  12   2.0000      -1.006649       -27.3923
  13   2.0000      -0.818562       -22.2742
  14   2.0000      -0.758805       -20.6481
  15   2.0000      -0.710581       -19.3359
  16   2.0000      -0.702628       -19.1195
  17   2.0000      -0.676581       -18.4107
  18   2.0000      -0.669670       -18.2226
  19   2.0000      -0.624473       -16.9928
  20   2.0000      -0.532348       -14.4859
  21   2.0000      -0.472487       -12.8570
  22   2.0000      -0.462754       -12.5922
  23   2.0000      -0.369912       -10.0658
  24   0.0000       0.025866         0.7039
  25   0.0000       0.037610         1.0234
  26   0.0000       0.049879         1.3573
  27   0.0000       0.058655         1.5961
  28   0.0000       0.073621         2.0033

MULLIKEN ATOMIC CHARGES
-----------------------
   0 F :   -0.607151
   1 S :    0.766614
   2 C :   -0.322743
   3 N :   -0.118608
   4 H :    0.482286
   5 O :   -0.537472
   6 H :    0.337073
Sum of atomic charges:    0.0000000

LOEWDIN ATOMIC CHARGES
----------------------
   0 F :    0.070141
   1 S :    0.647056
   2 C :   -0.505355
   3 N :    0.116283
   4 H :   -0.446126
   5 O :    0.987436
   6 H :   -0.869434

  Mayer bond orders larger than 0.100000
B(  0-F ,  1-S ) :   0.6093 B(  1-S ,  2-C ) :   0.9669 B(  2-C ,  3-N ) :   1.7626
B(  2-C ,  4-H ) :   0.7315 B(  3-N ,  5-O ) :   0.8442 B(  5-O ,  6-H ) :   0.9360

MP2 TOTAL ENERGY:     -666.459638660 Eh
FINAL SINGLE POINT ENERGY      -666.459638660212

DIPOLE MOMENT
-------------
                                X             Y             Z
Electronic contribution:     -4.92140      -0.36707      -0.40850
Nuclear contribution   :      5.53711       0.26223       0.52577
                        -----------------------------------------
Total Dipole Moment    :      0.61570      -0.10484       0.11727
                        -----------------------------------------
Magnitude (a.u.)       :      0.63548
Magnitude (Debye)      :      1.61526

Rotational constants in cm-1:     0.582346     0.062077     0.057355
Rotational constants in MHz : 17458.303717  1861.008028  1719.457131

                             ****ORCA TERMINATED NORMALLY****
TOTAL RUN TIME: 0 days 0 hours 2 minutes 19 seconds 364 msec
