                         Program Version 5.0.4 -  RELEASE  -
|  1> ! ri-mp2 aug-cc-pvdz aug-cc-pvdz/c tightscf
|  2> %pal nprocs 16 end
|  3> %maxcore 3800
|  4> %base "DZ_B-P_52_AB"
|  5> %scf
|  6> STABPerform true
|  7> STABRestartUHFifUnstable true
|  8> end
|  9>
| 10> *xyz 0 1
| 11> C         1.772382    1.579234    0.010573
| 12> B         1.604403    0.019994    0.001441
| 13> H         1.486551    1.942013    1.004902
| 14> H         1.147703    2.113647   -0.702827
| 15> H         2.810941    1.880051   -0.140105
| 16> C         2.816482   -0.892035    0.393761
| 17> H         3.616754   -0.753982   -0.341194
| 18> H         2.604270   -1.957755    0.464792
| 19> H         3.237425   -0.559412    1.347625
| 20> P         0.000000   -0.778252   -0.537502
| 21> B        -1.604403    0.019994    0.001440
| 22> C        -2.816481   -0.892036    0.393763
| 23> H        -3.616755   -0.753984   -0.341189
| 24> H        -3.237421   -0.559412    1.347628
| 25> H        -2.604269   -1.957756    0.464795
| 26> C        -1.772383    1.579233    0.010570
| 27> H        -1.486545    1.942016    1.004896
| 28> H        -2.810944    1.880049   -0.140102
| 29> H        -1.147710    2.113645   -0.702837
| 30> H         0.000000   -2.101662   -0.070261
| 31> *
| 32>
| 33> $new_job
| 34> ! ri-mp2 aug-cc-pvtz aug-cc-pvtz/c tightscf
| 35> %pal nprocs 16 end
| 36> %maxcore 3800
| 37> %base "TZ_B-P_52_AB"
| 38>
| 39> *xyz 0 1
| 40> C         1.772382    1.579234    0.010573
| 41> B         1.604403    0.019994    0.001441
| 42> H         1.486551    1.942013    1.004902
| 43> H         1.147703    2.113647   -0.702827
| 44> H         2.810941    1.880051   -0.140105
| 45> C         2.816482   -0.892035    0.393761
| 46> H         3.616754   -0.753982   -0.341194
| 47> H         2.604270   -1.957755    0.464792
| 48> H         3.237425   -0.559412    1.347625
| 49> P         0.000000   -0.778252   -0.537502
| 50> B        -1.604403    0.019994    0.001440
| 51> C        -2.816481   -0.892036    0.393763
| 52> H        -3.616755   -0.753984   -0.341189
| 53> H        -3.237421   -0.559412    1.347628
| 54> H        -2.604269   -1.957756    0.464795
| 55> C        -1.772383    1.579233    0.010570
| 56> H        -1.486545    1.942016    1.004896
| 57> H        -2.810944    1.880049   -0.140102
| 58> H        -1.147710    2.113645   -0.702837
| 59> H         0.000000   -2.101662   -0.070261
| 60> *
| 61>
| 62> $new_job
| 63> ! ri-mp2 aug-cc-pvqz aug-cc-pvqz/c tightscf
| 64> %pal nprocs 16 end
| 65> %maxcore 3800
| 66> %base "QZ_B-P_52_AB"
| 67>
| 68> *xyz 0 1
| 69> C         1.772382    1.579234    0.010573
| 70> B         1.604403    0.019994    0.001441
| 71> H         1.486551    1.942013    1.004902
| 72> H         1.147703    2.113647   -0.702827
| 73> H         2.810941    1.880051   -0.140105
| 74> C         2.816482   -0.892035    0.393761
| 75> H         3.616754   -0.753982   -0.341194
| 76> H         2.604270   -1.957755    0.464792
| 77> H         3.237425   -0.559412    1.347625
| 78> P         0.000000   -0.778252   -0.537502
| 79> B        -1.604403    0.019994    0.001440
| 80> C        -2.816481   -0.892036    0.393763
| 81> H        -3.616755   -0.753984   -0.341189
| 82> H        -3.237421   -0.559412    1.347628
| 83> H        -2.604269   -1.957756    0.464795
| 84> C        -1.772383    1.579233    0.010570
| 85> H        -1.486545    1.942016    1.004896
| 86> H        -2.810944    1.880049   -0.140102
| 87> H        -1.147710    2.113645   -0.702837
| 88> H         0.000000   -2.101662   -0.070261
| 89> *
| 90>
| 91>
| 92>
| 93>
| 94>                          ****END OF INPUT****
 Total Charge           Charge          ....    0
 Multiplicity           Mult            ....    1
 Number of Electrons    NEL             ....   62
MP2 TOTAL ENERGY:     -550.112575702 Eh
FINAL SINGLE POINT ENERGY      -550.112575701971
MP2 TOTAL ENERGY:     -550.358021507 Eh
FINAL SINGLE POINT ENERGY      -550.358021506577

CARTESIAN COORDINATES (ANGSTROEM)
---------------------------------
  C      1.772382    1.579234    0.010573
  B      1.604403    0.019994    0.001441
  H      1.486551    1.942013    1.004902
  H      1.147703    2.113647   -0.702827
  H      2.810941    1.880051   -0.140105
  C      2.816482   -0.892035    0.393761
  H      3.616754   -0.753982   -0.341194
  H      2.604270   -1.957755    0.464792
  H      3.237425   -0.559412    1.347625
  P      0.000000   -0.778252   -0.537502
  B     -1.604403    0.019994    0.001440
  C     -2.816481   -0.892036    0.393763
  H     -3.616755   -0.753984   -0.341189
  H     -3.237421   -0.559412    1.347628
  H     -2.604269   -1.957756    0.464795
  C     -1.772383    1.579233    0.010570
  H     -1.486545    1.942016    1.004896
  H     -2.810944    1.880049   -0.140102
  H     -1.147710    2.113645   -0.702837
  H      0.000000   -2.101662   -0.070261

 Multiplicity           Mult            ....    1
 Number of Electrons    NEL             ....   62
 Basis Dimension        Dim             .... 1162

ORBITAL ENERGIES
----------------

  NO   OCC          E(Eh)            E(eV)
   0   2.0000     -79.896133     -2174.0843
   1   2.0000     -11.193659      -304.5950
   2   2.0000     -11.193657      -304.5949
   3   2.0000     -11.193159      -304.5813
   4   2.0000     -11.193159      -304.5813
   5   2.0000      -7.598921      -206.7772
   6   2.0000      -7.598917      -206.7771
   7   2.0000      -7.446241      -202.6225
   8   2.0000      -5.340958      -145.3348
   9   2.0000      -5.340918      -145.3338
  10   2.0000      -5.340402      -145.3197
  11   2.0000      -0.979234       -26.6463
  12   2.0000      -0.968538       -26.3553
  13   2.0000      -0.927717       -25.2445
  14   2.0000      -0.922392       -25.0996
  15   2.0000      -0.832808       -22.6619
  16   2.0000      -0.629325       -17.1248
  17   2.0000      -0.604882       -16.4597
  18   2.0000      -0.578143       -15.7321
  19   2.0000      -0.575995       -15.6736
  20   2.0000      -0.565076       -15.3765
  21   2.0000      -0.557569       -15.1722
  22   2.0000      -0.537450       -14.6248
  23   2.0000      -0.533197       -14.5090
  24   2.0000      -0.532111       -14.4795
  25   2.0000      -0.528339       -14.3768
  26   2.0000      -0.482947       -13.1416
  27   2.0000      -0.460662       -12.5352
  28   2.0000      -0.447146       -12.1675
  29   2.0000      -0.404009       -10.9936
  30   2.0000      -0.327804        -8.9200
  31   0.0000       0.021513         0.5854
  32   0.0000       0.026849         0.7306
  33   0.0000       0.032005         0.8709
  34   0.0000       0.033015         0.8984
  35   0.0000       0.042066         1.1447

MULLIKEN ATOMIC CHARGES
-----------------------
   0 C :   -1.063284
   1 B :    0.202194
   2 H :    0.277341
   3 H :    0.348861
   4 H :    0.355892
   5 C :   -1.096471
   6 H :    0.281729
   7 H :    0.326179
   8 H :    0.303588
   9 P :    0.245564
  10 B :    0.202191
  11 C :   -1.096470
  12 H :    0.281732
  13 H :    0.303585
  14 H :    0.326177
  15 C :   -1.063278
  16 H :    0.277338
  17 H :    0.355890
  18 H :    0.348859
  19 H :   -0.117617
Sum of atomic charges:   -0.0000000

LOEWDIN ATOMIC CHARGES
----------------------
   0 C :    0.994325
   1 B :   -0.710331
   2 H :   -0.291455
   3 H :   -0.328233
   4 H :   -0.298171
   5 C :    0.988708
   6 H :   -0.298991
   7 H :   -0.324503
   8 H :   -0.297694
   9 P :    1.548193
  10 B :   -0.710332
  11 C :    0.988708
  12 H :   -0.298991
  13 H :   -0.297694
  14 H :   -0.324503
  15 C :    0.994324
  16 H :   -0.291455
  17 H :   -0.298171
  18 H :   -0.328232
  19 H :   -0.415503

  Mayer bond orders larger than 0.100000
B(  0-C ,  1-B ) :   0.9842 B(  0-C ,  2-H ) :   0.8931 B(  0-C ,  3-H ) :   0.8789
B(  0-C ,  4-H ) :   0.8661 B(  1-B ,  5-C ) :   0.9276 B(  1-B ,  9-P ) :   1.1230
B(  1-B , 10-B ) :  -0.1838 B(  5-C ,  6-H ) :   0.9161 B(  5-C ,  7-H ) :   0.8835
B(  5-C ,  8-H ) :   0.9073 B(  9-P , 10-B ) :   1.1231 B(  9-P , 19-H ) :   1.1364
B( 10-B , 11-C ) :   0.9276 B( 10-B , 15-C ) :   0.9842 B( 11-C , 12-H ) :   0.9161
B( 11-C , 13-H ) :   0.9073 B( 11-C , 14-H ) :   0.8835 B( 15-C , 16-H ) :   0.8931
B( 15-C , 17-H ) :   0.8661 B( 15-C , 18-H ) :   0.8789

MP2 TOTAL ENERGY:     -550.431980106 Eh
FINAL SINGLE POINT ENERGY      -550.431980106401

DIPOLE MOMENT
-------------
                                X             Y             Z
Electronic contribution:      0.00000      -3.84576      -3.44526
Nuclear contribution   :     -0.00000       4.02981       3.79362
                        -----------------------------------------
Total Dipole Moment    :      0.00000       0.18405       0.34836
                        -----------------------------------------
Magnitude (a.u.)       :      0.39399
Magnitude (Debye)      :      1.00144

Rotational constants in cm-1:     0.108538     0.039591     0.031144
Rotational constants in MHz :  3253.887617  1186.914830   933.659173

                             ****ORCA TERMINATED NORMALLY****
TOTAL RUN TIME: 0 days 2 hours 34 minutes 35 seconds 333 msec
