                         Program Version 5.0.4 -  RELEASE  -
|  1> ! ri-mp2 aug-cc-pvdz aug-cc-pvdz/c tightscf
|  2> %pal nprocs 16 end
|  3> %maxcore 3800
|  4> %base "DZ_S-Cl_17_AB"
|  5>
|  6> *xyz 0 1
|  7> Cl        -1.813669   -0.845528    0.160585
|  8> S        -0.978097    0.992863   -0.027004
|  9> C         0.527351    0.561335   -0.850875
| 10> N         1.558159   -0.107364    0.035913
| 11> H         0.979561    1.500487   -1.170421
| 12> H         0.372618   -0.102231   -1.694493
| 13> O         1.785407    0.393225    1.107571
| 14> O         2.096910   -1.084044   -0.429958
| 15> *
| 16>
| 17> $new_job
| 18> ! ri-mp2 aug-cc-pvtz aug-cc-pvtz/c tightscf
| 19> %pal nprocs 16 end
| 20> %maxcore 3800
| 21> %base "TZ_S-Cl_17_AB"
| 22>
| 23> *xyz 0 1
| 24> Cl        -1.813669   -0.845528    0.160585
| 25> S        -0.978097    0.992863   -0.027004
| 26> C         0.527351    0.561335   -0.850875
| 27> N         1.558159   -0.107364    0.035913
| 28> H         0.979561    1.500487   -1.170421
| 29> H         0.372618   -0.102231   -1.694493
| 30> O         1.785407    0.393225    1.107571
| 31> O         2.096910   -1.084044   -0.429958
| 32> *
| 33>
| 34> $new_job
| 35> ! ri-mp2 aug-cc-pvqz aug-cc-pvqz/c tightscf
| 36> %pal nprocs 16 end
| 37> %maxcore 3800
| 38> %base "QZ_S-Cl_17_AB"
| 39>
| 40> *xyz 0 1
| 41> Cl        -1.813669   -0.845528    0.160585
| 42> S        -0.978097    0.992863   -0.027004
| 43> C         0.527351    0.561335   -0.850875
| 44> N         1.558159   -0.107364    0.035913
| 45> H         0.979561    1.500487   -1.170421
| 46> H         0.372618   -0.102231   -1.694493
| 47> O         1.785407    0.393225    1.107571
| 48> O         2.096910   -1.084044   -0.429958
| 49> *
| 50>
| 51>
| 52>
| 53>
| 54>                          ****END OF INPUT****
 Total Charge           Charge          ....    0
 Multiplicity           Mult            ....    1
 Number of Electrons    NEL             ....   64
MP2 TOTAL ENERGY:    -1101.150733962 Eh
FINAL SINGLE POINT ENERGY     -1101.150733961805
MP2 TOTAL ENERGY:    -1101.468421767 Eh
FINAL SINGLE POINT ENERGY     -1101.468421767452

CARTESIAN COORDINATES (ANGSTROEM)
---------------------------------
  Cl    -1.813669   -0.845528    0.160585
  S     -0.978097    0.992863   -0.027004
  C      0.527351    0.561335   -0.850875
  N      1.558159   -0.107364    0.035913
  H      0.979561    1.500487   -1.170421
  H      0.372618   -0.102231   -1.694493
  O      1.785407    0.393225    1.107571
  O      2.096910   -1.084044   -0.429958

 Multiplicity           Mult            ....    1
 Number of Electrons    NEL             ....   64
 Basis Dimension        Dim             ....  580

ORBITAL ENERGIES
----------------

  NO   OCC          E(Eh)            E(eV)
   0   2.0000    -104.878219     -2853.8814
   1   2.0000     -92.046453     -2504.7113
   2   2.0000     -20.617456      -561.0295
   3   2.0000     -20.616063      -560.9916
   4   2.0000     -15.862717      -431.6465
   5   2.0000     -11.358396      -309.0777
   6   2.0000     -10.602490      -288.5084
   7   2.0000      -9.044553      -246.1148
   8   2.0000      -8.069507      -219.5824
   9   2.0000      -8.067494      -219.5277
  10   2.0000      -8.067290      -219.5221
  11   2.0000      -6.725661      -183.0145
  12   2.0000      -6.724287      -182.9771
  13   2.0000      -6.722979      -182.9416
  14   2.0000      -1.633999       -44.4634
  15   2.0000      -1.427450       -38.8429
  16   2.0000      -1.190771       -32.4025
  17   2.0000      -1.113468       -30.2990
  18   2.0000      -0.957469       -26.0541
  19   2.0000      -0.853068       -23.2132
  20   2.0000      -0.777144       -21.1472
  21   2.0000      -0.756362       -20.5817
  22   2.0000      -0.740651       -20.1541
  23   2.0000      -0.666619       -18.1396
  24   2.0000      -0.603935       -16.4339
  25   2.0000      -0.552738       -15.0408
  26   2.0000      -0.535155       -14.5623
  27   2.0000      -0.512498       -13.9458
  28   2.0000      -0.505529       -13.7561
  29   2.0000      -0.473170       -12.8756
  30   2.0000      -0.470766       -12.8102
  31   2.0000      -0.394964       -10.7475
  32   0.0000       0.020142         0.5481
  33   0.0000       0.032722         0.8904
  34   0.0000       0.045642         1.2420
  35   0.0000       0.046059         1.2533
  36   0.0000       0.068750         1.8708

MULLIKEN ATOMIC CHARGES
-----------------------
   0 Cl:   -0.270037
   1 S :    0.283329
   2 C :   -0.512482
   3 N :    0.838499
   4 H :    0.349697
   5 H :    0.397872
   6 O :   -0.532451
   7 O :   -0.554427
Sum of atomic charges:    0.0000000

LOEWDIN ATOMIC CHARGES
----------------------
   0 Cl:    0.521654
   1 S :    0.467067
   2 C :   -0.234249
   3 N :   -0.947501
   4 H :   -0.409673
   5 H :   -0.448625
   6 O :    0.512744
   7 O :    0.538583

  Mayer bond orders larger than 0.100000
B(  0-Cl,  1-S ) :   0.9956 B(  0-Cl,  2-C ) :  -0.1041 B(  1-S ,  2-C ) :   1.0466
B(  2-C ,  3-N ) :   0.8375 B(  2-C ,  4-H ) :   0.8226 B(  2-C ,  5-H ) :   0.8151
B(  3-N ,  6-O ) :   1.3741 B(  3-N ,  7-O ) :   1.3251 B(  6-O ,  7-O ) :   0.1491

MP2 TOTAL ENERGY:    -1101.574574963 Eh
FINAL SINGLE POINT ENERGY     -1101.574574963202

DIPOLE MOMENT
-------------
                                X             Y             Z
Electronic contribution:     -4.41081      -1.60917       1.89897
Nuclear contribution   :      3.81425       2.41794      -2.90531
                        -----------------------------------------
Total Dipole Moment    :     -0.59656       0.80877      -1.00634
                        -----------------------------------------
Magnitude (a.u.)       :      1.42222
Magnitude (Debye)      :      3.61500

Rotational constants in cm-1:     0.139518     0.049096     0.043068
Rotational constants in MHz :  4182.656498  1471.856109  1291.159515

                             ****ORCA TERMINATED NORMALLY****
TOTAL RUN TIME: 0 days 0 hours 4 minutes 53 seconds 25 msec
