                         Program Version 5.0.4 -  RELEASE  -
|  1> ! ri-mp2 aug-cc-pvdz aug-cc-pvdz/c tightscf
|  2> %pal nprocs 16 end
|  3> %maxcore 3800
|  4> %base "DZ_B-Si_50_B"
|  5> %scf
|  6> STABPerform true
|  7> STABRestartUHFifUnstable true
|  8> end
|  9>
| 10> *xyz 0 2
| 11> C         1.389917    0.168842   -0.000006
| 12> B         0.115330    0.875336    0.000023
| 13> Si        -1.570211   -0.192481    0.000001
| 14> O         2.370128   -0.421846   -0.000015
| 15> H         0.165682    2.060678    0.000037
| 16> H        -1.304269   -1.649157   -0.000016
| 17> H        -2.377813    0.134138   -1.198107
| 18> H        -2.377819    0.134111    1.198112
| 19> *
| 20>
| 21> $new_job
| 22> ! ri-mp2 aug-cc-pvtz aug-cc-pvtz/c tightscf
| 23> %pal nprocs 16 end
| 24> %maxcore 3800
| 25> %base "TZ_B-Si_50_B"
| 26>
| 27> *xyz 0 2
| 28> C         1.389917    0.168842   -0.000006
| 29> B         0.115330    0.875336    0.000023
| 30> Si        -1.570211   -0.192481    0.000001
| 31> O         2.370128   -0.421846   -0.000015
| 32> H         0.165682    2.060678    0.000037
| 33> H        -1.304269   -1.649157   -0.000016
| 34> H        -2.377813    0.134138   -1.198107
| 35> H        -2.377819    0.134111    1.198112
| 36> *
| 37>
| 38> $new_job
| 39> ! ri-mp2 aug-cc-pvqz aug-cc-pvqz/c tightscf
| 40> %pal nprocs 16 end
| 41> %maxcore 3800
| 42> %base "QZ_B-Si_50_B"
| 43>
| 44> *xyz 0 2
| 45> C         1.389917    0.168842   -0.000006
| 46> B         0.115330    0.875336    0.000023
| 47> Si        -1.570211   -0.192481    0.000001
| 48> O         2.370128   -0.421846   -0.000015
| 49> H         0.165682    2.060678    0.000037
| 50> H        -1.304269   -1.649157   -0.000016
| 51> H        -2.377813    0.134138   -1.198107
| 52> H        -2.377819    0.134111    1.198112
| 53> *
| 54>
| 55>
| 56>
| 57>
| 58>                          ****END OF INPUT****
 Total Charge           Charge          ....    0
 Multiplicity           Mult            ....    2
 Number of Electrons    NEL             ....   37
MP2 TOTAL ENERGY:     -429.156279326 Eh
FINAL SINGLE POINT ENERGY      -429.156279325525
MP2 TOTAL ENERGY:     -429.307330080 Eh
FINAL SINGLE POINT ENERGY      -429.307330079894

CARTESIAN COORDINATES (ANGSTROEM)
---------------------------------
  C      1.389917    0.168842   -0.000006
  B      0.115330    0.875336    0.000023
  Si    -1.570211   -0.192481    0.000001
  O      2.370128   -0.421846   -0.000015
  H      0.165682    2.060678    0.000037
  H     -1.304269   -1.649157   -0.000016
  H     -2.377813    0.134138   -1.198107
  H     -2.377819    0.134111    1.198112

 Multiplicity           Mult            ....    2
 Number of Electrons    NEL             ....   37
 Basis Dimension        Dim             ....  508

ORBITAL ENERGIES
----------------
                 SPIN UP ORBITALS
  NO   OCC          E(Eh)            E(eV)
   0   1.0000     -68.764928     -1871.1888
   1   1.0000     -20.670005      -562.4594
   2   1.0000     -11.384993      -309.8014
   3   1.0000      -7.605662      -206.9606
   4   1.0000      -6.115519      -166.4117
   5   1.0000      -4.221904      -114.8838
   6   1.0000      -4.221805      -114.8812
   7   1.0000      -4.221336      -114.8684
   8   1.0000      -1.525668       -41.5155
   9   1.0000      -0.919174       -25.0120
  10   1.0000      -0.774187       -21.0667
  11   1.0000      -0.714970       -19.4553
  12   1.0000      -0.703752       -19.1501
  13   1.0000      -0.654686       -17.8149
  14   1.0000      -0.568603       -15.4725
  15   1.0000      -0.488072       -13.2811
  16   1.0000      -0.480882       -13.0855
  17   1.0000      -0.440469       -11.9858
  18   1.0000      -0.347023        -9.4430
  19   0.0000       0.024655         0.6709
  20   0.0000       0.030265         0.8236
  21   0.0000       0.036058         0.9812
  22   0.0000       0.037451         1.0191
  23   0.0000       0.049735         1.3534

                 SPIN DOWN ORBITALS
  NO   OCC          E(Eh)            E(eV)
   0   1.0000     -68.765373     -1871.2009
   1   1.0000     -20.656117      -562.0815
   2   1.0000     -11.383241      -309.7537
   3   1.0000      -7.598824      -206.7745
   4   1.0000      -6.116195      -166.4301
   5   1.0000      -4.222596      -114.9027
   6   1.0000      -4.222262      -114.8936
   7   1.0000      -4.222244      -114.8931
   8   1.0000      -1.497830       -40.7580
   9   1.0000      -0.865441       -23.5498
  10   1.0000      -0.754703       -20.5365
  11   1.0000      -0.710079       -19.3222
  12   1.0000      -0.640435       -17.4271
  13   1.0000      -0.605228       -16.4691
  14   1.0000      -0.561152       -15.2697
  15   1.0000      -0.481060       -13.0903
  16   1.0000      -0.479128       -13.0377
  17   1.0000      -0.430728       -11.7207
  18   0.0000       0.019516         0.5311
  19   0.0000       0.025142         0.6842
  20   0.0000       0.030429         0.8280
  21   0.0000       0.036256         0.9866
  22   0.0000       0.043856         1.1934

MULLIKEN ATOMIC CHARGES AND SPIN POPULATIONS
--------------------------------------------
   0 C :    0.565785    0.247011
   1 B :    0.283045    0.556811
   2 Si:    0.236377   -0.053482
   3 O :   -0.560055    0.269616
   4 H :   -0.238274   -0.042507
   5 H :   -0.105600    0.000184
   6 H :   -0.090638    0.011184
   7 H :   -0.090639    0.011183
Sum of atomic charges         :   -0.0000000

LOEWDIN ATOMIC CHARGES AND SPIN POPULATIONS
-------------------------------------------
   0 C :   -0.342041    0.294473
   1 B :   -0.270539    0.272094
   2 Si:    1.112506    0.097011
   3 O :    0.653554    0.239261
   4 H :   -0.290613    0.086951
   5 H :   -0.287044   -0.000837
   6 H :   -0.287911    0.005524
   7 H :   -0.287912    0.005523

  Mayer bond orders larger than 0.100000
B(  0-C ,  1-B ) :   1.3374 B(  0-C ,  3-O ) :   1.7989 B(  1-B ,  2-Si) :   0.5227
B(  1-B ,  4-H ) :   0.8448 B(  2-Si,  5-H ) :   0.6796 B(  2-Si,  6-H ) :   0.7106
B(  2-Si,  7-H ) :   0.7106

MP2 TOTAL ENERGY:     -429.357326566 Eh
FINAL SINGLE POINT ENERGY      -429.357326565843

DIPOLE MOMENT
-------------
                                X             Y             Z
Electronic contribution:      5.76117       0.21144      -0.00001
Nuclear contribution   :     -5.73486      -0.02012       0.00001
                        -----------------------------------------
Total Dipole Moment    :      0.02632       0.19132       0.00000
                        -----------------------------------------
Magnitude (a.u.)       :      0.19312
Magnitude (Debye)      :      0.49087

Rotational constants in cm-1:     0.750972     0.085121     0.078516
Rotational constants in MHz : 22513.573080  2551.850078  2353.839426

                             ****ORCA TERMINATED NORMALLY****
TOTAL RUN TIME: 0 days 0 hours 27 minutes 16 seconds 446 msec
