                         Program Version 5.0.4 -  RELEASE  -
|  1> ! ri-mp2 aug-cc-pvdz aug-cc-pvdz/c tightscf
|  2> %pal nprocs 16 end
|  3> %maxcore 3800
|  4> %base "DZ_Si-Cl_91_AB"
|  5> %scf
|  6> STABPerform true
|  7> STABRestartUHFifUnstable true
|  8> end
|  9>
| 10> *xyz 0 1
| 11> C         2.444438    0.511244    0.085149
| 12> C         1.487141   -0.430189   -0.644848
| 13> H         2.515332    0.260573    1.144329
| 14> H         2.115436    1.548123    0.011085
| 15> H         3.448997    0.453160   -0.333728
| 16> Si        -0.235862   -0.425231    0.007860
| 17> H         1.843785   -1.462109   -0.581892
| 18> H         1.445056   -0.188584   -1.709387
| 19> Cl        -1.043563    1.478128   -0.153616
| 20> O        -0.332140   -0.824073    1.589060
| 21> H        -0.487631   -0.133601    2.235264
| 22> O        -1.096798   -1.481823   -0.875285
| 23> H        -1.996307   -1.691675   -0.616249
| 24> *
| 25>
| 26> $new_job
| 27> ! ri-mp2 aug-cc-pvtz aug-cc-pvtz/c tightscf
| 28> %pal nprocs 16 end
| 29> %maxcore 3800
| 30> %base "TZ_Si-Cl_91_AB"
| 31>
| 32> *xyz 0 1
| 33> C         2.444438    0.511244    0.085149
| 34> C         1.487141   -0.430189   -0.644848
| 35> H         2.515332    0.260573    1.144329
| 36> H         2.115436    1.548123    0.011085
| 37> H         3.448997    0.453160   -0.333728
| 38> Si        -0.235862   -0.425231    0.007860
| 39> H         1.843785   -1.462109   -0.581892
| 40> H         1.445056   -0.188584   -1.709387
| 41> Cl        -1.043563    1.478128   -0.153616
| 42> O        -0.332140   -0.824073    1.589060
| 43> H        -0.487631   -0.133601    2.235264
| 44> O        -1.096798   -1.481823   -0.875285
| 45> H        -1.996307   -1.691675   -0.616249
| 46> *
| 47>
| 48> $new_job
| 49> ! ri-mp2 aug-cc-pvqz aug-cc-pvqz/c tightscf
| 50> %pal nprocs 16 end
| 51> %maxcore 3800
| 52> %base "QZ_Si-Cl_91_AB"
| 53>
| 54> *xyz 0 1
| 55> C         2.444438    0.511244    0.085149
| 56> C         1.487141   -0.430189   -0.644848
| 57> H         2.515332    0.260573    1.144329
| 58> H         2.115436    1.548123    0.011085
| 59> H         3.448997    0.453160   -0.333728
| 60> Si        -0.235862   -0.425231    0.007860
| 61> H         1.843785   -1.462109   -0.581892
| 62> H         1.445056   -0.188584   -1.709387
| 63> Cl        -1.043563    1.478128   -0.153616
| 64> O        -0.332140   -0.824073    1.589060
| 65> H        -0.487631   -0.133601    2.235264
| 66> O        -1.096798   -1.481823   -0.875285
| 67> H        -1.996307   -1.691675   -0.616249
| 68> *
| 69>
| 70>
| 71>
| 72>
| 73>                          ****END OF INPUT****
 Total Charge           Charge          ....    0
 Multiplicity           Mult            ....    1
 Number of Electrons    NEL             ....   66
MP2 TOTAL ENERGY:     -979.126490526 Eh
FINAL SINGLE POINT ENERGY      -979.126490525584
MP2 TOTAL ENERGY:     -979.447135896 Eh
FINAL SINGLE POINT ENERGY      -979.447135895954

CARTESIAN COORDINATES (ANGSTROEM)
---------------------------------
  C      2.444438    0.511244    0.085149
  C      1.487141   -0.430189   -0.644848
  H      2.515332    0.260573    1.144329
  H      2.115436    1.548123    0.011085
  H      3.448997    0.453160   -0.333728
  Si    -0.235862   -0.425231    0.007860
  H      1.843785   -1.462109   -0.581892
  H      1.445056   -0.188584   -1.709387
  Cl    -1.043563    1.478128   -0.153616
  O     -0.332140   -0.824073    1.589060
  H     -0.487631   -0.133601    2.235264
  O     -1.096798   -1.481823   -0.875285
  H     -1.996307   -1.691675   -0.616249

 Multiplicity           Mult            ....    1
 Number of Electrons    NEL             ....   66
 Basis Dimension        Dim             ....  810

ORBITAL ENERGIES
----------------

  NO   OCC          E(Eh)            E(eV)
   0   2.0000    -104.820643     -2852.3147
   1   2.0000     -68.833964     -1873.0674
   2   2.0000     -20.566597      -559.6456
   3   2.0000     -20.565682      -559.6207
   4   2.0000     -11.222385      -305.3766
   5   2.0000     -11.214204      -305.1540
   6   2.0000     -10.548467      -287.0384
   7   2.0000      -8.015232      -218.1056
   8   2.0000      -8.014246      -218.0787
   9   2.0000      -8.014244      -218.0787
  10   2.0000      -6.173056      -167.9774
  11   2.0000      -4.281469      -116.5047
  12   2.0000      -4.280591      -116.4808
  13   2.0000      -4.279409      -116.4486
  14   2.0000      -1.368955       -37.2512
  15   2.0000      -1.344754       -36.5926
  16   2.0000      -1.091299       -29.6958
  17   2.0000      -1.029425       -28.0121
  18   2.0000      -0.859182       -23.3795
  19   2.0000      -0.764321       -20.7982
  20   2.0000      -0.716885       -19.5074
  21   2.0000      -0.635750       -17.2996
  22   2.0000      -0.614609       -16.7244
  23   2.0000      -0.602766       -16.4021
  24   2.0000      -0.571177       -15.5425
  25   2.0000      -0.555271       -15.1097
  26   2.0000      -0.527700       -14.3595
  27   2.0000      -0.523165       -14.2360
  28   2.0000      -0.515746       -14.0342
  29   2.0000      -0.499349       -13.5880
  30   2.0000      -0.468913       -12.7598
  31   2.0000      -0.462139       -12.5754
  32   2.0000      -0.438536       -11.9332
  33   0.0000       0.022783         0.6199
  34   0.0000       0.032842         0.8937
  35   0.0000       0.034763         0.9460
  36   0.0000       0.039135         1.0649
  37   0.0000       0.049075         1.3354

MULLIKEN ATOMIC CHARGES
-----------------------
   0 C :   -0.854556
   1 C :   -0.544452
   2 H :    0.237385
   3 H :    0.258924
   4 H :    0.279040
   5 Si:    2.192246
   6 H :    0.250623
   7 H :    0.198345
   8 Cl:   -0.691442
   9 O :   -1.006400
  10 H :    0.359789
  11 O :   -1.034845
  12 H :    0.355344
Sum of atomic charges:   -0.0000000

LOEWDIN ATOMIC CHARGES
----------------------
   0 C :    0.847632
   1 C :    0.502757
   2 H :   -0.296221
   3 H :   -0.311615
   4 H :   -0.284038
   5 Si:   -1.198223
   6 H :   -0.333519
   7 H :   -0.341812
   8 Cl:    0.984237
   9 O :    1.110188
  10 H :   -0.905703
  11 O :    1.104012
  12 H :   -0.877694

  Mayer bond orders larger than 0.100000
B(  0-C ,  1-C ) :   0.9433 B(  0-C ,  2-H ) :   0.9394 B(  0-C ,  3-H ) :   0.9345
B(  0-C ,  4-H ) :   0.9600 B(  1-C ,  5-Si) :   0.8597 B(  1-C ,  6-H ) :   0.8977
B(  1-C ,  7-H ) :   0.9429 B(  1-C , 11-O ) :  -0.1167 B(  5-Si,  8-Cl) :   0.3242
B(  5-Si,  9-O ) :   0.6583 B(  5-Si, 11-O ) :   0.5817 B(  9-O , 10-H ) :   0.8840
B( 11-O , 12-H ) :   0.9043

MP2 TOTAL ENERGY:     -979.550221203 Eh
FINAL SINGLE POINT ENERGY      -979.550221202820

DIPOLE MOMENT
-------------
                                X             Y             Z
Electronic contribution:    -10.09712       3.22451      -0.00567
Nuclear contribution   :     10.15141      -3.26913       0.37198
                        -----------------------------------------
Total Dipole Moment    :      0.05430      -0.04462       0.36631
                        -----------------------------------------
Magnitude (a.u.)       :      0.37299
Magnitude (Debye)      :      0.94808

Rotational constants in cm-1:     0.080639     0.064535     0.050618
Rotational constants in MHz :  2417.486700  1934.725079  1517.492928

                             ****ORCA TERMINATED NORMALLY****
TOTAL RUN TIME: 0 days 1 hours 7 minutes 24 seconds 937 msec
