                         Program Version 5.0.4 -  RELEASE  -
|  1> ! ri-mp2 aug-cc-pvdz aug-cc-pvdz/c tightscf
|  2> %pal nprocs 16 end
|  3> %maxcore 3800
|  4> %base "DZ_P-N_48_AB"
|  5> %scf
|  6> STABPerform true
|  7> STABRestartUHFifUnstable true
|  8> end
|  9>
| 10> *xyz 0 1
| 11> N         0.680868    0.061755   -0.180456
| 12> C         0.994856    1.419900    0.203326
| 13> H         1.413543    1.476417    1.218132
| 14> H         0.106403    2.046308    0.168861
| 15> H         1.728052    1.845712   -0.486187
| 16> P        -0.758853   -0.687298    0.321756
| 17> C         1.854828   -0.779414   -0.298969
| 18> H         2.527092   -0.376672   -1.061076
| 19> H         1.563167   -1.784706   -0.596113
| 20> H         2.420326   -0.849937    0.640616
| 21> C        -2.053070    0.362035   -0.447304
| 22> H        -1.928619    1.429055   -0.269342
| 23> H        -3.018674    0.057194   -0.040285
| 24> H        -2.064615    0.181098   -1.521344
| 25> H        -0.909653   -0.162419    1.641265
| 26> *
| 27>
| 28> $new_job
| 29> ! ri-mp2 aug-cc-pvtz aug-cc-pvtz/c tightscf
| 30> %pal nprocs 16 end
| 31> %maxcore 3800
| 32> %base "TZ_P-N_48_AB"
| 33>
| 34> *xyz 0 1
| 35> N         0.680868    0.061755   -0.180456
| 36> C         0.994856    1.419900    0.203326
| 37> H         1.413543    1.476417    1.218132
| 38> H         0.106403    2.046308    0.168861
| 39> H         1.728052    1.845712   -0.486187
| 40> P        -0.758853   -0.687298    0.321756
| 41> C         1.854828   -0.779414   -0.298969
| 42> H         2.527092   -0.376672   -1.061076
| 43> H         1.563167   -1.784706   -0.596113
| 44> H         2.420326   -0.849937    0.640616
| 45> C        -2.053070    0.362035   -0.447304
| 46> H        -1.928619    1.429055   -0.269342
| 47> H        -3.018674    0.057194   -0.040285
| 48> H        -2.064615    0.181098   -1.521344
| 49> H        -0.909653   -0.162419    1.641265
| 50> *
| 51>
| 52> $new_job
| 53> ! ri-mp2 aug-cc-pvqz aug-cc-pvqz/c tightscf
| 54> %pal nprocs 16 end
| 55> %maxcore 3800
| 56> %base "QZ_P-N_48_AB"
| 57>
| 58> *xyz 0 1
| 59> N         0.680868    0.061755   -0.180456
| 60> C         0.994856    1.419900    0.203326
| 61> H         1.413543    1.476417    1.218132
| 62> H         0.106403    2.046308    0.168861
| 63> H         1.728052    1.845712   -0.486187
| 64> P        -0.758853   -0.687298    0.321756
| 65> C         1.854828   -0.779414   -0.298969
| 66> H         2.527092   -0.376672   -1.061076
| 67> H         1.563167   -1.784706   -0.596113
| 68> H         2.420326   -0.849937    0.640616
| 69> C        -2.053070    0.362035   -0.447304
| 70> H        -1.928619    1.429055   -0.269342
| 71> H        -3.018674    0.057194   -0.040285
| 72> H        -2.064615    0.181098   -1.521344
| 73> H        -0.909653   -0.162419    1.641265
| 74> *
| 75>
| 76>
| 77>
| 78>
| 79>                          ****END OF INPUT****
 Total Charge           Charge          ....    0
 Multiplicity           Mult            ....    1
 Number of Electrons    NEL             ....   50
MP2 TOTAL ENERGY:     -515.381064928 Eh
FINAL SINGLE POINT ENERGY      -515.381064927881
MP2 TOTAL ENERGY:     -515.599858168 Eh
FINAL SINGLE POINT ENERGY      -515.599858168196

CARTESIAN COORDINATES (ANGSTROEM)
---------------------------------
  N      0.680868    0.061755   -0.180456
  C      0.994856    1.419900    0.203326
  H      1.413543    1.476417    1.218132
  H      0.106403    2.046308    0.168861
  H      1.728052    1.845712   -0.486187
  P     -0.758853   -0.687298    0.321756
  C      1.854828   -0.779414   -0.298969
  H      2.527092   -0.376672   -1.061076
  H      1.563167   -1.784706   -0.596113
  H      2.420326   -0.849937    0.640616
  C     -2.053070    0.362035   -0.447304
  H     -1.928619    1.429055   -0.269342
  H     -3.018674    0.057194   -0.040285
  H     -2.064615    0.181098   -1.521344
  H     -0.909653   -0.162419    1.641265

 Multiplicity           Mult            ....    1
 Number of Electrons    NEL             ....   50
 Basis Dimension        Dim             ....  864

ORBITAL ENERGIES
----------------

  NO   OCC          E(Eh)            E(eV)
   0   2.0000     -79.943460     -2175.3721
   1   2.0000     -15.546529      -423.0426
   2   2.0000     -11.248385      -306.0841
   3   2.0000     -11.245558      -306.0072
   4   2.0000     -11.215942      -305.2013
   5   2.0000      -7.482199      -203.6010
   6   2.0000      -5.376449      -146.3006
   7   2.0000      -5.376026      -146.2891
   8   2.0000      -5.375428      -146.2728
   9   2.0000      -1.214756       -33.0552
  10   2.0000      -0.977868       -26.6092
  11   2.0000      -0.956511       -26.0280
  12   2.0000      -0.875049       -23.8113
  13   2.0000      -0.746676       -20.3181
  14   2.0000      -0.637190       -17.3388
  15   2.0000      -0.623900       -16.9772
  16   2.0000      -0.616180       -16.7671
  17   2.0000      -0.574656       -15.6372
  18   2.0000      -0.554968       -15.1014
  19   2.0000      -0.545088       -14.8326
  20   2.0000      -0.516361       -14.0509
  21   2.0000      -0.501890       -13.6571
  22   2.0000      -0.479864       -13.0578
  23   2.0000      -0.357589        -9.7305
  24   2.0000      -0.345187        -9.3930
  25   0.0000       0.026291         0.7154
  26   0.0000       0.032741         0.8909
  27   0.0000       0.036383         0.9900
  28   0.0000       0.037306         1.0151
  29   0.0000       0.049443         1.3454

MULLIKEN ATOMIC CHARGES
-----------------------
   0 N :   -0.392079
   1 C :   -0.923253
   2 H :    0.309677
   3 H :    0.354749
   4 H :    0.315570
   5 P :    0.658281
   6 C :   -0.879439
   7 H :    0.299233
   8 H :    0.345514
   9 H :    0.289981
  10 C :   -1.082217
  11 H :    0.269545
  12 H :    0.367382
  13 H :    0.265468
  14 H :   -0.198414
Sum of atomic charges:   -0.0000000

LOEWDIN ATOMIC CHARGES
----------------------
   0 N :    0.194930
   1 C :    0.657385
   2 H :   -0.279404
   3 H :   -0.342514
   4 H :   -0.292813
   5 P :    1.087944
   6 C :    0.635329
   7 H :   -0.299511
   8 H :   -0.343811
   9 H :   -0.284151
  10 C :    0.755330
  11 H :   -0.368711
  12 H :   -0.371031
  13 H :   -0.361431
  14 H :   -0.387542

  Mayer bond orders larger than 0.100000
B(  0-N ,  1-C ) :   0.9248 B(  0-N ,  5-P ) :   0.7633 B(  0-N ,  6-C ) :   0.8500
B(  1-C ,  2-H ) :   0.9125 B(  1-C ,  3-H ) :   0.8853 B(  1-C ,  4-H ) :   0.9285
B(  5-P , 10-C ) :   0.9077 B(  5-P , 14-H ) :   0.9281 B(  6-C ,  7-H ) :   0.9428
B(  6-C ,  8-H ) :   0.9094 B(  6-C ,  9-H ) :   0.9423 B( 10-C , 11-H ) :   0.9168
B( 10-C , 12-H ) :   0.8805 B( 10-C , 13-H ) :   0.9252

MP2 TOTAL ENERGY:     -515.666051156 Eh
FINAL SINGLE POINT ENERGY      -515.666051155705

DIPOLE MOMENT
-------------
                                X             Y             Z
Electronic contribution:     -2.47350      -4.14007       0.63281
Nuclear contribution   :      2.64281       4.65630      -0.63187
                        -----------------------------------------
Total Dipole Moment    :      0.16931       0.51623       0.00094
                        -----------------------------------------
Magnitude (a.u.)       :      0.54328
Magnitude (Debye)      :      1.38091

Rotational constants in cm-1:     0.211048     0.092356     0.073403
Rotational constants in MHz :  6327.062856  2768.757577  2200.555615

                             ****ORCA TERMINATED NORMALLY****
TOTAL RUN TIME: 0 days 1 hours 14 minutes 19 seconds 135 msec
