                         Program Version 5.0.4 -  RELEASE  -
|  1> ! ri-mp2 aug-cc-pvdz aug-cc-pvdz/c tightscf
|  2> %pal nprocs 16 end
|  3> %maxcore 3800
|  4> %base "DZ_B-Si_72_AB"
|  5>
|  6> *xyz 0 1
|  7> Si        -2.510336   -0.349210   -0.402091
|  8> B        -0.876806    0.817614   -0.268808
|  9> C         0.579887    0.365308   -0.107207
| 10> C         1.612200    1.313927   -0.065335
| 11> C         0.939391   -0.985571    0.000485
| 12> C         2.258812   -1.370235    0.141190
| 13> C         3.255601   -0.407460    0.178134
| 14> C         2.933688    0.937176    0.074930
| 15> H         4.290016   -0.706915    0.288514
| 16> H         3.714917    1.685124    0.104524
| 17> H         1.358517    2.363202   -0.146270
| 18> H         0.165273   -1.741117   -0.026014
| 19> H         2.515206   -2.418190    0.222518
| 20> C        -3.869890    0.242485    0.750891
| 21> H        -3.559060    0.166760    1.793609
| 22> H        -4.775951   -0.350892    0.627971
| 23> H        -4.118026    1.285440    0.551352
| 24> H        -1.068040    1.998291   -0.338661
| 25> H        -2.253083   -1.789474   -0.137066
| 26> H        -2.999159   -0.265137   -1.805687
| 27> *
| 28>
| 29> $new_job
| 30> ! ri-mp2 aug-cc-pvtz aug-cc-pvtz/c tightscf
| 31> %pal nprocs 16 end
| 32> %maxcore 3800
| 33> %base "TZ_B-Si_72_AB"
| 34>
| 35> *xyz 0 1
| 36> Si        -2.510336   -0.349210   -0.402091
| 37> B        -0.876806    0.817614   -0.268808
| 38> C         0.579887    0.365308   -0.107207
| 39> C         1.612200    1.313927   -0.065335
| 40> C         0.939391   -0.985571    0.000485
| 41> C         2.258812   -1.370235    0.141190
| 42> C         3.255601   -0.407460    0.178134
| 43> C         2.933688    0.937176    0.074930
| 44> H         4.290016   -0.706915    0.288514
| 45> H         3.714917    1.685124    0.104524
| 46> H         1.358517    2.363202   -0.146270
| 47> H         0.165273   -1.741117   -0.026014
| 48> H         2.515206   -2.418190    0.222518
| 49> C        -3.869890    0.242485    0.750891
| 50> H        -3.559060    0.166760    1.793609
| 51> H        -4.775951   -0.350892    0.627971
| 52> H        -4.118026    1.285440    0.551352
| 53> H        -1.068040    1.998291   -0.338661
| 54> H        -2.253083   -1.789474   -0.137066
| 55> H        -2.999159   -0.265137   -1.805687
| 56> *
| 57>
| 58> $new_job
| 59> ! ri-mp2 aug-cc-pvqz aug-cc-pvqz/c tightscf
| 60> %pal nprocs 16 end
| 61> %maxcore 3800
| 62> %base "QZ_B-Si_72_AB"
| 63>
| 64> *xyz 0 1
| 65> Si        -2.510336   -0.349210   -0.402091
| 66> B        -0.876806    0.817614   -0.268808
| 67> C         0.579887    0.365308   -0.107207
| 68> C         1.612200    1.313927   -0.065335
| 69> C         0.939391   -0.985571    0.000485
| 70> C         2.258812   -1.370235    0.141190
| 71> C         3.255601   -0.407460    0.178134
| 72> C         2.933688    0.937176    0.074930
| 73> H         4.290016   -0.706915    0.288514
| 74> H         3.714917    1.685124    0.104524
| 75> H         1.358517    2.363202   -0.146270
| 76> H         0.165273   -1.741117   -0.026014
| 77> H         2.515206   -2.418190    0.222518
| 78> C        -3.869890    0.242485    0.750891
| 79> H        -3.559060    0.166760    1.793609
| 80> H        -4.775951   -0.350892    0.627971
| 81> H        -4.118026    1.285440    0.551352
| 82> H        -1.068040    1.998291   -0.338661
| 83> H        -2.253083   -1.789474   -0.137066
| 84> H        -2.999159   -0.265137   -1.805687
| 85> *
| 86>
| 87>
| 88>
| 89>
| 90>                          ****END OF INPUT****
 Total Charge           Charge          ....    0
 Multiplicity           Mult            ....    1
 Number of Electrons    NEL             ....   72
MP2 TOTAL ENERGY:     -586.267146066 Eh
FINAL SINGLE POINT ENERGY      -586.267146065532
MP2 TOTAL ENERGY:     -586.569669212 Eh
FINAL SINGLE POINT ENERGY      -586.569669211602

CARTESIAN COORDINATES (ANGSTROEM)
---------------------------------
  Si    -2.510336   -0.349210   -0.402091
  B     -0.876806    0.817614   -0.268808
  C      0.579887    0.365308   -0.107207
  C      1.612200    1.313927   -0.065335
  C      0.939391   -0.985571    0.000485
  C      2.258812   -1.370235    0.141190
  C      3.255601   -0.407460    0.178134
  C      2.933688    0.937176    0.074930
  H      4.290016   -0.706915    0.288514
  H      3.714917    1.685124    0.104524
  H      1.358517    2.363202   -0.146270
  H      0.165273   -1.741117   -0.026014
  H      2.515206   -2.418190    0.222518
  C     -3.869890    0.242485    0.750891
  H     -3.559060    0.166760    1.793609
  H     -4.775951   -0.350892    0.627971
  H     -4.118026    1.285440    0.551352
  H     -1.068040    1.998291   -0.338661
  H     -2.253083   -1.789474   -0.137066
  H     -2.999159   -0.265137   -1.805687

 Multiplicity           Mult            ....    1
 Number of Electrons    NEL             ....   72
 Basis Dimension        Dim             .... 1230

ORBITAL ENERGIES
----------------

  NO   OCC          E(Eh)            E(eV)
   0   2.0000     -68.740132     -1870.5141
   1   2.0000     -11.249348      -306.1103
   2   2.0000     -11.243939      -305.9631
   3   2.0000     -11.243647      -305.9552
   4   2.0000     -11.235232      -305.7262
   5   2.0000     -11.235137      -305.7236
   6   2.0000     -11.214525      -305.1627
   7   2.0000     -11.198627      -304.7301
   8   2.0000      -7.587613      -206.4694
   9   2.0000      -6.091534      -165.7591
  10   2.0000      -4.197965      -114.2324
  11   2.0000      -4.197679      -114.2247
  12   2.0000      -4.197342      -114.2155
  13   2.0000      -1.160545       -31.5800
  14   2.0000      -1.024792       -27.8860
  15   2.0000      -1.023024       -27.8379
  16   2.0000      -0.940078       -25.5808
  17   2.0000      -0.836931       -22.7741
  18   2.0000      -0.831715       -22.6321
  19   2.0000      -0.734694       -19.9920
  20   2.0000      -0.690787       -18.7973
  21   2.0000      -0.651535       -17.7292
  22   2.0000      -0.633945       -17.2505
  23   2.0000      -0.610352       -16.6085
  24   2.0000      -0.594764       -16.1844
  25   2.0000      -0.560267       -15.2456
  26   2.0000      -0.554794       -15.0967
  27   2.0000      -0.538190       -14.6449
  28   2.0000      -0.511773       -13.9261
  29   2.0000      -0.498854       -13.5745
  30   2.0000      -0.472949       -12.8696
  31   2.0000      -0.452777       -12.3207
  32   2.0000      -0.442115       -12.0306
  33   2.0000      -0.391622       -10.6566
  34   2.0000      -0.350165        -9.5285
  35   2.0000      -0.345131        -9.3915
  36   0.0000       0.020640         0.5616
  37   0.0000       0.026770         0.7285
  38   0.0000       0.028077         0.7640
  39   0.0000       0.033626         0.9150
  40   0.0000       0.037727         1.0266

MULLIKEN ATOMIC CHARGES
-----------------------
   0 Si:    0.730830
   1 B :    0.645002
   2 C :    0.154037
   3 C :   -0.493341
   4 C :   -0.489370
   5 C :   -0.292365
   6 C :   -0.368132
   7 C :   -0.296649
   8 H :    0.343940
   9 H :    0.272181
  10 H :    0.240362
  11 H :    0.356655
  12 H :    0.250460
  13 C :   -1.011280
  14 H :    0.229731
  15 H :    0.319062
  16 H :    0.246764
  17 H :   -0.414156
  18 H :   -0.199208
  19 H :   -0.224525
Sum of atomic charges:   -0.0000000

LOEWDIN ATOMIC CHARGES
----------------------
   0 Si:    0.910532
   1 B :   -0.098653
   2 C :   -0.006538
   3 C :    0.310992
   4 C :    0.298322
   5 C :    0.359994
   6 C :    0.343930
   7 C :    0.357042
   8 H :   -0.313777
   9 H :   -0.320740
  10 H :   -0.326081
  11 H :   -0.361426
  12 H :   -0.319458
  13 C :    0.891374
  14 H :   -0.355261
  15 H :   -0.359728
  16 H :   -0.358036
  17 H :   -0.199995
  18 H :   -0.224941
  19 H :   -0.227554

  Mayer bond orders larger than 0.100000
B(  0-Si,  1-B ) :   0.5859 B(  0-Si, 13-C ) :   0.8061 B(  0-Si, 18-H ) :   0.7285
B(  0-Si, 19-H ) :   0.7627 B(  1-B ,  2-C ) :   1.0355 B(  1-B ,  3-C ) :  -0.1233
B(  1-B , 17-H ) :   0.7126 B(  2-C ,  3-C ) :   0.8881 B(  2-C ,  4-C ) :   0.8777
B(  2-C ,  5-C ) :  -0.3441 B(  2-C ,  6-C ) :  -0.1211 B(  2-C ,  7-C ) :  -0.3690
B(  3-C ,  4-C ) :   0.1219 B(  3-C ,  5-C ) :   0.1443 B(  3-C ,  6-C ) :   0.1251
B(  3-C ,  7-C ) :   1.3164 B(  3-C ,  9-H ) :  -0.1447 B(  3-C , 10-H ) :   1.0195
B(  4-C ,  5-C ) :   1.2421 B(  4-C ,  7-C ) :   0.1421 B(  4-C , 11-H ) :   0.8898
B(  4-C , 12-H ) :  -0.1269 B(  5-C ,  6-C ) :   1.1808 B(  5-C ,  8-H ) :  -0.1083
B(  5-C , 12-H ) :   1.1050 B(  6-C ,  7-C ) :   1.1278 B(  6-C ,  8-H ) :   1.0001
B(  6-C ,  9-H ) :  -0.1051 B(  7-C ,  9-H ) :   1.1034 B( 13-C , 14-H ) :   0.9590
B( 13-C , 15-H ) :   0.9165 B( 13-C , 16-H ) :   0.9511

MP2 TOTAL ENERGY:     -586.664582844 Eh
FINAL SINGLE POINT ENERGY      -586.664582844162

DIPOLE MOMENT
-------------
                                X             Y             Z
Electronic contribution:      6.49839       0.44262      -1.14046
Nuclear contribution   :     -5.92127      -0.41410       1.38771
                        -----------------------------------------
Total Dipole Moment    :      0.57712       0.02852       0.24726
                        -----------------------------------------
Magnitude (a.u.)       :      0.62850
Magnitude (Debye)      :      1.59753

Rotational constants in cm-1:     0.131684     0.020258     0.018339
Rotational constants in MHz :  3947.779671   607.316800   549.791190

                             ****ORCA TERMINATED NORMALLY****
TOTAL RUN TIME: 0 days 0 hours 42 minutes 11 seconds 729 msec
