                         Program Version 5.0.4 -  RELEASE  -
|  1> ! ri-mp2 aug-cc-pvdz aug-cc-pvdz/c tightscf
|  2> %pal nprocs 16 end
|  3> %maxcore 3800
|  4> %base "DZ_S-F_92_AB"
|  5> %scf
|  6> STABPerform true
|  7> STABRestartUHFifUnstable true
|  8> end
|  9>
| 10> *xyz 0 1
| 11> F        -2.444763   -0.671163   -0.000018
| 12> N        -0.005219   -0.504978    0.000003
| 13> C         1.553130    1.356714   -0.000006
| 14> C         1.197697   -0.099000   -0.000001
| 15> C         2.300548   -1.107773   -0.000003
| 16> S        -1.307161    0.470472    0.000015
| 17> H         1.123780    1.844868    0.880131
| 18> H         1.123774    1.844865   -0.880142
| 19> H         2.627724    1.524183   -0.000011
| 20> H         1.895509   -2.115977    0.000001
| 21> H         2.937478   -0.974907    0.877864
| 22> H         2.937470   -0.974912   -0.877878
| 23> *
| 24>
| 25> $new_job
| 26> ! ri-mp2 aug-cc-pvtz aug-cc-pvtz/c tightscf
| 27> %pal nprocs 16 end
| 28> %maxcore 3800
| 29> %base "TZ_S-F_92_AB"
| 30>
| 31> *xyz 0 1
| 32> F        -2.444763   -0.671163   -0.000018
| 33> N        -0.005219   -0.504978    0.000003
| 34> C         1.553130    1.356714   -0.000006
| 35> C         1.197697   -0.099000   -0.000001
| 36> C         2.300548   -1.107773   -0.000003
| 37> S        -1.307161    0.470472    0.000015
| 38> H         1.123780    1.844868    0.880131
| 39> H         1.123774    1.844865   -0.880142
| 40> H         2.627724    1.524183   -0.000011
| 41> H         1.895509   -2.115977    0.000001
| 42> H         2.937478   -0.974907    0.877864
| 43> H         2.937470   -0.974912   -0.877878
| 44> *
| 45>
| 46> $new_job
| 47> ! ri-mp2 aug-cc-pvqz aug-cc-pvqz/c tightscf
| 48> %pal nprocs 16 end
| 49> %maxcore 3800
| 50> %base "QZ_S-F_92_AB"
| 51>
| 52> *xyz 0 1
| 53> F        -2.444763   -0.671163   -0.000018
| 54> N        -0.005219   -0.504978    0.000003
| 55> C         1.553130    1.356714   -0.000006
| 56> C         1.197697   -0.099000   -0.000001
| 57> C         2.300548   -1.107773   -0.000003
| 58> S        -1.307161    0.470472    0.000015
| 59> H         1.123780    1.844868    0.880131
| 60> H         1.123774    1.844865   -0.880142
| 61> H         2.627724    1.524183   -0.000011
| 62> H         1.895509   -2.115977    0.000001
| 63> H         2.937478   -0.974907    0.877864
| 64> H         2.937470   -0.974912   -0.877878
| 65> *
| 66>
| 67>
| 68>
| 69>
| 70>                          ****END OF INPUT****
 Total Charge           Charge          ....    0
 Multiplicity           Mult            ....    1
 Number of Electrons    NEL             ....   56
MP2 TOTAL ENERGY:     -669.445975563 Eh
FINAL SINGLE POINT ENERGY      -669.445975562522
MP2 TOTAL ENERGY:     -669.744239433 Eh
FINAL SINGLE POINT ENERGY      -669.744239432556

CARTESIAN COORDINATES (ANGSTROEM)
---------------------------------
  F     -2.444763   -0.671163   -0.000018
  N     -0.005219   -0.504978    0.000003
  C      1.553130    1.356714   -0.000006
  C      1.197697   -0.099000   -0.000001
  C      2.300548   -1.107773   -0.000003
  S     -1.307161    0.470472    0.000015
  H      1.123780    1.844868    0.880131
  H      1.123774    1.844865   -0.880142
  H      2.627724    1.524183   -0.000011
  H      1.895509   -2.115977    0.000001
  H      2.937478   -0.974907    0.877864
  H      2.937470   -0.974912   -0.877878

 Multiplicity           Mult            ....    1
 Number of Electrons    NEL             ....   56
 Basis Dimension        Dim             ....  760

ORBITAL ENERGIES
----------------

  NO   OCC          E(Eh)            E(eV)
   0   2.0000     -92.047376     -2504.7364
   1   2.0000     -26.298995      -715.6320
   2   2.0000     -15.586950      -424.1425
   3   2.0000     -11.307700      -307.6982
   4   2.0000     -11.247328      -306.0554
   5   2.0000     -11.237709      -305.7936
   6   2.0000      -9.038988      -245.9634
   7   2.0000      -6.720511      -182.8744
   8   2.0000      -6.719213      -182.8391
   9   2.0000      -6.717513      -182.7928
  10   2.0000      -1.602547       -43.6075
  11   2.0000      -1.271443       -34.5977
  12   2.0000      -1.059629       -28.8340
  13   2.0000      -0.980576       -26.6828
  14   2.0000      -0.934538       -25.4301
  15   2.0000      -0.755304       -20.5529
  16   2.0000      -0.685150       -18.6439
  17   2.0000      -0.684901       -18.6371
  18   2.0000      -0.681385       -18.5414
  19   2.0000      -0.627884       -17.0856
  20   2.0000      -0.627157       -17.0658
  21   2.0000      -0.591546       -16.0968
  22   2.0000      -0.570537       -15.5251
  23   2.0000      -0.552105       -15.0235
  24   2.0000      -0.537959       -14.6386
  25   2.0000      -0.497965       -13.5503
  26   2.0000      -0.417837       -11.3699
  27   2.0000      -0.333144        -9.0653
  28   0.0000       0.020911         0.5690
  29   0.0000       0.029908         0.8138
  30   0.0000       0.034181         0.9301
  31   0.0000       0.039666         1.0794
  32   0.0000       0.054542         1.4842

MULLIKEN ATOMIC CHARGES
-----------------------
   0 F :   -0.638796
   1 N :   -0.681146
   2 C :   -0.744672
   3 C :    0.446154
   4 C :   -0.754460
   5 S :    0.774601
   6 H :    0.255715
   7 H :    0.255717
   8 H :    0.324837
   9 H :    0.302663
  10 H :    0.229694
  11 H :    0.229693
Sum of atomic charges:   -0.0000000

LOEWDIN ATOMIC CHARGES
----------------------
   0 F :    0.073926
   1 N :    0.028534
   2 C :    0.837865
   3 C :   -0.497968
   4 C :    0.876719
   5 S :    0.477266
   6 H :   -0.303578
   7 H :   -0.303577
   8 H :   -0.295450
   9 H :   -0.318610
  10 H :   -0.287564
  11 H :   -0.287563

  Mayer bond orders larger than 0.100000
B(  0-F ,  1-N ) :  -0.1376 B(  0-F ,  5-S ) :   0.6671 B(  1-N ,  3-C ) :   1.5009
B(  1-N ,  5-S ) :   1.0300 B(  2-C ,  3-C ) :   0.8056 B(  2-C ,  6-H ) :   0.9568
B(  2-C ,  7-H ) :   0.9568 B(  2-C ,  8-H ) :   0.9129 B(  3-C ,  4-C ) :   0.7997
B(  4-C ,  9-H ) :   0.9815 B(  4-C , 10-H ) :   0.9671 B(  4-C , 11-H ) :   0.9671

MP2 TOTAL ENERGY:     -669.839834502 Eh
FINAL SINGLE POINT ENERGY      -669.839834501715

DIPOLE MOMENT
-------------
                                X             Y             Z
Electronic contribution:    -13.30818      -1.08473       0.00002
Nuclear contribution   :     14.82227       1.76043      -0.00002
                        -----------------------------------------
Total Dipole Moment    :      1.51409       0.67570       0.00000
                        -----------------------------------------
Magnitude (a.u.)       :      1.65802
Magnitude (Debye)      :      4.21435

Rotational constants in cm-1:     0.225149     0.054437     0.044560
Rotational constants in MHz :  6749.794364  1631.978212  1335.867381

                             ****ORCA TERMINATED NORMALLY****
TOTAL RUN TIME: 0 days 0 hours 43 minutes 43 seconds 103 msec
