                         Program Version 5.0.4 -  RELEASE  -
|  1> ! ri-mp2 aug-cc-pvdz aug-cc-pvdz/c tightscf
|  2> %pal nprocs 16 end
|  3> %maxcore 3800
|  4> %base "DZ_Si-Cl_45_AB"
|  5>
|  6> *xyz 0 1
|  7> C        -0.406698    1.616709    0.011634
|  8> C        -1.733278    1.787587   -0.347869
|  9> C        -2.591927    0.705013   -0.360765
| 10> C        -2.147526   -0.567363   -0.015126
| 11> C        -0.817553   -0.719863    0.343279
| 12> C         0.068634    0.356987    0.360705
| 13> H         0.257959    2.471841    0.019894
| 14> H        -2.098924    2.769559   -0.617911
| 15> Si         1.843056    0.111190    0.823449
| 16> C        -3.089315   -1.735870   -0.033197
| 17> H        -3.628705    0.846733   -0.642137
| 18> H        -0.464780   -1.708384    0.616576
| 19> Cl         2.943690   -0.525053   -0.803925
| 20> H        -3.939803   -1.565923    0.628685
| 21> H        -2.591446   -2.649694    0.286903
| 22> H        -3.486154   -1.903567   -1.035696
| 23> H         1.976938   -0.933919    1.854858
| 24> H         2.435383    1.383383    1.275298
| 25> *
| 26>
| 27> $new_job
| 28> ! ri-mp2 aug-cc-pvtz aug-cc-pvtz/c tightscf
| 29> %pal nprocs 16 end
| 30> %maxcore 3800
| 31> %base "TZ_Si-Cl_45_AB"
| 32>
| 33> *xyz 0 1
| 34> C        -0.406698    1.616709    0.011634
| 35> C        -1.733278    1.787587   -0.347869
| 36> C        -2.591927    0.705013   -0.360765
| 37> C        -2.147526   -0.567363   -0.015126
| 38> C        -0.817553   -0.719863    0.343279
| 39> C         0.068634    0.356987    0.360705
| 40> H         0.257959    2.471841    0.019894
| 41> H        -2.098924    2.769559   -0.617911
| 42> Si         1.843056    0.111190    0.823449
| 43> C        -3.089315   -1.735870   -0.033197
| 44> H        -3.628705    0.846733   -0.642137
| 45> H        -0.464780   -1.708384    0.616576
| 46> Cl         2.943690   -0.525053   -0.803925
| 47> H        -3.939803   -1.565923    0.628685
| 48> H        -2.591446   -2.649694    0.286903
| 49> H        -3.486154   -1.903567   -1.035696
| 50> H         1.976938   -0.933919    1.854858
| 51> H         2.435383    1.383383    1.275298
| 52> *
| 53>
| 54> $new_job
| 55> ! ri-mp2 aug-cc-pvqz aug-cc-pvqz/c tightscf
| 56> %pal nprocs 16 end
| 57> %maxcore 3800
| 58> %base "QZ_Si-Cl_45_AB"
| 59>
| 60> *xyz 0 1
| 61> C        -0.406698    1.616709    0.011634
| 62> C        -1.733278    1.787587   -0.347869
| 63> C        -2.591927    0.705013   -0.360765
| 64> C        -2.147526   -0.567363   -0.015126
| 65> C        -0.817553   -0.719863    0.343279
| 66> C         0.068634    0.356987    0.360705
| 67> H         0.257959    2.471841    0.019894
| 68> H        -2.098924    2.769559   -0.617911
| 69> Si         1.843056    0.111190    0.823449
| 70> C        -3.089315   -1.735870   -0.033197
| 71> H        -3.628705    0.846733   -0.642137
| 72> H        -0.464780   -1.708384    0.616576
| 73> Cl         2.943690   -0.525053   -0.803925
| 74> H        -3.939803   -1.565923    0.628685
| 75> H        -2.591446   -2.649694    0.286903
| 76> H        -3.486154   -1.903567   -1.035696
| 77> H         1.976938   -0.933919    1.854858
| 78> H         2.435383    1.383383    1.275298
| 79> *
| 80>
| 81>
| 82>
| 83>
| 84>                          ****END OF INPUT****
 Total Charge           Charge          ....    0
 Multiplicity           Mult            ....    1
 Number of Electrons    NEL             ....   82
MP2 TOTAL ENERGY:    -1020.052588321 Eh
FINAL SINGLE POINT ENERGY     -1020.052588321098
MP2 TOTAL ENERGY:    -1020.393109772 Eh
FINAL SINGLE POINT ENERGY     -1020.393109771732

CARTESIAN COORDINATES (ANGSTROEM)
---------------------------------
  C     -0.406698    1.616709    0.011634
  C     -1.733278    1.787587   -0.347869
  C     -2.591927    0.705013   -0.360765
  C     -2.147526   -0.567363   -0.015126
  C     -0.817553   -0.719863    0.343279
  C      0.068634    0.356987    0.360705
  H      0.257959    2.471841    0.019894
  H     -2.098924    2.769559   -0.617911
  Si     1.843056    0.111190    0.823449
  C     -3.089315   -1.735870   -0.033197
  H     -3.628705    0.846733   -0.642137
  H     -0.464780   -1.708384    0.616576
  Cl     2.943690   -0.525053   -0.803925
  H     -3.939803   -1.565923    0.628685
  H     -2.591446   -2.649694    0.286903
  H     -3.486154   -1.903567   -1.035696
  H      1.976938   -0.933919    1.854858
  H      2.435383    1.383383    1.275298

 Multiplicity           Mult            ....    1
 Number of Electrons    NEL             ....   82
 Basis Dimension        Dim             .... 1142

ORBITAL ENERGIES
----------------

  NO   OCC          E(Eh)            E(eV)
   0   2.0000    -104.816947     -2852.2141
   1   2.0000     -68.808061     -1872.3625
   2   2.0000     -11.246225      -306.0253
   3   2.0000     -11.242044      -305.9116
   4   2.0000     -11.240554      -305.8710
   5   2.0000     -11.239647      -305.8464
   6   2.0000     -11.238150      -305.8056
   7   2.0000     -11.228265      -305.5366
   8   2.0000     -11.227984      -305.5290
   9   2.0000     -10.544461      -286.9294
  10   2.0000      -8.011249      -217.9972
  11   2.0000      -8.010164      -217.9677
  12   2.0000      -8.010156      -217.9674
  13   2.0000      -6.153785      -167.4530
  14   2.0000      -4.260735      -115.9405
  15   2.0000      -4.259923      -115.9184
  16   2.0000      -4.259572      -115.9089
  17   2.0000      -1.167338       -31.7649
  18   2.0000      -1.087664       -29.5969
  19   2.0000      -1.056258       -28.7422
  20   2.0000      -1.023494       -27.8507
  21   2.0000      -0.943198       -25.6657
  22   2.0000      -0.837937       -22.8014
  23   2.0000      -0.811048       -22.0697
  24   2.0000      -0.723577       -19.6895
  25   2.0000      -0.684101       -18.6153
  26   2.0000      -0.649484       -17.6734
  27   2.0000      -0.621753       -16.9188
  28   2.0000      -0.585409       -15.9298
  29   2.0000      -0.579289       -15.7633
  30   2.0000      -0.560822       -15.2607
  31   2.0000      -0.546692       -14.8762
  32   2.0000      -0.528129       -14.3711
  33   2.0000      -0.519190       -14.1279
  34   2.0000      -0.496547       -13.5117
  35   2.0000      -0.495723       -13.4893
  36   2.0000      -0.481939       -13.1142
  37   2.0000      -0.442386       -12.0379
  38   2.0000      -0.435595       -11.8531
  39   2.0000      -0.348318        -9.4782
  40   2.0000      -0.336755        -9.1636
  41   0.0000       0.020800         0.5660
  42   0.0000       0.026832         0.7301
  43   0.0000       0.029425         0.8007
  44   0.0000       0.036267         0.9869
  45   0.0000       0.040294         1.0965

MULLIKEN ATOMIC CHARGES
-----------------------
   0 C :   -0.497841
   1 C :   -0.354521
   2 C :   -0.399104
   3 C :    0.411236
   4 C :   -0.472695
   5 C :    0.006555
   6 H :    0.309457
   7 H :    0.232045
   8 Si:    1.446648
   9 C :   -0.814617
  10 H :    0.336199
  11 H :    0.268846
  12 Cl:   -0.633765
  13 H :    0.227749
  14 H :    0.233515
  15 H :    0.236785
  16 H :   -0.256239
  17 H :   -0.280252
Sum of atomic charges:   -0.0000000

LOEWDIN ATOMIC CHARGES
----------------------
   0 C :    0.245113
   1 C :    0.352090
   2 C :    0.345342
   3 C :   -0.073434
   4 C :    0.249292
   5 C :   -0.160940
   6 H :   -0.341723
   7 H :   -0.317179
   8 Si:   -0.029799
   9 C :    0.911497
  10 H :   -0.309157
  11 H :   -0.340033
  12 Cl:    0.886732
  13 H :   -0.282446
  14 H :   -0.307031
  15 H :   -0.280993
  16 H :   -0.274424
  17 H :   -0.272908

  Mayer bond orders larger than 0.100000
B(  0-C ,  1-C ) :   1.2625 B(  0-C ,  2-C ) :   0.1588 B(  0-C ,  5-C ) :   0.9121
B(  0-C ,  6-H ) :   0.9549 B(  0-C ,  7-H ) :  -0.1488 B(  0-C ,  8-Si) :  -0.1195
B(  1-C ,  2-C ) :   1.2820 B(  1-C ,  3-C ) :  -0.2011 B(  1-C ,  4-C ) :   0.1684
B(  1-C ,  5-C ) :  -0.3649 B(  1-C ,  7-H ) :   1.1547 B(  2-C ,  3-C ) :   0.9874
B(  2-C ,  7-H ) :  -0.1432 B(  2-C , 10-H ) :   0.9374 B(  3-C ,  4-C ) :   1.0427
B(  3-C ,  5-C ) :  -0.4937 B(  3-C ,  9-C ) :   0.7378 B(  3-C , 13-H ) :  -0.1009
B(  3-C , 14-H ) :  -0.1052 B(  4-C ,  5-C ) :   1.1068 B(  4-C ,  8-Si) :  -0.1915
B(  4-C , 11-H ) :   0.9416 B(  5-C ,  6-H ) :  -0.1394 B(  5-C ,  8-Si) :   1.1754
B(  5-C , 11-H ) :  -0.1715 B(  5-C , 12-Cl) :  -0.1147 B(  5-C , 17-H ) :  -0.1437
B(  8-Si, 12-Cl) :   0.3308 B(  8-Si, 16-H ) :   0.7524 B(  8-Si, 17-H ) :   0.7377
B(  9-C , 13-H ) :   1.0227 B(  9-C , 14-H ) :   1.0420 B(  9-C , 15-H ) :   1.0025

MP2 TOTAL ENERGY:    -1020.502333334 Eh
FINAL SINGLE POINT ENERGY     -1020.502333334057

DIPOLE MOMENT
-------------
                                X             Y             Z
Electronic contribution:     14.62960       0.66760      -3.10925
Nuclear contribution   :    -15.59090      -0.53620       3.42685
                        -----------------------------------------
Total Dipole Moment    :     -0.96130       0.13140       0.31760
                        -----------------------------------------
Magnitude (a.u.)       :      1.02089
Magnitude (Debye)      :      2.59491

Rotational constants in cm-1:     0.075831     0.020645     0.018164
Rotational constants in MHz :  2273.345256   618.911898   544.545810

                             ****ORCA TERMINATED NORMALLY****
TOTAL RUN TIME: 0 days 0 hours 46 minutes 45 seconds 819 msec
