                         Program Version 5.0.4 -  RELEASE  -
|  1> ! ri-mp2 aug-cc-pvdz aug-cc-pvdz/c tightscf
|  2> %pal nprocs 16 end
|  3> %maxcore 3800
|  4> %base "DZ_S-F_62_AB"
|  5> %scf
|  6> STABPerform true
|  7> STABRestartUHFifUnstable true
|  8> end
|  9>
| 10> *xyz 0 1
| 11> F        -1.897670    0.598530    0.090733
| 12> S        -0.985021   -0.747355   -0.030162
| 13> C         0.649099    0.050160   -0.024602
| 14> O         1.514590   -1.008457   -0.230191
| 15> H         1.843638   -1.279105    0.634930
| 16> O         0.860840    0.656068    1.203510
| 17> H         1.449884    1.406688    1.051148
| 18> O         0.830171    0.942420   -1.056386
| 19> H         0.006438    1.422123   -1.207932
| 20> *
| 21>
| 22> $new_job
| 23> ! ri-mp2 aug-cc-pvtz aug-cc-pvtz/c tightscf
| 24> %pal nprocs 16 end
| 25> %maxcore 3800
| 26> %base "TZ_S-F_62_AB"
| 27>
| 28> *xyz 0 1
| 29> F        -1.897670    0.598530    0.090733
| 30> S        -0.985021   -0.747355   -0.030162
| 31> C         0.649099    0.050160   -0.024602
| 32> O         1.514590   -1.008457   -0.230191
| 33> H         1.843638   -1.279105    0.634930
| 34> O         0.860840    0.656068    1.203510
| 35> H         1.449884    1.406688    1.051148
| 36> O         0.830171    0.942420   -1.056386
| 37> H         0.006438    1.422123   -1.207932
| 38> *
| 39>
| 40> $new_job
| 41> ! ri-mp2 aug-cc-pvqz aug-cc-pvqz/c tightscf
| 42> %pal nprocs 16 end
| 43> %maxcore 3800
| 44> %base "QZ_S-F_62_AB"
| 45>
| 46> *xyz 0 1
| 47> F        -1.897670    0.598530    0.090733
| 48> S        -0.985021   -0.747355   -0.030162
| 49> C         0.649099    0.050160   -0.024602
| 50> O         1.514590   -1.008457   -0.230191
| 51> H         1.843638   -1.279105    0.634930
| 52> O         0.860840    0.656068    1.203510
| 53> H         1.449884    1.406688    1.051148
| 54> O         0.830171    0.942420   -1.056386
| 55> H         0.006438    1.422123   -1.207932
| 56> *
| 57>
| 58>
| 59>
| 60>
| 61>                          ****END OF INPUT****
 Total Charge           Charge          ....    0
 Multiplicity           Mult            ....    1
 Number of Electrons    NEL             ....   58
MP2 TOTAL ENERGY:     -762.282048842 Eh
FINAL SINGLE POINT ENERGY      -762.282048841762
MP2 TOTAL ENERGY:     -762.642321586 Eh
FINAL SINGLE POINT ENERGY      -762.642321586349

CARTESIAN COORDINATES (ANGSTROEM)
---------------------------------
  F     -1.897670    0.598530    0.090733
  S     -0.985021   -0.747355   -0.030162
  C      0.649099    0.050160   -0.024602
  O      1.514590   -1.008457   -0.230191
  H      1.843638   -1.279105    0.634930
  O      0.860840    0.656068    1.203510
  H      1.449884    1.406688    1.051148
  O      0.830171    0.942420   -1.056386
  H      0.006438    1.422123   -1.207932

 Multiplicity           Mult            ....    1
 Number of Electrons    NEL             ....   58
 Basis Dimension        Dim             ....  622

ORBITAL ENERGIES
----------------

  NO   OCC          E(Eh)            E(eV)
   0   2.0000     -92.037808     -2504.4761
   1   2.0000     -26.317678      -716.1404
   2   2.0000     -20.604305      -560.6716
   3   2.0000     -20.603979      -560.6628
   4   2.0000     -20.602829      -560.6315
   5   2.0000     -11.451866      -311.6211
   6   2.0000      -9.033320      -245.8091
   7   2.0000      -6.714724      -182.7169
   8   2.0000      -6.712552      -182.6578
   9   2.0000      -6.711299      -182.6237
  10   2.0000      -1.615804       -43.9683
  11   2.0000      -1.502353       -40.8811
  12   2.0000      -1.389469       -37.8094
  13   2.0000      -1.381842       -37.6018
  14   2.0000      -1.020366       -27.7656
  15   2.0000      -0.885739       -24.1022
  16   2.0000      -0.806461       -21.9449
  17   2.0000      -0.754750       -20.5378
  18   2.0000      -0.724717       -19.7205
  19   2.0000      -0.698772       -19.0146
  20   2.0000      -0.678745       -18.4696
  21   2.0000      -0.653731       -17.7889
  22   2.0000      -0.644969       -17.5505
  23   2.0000      -0.614801       -16.7296
  24   2.0000      -0.568721       -15.4757
  25   2.0000      -0.533731       -14.5236
  26   2.0000      -0.525959       -14.3121
  27   2.0000      -0.462534       -12.5862
  28   2.0000      -0.389835       -10.6080
  29   0.0000       0.023356         0.6355
  30   0.0000       0.033245         0.9046
  31   0.0000       0.042924         1.1680
  32   0.0000       0.054359         1.4792
  33   0.0000       0.071837         1.9548

MULLIKEN ATOMIC CHARGES
-----------------------
   0 F :   -0.635494
   1 S :    0.464464
   2 C :    1.402875
   3 O :   -0.761156
   4 H :    0.369158
   5 O :   -0.762734
   6 H :    0.344437
   7 O :   -0.791401
   8 H :    0.369853
Sum of atomic charges:   -0.0000000

LOEWDIN ATOMIC CHARGES
----------------------
   0 F :    0.080613
   1 S :    0.673923
   2 C :   -1.830314
   3 O :    1.161661
   4 H :   -0.828877
   5 O :    1.189164
   6 H :   -0.807181
   7 O :    1.204339
   8 H :   -0.843329

  Mayer bond orders larger than 0.100000
B(  0-F ,  1-S ) :   0.5870 B(  1-S ,  2-C ) :   0.7937 B(  2-C ,  3-O ) :   0.7210
B(  2-C ,  5-O ) :   0.7078 B(  2-C ,  7-O ) :   0.6686 B(  3-O ,  4-H ) :   0.8600
B(  5-O ,  6-H ) :   0.8545 B(  7-O ,  8-H ) :   0.8559

MP2 TOTAL ENERGY:     -762.763143958 Eh
FINAL SINGLE POINT ENERGY      -762.763143957607

DIPOLE MOMENT
-------------
                                X             Y             Z
Electronic contribution:     -4.55074      -0.66229      -0.04253
Nuclear contribution   :      5.01726       0.94613       0.37060
                        -----------------------------------------
Total Dipole Moment    :      0.46651       0.28385       0.32807
                        -----------------------------------------
Magnitude (a.u.)       :      0.63705
Magnitude (Debye)      :      1.61925

Rotational constants in cm-1:     0.149489     0.078596     0.071018
Rotational constants in MHz :  4481.556969  2356.234472  2129.066988

                             ****ORCA TERMINATED NORMALLY****
TOTAL RUN TIME: 0 days 0 hours 22 minutes 12 seconds 739 msec
