                         Program Version 5.0.4 -  RELEASE  -
|  1> ! ri-mp2 aug-cc-pvdz aug-cc-pvdz/c tightscf
|  2> %pal nprocs 16 end
|  3> %maxcore 3800
|  4> %base "DZ_P-Cl_29_AB"
|  5> %scf
|  6> STABPerform true
|  7> STABRestartUHFifUnstable true
|  8> end
|  9>
| 10> *xyz 0 1
| 11> Cl         2.076738   -0.869778    1.149290
| 12> Cl        -2.902044    0.286264   -0.186153
| 13> O        -0.947036   -2.291122   -0.861035
| 14> O        -0.165922    2.332994    0.799534
| 15> P         1.364718   -0.823033   -0.804638
| 16> P        -1.201088   -0.168355    0.873871
| 17> C        -0.411274   -1.351260   -0.366280
| 18> C        -0.114936    1.263082    0.272304
| 19> C         0.829699    0.946128   -0.879801
| 20> H         0.196439    0.956996   -1.779670
| 21> C         1.957482    1.953474   -1.022800
| 22> H         2.613166    1.920763   -0.153440
| 23> H         1.553912    2.960996   -1.094291
| 24> H         2.550082    1.748288   -1.912949
| 25> *
| 26>
| 27> $new_job
| 28> ! ri-mp2 aug-cc-pvtz aug-cc-pvtz/c tightscf
| 29> %pal nprocs 16 end
| 30> %maxcore 3800
| 31> %base "TZ_P-Cl_29_AB"
| 32>
| 33> *xyz 0 1
| 34> Cl         2.076738   -0.869778    1.149290
| 35> Cl        -2.902044    0.286264   -0.186153
| 36> O        -0.947036   -2.291122   -0.861035
| 37> O        -0.165922    2.332994    0.799534
| 38> P         1.364718   -0.823033   -0.804638
| 39> P        -1.201088   -0.168355    0.873871
| 40> C        -0.411274   -1.351260   -0.366280
| 41> C        -0.114936    1.263082    0.272304
| 42> C         0.829699    0.946128   -0.879801
| 43> H         0.196439    0.956996   -1.779670
| 44> C         1.957482    1.953474   -1.022800
| 45> H         2.613166    1.920763   -0.153440
| 46> H         1.553912    2.960996   -1.094291
| 47> H         2.550082    1.748288   -1.912949
| 48> *
| 49>
| 50> $new_job
| 51> ! ri-mp2 aug-cc-pvqz aug-cc-pvqz/c tightscf
| 52> %pal nprocs 16 end
| 53> %maxcore 3800
| 54> %base "QZ_P-Cl_29_AB"
| 55>
| 56> *xyz 0 1
| 57> Cl         2.076738   -0.869778    1.149290
| 58> Cl        -2.902044    0.286264   -0.186153
| 59> O        -0.947036   -2.291122   -0.861035
| 60> O        -0.165922    2.332994    0.799534
| 61> P         1.364718   -0.823033   -0.804638
| 62> P        -1.201088   -0.168355    0.873871
| 63> C        -0.411274   -1.351260   -0.366280
| 64> C        -0.114936    1.263082    0.272304
| 65> C         0.829699    0.946128   -0.879801
| 66> H         0.196439    0.956996   -1.779670
| 67> C         1.957482    1.953474   -1.022800
| 68> H         2.613166    1.920763   -0.153440
| 69> H         1.553912    2.960996   -1.094291
| 70> H         2.550082    1.748288   -1.912949
| 71> *
| 72>
| 73>
| 74>
| 75>
| 76>                          ****END OF INPUT****
 Total Charge           Charge          ....    0
 Multiplicity           Mult            ....    1
 Number of Electrons    NEL             ....  108
MP2 TOTAL ENERGY:    -1905.542898123 Eh
FINAL SINGLE POINT ENERGY     -1905.542898122789
MP2 TOTAL ENERGY:    -1906.003864226 Eh
FINAL SINGLE POINT ENERGY     -1906.003864226091

CARTESIAN COORDINATES (ANGSTROEM)
---------------------------------
  Cl     2.076738   -0.869778    1.149290
  Cl    -2.902044    0.286264   -0.186153
  O     -0.947036   -2.291122   -0.861035
  O     -0.165922    2.332994    0.799534
  P      1.364718   -0.823033   -0.804638
  P     -1.201088   -0.168355    0.873871
  C     -0.411274   -1.351260   -0.366280
  C     -0.114936    1.263082    0.272304
  C      0.829699    0.946128   -0.879801
  H      0.196439    0.956996   -1.779670
  C      1.957482    1.953474   -1.022800
  H      2.613166    1.920763   -0.153440
  H      1.553912    2.960996   -1.094291
  H      2.550082    1.748288   -1.912949

 Multiplicity           Mult            ....    1
 Number of Electrons    NEL             ....  108
 Basis Dimension        Dim             .... 1000

ORBITAL ENERGIES
----------------

  NO   OCC          E(Eh)            E(eV)
   0   2.0000    -104.864337     -2853.5037
   1   2.0000    -104.859010     -2853.3587
   2   2.0000     -80.032335     -2177.7906
   3   2.0000     -80.028431     -2177.6843
   4   2.0000     -20.610677      -560.8450
   5   2.0000     -20.592697      -560.3558
   6   2.0000     -11.375298      -309.5376
   7   2.0000     -11.371487      -309.4339
   8   2.0000     -11.290411      -307.2277
   9   2.0000     -11.250200      -306.1335
  10   2.0000     -10.590647      -288.1861
  11   2.0000     -10.584941      -288.0309
  12   2.0000      -8.057440      -219.2541
  13   2.0000      -8.056010      -219.2152
  14   2.0000      -8.055962      -219.2139
  15   2.0000      -8.051819      -219.1011
  16   2.0000      -8.050238      -219.0581
  17   2.0000      -8.050144      -219.0555
  18   2.0000      -7.570179      -205.9950
  19   2.0000      -7.566573      -205.8969
  20   2.0000      -5.463337      -148.6649
  21   2.0000      -5.462289      -148.6365
  22   2.0000      -5.461489      -148.6147
  23   2.0000      -5.459741      -148.5671
  24   2.0000      -5.458866      -148.5433
  25   2.0000      -5.458183      -148.5247
  26   2.0000      -1.452092       -39.5134
  27   2.0000      -1.440256       -39.1914
  28   2.0000      -1.158860       -31.5342
  29   2.0000      -1.136814       -30.9343
  30   2.0000      -1.096800       -29.8455
  31   2.0000      -0.983551       -26.7638
  32   2.0000      -0.891953       -24.2713
  33   2.0000      -0.876611       -23.8538
  34   2.0000      -0.759953       -20.6794
  35   2.0000      -0.748025       -20.3548
  36   2.0000      -0.697242       -18.9729
  37   2.0000      -0.675223       -18.3737
  38   2.0000      -0.656568       -17.8661
  39   2.0000      -0.628819       -17.1110
  40   2.0000      -0.611596       -16.6424
  41   2.0000      -0.603724       -16.4282
  42   2.0000      -0.575328       -15.6555
  43   2.0000      -0.567388       -15.4394
  44   2.0000      -0.552133       -15.0243
  45   2.0000      -0.523416       -14.2429
  46   2.0000      -0.514593       -14.0028
  47   2.0000      -0.506830       -13.7915
  48   2.0000      -0.503689       -13.7061
  49   2.0000      -0.496096       -13.4995
  50   2.0000      -0.475965       -12.9517
  51   2.0000      -0.434601       -11.8261
  52   2.0000      -0.393824       -10.7165
  53   2.0000      -0.366324        -9.9682
  54   0.0000       0.020607         0.5607
  55   0.0000       0.026777         0.7286
  56   0.0000       0.035213         0.9582
  57   0.0000       0.039432         1.0730
  58   0.0000       0.040320         1.0972

MULLIKEN ATOMIC CHARGES
-----------------------
   0 Cl:   -0.545705
   1 Cl:   -0.490875
   2 O :   -0.805312
   3 O :   -0.912427
   4 P :    0.848472
   5 P :    0.853171
   6 C :    0.340394
   7 C :    0.719079
   8 C :   -0.250286
   9 H :    0.359832
  10 C :   -0.900738
  11 H :    0.230531
  12 H :    0.268224
  13 H :    0.285641
Sum of atomic charges:   -0.0000000

LOEWDIN ATOMIC CHARGES
----------------------
   0 Cl:    0.819668
   1 Cl:    0.760352
   2 O :    0.529048
   3 O :    0.665610
   4 P :    0.172349
   5 P :    0.013794
   6 C :   -1.184427
   7 C :   -1.040273
   8 C :   -0.281226
   9 H :   -0.379590
  10 C :    0.815081
  11 H :   -0.306774
  12 H :   -0.293780
  13 H :   -0.289832

  Mayer bond orders larger than 0.100000
B(  0-Cl,  4-P ) :   0.7538 B(  0-Cl,  8-C ) :  -0.2003 B(  1-Cl,  5-P ) :   0.8365
B(  2-O ,  6-C ) :   1.2966 B(  3-O ,  7-C ) :   0.9964 B(  3-O ,  8-C ) :   0.2123
B(  4-P ,  6-C ) :   0.9673 B(  4-P ,  8-C ) :   0.8033 B(  5-P ,  6-C ) :   0.8655
B(  5-P ,  7-C ) :   0.9026 B(  7-C ,  8-C ) :   0.9804 B(  8-C ,  9-H ) :   0.8205
B(  8-C , 10-C ) :   0.6425 B( 10-C , 11-H ) :   0.9889 B( 10-C , 12-H ) :   1.0107
B( 10-C , 13-H ) :   0.9778

MP2 TOTAL ENERGY:    -1906.156923998 Eh
FINAL SINGLE POINT ENERGY     -1906.156923997624

DIPOLE MOMENT
-------------
                                X             Y             Z
Electronic contribution:     -6.62540      -8.44958       5.31900
Nuclear contribution   :      7.40624       8.75803      -5.97026
                        -----------------------------------------
Total Dipole Moment    :      0.78084       0.30845      -0.65126
                        -----------------------------------------
Magnitude (a.u.)       :      1.06254
Magnitude (Debye)      :      2.70076

Rotational constants in cm-1:     0.035028     0.021400     0.017241
Rotational constants in MHz :  1050.113633   641.562277   516.868091

                             ****ORCA TERMINATED NORMALLY****
TOTAL RUN TIME: 0 days 2 hours 18 minutes 13 seconds 620 msec
