                         Program Version 5.0.4 -  RELEASE  -
|  1> ! ri-mp2 aug-cc-pvdz aug-cc-pvdz/c tightscf
|  2> %pal nprocs 16 end
|  3> %maxcore 3800
|  4> %base "DZ_B-B_50_A"
|  5> %scf
|  6> STABPerform true
|  7> STABRestartUHFifUnstable true
|  8> end
|  9>
| 10> *xyz 0 2
| 11> B        -1.516873    0.595660   -0.000002
| 12> S        -0.239336   -0.547407    0.000002
| 13> C         1.337982    0.386755   -0.000001
| 14> H         1.902332    0.113503    0.888211
| 15> H         1.138328    1.453767   -0.000007
| 16> H         1.902334    0.113494   -0.888209
| 17> H        -1.557146    1.778915   -0.000006
| 18> *
| 19>
| 20> $new_job
| 21> ! ri-mp2 aug-cc-pvtz aug-cc-pvtz/c tightscf
| 22> %pal nprocs 16 end
| 23> %maxcore 3800
| 24> %base "TZ_B-B_50_A"
| 25>
| 26> *xyz 0 2
| 27> B        -1.516873    0.595660   -0.000002
| 28> S        -0.239336   -0.547407    0.000002
| 29> C         1.337982    0.386755   -0.000001
| 30> H         1.902332    0.113503    0.888211
| 31> H         1.138328    1.453767   -0.000007
| 32> H         1.902334    0.113494   -0.888209
| 33> H        -1.557146    1.778915   -0.000006
| 34> *
| 35>
| 36> $new_job
| 37> ! ri-mp2 aug-cc-pvqz aug-cc-pvqz/c tightscf
| 38> %pal nprocs 16 end
| 39> %maxcore 3800
| 40> %base "QZ_B-B_50_A"
| 41>
| 42> *xyz 0 2
| 43> B        -1.516873    0.595660   -0.000002
| 44> S        -0.239336   -0.547407    0.000002
| 45> C         1.337982    0.386755   -0.000001
| 46> H         1.902332    0.113503    0.888211
| 47> H         1.138328    1.453767   -0.000007
| 48> H         1.902334    0.113494   -0.888209
| 49> H        -1.557146    1.778915   -0.000006
| 50> *
| 51>
| 52>
| 53>
| 54>
| 55>                          ****END OF INPUT****
 Total Charge           Charge          ....    0
 Multiplicity           Mult            ....    2
 Number of Electrons    NEL             ....   31
MP2 TOTAL ENERGY:     -462.731647159 Eh
FINAL SINGLE POINT ENERGY      -462.731647159224
MP2 TOTAL ENERGY:     -462.844236244 Eh
FINAL SINGLE POINT ENERGY      -462.844236244500

CARTESIAN COORDINATES (ANGSTROEM)
---------------------------------
  B     -1.516873    0.595660   -0.000002
  S     -0.239336   -0.547407    0.000002
  C      1.337982    0.386755   -0.000001
  H      1.902332    0.113503    0.888211
  H      1.138328    1.453767   -0.000007
  H      1.902334    0.113494   -0.888209
  H     -1.557146    1.778915   -0.000006

 Multiplicity           Mult            ....    2
 Number of Electrons    NEL             ....   31
 Basis Dimension        Dim             ....  428

ORBITAL ENERGIES
----------------
                 SPIN UP ORBITALS
  NO   OCC          E(Eh)            E(eV)
   0   1.0000     -91.959938     -2502.3571
   1   1.0000     -11.265163      -306.5407
   2   1.0000      -8.964239      -243.9293
   3   1.0000      -7.636254      -207.7930
   4   1.0000      -6.644909      -180.8172
   5   1.0000      -6.644267      -180.7997
   6   1.0000      -6.643779      -180.7864
   7   1.0000      -1.053613       -28.6703
   8   1.0000      -0.897106       -24.4115
   9   1.0000      -0.665114       -18.0987
  10   1.0000      -0.600626       -16.3439
  11   1.0000      -0.592656       -16.1270
  12   1.0000      -0.550585       -14.9822
  13   1.0000      -0.446878       -12.1602
  14   1.0000      -0.388407       -10.5691
  15   1.0000      -0.331234        -9.0133
  16   0.0000       0.024003         0.6532
  17   0.0000       0.034111         0.9282
  18   0.0000       0.035975         0.9789
  19   0.0000       0.038083         1.0363
  20   0.0000       0.051383         1.3982

                 SPIN DOWN ORBITALS
  NO   OCC          E(Eh)            E(eV)
   0   1.0000     -91.960844     -2502.3818
   1   1.0000     -11.261831      -306.4500
   2   1.0000      -8.964863      -243.9463
   3   1.0000      -7.617354      -207.2787
   4   1.0000      -6.647266      -180.8813
   5   1.0000      -6.646145      -180.8508
   6   1.0000      -6.645371      -180.8297
   7   1.0000      -1.045754       -28.4564
   8   1.0000      -0.886076       -24.1114
   9   1.0000      -0.636778       -17.3276
  10   1.0000      -0.599779       -16.3208
  11   1.0000      -0.575936       -15.6720
  12   1.0000      -0.532674       -14.4948
  13   1.0000      -0.437649       -11.9090
  14   1.0000      -0.390576       -10.6281
  15   0.0000       0.024032         0.6540
  16   0.0000       0.033252         0.9048
  17   0.0000       0.034700         0.9442
  18   0.0000       0.036118         0.9828
  19   0.0000       0.053455         1.4546

MULLIKEN ATOMIC CHARGES AND SPIN POPULATIONS
--------------------------------------------
   0 B :    0.099729    1.038326
   1 S :    0.052611   -0.122345
   2 C :   -0.832347    0.124523
   3 H :    0.275755    0.000208
   4 H :    0.310715   -0.019114
   5 H :    0.275755    0.000208
   6 H :   -0.182218   -0.021806
Sum of atomic charges         :   -0.0000000

LOEWDIN ATOMIC CHARGES AND SPIN POPULATIONS
-------------------------------------------
   0 B :   -0.297558    0.578635
   1 S :    1.259106    0.170888
   2 C :    0.541293    0.037902
   3 H :   -0.379158    0.009153
   4 H :   -0.395070    0.015321
   5 H :   -0.379158    0.009154
   6 H :   -0.349455    0.178947

  Mayer bond orders larger than 0.100000
B(  0-B ,  1-S ) :   1.5613 B(  0-B ,  6-H ) :   0.9149 B(  1-S ,  2-C ) :   0.9384
B(  2-C ,  3-H ) :   0.9077 B(  2-C ,  4-H ) :   0.9043 B(  2-C ,  5-H ) :   0.9077

MP2 TOTAL ENERGY:     -462.879529823 Eh
FINAL SINGLE POINT ENERGY      -462.879529822710

DIPOLE MOMENT
-------------
                                X             Y             Z
Electronic contribution:     -3.78832      -2.54006       0.00001
Nuclear contribution   :      4.56126       2.96135      -0.00001
                        -----------------------------------------
Total Dipole Moment    :      0.77294       0.42129      -0.00000
                        -----------------------------------------
Magnitude (a.u.)       :      0.88029
Magnitude (Debye)      :      2.23752

Rotational constants in cm-1:     0.765450     0.278674     0.212488
Rotational constants in MHz : 22947.618470  8354.430493  6370.223386

                             ****ORCA TERMINATED NORMALLY****
TOTAL RUN TIME: 0 days 0 hours 12 minutes 54 seconds 688 msec
