                         Program Version 5.0.4 -  RELEASE  -
|  1> ! ri-mp2 aug-cc-pvdz aug-cc-pvdz/c tightscf
|  2> %pal nprocs 16 end
|  3> %maxcore 3800
|  4> %base "DZ_B-P_24_AB"
|  5>
|  6> *xyz 0 1
|  7> P        -0.102701    0.618870    0.733001
|  8> B         1.430018   -0.333261   -0.007364
|  9> N        -1.407011   -0.431706   -0.007720
| 10> O         2.531835    0.432993   -0.189885
| 11> O         1.427470   -1.653792   -0.247655
| 12> O        -1.285785   -1.643995    0.139628
| 13> O        -2.359302    0.090837   -0.532587
| 14> C        -0.234160    2.087763   -0.342043
| 15> H        -1.095765    2.684105   -0.053963
| 16> H        -0.299586    1.838942   -1.398360
| 17> H         0.671661    2.671190   -0.170385
| 18> H         3.298279   -0.066986   -0.494034
| 19> H         0.556124   -2.056978   -0.091170
| 20> *
| 21>
| 22> $new_job
| 23> ! ri-mp2 aug-cc-pvtz aug-cc-pvtz/c tightscf
| 24> %pal nprocs 16 end
| 25> %maxcore 3800
| 26> %base "TZ_B-P_24_AB"
| 27>
| 28> *xyz 0 1
| 29> P        -0.102701    0.618870    0.733001
| 30> B         1.430018   -0.333261   -0.007364
| 31> N        -1.407011   -0.431706   -0.007720
| 32> O         2.531835    0.432993   -0.189885
| 33> O         1.427470   -1.653792   -0.247655
| 34> O        -1.285785   -1.643995    0.139628
| 35> O        -2.359302    0.090837   -0.532587
| 36> C        -0.234160    2.087763   -0.342043
| 37> H        -1.095765    2.684105   -0.053963
| 38> H        -0.299586    1.838942   -1.398360
| 39> H         0.671661    2.671190   -0.170385
| 40> H         3.298279   -0.066986   -0.494034
| 41> H         0.556124   -2.056978   -0.091170
| 42> *
| 43>
| 44> $new_job
| 45> ! ri-mp2 aug-cc-pvqz aug-cc-pvqz/c tightscf
| 46> %pal nprocs 16 end
| 47> %maxcore 3800
| 48> %base "QZ_B-P_24_AB"
| 49>
| 50> *xyz 0 1
| 51> P        -0.102701    0.618870    0.733001
| 52> B         1.430018   -0.333261   -0.007364
| 53> N        -1.407011   -0.431706   -0.007720
| 54> O         2.531835    0.432993   -0.189885
| 55> O         1.427470   -1.653792   -0.247655
| 56> O        -1.285785   -1.643995    0.139628
| 57> O        -2.359302    0.090837   -0.532587
| 58> C        -0.234160    2.087763   -0.342043
| 59> H        -1.095765    2.684105   -0.053963
| 60> H        -0.299586    1.838942   -1.398360
| 61> H         0.671661    2.671190   -0.170385
| 62> H         3.298279   -0.066986   -0.494034
| 63> H         0.556124   -2.056978   -0.091170
| 64> *
| 65>
| 66>
| 67>
| 68>
| 69>                          ****END OF INPUT****
 Total Charge           Charge          ....    0
 Multiplicity           Mult            ....    1
 Number of Electrons    NEL             ....   70
MP2 TOTAL ENERGY:     -761.510643172 Eh
FINAL SINGLE POINT ENERGY      -761.510643172250
MP2 TOTAL ENERGY:     -761.911308024 Eh
FINAL SINGLE POINT ENERGY      -761.911308024387

CARTESIAN COORDINATES (ANGSTROEM)
---------------------------------
  P     -0.102701    0.618870    0.733001
  B      1.430018   -0.333261   -0.007364
  N     -1.407011   -0.431706   -0.007720
  O      2.531835    0.432993   -0.189885
  O      1.427470   -1.653792   -0.247655
  O     -1.285785   -1.643995    0.139628
  O     -2.359302    0.090837   -0.532587
  C     -0.234160    2.087763   -0.342043
  H     -1.095765    2.684105   -0.053963
  H     -0.299586    1.838942   -1.398360
  H      0.671661    2.671190   -0.170385
  H      3.298279   -0.066986   -0.494034
  H      0.556124   -2.056978   -0.091170

 Multiplicity           Mult            ....    1
 Number of Electrons    NEL             ....   70
 Basis Dimension        Dim             ....  874

ORBITAL ENERGIES
----------------

  NO   OCC          E(Eh)            E(eV)
   0   2.0000     -79.992892     -2176.7172
   1   2.0000     -20.615327      -560.9716
   2   2.0000     -20.603717      -560.6556
   3   2.0000     -20.595061      -560.4201
   4   2.0000     -20.583171      -560.0966
   5   2.0000     -15.840128      -431.0318
   6   2.0000     -11.255043      -306.2653
   7   2.0000      -7.676367      -208.8846
   8   2.0000      -7.535200      -205.0432
   9   2.0000      -5.429539      -147.7453
  10   2.0000      -5.427938      -147.7017
  11   2.0000      -5.427428      -147.6878
  12   2.0000      -1.613647       -43.9096
  13   2.0000      -1.413955       -38.4757
  14   2.0000      -1.406658       -38.2771
  15   2.0000      -1.371618       -37.3236
  16   2.0000      -1.042885       -28.3784
  17   2.0000      -0.961215       -26.1560
  18   2.0000      -0.829448       -22.5704
  19   2.0000      -0.801913       -21.8212
  20   2.0000      -0.759259       -20.6605
  21   2.0000      -0.734604       -19.9896
  22   2.0000      -0.723507       -19.6876
  23   2.0000      -0.697965       -18.9926
  24   2.0000      -0.632658       -17.2155
  25   2.0000      -0.607861       -16.5407
  26   2.0000      -0.597184       -16.2502
  27   2.0000      -0.596103       -16.2208
  28   2.0000      -0.590610       -16.0713
  29   2.0000      -0.525931       -14.3113
  30   2.0000      -0.514408       -13.9978
  31   2.0000      -0.488084       -13.2814
  32   2.0000      -0.470732       -12.8093
  33   2.0000      -0.466877       -12.7044
  34   2.0000      -0.390358       -10.6222
  35   0.0000       0.018685         0.5084
  36   0.0000       0.030068         0.8182
  37   0.0000       0.033858         0.9213
  38   0.0000       0.037795         1.0285
  39   0.0000       0.049385         1.3438

MULLIKEN ATOMIC CHARGES
-----------------------
   0 P :    0.745356
   1 B :    1.336458
   2 N :    0.693481
   3 O :   -0.992629
   4 O :   -1.129077
   5 O :   -0.656481
   6 O :   -0.598453
   7 C :   -1.149949
   8 H :    0.372432
   9 H :    0.289057
  10 H :    0.380055
  11 H :    0.328502
  12 H :    0.381250
Sum of atomic charges:   -0.0000000

LOEWDIN ATOMIC CHARGES
----------------------
   0 P :    0.932404
   1 B :   -1.408719
   2 N :   -1.000246
   3 O :    1.295334
   4 O :    1.325861
   5 O :    0.523318
   6 O :    0.470288
   7 C :    0.744617
   8 H :   -0.358748
   9 H :   -0.343716
  10 H :   -0.361574
  11 H :   -0.782941
  12 H :   -1.035876

  Mayer bond orders larger than 0.100000
B(  0-P ,  1-B ) :   1.0147 B(  0-P ,  2-N ) :   0.6167 B(  0-P ,  7-C ) :   0.9558
B(  1-B ,  3-O ) :   0.3889 B(  1-B ,  4-O ) :   0.5344 B(  2-N ,  5-O ) :   1.1524
B(  2-N ,  6-O ) :   1.3295 B(  3-O ,  4-O ) :  -0.1085 B(  3-O , 11-H ) :   0.9395
B(  4-O , 12-H ) :   0.8716 B(  5-O ,  6-O ) :   0.1249 B(  7-C ,  8-H ) :   0.8603
B(  7-C ,  9-H ) :   0.9024 B(  7-C , 10-H ) :   0.8486

MP2 TOTAL ENERGY:     -762.044038130 Eh
FINAL SINGLE POINT ENERGY      -762.044038129849

DIPOLE MOMENT
-------------
                                X             Y             Z
Electronic contribution:     -0.83555      -3.64937       2.74399
Nuclear contribution   :      1.99151       4.51849      -2.79882
                        -----------------------------------------
Total Dipole Moment    :      1.15596       0.86912      -0.05483
                        -----------------------------------------
Magnitude (a.u.)       :      1.44729
Magnitude (Debye)      :      3.67871

Rotational constants in cm-1:     0.081544     0.049420     0.034077
Rotational constants in MHz :  2444.634614  1481.578702  1021.590416

                             ****ORCA TERMINATED NORMALLY****
TOTAL RUN TIME: 0 days 0 hours 15 minutes 0 seconds 710 msec
