                         Program Version 5.0.4 -  RELEASE  -
|  1> ! ri-mp2 aug-cc-pvdz aug-cc-pvdz/c tightscf
|  2> %pal nprocs 16 end
|  3> %maxcore 3800
|  4> %base "DZ_P-Si_55_AB"
|  5>
|  6> *xyz 0 1
|  7> Si         2.378416    0.126407   -0.518417
|  8> P         1.117381   -1.297541    0.695402
|  9> C        -0.513361   -0.549830    0.323815
| 10> C        -1.166139   -0.933417   -0.844908
| 11> C        -1.136525    0.371375    1.160316
| 12> C        -2.375321    0.896313    0.835353
| 13> C        -3.008452    0.517696   -0.336509
| 14> C        -2.398264   -0.398236   -1.176799
| 15> H        -3.974742    0.931559   -0.591670
| 16> H        -2.887033   -0.704892   -2.092186
| 17> H        -0.706152   -1.661444   -1.502120
| 18> H        -0.648023    0.684979    2.073662
| 19> H        -2.845774    1.608965    1.500126
| 20> C         1.948700    1.923790   -0.256924
| 21> H         0.900554    2.106436   -0.493343
| 22> H         2.559938    2.563154   -0.895428
| 23> H         2.118043    2.217982    0.779309
| 24> H         1.349988   -0.642617    1.927192
| 25> H         2.175025   -0.247131   -1.937394
| 26> H         3.795812   -0.129718   -0.167401
| 27> *
| 28>
| 29> $new_job
| 30> ! ri-mp2 aug-cc-pvtz aug-cc-pvtz/c tightscf
| 31> %pal nprocs 16 end
| 32> %maxcore 3800
| 33> %base "TZ_P-Si_55_AB"
| 34>
| 35> *xyz 0 1
| 36> Si         2.378416    0.126407   -0.518417
| 37> P         1.117381   -1.297541    0.695402
| 38> C        -0.513361   -0.549830    0.323815
| 39> C        -1.166139   -0.933417   -0.844908
| 40> C        -1.136525    0.371375    1.160316
| 41> C        -2.375321    0.896313    0.835353
| 42> C        -3.008452    0.517696   -0.336509
| 43> C        -2.398264   -0.398236   -1.176799
| 44> H        -3.974742    0.931559   -0.591670
| 45> H        -2.887033   -0.704892   -2.092186
| 46> H        -0.706152   -1.661444   -1.502120
| 47> H        -0.648023    0.684979    2.073662
| 48> H        -2.845774    1.608965    1.500126
| 49> C         1.948700    1.923790   -0.256924
| 50> H         0.900554    2.106436   -0.493343
| 51> H         2.559938    2.563154   -0.895428
| 52> H         2.118043    2.217982    0.779309
| 53> H         1.349988   -0.642617    1.927192
| 54> H         2.175025   -0.247131   -1.937394
| 55> H         3.795812   -0.129718   -0.167401
| 56> *
| 57>
| 58> $new_job
| 59> ! ri-mp2 aug-cc-pvqz aug-cc-pvqz/c tightscf
| 60> %pal nprocs 16 end
| 61> %maxcore 3800
| 62> %base "QZ_P-Si_55_AB"
| 63>
| 64> *xyz 0 1
| 65> Si         2.378416    0.126407   -0.518417
| 66> P         1.117381   -1.297541    0.695402
| 67> C        -0.513361   -0.549830    0.323815
| 68> C        -1.166139   -0.933417   -0.844908
| 69> C        -1.136525    0.371375    1.160316
| 70> C        -2.375321    0.896313    0.835353
| 71> C        -3.008452    0.517696   -0.336509
| 72> C        -2.398264   -0.398236   -1.176799
| 73> H        -3.974742    0.931559   -0.591670
| 74> H        -2.887033   -0.704892   -2.092186
| 75> H        -0.706152   -1.661444   -1.502120
| 76> H        -0.648023    0.684979    2.073662
| 77> H        -2.845774    1.608965    1.500126
| 78> C         1.948700    1.923790   -0.256924
| 79> H         0.900554    2.106436   -0.493343
| 80> H         2.559938    2.563154   -0.895428
| 81> H         2.118043    2.217982    0.779309
| 82> H         1.349988   -0.642617    1.927192
| 83> H         2.175025   -0.247131   -1.937394
| 84> H         3.795812   -0.129718   -0.167401
| 85> *
| 86>
| 87>
| 88>
| 89>
| 90>                          ****END OF INPUT****
 Total Charge           Charge          ....    0
 Multiplicity           Mult            ....    1
 Number of Electrons    NEL             ....   82
MP2 TOTAL ENERGY:     -902.392549280 Eh
FINAL SINGLE POINT ENERGY      -902.392549280236
MP2 TOTAL ENERGY:     -902.716254361 Eh
FINAL SINGLE POINT ENERGY      -902.716254360995

CARTESIAN COORDINATES (ANGSTROEM)
---------------------------------
  Si     2.378416    0.126407   -0.518417
  P      1.117381   -1.297541    0.695402
  C     -0.513361   -0.549830    0.323815
  C     -1.166139   -0.933417   -0.844908
  C     -1.136525    0.371375    1.160316
  C     -2.375321    0.896313    0.835353
  C     -3.008452    0.517696   -0.336509
  C     -2.398264   -0.398236   -1.176799
  H     -3.974742    0.931559   -0.591670
  H     -2.887033   -0.704892   -2.092186
  H     -0.706152   -1.661444   -1.502120
  H     -0.648023    0.684979    2.073662
  H     -2.845774    1.608965    1.500126
  C      1.948700    1.923790   -0.256924
  H      0.900554    2.106436   -0.493343
  H      2.559938    2.563154   -0.895428
  H      2.118043    2.217982    0.779309
  H      1.349988   -0.642617    1.927192
  H      2.175025   -0.247131   -1.937394
  H      3.795812   -0.129718   -0.167401

 Multiplicity           Mult            ....    1
 Number of Electrons    NEL             ....   82
 Basis Dimension        Dim             .... 1234

ORBITAL ENERGIES
----------------

  NO   OCC          E(Eh)            E(eV)
   0   2.0000     -79.928317     -2174.9601
   1   2.0000     -68.768424     -1871.2839
   2   2.0000     -11.246528      -306.0336
   3   2.0000     -11.238341      -305.8108
   4   2.0000     -11.238118      -305.8047
   5   2.0000     -11.237163      -305.7788
   6   2.0000     -11.236813      -305.7692
   7   2.0000     -11.235476      -305.7328
   8   2.0000     -11.206576      -304.9464
   9   2.0000      -7.472651      -203.3412
  10   2.0000      -6.117759      -166.4727
  11   2.0000      -5.366724      -146.0360
  12   2.0000      -5.366250      -146.0231
  13   2.0000      -5.365653      -146.0068
  14   2.0000      -4.224169      -114.9455
  15   2.0000      -4.223947      -114.9395
  16   2.0000      -4.223404      -114.9247
  17   2.0000      -1.162556       -31.6348
  18   2.0000      -1.031331       -28.0639
  19   2.0000      -1.023357       -27.8470
  20   2.0000      -0.951038       -25.8791
  21   2.0000      -0.868558       -23.6347
  22   2.0000      -0.833615       -22.6838
  23   2.0000      -0.790409       -21.5081
  24   2.0000      -0.703526       -19.1439
  25   2.0000      -0.669510       -18.2183
  26   2.0000      -0.636805       -17.3283
  27   2.0000      -0.629341       -17.1252
  28   2.0000      -0.593612       -16.1530
  29   2.0000      -0.569226       -15.4894
  30   2.0000      -0.564235       -15.3536
  31   2.0000      -0.555643       -15.1198
  32   2.0000      -0.516193       -14.0463
  33   2.0000      -0.501499       -13.6465
  34   2.0000      -0.491114       -13.3639
  35   2.0000      -0.466157       -12.6848
  36   2.0000      -0.463826       -12.6214
  37   2.0000      -0.429910       -11.6984
  38   2.0000      -0.382807       -10.4167
  39   2.0000      -0.345365        -9.3979
  40   2.0000      -0.311752        -8.4832
  41   0.0000       0.021783         0.5928
  42   0.0000       0.027671         0.7530
  43   0.0000       0.028485         0.7751
  44   0.0000       0.034874         0.9490
  45   0.0000       0.040347         1.0979

MULLIKEN ATOMIC CHARGES
-----------------------
   0 Si:    0.936178
   1 P :    0.127644
   2 C :   -0.060640
   3 C :   -0.341947
   4 C :   -0.404987
   5 C :   -0.196628
   6 C :   -0.374814
   7 C :   -0.250150
   8 H :    0.368657
   9 H :    0.248703
  10 H :    0.354611
  11 H :    0.299162
  12 H :    0.248950
  13 C :   -1.067877
  14 H :    0.290165
  15 H :    0.333173
  16 H :    0.235699
  17 H :   -0.121895
  18 H :   -0.251781
  19 H :   -0.372222
Sum of atomic charges:   -0.0000000

LOEWDIN ATOMIC CHARGES
----------------------
   0 Si:    0.586671
   1 P :    1.176154
   2 C :   -0.382549
   3 C :    0.220057
   4 C :    0.233181
   5 C :    0.336010
   6 C :    0.334924
   7 C :    0.336046
   8 H :   -0.321123
   9 H :   -0.318441
  10 H :   -0.339012
  11 H :   -0.343953
  12 H :   -0.318548
  13 C :    0.882467
  14 H :   -0.364650
  15 H :   -0.354829
  16 H :   -0.355392
  17 H :   -0.494532
  18 H :   -0.250661
  19 H :   -0.261822

  Mayer bond orders larger than 0.100000
B(  0-Si,  1-P ) :   0.8337 B(  0-Si, 13-C ) :   0.8440 B(  0-Si, 18-H ) :   0.7699
B(  0-Si, 19-H ) :   0.7294 B(  1-P ,  2-C ) :   0.8126 B(  1-P ,  3-C ) :  -0.2396
B(  1-P ,  4-C ) :  -0.1110 B(  1-P , 17-H ) :   0.9844 B(  2-C ,  3-C ) :   0.9163
B(  2-C ,  4-C ) :   0.8083 B(  2-C ,  5-C ) :  -0.3106 B(  2-C ,  7-C ) :  -0.2421
B(  2-C , 10-H ) :  -0.1266 B(  2-C , 17-H ) :  -0.1378 B(  3-C ,  5-C ) :   0.1442
B(  3-C ,  6-C ) :   0.1036 B(  3-C ,  7-C ) :   1.2847 B(  3-C ,  9-H ) :  -0.1370
B(  3-C , 10-H ) :   0.9104 B(  4-C ,  5-C ) :   1.3273 B(  4-C ,  6-C ) :   0.1529
B(  4-C ,  7-C ) :   0.1450 B(  4-C , 11-H ) :   0.9689 B(  4-C , 12-H ) :  -0.1445
B(  5-C ,  6-C ) :   1.1140 B(  5-C ,  7-C ) :  -0.1222 B(  5-C , 12-H ) :   1.1235
B(  6-C ,  7-C ) :   1.1397 B(  6-C ,  8-H ) :   0.9569 B(  7-C ,  9-H ) :   1.1179
B( 13-C , 14-H ) :   0.9074 B( 13-C , 15-H ) :   0.9227 B( 13-C , 16-H ) :   0.9501

MP2 TOTAL ENERGY:     -902.818188473 Eh
FINAL SINGLE POINT ENERGY      -902.818188473320

DIPOLE MOMENT
-------------
                                X             Y             Z
Electronic contribution:     -0.91385      -7.25742       2.00933
Nuclear contribution   :      0.62817       7.94384      -2.02713
                        -----------------------------------------
Total Dipole Moment    :     -0.28567       0.68642      -0.01779
                        -----------------------------------------
Magnitude (a.u.)       :      0.74370
Magnitude (Debye)      :      1.89034

Rotational constants in cm-1:     0.067598     0.024493     0.022726
Rotational constants in MHz :  2026.539062   734.270032   681.305613

                             ****ORCA TERMINATED NORMALLY****
TOTAL RUN TIME: 0 days 0 hours 54 minutes 6 seconds 515 msec
