                         Program Version 5.0.4 -  RELEASE  -
|  1> ! ri-mp2 aug-cc-pvdz aug-cc-pvdz/c tightscf
|  2> %pal nprocs 16 end
|  3> %maxcore 3800
|  4> %base "DZ_P-C_81_AB"
|  5>
|  6> *xyz 0 1
|  7> C        -0.361211    0.005071   -0.009951
|  8> P         1.529067    0.000593   -0.137313
|  9> N        -0.978995    1.315517   -0.453307
| 10> N        -0.869281   -0.228328    1.404572
| 11> O        -0.545479    0.637447    2.174087
| 12> O        -0.253013    2.047867   -1.082677
| 13> O         1.977293    1.306932    0.587427
| 14> O        -2.120652    1.503806   -0.148082
| 15> O         1.880420   -0.225930   -1.523675
| 16> O        -1.517167   -1.211344    1.623434
| 17> N        -0.865304   -1.104115   -0.910508
| 18> O        -0.332836   -2.167205   -0.708069
| 19> O        -1.697748   -0.840662   -1.727916
| 20> H         1.926951    2.093496    0.026888
| 21> O         1.916349   -1.056517    0.951434
| 22> H         1.842047   -1.969484    0.639507
| 23> *
| 24>
| 25> $new_job
| 26> ! ri-mp2 aug-cc-pvtz aug-cc-pvtz/c tightscf
| 27> %pal nprocs 16 end
| 28> %maxcore 3800
| 29> %base "TZ_P-C_81_AB"
| 30>
| 31> *xyz 0 1
| 32> C        -0.361211    0.005071   -0.009951
| 33> P         1.529067    0.000593   -0.137313
| 34> N        -0.978995    1.315517   -0.453307
| 35> N        -0.869281   -0.228328    1.404572
| 36> O        -0.545479    0.637447    2.174087
| 37> O        -0.253013    2.047867   -1.082677
| 38> O         1.977293    1.306932    0.587427
| 39> O        -2.120652    1.503806   -0.148082
| 40> O         1.880420   -0.225930   -1.523675
| 41> O        -1.517167   -1.211344    1.623434
| 42> N        -0.865304   -1.104115   -0.910508
| 43> O        -0.332836   -2.167205   -0.708069
| 44> O        -1.697748   -0.840662   -1.727916
| 45> H         1.926951    2.093496    0.026888
| 46> O         1.916349   -1.056517    0.951434
| 47> H         1.842047   -1.969484    0.639507
| 48> *
| 49>
| 50> $new_job
| 51> ! ri-mp2 aug-cc-pvqz aug-cc-pvqz/c tightscf
| 52> %pal nprocs 16 end
| 53> %maxcore 3800
| 54> %base "QZ_P-C_81_AB"
| 55>
| 56> *xyz 0 1
| 57> C        -0.361211    0.005071   -0.009951
| 58> P         1.529067    0.000593   -0.137313
| 59> N        -0.978995    1.315517   -0.453307
| 60> N        -0.869281   -0.228328    1.404572
| 61> O        -0.545479    0.637447    2.174087
| 62> O        -0.253013    2.047867   -1.082677
| 63> O         1.977293    1.306932    0.587427
| 64> O        -2.120652    1.503806   -0.148082
| 65> O         1.880420   -0.225930   -1.523675
| 66> O        -1.517167   -1.211344    1.623434
| 67> N        -0.865304   -1.104115   -0.910508
| 68> O        -0.332836   -2.167205   -0.708069
| 69> O        -1.697748   -0.840662   -1.727916
| 70> H         1.926951    2.093496    0.026888
| 71> O         1.916349   -1.056517    0.951434
| 72> H         1.842047   -1.969484    0.639507
| 73> *
| 74>
| 75>
| 76>
| 77>
| 78>                          ****END OF INPUT****
 Total Charge           Charge          ....    0
 Multiplicity           Mult            ....    1
 Number of Electrons    NEL             ....  116
MP2 TOTAL ENERGY:    -1219.278822077 Eh
FINAL SINGLE POINT ENERGY     -1219.278822077214
MP2 TOTAL ENERGY:    -1220.065411578 Eh
FINAL SINGLE POINT ENERGY     -1220.065411578277

CARTESIAN COORDINATES (ANGSTROEM)
---------------------------------
  C     -0.361211    0.005071   -0.009951
  P      1.529067    0.000593   -0.137313
  N     -0.978995    1.315517   -0.453307
  N     -0.869281   -0.228328    1.404572
  O     -0.545479    0.637447    2.174087
  O     -0.253013    2.047867   -1.082677
  O      1.977293    1.306932    0.587427
  O     -2.120652    1.503806   -0.148082
  O      1.880420   -0.225930   -1.523675
  O     -1.517167   -1.211344    1.623434
  N     -0.865304   -1.104115   -0.910508
  O     -0.332836   -2.167205   -0.708069
  O     -1.697748   -0.840662   -1.727916
  H      1.926951    2.093496    0.026888
  O      1.916349   -1.056517    0.951434
  H      1.842047   -1.969484    0.639507

 Multiplicity           Mult            ....    1
 Number of Electrons    NEL             ....  116
 Basis Dimension        Dim             .... 1216

ORBITAL ENERGIES
----------------

  NO   OCC          E(Eh)            E(eV)
   0   2.0000     -80.147137     -2180.9145
   1   2.0000     -20.675645      -562.6129
   2   2.0000     -20.674910      -562.5929
   3   2.0000     -20.671586      -562.5025
   4   2.0000     -20.670880      -562.4832
   5   2.0000     -20.664973      -562.3225
   6   2.0000     -20.664732      -562.3159
   7   2.0000     -20.660081      -562.1894
   8   2.0000     -20.658811      -562.1548
   9   2.0000     -20.565846      -559.6251
  10   2.0000     -15.927443      -433.4077
  11   2.0000     -15.925761      -433.3620
  12   2.0000     -15.925426      -433.3529
  13   2.0000     -11.479901      -312.3840
  14   2.0000      -7.668400      -208.6678
  15   2.0000      -5.566840      -151.4814
  16   2.0000      -5.566729      -151.4784
  17   2.0000      -5.565292      -151.4393
  18   2.0000      -1.711256       -46.5657
  19   2.0000      -1.686842       -45.9013
  20   2.0000      -1.685347       -45.8606
  21   2.0000      -1.508269       -41.0421
  22   2.0000      -1.491349       -40.5817
  23   2.0000      -1.488079       -40.4927
  24   2.0000      -1.484903       -40.4063
  25   2.0000      -1.449002       -39.4293
  26   2.0000      -1.365457       -37.1560
  27   2.0000      -1.244082       -33.8532
  28   2.0000      -1.032806       -28.1041
  29   2.0000      -1.028129       -27.9768
  30   2.0000      -0.939207       -25.5571
  31   2.0000      -0.891875       -24.2691
  32   2.0000      -0.868484       -23.6327
  33   2.0000      -0.862885       -23.4803
  34   2.0000      -0.841638       -22.9021
  35   2.0000      -0.798780       -21.7359
  36   2.0000      -0.797735       -21.7075
  37   2.0000      -0.789586       -21.4857
  38   2.0000      -0.789138       -21.4735
  39   2.0000      -0.778201       -21.1759
  40   2.0000      -0.775919       -21.1138
  41   2.0000      -0.753447       -20.5023
  42   2.0000      -0.709701       -19.3120
  43   2.0000      -0.692400       -18.8412
  44   2.0000      -0.644320       -17.5328
  45   2.0000      -0.623792       -16.9743
  46   2.0000      -0.618640       -16.8341
  47   2.0000      -0.588988       -16.0272
  48   2.0000      -0.576474       -15.6866
  49   2.0000      -0.569043       -15.4844
  50   2.0000      -0.559701       -15.2302
  51   2.0000      -0.548007       -14.9120
  52   2.0000      -0.543190       -14.7810
  53   2.0000      -0.533373       -14.5138
  54   2.0000      -0.524062       -14.2604
  55   2.0000      -0.519569       -14.1382
  56   2.0000      -0.510946       -13.9036
  57   2.0000      -0.505940       -13.7673
  58   0.0000       0.011468         0.3121
  59   0.0000       0.019634         0.5343
  60   0.0000       0.020820         0.5665
  61   0.0000       0.030190         0.8215
  62   0.0000       0.031708         0.8628

MULLIKEN ATOMIC CHARGES
-----------------------
   0 C :    0.195173
   1 P :    2.832606
   2 N :    1.025499
   3 N :    1.025958
   4 O :   -0.620175
   5 O :   -0.628254
   6 O :   -1.046490
   7 O :   -0.581288
   8 O :   -1.212976
   9 O :   -0.607515
  10 N :    1.050756
  11 O :   -0.624946
  12 O :   -0.609646
  13 H :    0.418210
  14 O :   -1.036434
  15 H :    0.419524
Sum of atomic charges:    0.0000000

LOEWDIN ATOMIC CHARGES
----------------------
   0 C :   -0.925645
   1 P :   -0.742299
   2 N :   -0.920294
   3 N :   -0.928576
   4 O :    0.586220
   5 O :    0.592043
   6 O :    1.125683
   7 O :    0.599106
   8 O :    0.352957
   9 O :    0.587062
  10 N :   -0.923661
  11 O :    0.583819
  12 O :    0.601910
  13 H :   -0.866298
  14 O :    1.127765
  15 H :   -0.849793

  Mayer bond orders larger than 0.100000
B(  0-C ,  1-P ) :   0.5356 B(  0-C ,  2-N ) :   0.8075 B(  0-C ,  3-N ) :   0.8136
B(  0-C ,  4-O ) :   0.1054 B(  0-C ,  5-O ) :   0.1198 B(  0-C ,  6-O ) :  -0.1462
B(  0-C ,  7-O ) :   0.1134 B(  0-C ,  8-O ) :  -0.2111 B(  0-C ,  9-O ) :   0.1313
B(  0-C , 10-N ) :   0.8029 B(  0-C , 11-O ) :   0.1019 B(  0-C , 12-O ) :   0.1795
B(  0-C , 14-O ) :  -0.1427 B(  1-P ,  6-O ) :   0.5675 B(  1-P ,  8-O ) :   1.3565
B(  1-P , 14-O ) :   0.5226 B(  2-N ,  5-O ) :   1.1253 B(  2-N ,  7-O ) :   1.2225
B(  3-N ,  4-O ) :   1.1979 B(  3-N ,  9-O ) :   1.2018 B(  4-O ,  9-O ) :   0.1327
B(  5-O ,  7-O ) :   0.1564 B(  6-O , 13-H ) :   0.8388 B( 10-N , 11-O ) :   1.1807
B( 10-N , 12-O ) :   1.1621 B( 11-O , 12-O ) :   0.1358 B( 14-O , 15-H ) :   0.8420

MP2 TOTAL ENERGY:    -1220.331295237 Eh
FINAL SINGLE POINT ENERGY     -1220.331295237159

DIPOLE MOMENT
-------------
                                X             Y             Z
Electronic contribution:     -1.32349       0.00916      -0.26936
Nuclear contribution   :      2.15572       0.11624       0.75416
                        -----------------------------------------
Total Dipole Moment    :      0.83223       0.12540       0.48480
                        -----------------------------------------
Magnitude (a.u.)       :      0.97127
Magnitude (Debye)      :      2.46877

Rotational constants in cm-1:     0.027680     0.022512     0.021833
Rotational constants in MHz :   829.831482   674.885581   654.548429

                             ****ORCA TERMINATED NORMALLY****
TOTAL RUN TIME: 0 days 0 hours 52 minutes 38 seconds 879 msec
