                         Program Version 5.0.4 -  RELEASE  -
|  1> ! ri-mp2 aug-cc-pvdz aug-cc-pvdz/c tightscf
|  2> %pal nprocs 16 end
|  3> %maxcore 3800
|  4> %base "DZ_Si-F_25_AB"
|  5>
|  6> *xyz 0 1
|  7> F        -0.066109    1.453100    1.285117
|  8> Si         0.000000    0.585276   -0.000001
|  9> N        -1.445912   -0.506592   -0.129199
| 10> N         1.445914   -0.506588    0.129202
| 11> O         2.421929   -0.372458   -0.567613
| 12> O         1.288481   -1.331123    1.014244
| 13> O        -1.288477   -1.331132   -1.014237
| 14> O        -2.421930   -0.372456    0.567609
| 15> F         0.066105    1.453094   -1.285122
| 16> *
| 17>
| 18> $new_job
| 19> ! ri-mp2 aug-cc-pvtz aug-cc-pvtz/c tightscf
| 20> %pal nprocs 16 end
| 21> %maxcore 3800
| 22> %base "TZ_Si-F_25_AB"
| 23>
| 24> *xyz 0 1
| 25> F        -0.066109    1.453100    1.285117
| 26> Si         0.000000    0.585276   -0.000001
| 27> N        -1.445912   -0.506592   -0.129199
| 28> N         1.445914   -0.506588    0.129202
| 29> O         2.421929   -0.372458   -0.567613
| 30> O         1.288481   -1.331123    1.014244
| 31> O        -1.288477   -1.331132   -1.014237
| 32> O        -2.421930   -0.372456    0.567609
| 33> F         0.066105    1.453094   -1.285122
| 34> *
| 35>
| 36> $new_job
| 37> ! ri-mp2 aug-cc-pvqz aug-cc-pvqz/c tightscf
| 38> %pal nprocs 16 end
| 39> %maxcore 3800
| 40> %base "QZ_Si-F_25_AB"
| 41>
| 42> *xyz 0 1
| 43> F        -0.066109    1.453100    1.285117
| 44> Si         0.000000    0.585276   -0.000001
| 45> N        -1.445912   -0.506592   -0.129199
| 46> N         1.445914   -0.506588    0.129202
| 47> O         2.421929   -0.372458   -0.567613
| 48> O         1.288481   -1.331123    1.014244
| 49> O        -1.288477   -1.331132   -1.014237
| 50> O        -2.421930   -0.372456    0.567609
| 51> F         0.066105    1.453094   -1.285122
| 52> *
| 53>
| 54>
| 55>
| 56>
| 57>                          ****END OF INPUT****
 Total Charge           Charge          ....    0
 Multiplicity           Mult            ....    1
 Number of Electrons    NEL             ....   78
MP2 TOTAL ENERGY:     -897.793826265 Eh
FINAL SINGLE POINT ENERGY      -897.793826265498
MP2 TOTAL ENERGY:     -898.342001939 Eh
FINAL SINGLE POINT ENERGY      -898.342001939497

CARTESIAN COORDINATES (ANGSTROEM)
---------------------------------
  F     -0.066109    1.453100    1.285117
  Si     0.000000    0.585276   -0.000001
  N     -1.445912   -0.506592   -0.129199
  N      1.445914   -0.506588    0.129202
  O      2.421929   -0.372458   -0.567613
  O      1.288481   -1.331123    1.014244
  O     -1.288477   -1.331132   -1.014237
  O     -2.421930   -0.372456    0.567609
  F      0.066105    1.453094   -1.285122

 Multiplicity           Mult            ....    1
 Number of Electrons    NEL             ....   78
 Basis Dimension        Dim             ....  724

ORBITAL ENERGIES
----------------

  NO   OCC          E(Eh)            E(eV)
   0   2.0000     -68.992494     -1877.3812
   1   2.0000     -26.390000      -718.1084
   2   2.0000     -26.389991      -718.1082
   3   2.0000     -20.658377      -562.1430
   4   2.0000     -20.658376      -562.1430
   5   2.0000     -20.652813      -561.9916
   6   2.0000     -20.652812      -561.9916
   7   2.0000     -15.876036      -432.0089
   8   2.0000     -15.876030      -432.0087
   9   2.0000      -6.327078      -172.1686
  10   2.0000      -4.435556      -120.6976
  11   2.0000      -4.435446      -120.6946
  12   2.0000      -4.435113      -120.6855
  13   2.0000      -1.708654       -46.4948
  14   2.0000      -1.688539       -45.9475
  15   2.0000      -1.657403       -45.1002
  16   2.0000      -1.654243       -45.0142
  17   2.0000      -1.458128       -39.6777
  18   2.0000      -1.456503       -39.6335
  19   2.0000      -1.044022       -28.4093
  20   2.0000      -0.994270       -27.0555
  21   2.0000      -0.875003       -23.8100
  22   2.0000      -0.834523       -22.7085
  23   2.0000      -0.833736       -22.6871
  24   2.0000      -0.817915       -22.2566
  25   2.0000      -0.776732       -21.1360
  26   2.0000      -0.775837       -21.1116
  27   2.0000      -0.773587       -21.0504
  28   2.0000      -0.766888       -20.8681
  29   2.0000      -0.765705       -20.8359
  30   2.0000      -0.753220       -20.4962
  31   2.0000      -0.748967       -20.3804
  32   2.0000      -0.736676       -20.0460
  33   2.0000      -0.558723       -15.2036
  34   2.0000      -0.556189       -15.1347
  35   2.0000      -0.531310       -14.4577
  36   2.0000      -0.512829       -13.9548
  37   2.0000      -0.503007       -13.6875
  38   2.0000      -0.495949       -13.4955
  39   0.0000       0.017983         0.4893
  40   0.0000       0.025667         0.6984
  41   0.0000       0.025686         0.6989
  42   0.0000       0.036703         0.9987
  43   0.0000       0.039604         1.0777

MULLIKEN ATOMIC CHARGES
-----------------------
   0 F :   -0.691571
   1 Si:    2.364845
   2 N :    0.567176
   3 N :    0.567175
   4 O :   -0.528263
   5 O :   -0.529764
   6 O :   -0.529765
   7 O :   -0.528262
   8 F :   -0.691572
Sum of atomic charges:    0.0000000

LOEWDIN ATOMIC CHARGES
----------------------
   0 F :    0.515527
   1 Si:   -1.199804
   2 N :   -0.873528
   3 N :   -0.873528
   4 O :    0.480183
   5 O :    0.477719
   6 O :    0.477719
   7 O :    0.480183
   8 F :    0.515528

  Mayer bond orders larger than 0.100000
B(  0-F ,  1-Si) :   0.5290 B(  1-Si,  2-N ) :   0.6304 B(  1-Si,  3-N ) :   0.6304
B(  1-Si,  8-F ) :   0.5290 B(  2-N ,  6-O ) :   1.3641 B(  2-N ,  7-O ) :   1.3479
B(  3-N ,  4-O ) :   1.3479 B(  3-N ,  5-O ) :   1.3641 B(  4-O ,  5-O ) :   0.1732
B(  6-O ,  7-O ) :   0.1732

MP2 TOTAL ENERGY:     -898.526584948 Eh
FINAL SINGLE POINT ENERGY      -898.526584947761

DIPOLE MOMENT
-------------
                                X             Y             Z
Electronic contribution:     -0.00000       3.83027      -0.00000
Nuclear contribution   :      0.00000      -2.74769       0.00000
                        -----------------------------------------
Total Dipole Moment    :      0.00000       1.08258       0.00000
                        -----------------------------------------
Magnitude (a.u.)       :      1.08258
Magnitude (Debye)      :      2.75169

Rotational constants in cm-1:     0.063719     0.041522     0.036834
Rotational constants in MHz :  1910.237534  1244.799774  1104.249000

                             ****ORCA TERMINATED NORMALLY****
TOTAL RUN TIME: 0 days 0 hours 8 minutes 59 seconds 937 msec
