                         Program Version 5.0.4 -  RELEASE  -
|  1> ! ri-mp2 aug-cc-pvdz aug-cc-pvdz/c tightscf
|  2> %pal nprocs 16 end
|  3> %maxcore 3800
|  4> %base "DZ_B-Cl_3_AB"
|  5> %scf
|  6> STABPerform true
|  7> STABRestartUHFifUnstable true
|  8> end
|  9>
| 10> *xyz 0 1
| 11> Cl         1.495005   -0.557681   -0.000000
| 12> Cl        -1.542718   -0.472423   -0.000003
| 13> O        -0.002563    1.700449    0.000004
| 14> B        -0.008849    0.362720    0.000003
| 15> H         0.875870    2.094577    0.000006
| 16> *
| 17>
| 18> $new_job
| 19> ! ri-mp2 aug-cc-pvtz aug-cc-pvtz/c tightscf
| 20> %pal nprocs 16 end
| 21> %maxcore 3800
| 22> %base "TZ_B-Cl_3_AB"
| 23>
| 24> *xyz 0 1
| 25> Cl         1.495005   -0.557681   -0.000000
| 26> Cl        -1.542718   -0.472423   -0.000003
| 27> O        -0.002563    1.700449    0.000004
| 28> B        -0.008849    0.362720    0.000003
| 29> H         0.875870    2.094577    0.000006
| 30> *
| 31>
| 32> $new_job
| 33> ! ri-mp2 aug-cc-pvqz aug-cc-pvqz/c tightscf
| 34> %pal nprocs 16 end
| 35> %maxcore 3800
| 36> %base "QZ_B-Cl_3_AB"
| 37>
| 38> *xyz 0 1
| 39> Cl         1.495005   -0.557681   -0.000000
| 40> Cl        -1.542718   -0.472423   -0.000003
| 41> O        -0.002563    1.700449    0.000004
| 42> B        -0.008849    0.362720    0.000003
| 43> H         0.875870    2.094577    0.000006
| 44> *
| 45>
| 46>
| 47>
| 48>
| 49>                          ****END OF INPUT****
 Total Charge           Charge          ....    0
 Multiplicity           Mult            ....    1
 Number of Electrons    NEL             ....   48
MP2 TOTAL ENERGY:    -1019.874954425 Eh
FINAL SINGLE POINT ENERGY     -1019.874954425327
MP2 TOTAL ENERGY:    -1020.081818767 Eh
FINAL SINGLE POINT ENERGY     -1020.081818766550

CARTESIAN COORDINATES (ANGSTROEM)
---------------------------------
  Cl     1.495005   -0.557681   -0.000000
  Cl    -1.542718   -0.472423   -0.000003
  O     -0.002563    1.700449    0.000004
  B     -0.008849    0.362720    0.000003
  H      0.875870    2.094577    0.000006

 Multiplicity           Mult            ....    1
 Number of Electrons    NEL             ....   48
 Basis Dimension        Dim             ....  374

ORBITAL ENERGIES
----------------

  NO   OCC          E(Eh)            E(eV)
   0   2.0000    -104.848301     -2853.0673
   1   2.0000    -104.841924     -2852.8938
   2   2.0000     -20.610413      -560.8379
   3   2.0000     -10.576096      -287.7902
   4   2.0000     -10.569782      -287.6184
   5   2.0000      -8.042961      -218.8601
   6   2.0000      -8.041808      -218.8287
   7   2.0000      -8.041664      -218.8248
   8   2.0000      -8.036688      -218.6894
   9   2.0000      -8.035505      -218.6572
  10   2.0000      -8.035316      -218.6521
  11   2.0000      -7.739696      -210.6078
  12   2.0000      -1.416597       -38.5476
  13   2.0000      -1.141840       -31.0710
  14   2.0000      -1.106585       -30.1117
  15   2.0000      -0.799452       -21.7542
  16   2.0000      -0.675157       -18.3719
  17   2.0000      -0.631675       -17.1887
  18   2.0000      -0.600489       -16.3401
  19   2.0000      -0.542233       -14.7549
  20   2.0000      -0.497334       -13.5331
  21   2.0000      -0.496182       -13.5018
  22   2.0000      -0.473907       -12.8957
  23   2.0000      -0.459167       -12.4946
  24   0.0000       0.024478         0.6661
  25   0.0000       0.040221         1.0945
  26   0.0000       0.040864         1.1120
  27   0.0000       0.042548         1.1578
  28   0.0000       0.065651         1.7864

MULLIKEN ATOMIC CHARGES
-----------------------
   0 Cl:   -0.188231
   1 Cl:   -0.152796
   2 O :   -0.993325
   3 B :    0.961279
   4 H :    0.373073
Sum of atomic charges:    0.0000000

LOEWDIN ATOMIC CHARGES
----------------------
   0 Cl:    1.197031
   1 Cl:    1.193258
   2 O :    1.156914
   3 B :   -2.690845
   4 H :   -0.856358

  Mayer bond orders larger than 0.100000
B(  0-Cl,  3-B ) :   1.0574 B(  1-Cl,  3-B ) :   1.1010 B(  2-O ,  3-B ) :   0.6439
B(  2-O ,  4-H ) :   0.9011

MP2 TOTAL ENERGY:    -1020.151985604 Eh
FINAL SINGLE POINT ENERGY     -1020.151985603798

DIPOLE MOMENT
-------------
                                X             Y             Z
Electronic contribution:     -0.30820      -2.55422      -0.00000
Nuclear contribution   :      0.86859       3.01593       0.00001
                        -----------------------------------------
Total Dipole Moment    :      0.56039       0.46171       0.00000
                        -----------------------------------------
Magnitude (a.u.)       :      0.72610
Magnitude (Debye)      :      1.84559

Rotational constants in cm-1:     0.237791     0.102525     0.071638
Rotational constants in MHz :  7128.803202  3073.626318  2147.652879

                             ****ORCA TERMINATED NORMALLY****
TOTAL RUN TIME: 0 days 0 hours 8 minutes 22 seconds 242 msec
