                         Program Version 5.0.4 -  RELEASE  -
|  1> ! ri-mp2 aug-cc-pvdz aug-cc-pvdz/c tightscf
|  2> %pal nprocs 16 end
|  3> %maxcore 3800
|  4> %base "DZ_S-S_20_AB"
|  5> %scf
|  6> STABPerform true
|  7> STABRestartUHFifUnstable true
|  8> end
|  9>
| 10> *xyz 0 1
| 11> C        -3.077476   -0.631941    0.249932
| 12> C        -1.716325   -0.376393   -0.330622
| 13> H        -3.725059   -1.029550   -0.528365
| 14> H        -3.514934    0.263984    0.687021
| 15> H        -2.972441   -1.383261    1.034054
| 16> C         3.077473   -0.631944   -0.249936
| 17> C         1.716327   -0.376391    0.330625
| 18> H         2.972421   -1.383209   -1.034109
| 19> H         3.725040   -1.029621    0.528339
| 20> H         3.514959    0.263997   -0.686966
| 21> O        -1.205263   -1.034907   -1.180839
| 22> O         1.205266   -1.034899    1.180848
| 23> S        -0.902505    1.029878    0.460886
| 24> S         0.902505    1.029879   -0.460888
| 25> *
| 26>
| 27> $new_job
| 28> ! ri-mp2 aug-cc-pvtz aug-cc-pvtz/c tightscf
| 29> %pal nprocs 16 end
| 30> %maxcore 3800
| 31> %base "TZ_S-S_20_AB"
| 32>
| 33> *xyz 0 1
| 34> C        -3.077476   -0.631941    0.249932
| 35> C        -1.716325   -0.376393   -0.330622
| 36> H        -3.725059   -1.029550   -0.528365
| 37> H        -3.514934    0.263984    0.687021
| 38> H        -2.972441   -1.383261    1.034054
| 39> C         3.077473   -0.631944   -0.249936
| 40> C         1.716327   -0.376391    0.330625
| 41> H         2.972421   -1.383209   -1.034109
| 42> H         3.725040   -1.029621    0.528339
| 43> H         3.514959    0.263997   -0.686966
| 44> O        -1.205263   -1.034907   -1.180839
| 45> O         1.205266   -1.034899    1.180848
| 46> S        -0.902505    1.029878    0.460886
| 47> S         0.902505    1.029879   -0.460888
| 48> *
| 49>
| 50> $new_job
| 51> ! ri-mp2 aug-cc-pvqz aug-cc-pvqz/c tightscf
| 52> %pal nprocs 16 end
| 53> %maxcore 3800
| 54> %base "QZ_S-S_20_AB"
| 55>
| 56> *xyz 0 1
| 57> C        -3.077476   -0.631941    0.249932
| 58> C        -1.716325   -0.376393   -0.330622
| 59> H        -3.725059   -1.029550   -0.528365
| 60> H        -3.514934    0.263984    0.687021
| 61> H        -2.972441   -1.383261    1.034054
| 62> C         3.077473   -0.631944   -0.249936
| 63> C         1.716327   -0.376391    0.330625
| 64> H         2.972421   -1.383209   -1.034109
| 65> H         3.725040   -1.029621    0.528339
| 66> H         3.514959    0.263997   -0.686966
| 67> O        -1.205263   -1.034907   -1.180839
| 68> O         1.205266   -1.034899    1.180848
| 69> S        -0.902505    1.029878    0.460886
| 70> S         0.902505    1.029879   -0.460888
| 71> *
| 72>
| 73>
| 74>
| 75>
| 76>                          ****END OF INPUT****
 Total Charge           Charge          ....    0
 Multiplicity           Mult            ....    1
 Number of Electrons    NEL             ....   78
MP2 TOTAL ENERGY:    -1101.039647023 Eh
FINAL SINGLE POINT ENERGY     -1101.039647022893
MP2 TOTAL ENERGY:    -1101.408836522 Eh
FINAL SINGLE POINT ENERGY     -1101.408836522418

CARTESIAN COORDINATES (ANGSTROEM)
---------------------------------
  C     -3.077476   -0.631941    0.249932
  C     -1.716325   -0.376393   -0.330622
  H     -3.725059   -1.029550   -0.528365
  H     -3.514934    0.263984    0.687021
  H     -2.972441   -1.383261    1.034054
  C      3.077473   -0.631944   -0.249936
  C      1.716327   -0.376391    0.330625
  H      2.972421   -1.383209   -1.034109
  H      3.725040   -1.029621    0.528339
  H      3.514959    0.263997   -0.686966
  O     -1.205263   -1.034907   -1.180839
  O      1.205266   -1.034899    1.180848
  S     -0.902505    1.029878    0.460886
  S      0.902505    1.029879   -0.460888

 Multiplicity           Mult            ....    1
 Number of Electrons    NEL             ....   78
 Basis Dimension        Dim             ....  924

ORBITAL ENERGIES
----------------

  NO   OCC          E(Eh)            E(eV)
   0   2.0000     -91.996065     -2503.3402
   1   2.0000     -91.996062     -2503.3401
   2   2.0000     -20.565679      -559.6206
   3   2.0000     -20.565678      -559.6205
   4   2.0000     -11.371170      -309.4253
   5   2.0000     -11.371169      -309.4253
   6   2.0000     -11.251383      -306.1657
   7   2.0000     -11.251383      -306.1657
   8   2.0000      -8.997804      -244.8427
   9   2.0000      -8.997587      -244.8368
  10   2.0000      -6.679157      -181.7491
  11   2.0000      -6.678761      -181.7383
  12   2.0000      -6.677627      -181.7075
  13   2.0000      -6.677516      -181.7045
  14   2.0000      -6.676932      -181.6886
  15   2.0000      -6.676922      -181.6883
  16   2.0000      -1.423537       -38.7364
  17   2.0000      -1.420119       -38.6434
  18   2.0000      -1.098277       -29.8856
  19   2.0000      -1.049753       -28.5652
  20   2.0000      -1.019614       -27.7451
  21   2.0000      -0.916973       -24.9521
  22   2.0000      -0.769651       -20.9433
  23   2.0000      -0.729639       -19.8545
  24   2.0000      -0.676647       -18.4125
  25   2.0000      -0.652418       -17.7532
  26   2.0000      -0.651110       -17.7176
  27   2.0000      -0.627822       -17.0839
  28   2.0000      -0.627333       -17.0706
  29   2.0000      -0.620547       -16.8859
  30   2.0000      -0.573188       -15.5972
  31   2.0000      -0.570300       -15.5186
  32   2.0000      -0.534062       -14.5326
  33   2.0000      -0.524650       -14.2764
  34   2.0000      -0.483824       -13.1655
  35   2.0000      -0.434259       -11.8168
  36   2.0000      -0.430452       -11.7132
  37   2.0000      -0.393871       -10.7178
  38   2.0000      -0.374004       -10.1772
  39   0.0000       0.026053         0.7089
  40   0.0000       0.026166         0.7120
  41   0.0000       0.040779         1.1097
  42   0.0000       0.041345         1.1251
  43   0.0000       0.046998         1.2789

MULLIKEN ATOMIC CHARGES
-----------------------
   0 C :   -0.812360
   1 C :    0.619353
   2 H :    0.289371
   3 H :    0.273518
   4 H :    0.314999
   5 C :   -0.812364
   6 C :    0.619347
   7 H :    0.314998
   8 H :    0.289377
   9 H :    0.273517
  10 O :   -0.742784
  11 O :   -0.742779
  12 S :    0.057904
  13 S :    0.057903
Sum of atomic charges:    0.0000000

LOEWDIN ATOMIC CHARGES
----------------------
   0 C :    0.774021
   1 C :   -1.172944
   2 H :   -0.314635
   3 H :   -0.346677
   4 H :   -0.302885
   5 C :    0.774020
   6 C :   -1.172942
   7 H :   -0.302885
   8 H :   -0.314636
   9 H :   -0.346673
  10 O :    0.625528
  11 O :    0.625528
  12 S :    0.737590
  13 S :    0.737589

  Mayer bond orders larger than 0.100000
B(  0-C ,  1-C ) :   0.8606 B(  0-C ,  2-H ) :   0.9655 B(  0-C ,  3-H ) :   0.9743
B(  0-C ,  4-H ) :   0.8682 B(  1-C , 10-O ) :   1.4618 B(  1-C , 12-S ) :   0.9298
B(  5-C ,  6-C ) :   0.8606 B(  5-C ,  7-H ) :   0.8682 B(  5-C ,  8-H ) :   0.9655
B(  5-C ,  9-H ) :   0.9743 B(  6-C , 11-O ) :   1.4618 B(  6-C , 13-S ) :   0.9298
B( 12-S , 13-S ) :   1.1271

MP2 TOTAL ENERGY:    -1101.529506937 Eh
FINAL SINGLE POINT ENERGY     -1101.529506937107

DIPOLE MOMENT
-------------
                                X             Y             Z
Electronic contribution:      0.00002       4.61185       0.00002
Nuclear contribution   :     -0.00001      -4.28502      -0.00003
                        -----------------------------------------
Total Dipole Moment    :      0.00000       0.32683      -0.00001
                        -----------------------------------------
Magnitude (a.u.)       :      0.32683
Magnitude (Debye)      :      0.83073

Rotational constants in cm-1:     0.090052     0.031586     0.028617
Rotational constants in MHz :  2699.694410   946.919571   857.916263

                             ****ORCA TERMINATED NORMALLY****
TOTAL RUN TIME: 0 days 1 hours 53 minutes 39 seconds 928 msec
