                         Program Version 5.0.4 -  RELEASE  -
|  1> ! ri-mp2 aug-cc-pvdz aug-cc-pvdz/c tightscf
|  2> %pal nprocs 16 end
|  3> %maxcore 3800
|  4> %base "DZ_B-B_19_A"
|  5> %scf
|  6> STABPerform true
|  7> STABRestartUHFifUnstable true
|  8> end
|  9>
| 10> *xyz 0 2
| 11> B         0.766683   -0.186848   -0.000000
| 12> O        -0.555916   -0.077039    0.000000
| 13> H        -0.923572    0.816847    0.000001
| 14> H         1.537484    0.733709   -0.000001
| 15> *
| 16>
| 17> $new_job
| 18> ! ri-mp2 aug-cc-pvtz aug-cc-pvtz/c tightscf
| 19> %pal nprocs 16 end
| 20> %maxcore 3800
| 21> %base "TZ_B-B_19_A"
| 22>
| 23> *xyz 0 2
| 24> B         0.766683   -0.186848   -0.000000
| 25> O        -0.555916   -0.077039    0.000000
| 26> H        -0.923572    0.816847    0.000001
| 27> H         1.537484    0.733709   -0.000001
| 28> *
| 29>
| 30> $new_job
| 31> ! ri-mp2 aug-cc-pvqz aug-cc-pvqz/c tightscf
| 32> %pal nprocs 16 end
| 33> %maxcore 3800
| 34> %base "QZ_B-B_19_A"
| 35>
| 36> *xyz 0 2
| 37> B         0.766683   -0.186848   -0.000000
| 38> O        -0.555916   -0.077039    0.000000
| 39> H        -0.923572    0.816847    0.000001
| 40> H         1.537484    0.733709   -0.000001
| 41> *
| 42>
| 43>
| 44>
| 45>
| 46>                          ****END OF INPUT****
 Total Charge           Charge          ....    0
 Multiplicity           Mult            ....    2
 Number of Electrons    NEL             ....   15
MP2 TOTAL ENERGY:     -100.966791050 Eh
FINAL SINGLE POINT ENERGY      -100.966791050457
MP2 TOTAL ENERGY:     -101.054800289 Eh
FINAL SINGLE POINT ENERGY      -101.054800289411

CARTESIAN COORDINATES (ANGSTROEM)
---------------------------------
  B      0.766683   -0.186848   -0.000000
  O     -0.555916   -0.077039    0.000000
  H     -0.923572    0.816847    0.000001
  H      1.537484    0.733709   -0.000001

 Multiplicity           Mult            ....    2
 Number of Electrons    NEL             ....   15
 Basis Dimension        Dim             ....  252

ORBITAL ENERGIES
----------------
                 SPIN UP ORBITALS
  NO   OCC          E(Eh)            E(eV)
   0   1.0000     -20.594663      -560.4093
   1   1.0000      -7.647270      -208.0928
   2   1.0000      -1.392294       -37.8862
   3   1.0000      -0.788801       -21.4644
   4   1.0000      -0.663180       -18.0460
   5   1.0000      -0.561204       -15.2711
   6   1.0000      -0.557853       -15.1800
   7   1.0000      -0.334630        -9.1057
   8   0.0000       0.023560         0.6411
   9   0.0000       0.038374         1.0442
  10   0.0000       0.040236         1.0949
  11   0.0000       0.042487         1.1561
  12   0.0000       0.063217         1.7202

                 SPIN DOWN ORBITALS
  NO   OCC          E(Eh)            E(eV)
   0   1.0000     -20.594181      -560.3962
   1   1.0000      -7.627901      -207.5657
   2   1.0000      -1.389810       -37.8187
   3   1.0000      -0.769060       -20.9272
   4   1.0000      -0.642376       -17.4799
   5   1.0000      -0.562530       -15.3072
   6   1.0000      -0.528511       -14.3815
   7   0.0000       0.023320         0.6346
   8   0.0000       0.037533         1.0213
   9   0.0000       0.039899         1.0857
  10   0.0000       0.042452         1.1552
  11   0.0000       0.062461         1.6996

MULLIKEN ATOMIC CHARGES AND SPIN POPULATIONS
--------------------------------------------
   0 B :    0.639248    0.994001
   1 O :   -0.799505   -0.077563
   2 H :    0.344801    0.043062
   3 H :   -0.184544    0.040500
Sum of atomic charges         :    0.0000000

LOEWDIN ATOMIC CHARGES AND SPIN POPULATIONS
-------------------------------------------
   0 B :   -0.030844    0.617309
   1 O :    1.176539    0.169750
   2 H :   -0.830084    0.023989
   3 H :   -0.315610    0.188952

  Mayer bond orders larger than 0.100000
B(  0-B ,  1-O ) :   0.7350 B(  0-B ,  3-H ) :   0.9324 B(  1-O ,  2-H ) :   0.8973

MP2 TOTAL ENERGY:     -101.083499493 Eh
FINAL SINGLE POINT ENERGY      -101.083499493094

DIPOLE MOMENT
-------------
                                X             Y             Z
Electronic contribution:     -0.20109      -0.87237       0.00000
Nuclear contribution   :     -0.01236       1.66134       0.00000
                        -----------------------------------------
Total Dipole Moment    :     -0.21345       0.78897       0.00000
                        -----------------------------------------
Magnitude (a.u.)       :      0.81734
Magnitude (Debye)      :      2.07750

Rotational constants in cm-1:    10.735015     1.157861     1.045134
Rotational constants in MHz : 321827.647883 34711.792014 31332.338382

                             ****ORCA TERMINATED NORMALLY****
TOTAL RUN TIME: 0 days 0 hours 3 minutes 46 seconds 639 msec
