                         Program Version 5.0.4 -  RELEASE  -
|  1> ! ri-mp2 aug-cc-pvdz aug-cc-pvdz/c tightscf
|  2> %pal nprocs 16 end
|  3> %maxcore 3800
|  4> %base "DZ_P-S_16_B"
|  5> %scf
|  6> STABPerform true
|  7> STABRestartUHFifUnstable true
|  8> end
|  9>
| 10> *xyz 0 2
| 11> S         0.036424   -0.598031    0.000000
| 12> O         0.036424    1.027296    0.000000
| 13> H        -0.874172    1.350134    0.000000
| 14> *
| 15>
| 16> $new_job
| 17> ! ri-mp2 aug-cc-pvtz aug-cc-pvtz/c tightscf
| 18> %pal nprocs 16 end
| 19> %maxcore 3800
| 20> %base "TZ_P-S_16_B"
| 21>
| 22> *xyz 0 2
| 23> S         0.036424   -0.598031    0.000000
| 24> O         0.036424    1.027296    0.000000
| 25> H        -0.874172    1.350134    0.000000
| 26> *
| 27>
| 28> $new_job
| 29> ! ri-mp2 aug-cc-pvqz aug-cc-pvqz/c tightscf
| 30> %pal nprocs 16 end
| 31> %maxcore 3800
| 32> %base "QZ_P-S_16_B"
| 33>
| 34> *xyz 0 2
| 35> S         0.036424   -0.598031    0.000000
| 36> O         0.036424    1.027296    0.000000
| 37> H        -0.874172    1.350134    0.000000
| 38> *
| 39>
| 40>
| 41>
| 42>
| 43>                          ****END OF INPUT****
 Total Charge           Charge          ....    0
 Multiplicity           Mult            ....    2
 Number of Electrons    NEL             ....   25
MP2 TOTAL ENERGY:     -473.265850040 Eh
FINAL SINGLE POINT ENERGY      -473.265850040026
MP2 TOTAL ENERGY:     -473.380922233 Eh
FINAL SINGLE POINT ENERGY      -473.380922232975

CARTESIAN COORDINATES (ANGSTROEM)
---------------------------------
  S      0.036424   -0.598031    0.000000
  O      0.036424    1.027296    0.000000
  H     -0.874172    1.350134    0.000000

 Multiplicity           Mult            ....    2
 Number of Electrons    NEL             ....   25
 Basis Dimension        Dim             ....  210

ORBITAL ENERGIES
----------------
                 SPIN UP ORBITALS
  NO   OCC          E(Eh)            E(eV)
   0   1.0000     -92.019333     -2503.9734
   1   1.0000     -20.627478      -561.3022
   2   1.0000      -9.015836      -245.3334
   3   1.0000      -6.710622      -182.6053
   4   1.0000      -6.693334      -182.1349
   5   1.0000      -6.691285      -182.0791
   6   1.0000      -1.421496       -38.6809
   7   1.0000      -0.950085       -25.8531
   8   1.0000      -0.713192       -19.4069
   9   1.0000      -0.630668       -17.1614
  10   1.0000      -0.597061       -16.2468
  11   1.0000      -0.423393       -11.5211
  12   1.0000      -0.382446       -10.4069
  13   0.0000       0.024505         0.6668
  14   0.0000       0.059160         1.6098
  15   0.0000       0.078013         2.1228
  16   0.0000       0.078021         2.1231
  17   0.0000       0.111043         3.0216

                 SPIN DOWN ORBITALS
  NO   OCC          E(Eh)            E(eV)
   0   1.0000     -92.010675     -2503.7378
   1   1.0000     -20.619566      -561.0869
   2   1.0000      -9.006295      -245.0737
   3   1.0000      -6.689877      -182.0408
   4   1.0000      -6.686309      -181.9437
   5   1.0000      -6.670527      -181.5143
   6   1.0000      -1.399554       -38.0838
   7   1.0000      -0.880080       -23.9482
   8   1.0000      -0.693039       -18.8585
   9   1.0000      -0.574338       -15.6285
  10   1.0000      -0.549091       -14.9415
  11   1.0000      -0.365152        -9.9363
  12   0.0000       0.022843         0.6216
  13   0.0000       0.024738         0.6732
  14   0.0000       0.062019         1.6876
  15   0.0000       0.078441         2.1345
  16   0.0000       0.096066         2.6141

MULLIKEN ATOMIC CHARGES AND SPIN POPULATIONS
--------------------------------------------
   0 S :    0.346151    0.928070
   1 O :   -0.676859    0.085771
   2 H :    0.330708   -0.013840
Sum of atomic charges         :   -0.0000000

LOEWDIN ATOMIC CHARGES AND SPIN POPULATIONS
-------------------------------------------
   0 S :    0.570488    0.760456
   1 O :    0.479373    0.223968
   2 H :   -1.049861    0.015576

  Mayer bond orders larger than 0.100000
B(  0-S ,  1-O ) :   0.9493 B(  1-O ,  2-H ) :   0.9264

MP2 TOTAL ENERGY:     -473.418689722 Eh
FINAL SINGLE POINT ENERGY      -473.418689721891

DIPOLE MOMENT
-------------
                                X             Y             Z
Electronic contribution:      0.23487      -1.15987      -0.00000
Nuclear contribution   :     -0.83701       1.32509       0.00000
                        -----------------------------------------
Total Dipole Moment    :     -0.60214       0.16521      -0.00000
                        -----------------------------------------
Magnitude (a.u.)       :      0.62440
Magnitude (Debye)      :      1.58710

Rotational constants in cm-1:    22.059488     0.558133     0.544360
Rotational constants in MHz : 661326.825275 16732.418156 16319.513502

                             ****ORCA TERMINATED NORMALLY****
TOTAL RUN TIME: 0 days 0 hours 6 minutes 1 seconds 717 msec
