                         Program Version 5.0.4 -  RELEASE  -
|  1> ! ri-mp2 aug-cc-pvdz aug-cc-pvdz/c tightscf
|  2> %pal nprocs 16 end
|  3> %maxcore 3800
|  4> %base "DZ_B-F_29_AB"
|  5>
|  6> *xyz 0 1
|  7> F         1.612374   -0.762223    0.000007
|  8> F         0.679951    1.283607   -0.000010
|  9> B         0.512332   -0.028988   -0.000000
| 10> C        -0.889209   -0.668365    0.000005
| 11> C        -1.992603    0.070994   -0.000002
| 12> H        -0.976103   -1.749574    0.000014
| 13> H        -1.942239    1.153477   -0.000011
| 14> H        -2.983368   -0.367194    0.000001
| 15> *
| 16>
| 17> $new_job
| 18> ! ri-mp2 aug-cc-pvtz aug-cc-pvtz/c tightscf
| 19> %pal nprocs 16 end
| 20> %maxcore 3800
| 21> %base "TZ_B-F_29_AB"
| 22>
| 23> *xyz 0 1
| 24> F         1.612374   -0.762223    0.000007
| 25> F         0.679951    1.283607   -0.000010
| 26> B         0.512332   -0.028988   -0.000000
| 27> C        -0.889209   -0.668365    0.000005
| 28> C        -1.992603    0.070994   -0.000002
| 29> H        -0.976103   -1.749574    0.000014
| 30> H        -1.942239    1.153477   -0.000011
| 31> H        -2.983368   -0.367194    0.000001
| 32> *
| 33>
| 34> $new_job
| 35> ! ri-mp2 aug-cc-pvqz aug-cc-pvqz/c tightscf
| 36> %pal nprocs 16 end
| 37> %maxcore 3800
| 38> %base "QZ_B-F_29_AB"
| 39>
| 40> *xyz 0 1
| 41> F         1.612374   -0.762223    0.000007
| 42> F         0.679951    1.283607   -0.000010
| 43> B         0.512332   -0.028988   -0.000000
| 44> C        -0.889209   -0.668365    0.000005
| 45> C        -1.992603    0.070994   -0.000002
| 46> H        -0.976103   -1.749574    0.000014
| 47> H        -1.942239    1.153477   -0.000011
| 48> H        -2.983368   -0.367194    0.000001
| 49> *
| 50>
| 51>
| 52>
| 53>
| 54>                          ****END OF INPUT****
 Total Charge           Charge          ....    0
 Multiplicity           Mult            ....    1
 Number of Electrons    NEL             ....   38
MP2 TOTAL ENERGY:     -301.944043188 Eh
FINAL SINGLE POINT ENERGY      -301.944043187608
MP2 TOTAL ENERGY:     -302.210796364 Eh
FINAL SINGLE POINT ENERGY      -302.210796364168

CARTESIAN COORDINATES (ANGSTROEM)
---------------------------------
  F      1.612374   -0.762223    0.000007
  F      0.679951    1.283607   -0.000010
  B      0.512332   -0.028988   -0.000000
  C     -0.889209   -0.668365    0.000005
  C     -1.992603    0.070994   -0.000002
  H     -0.976103   -1.749574    0.000014
  H     -1.942239    1.153477   -0.000011
  H     -2.983368   -0.367194    0.000001

 Multiplicity           Mult            ....    1
 Number of Electrons    NEL             ....   38
 Basis Dimension        Dim             ....  538

ORBITAL ENERGIES
----------------

  NO   OCC          E(Eh)            E(eV)
   0   2.0000     -26.304544      -715.7830
   1   2.0000     -26.304454      -715.7806
   2   2.0000     -11.263382      -306.4922
   3   2.0000     -11.227829      -305.5248
   4   2.0000      -7.701517      -209.5689
   5   2.0000      -1.638495       -44.5857
   6   2.0000      -1.605860       -43.6977
   7   2.0000      -1.063121       -28.9290
   8   2.0000      -0.838448       -22.8153
   9   2.0000      -0.797574       -21.7031
  10   2.0000      -0.755981       -20.5713
  11   2.0000      -0.721269       -19.6267
  12   2.0000      -0.707768       -19.2593
  13   2.0000      -0.655691       -17.8423
  14   2.0000      -0.653879       -17.7930
  15   2.0000      -0.633479       -17.2378
  16   2.0000      -0.590353       -16.0643
  17   2.0000      -0.506673       -13.7873
  18   2.0000      -0.406981       -11.0745
  19   0.0000       0.023133         0.6295
  20   0.0000       0.033400         0.9088
  21   0.0000       0.036142         0.9835
  22   0.0000       0.041504         1.1294
  23   0.0000       0.050034         1.3615

MULLIKEN ATOMIC CHARGES
-----------------------
   0 F :   -0.790237
   1 F :   -0.784388
   2 B :    1.753010
   3 C :   -0.646310
   4 C :   -0.776940
   5 H :    0.469433
   6 H :    0.428699
   7 H :    0.346733
Sum of atomic charges:    0.0000000

LOEWDIN ATOMIC CHARGES
----------------------
   0 F :    0.803845
   1 F :    0.816315
   2 B :   -1.751320
   3 C :    0.432698
   4 C :    0.762553
   5 H :   -0.381410
   6 H :   -0.351670
   7 H :   -0.331010

  Mayer bond orders larger than 0.100000
B(  0-F ,  2-B ) :   0.3169 B(  1-F ,  2-B ) :   0.3500 B(  2-B ,  3-C ) :   0.9734
B(  3-C ,  4-C ) :   1.7522 B(  3-C ,  5-H ) :   0.7735 B(  4-C ,  6-H ) :   0.7853
B(  4-C ,  7-H ) :   0.9311

MP2 TOTAL ENERGY:     -302.295517805 Eh
FINAL SINGLE POINT ENERGY      -302.295517804862

DIPOLE MOMENT
-------------
                                X             Y             Z
Electronic contribution:      7.17787       1.18695      -0.00001
Nuclear contribution   :     -8.07117      -1.36882       0.00001
                        -----------------------------------------
Total Dipole Moment    :     -0.89330      -0.18187       0.00000
                        -----------------------------------------
Magnitude (a.u.)       :      0.91163
Magnitude (Debye)      :      2.31717

Rotational constants in cm-1:     0.322359     0.128696     0.091976
Rotational constants in MHz :  9664.069920  3858.199335  2757.370633

                             ****ORCA TERMINATED NORMALLY****
TOTAL RUN TIME: 0 days 0 hours 4 minutes 20 seconds 360 msec
