                         Program Version 5.0.4 -  RELEASE  -
|  1> ! ri-mp2 aug-cc-pvdz aug-cc-pvdz/c tightscf
|  2> %pal nprocs 16 end
|  3> %maxcore 3800
|  4> %base "DZ_Si-Si_44_AB"
|  5> %scf
|  6> STABPerform true
|  7> STABRestartUHFifUnstable true
|  8> end
|  9>
| 10> *xyz 0 1
| 11> Si        -1.812080   -0.731325    0.049612
| 12> Si        -0.448760    1.154308   -0.166705
| 13> C         1.938014   -0.299259   -0.255272
| 14> O         1.788506   -1.464214    0.001625
| 15> H        -1.359612   -1.813886   -0.847134
| 16> H        -1.793894   -1.205748    1.450515
| 17> H        -3.200447   -0.359340   -0.308084
| 18> C         1.296867    0.809601    0.500923
| 19> H         1.884728    1.725352    0.424409
| 20> H         1.192793    0.522677    1.548237
| 21> H        -0.999649    2.296716    0.597582
| 22> H        -0.344588    1.560810   -1.588424
| 23> H         2.555099    0.003317   -1.124708
| 24> *
| 25>
| 26> $new_job
| 27> ! ri-mp2 aug-cc-pvtz aug-cc-pvtz/c tightscf
| 28> %pal nprocs 16 end
| 29> %maxcore 3800
| 30> %base "TZ_Si-Si_44_AB"
| 31>
| 32> *xyz 0 1
| 33> Si        -1.812080   -0.731325    0.049612
| 34> Si        -0.448760    1.154308   -0.166705
| 35> C         1.938014   -0.299259   -0.255272
| 36> O         1.788506   -1.464214    0.001625
| 37> H        -1.359612   -1.813886   -0.847134
| 38> H        -1.793894   -1.205748    1.450515
| 39> H        -3.200447   -0.359340   -0.308084
| 40> C         1.296867    0.809601    0.500923
| 41> H         1.884728    1.725352    0.424409
| 42> H         1.192793    0.522677    1.548237
| 43> H        -0.999649    2.296716    0.597582
| 44> H        -0.344588    1.560810   -1.588424
| 45> H         2.555099    0.003317   -1.124708
| 46> *
| 47>
| 48> $new_job
| 49> ! ri-mp2 aug-cc-pvqz aug-cc-pvqz/c tightscf
| 50> %pal nprocs 16 end
| 51> %maxcore 3800
| 52> %base "QZ_Si-Si_44_AB"
| 53>
| 54> *xyz 0 1
| 55> Si        -1.812080   -0.731325    0.049612
| 56> Si        -0.448760    1.154308   -0.166705
| 57> C         1.938014   -0.299259   -0.255272
| 58> O         1.788506   -1.464214    0.001625
| 59> H        -1.359612   -1.813886   -0.847134
| 60> H        -1.793894   -1.205748    1.450515
| 61> H        -3.200447   -0.359340   -0.308084
| 62> C         1.296867    0.809601    0.500923
| 63> H         1.884728    1.725352    0.424409
| 64> H         1.192793    0.522677    1.548237
| 65> H        -0.999649    2.296716    0.597582
| 66> H        -0.344588    1.560810   -1.588424
| 67> H         2.555099    0.003317   -1.124708
| 68> *
| 69>
| 70>
| 71>
| 72>
| 73>                          ****END OF INPUT****
 Total Charge           Charge          ....    0
 Multiplicity           Mult            ....    1
 Number of Electrons    NEL             ....   56
MP2 TOTAL ENERGY:     -733.817094553 Eh
FINAL SINGLE POINT ENERGY      -733.817094552839
MP2 TOTAL ENERGY:     -734.024903242 Eh
FINAL SINGLE POINT ENERGY      -734.024903242053

CARTESIAN COORDINATES (ANGSTROEM)
---------------------------------
  Si    -1.812080   -0.731325    0.049612
  Si    -0.448760    1.154308   -0.166705
  C      1.938014   -0.299259   -0.255272
  O      1.788506   -1.464214    0.001625
  H     -1.359612   -1.813886   -0.847134
  H     -1.793894   -1.205748    1.450515
  H     -3.200447   -0.359340   -0.308084
  C      1.296867    0.809601    0.500923
  H      1.884728    1.725352    0.424409
  H      1.192793    0.522677    1.548237
  H     -0.999649    2.296716    0.597582
  H     -0.344588    1.560810   -1.588424
  H      2.555099    0.003317   -1.124708

 Multiplicity           Mult            ....    1
 Number of Electrons    NEL             ....   56
 Basis Dimension        Dim             ....  776

ORBITAL ENERGIES
----------------

  NO   OCC          E(Eh)            E(eV)
   0   2.0000     -68.780105     -1871.6018
   1   2.0000     -68.766961     -1871.2441
   2   2.0000     -20.555770      -559.3509
   3   2.0000     -11.337673      -308.5138
   4   2.0000     -11.235679      -305.7384
   5   2.0000      -6.130314      -166.8143
   6   2.0000      -6.117924      -166.4772
   7   2.0000      -4.236429      -115.2791
   8   2.0000      -4.236392      -115.2781
   9   2.0000      -4.236271      -115.2748
  10   2.0000      -4.224089      -114.9433
  11   2.0000      -4.223994      -114.9407
  12   2.0000      -4.223905      -114.9383
  13   2.0000      -1.400718       -38.1155
  14   2.0000      -1.023814       -27.8594
  15   2.0000      -0.807660       -21.9775
  16   2.0000      -0.748156       -20.3583
  17   2.0000      -0.688141       -18.7253
  18   2.0000      -0.667857       -18.1733
  19   2.0000      -0.632610       -17.2142
  20   2.0000      -0.572513       -15.5789
  21   2.0000      -0.558795       -15.2056
  22   2.0000      -0.500757       -13.6263
  23   2.0000      -0.485664       -13.2156
  24   2.0000      -0.477401       -12.9907
  25   2.0000      -0.459844       -12.5130
  26   2.0000      -0.422727       -11.5030
  27   2.0000      -0.404410       -11.0046
  28   0.0000       0.021376         0.5817
  29   0.0000       0.029691         0.8079
  30   0.0000       0.033381         0.9083
  31   0.0000       0.035499         0.9660
  32   0.0000       0.044597         1.2135

MULLIKEN ATOMIC CHARGES
-----------------------
   0 Si:    0.414241
   1 Si:    0.740765
   2 C :    0.241589
   3 O :   -0.775116
   4 H :   -0.125933
   5 H :   -0.139149
   6 H :   -0.194862
   7 C :   -0.685951
   8 H :    0.310411
   9 H :    0.239416
  10 H :   -0.242650
  11 H :   -0.226124
  12 H :    0.443362
Sum of atomic charges:   -0.0000000

LOEWDIN ATOMIC CHARGES
----------------------
   0 Si:    1.049512
   1 Si:    0.709096
   2 C :   -0.360542
   3 O :    0.711594
   4 H :   -0.304899
   5 H :   -0.304554
   6 H :   -0.319261
   7 C :    0.410611
   8 H :   -0.360913
   9 H :   -0.372286
  10 H :   -0.259692
  11 H :   -0.256200
  12 H :   -0.342467

  Mayer bond orders larger than 0.100000
B(  0-Si,  1-Si) :   0.7509 B(  0-Si,  4-H ) :   0.7666 B(  0-Si,  5-H ) :   0.7618
B(  0-Si,  6-H ) :   0.7705 B(  1-Si,  7-C ) :   0.7186 B(  1-Si, 10-H ) :   0.7997
B(  1-Si, 11-H ) :   0.8146 B(  2-C ,  3-O ) :   1.5435 B(  2-C ,  7-C ) :   1.0574
B(  2-C , 12-H ) :   0.7867 B(  7-C ,  8-H ) :   0.9098 B(  7-C ,  9-H ) :   0.9217

MP2 TOTAL ENERGY:     -734.092201507 Eh
FINAL SINGLE POINT ENERGY      -734.092201507181

DIPOLE MOMENT
-------------
                                X             Y             Z
Electronic contribution:      1.99980      -1.55493      -0.20737
Nuclear contribution   :     -1.91680       2.70467       0.16093
                        -----------------------------------------
Total Dipole Moment    :      0.08300       1.14974      -0.04644
                        -----------------------------------------
Magnitude (a.u.)       :      1.15367
Magnitude (Debye)      :      2.93240

Rotational constants in cm-1:     0.134208     0.065546     0.047610
Rotational constants in MHz :  4023.457077  1965.018412  1427.305323

                             ****ORCA TERMINATED NORMALLY****
TOTAL RUN TIME: 0 days 0 hours 54 minutes 12 seconds 847 msec
