                         Program Version 5.0.4 -  RELEASE  -
|  1> ! ri-mp2 aug-cc-pvdz aug-cc-pvdz/c tightscf
|  2> %pal nprocs 16 end
|  3> %maxcore 3800
|  4> %base "DZ_B-Cl_20_AB"
|  5> %scf
|  6> STABPerform true
|  7> STABRestartUHFifUnstable true
|  8> end
|  9>
| 10> *xyz 0 1
| 11> Cl        -0.931808    1.638898    0.000000
| 12> Cl        -2.019812   -1.152958    0.000003
| 13> B        -0.628035   -0.084460   -0.000002
| 14> C         0.805507   -0.684316   -0.000003
| 15> C         1.987792    0.278036   -0.000004
| 16> H         0.866263   -1.360132    0.862363
| 17> C         3.326753   -0.442203   -0.000000
| 18> H         1.922978    0.933882    0.870747
| 19> H         1.922980    0.933877   -0.870758
| 20> H         3.430468   -1.079291    0.880511
| 21> H         4.157973    0.263314   -0.000001
| 22> H         0.866262   -1.360135   -0.862366
| 23> H         3.430470   -1.079296   -0.880507
| 24> *
| 25>
| 26> $new_job
| 27> ! ri-mp2 aug-cc-pvtz aug-cc-pvtz/c tightscf
| 28> %pal nprocs 16 end
| 29> %maxcore 3800
| 30> %base "TZ_B-Cl_20_AB"
| 31>
| 32> *xyz 0 1
| 33> Cl        -0.931808    1.638898    0.000000
| 34> Cl        -2.019812   -1.152958    0.000003
| 35> B        -0.628035   -0.084460   -0.000002
| 36> C         0.805507   -0.684316   -0.000003
| 37> C         1.987792    0.278036   -0.000004
| 38> H         0.866263   -1.360132    0.862363
| 39> C         3.326753   -0.442203   -0.000000
| 40> H         1.922978    0.933882    0.870747
| 41> H         1.922980    0.933877   -0.870758
| 42> H         3.430468   -1.079291    0.880511
| 43> H         4.157973    0.263314   -0.000001
| 44> H         0.866262   -1.360135   -0.862366
| 45> H         3.430470   -1.079296   -0.880507
| 46> *
| 47>
| 48> $new_job
| 49> ! ri-mp2 aug-cc-pvqz aug-cc-pvqz/c tightscf
| 50> %pal nprocs 16 end
| 51> %maxcore 3800
| 52> %base "QZ_B-Cl_20_AB"
| 53>
| 54> *xyz 0 1
| 55> Cl        -0.931808    1.638898    0.000000
| 56> Cl        -2.019812   -1.152958    0.000003
| 57> B        -0.628035   -0.084460   -0.000002
| 58> C         0.805507   -0.684316   -0.000003
| 59> C         1.987792    0.278036   -0.000004
| 60> H         0.866263   -1.360132    0.862363
| 61> C         3.326753   -0.442203   -0.000000
| 62> H         1.922978    0.933882    0.870747
| 63> H         1.922980    0.933877   -0.870758
| 64> H         3.430468   -1.079291    0.880511
| 65> H         4.157973    0.263314   -0.000001
| 66> H         0.866262   -1.360135   -0.862366
| 67> H         3.430470   -1.079296   -0.880507
| 68> *
| 69>
| 70>
| 71>
| 72>
| 73>                          ****END OF INPUT****
 Total Charge           Charge          ....    0
 Multiplicity           Mult            ....    1
 Number of Electrons    NEL             ....   64
MP2 TOTAL ENERGY:    -1062.314517028 Eh
FINAL SINGLE POINT ENERGY     -1062.314517028130
MP2 TOTAL ENERGY:    -1062.570408303 Eh
FINAL SINGLE POINT ENERGY     -1062.570408302664

CARTESIAN COORDINATES (ANGSTROEM)
---------------------------------
  Cl    -0.931808    1.638898    0.000000
  Cl    -2.019812   -1.152958    0.000003
  B     -0.628035   -0.084460   -0.000002
  C      0.805507   -0.684316   -0.000003
  C      1.987792    0.278036   -0.000004
  H      0.866263   -1.360132    0.862363
  C      3.326753   -0.442203   -0.000000
  H      1.922978    0.933882    0.870747
  H      1.922980    0.933877   -0.870758
  H      3.430468   -1.079291    0.880511
  H      4.157973    0.263314   -0.000001
  H      0.866262   -1.360135   -0.862366
  H      3.430470   -1.079296   -0.880507

 Multiplicity           Mult            ....    1
 Number of Electrons    NEL             ....   64
 Basis Dimension        Dim             ....  810

ORBITAL ENERGIES
----------------

  NO   OCC          E(Eh)            E(eV)
   0   2.0000    -104.839179     -2852.8191
   1   2.0000    -104.837053     -2852.7612
   2   2.0000     -11.227966      -305.5285
   3   2.0000     -11.219835      -305.3072
   4   2.0000     -11.216732      -305.2228
   5   2.0000     -10.567137      -287.5464
   6   2.0000     -10.564946      -287.4868
   7   2.0000      -8.033946      -218.6148
   8   2.0000      -8.032929      -218.5871
   9   2.0000      -8.032643      -218.5793
  10   2.0000      -8.031771      -218.5556
  11   2.0000      -8.030727      -218.5272
  12   2.0000      -8.030476      -218.5204
  13   2.0000      -7.704986      -209.6633
  14   2.0000      -1.144765       -31.1506
  15   2.0000      -1.097300       -29.8591
  16   2.0000      -1.068208       -29.0674
  17   2.0000      -0.945555       -25.7299
  18   2.0000      -0.820625       -22.3303
  19   2.0000      -0.677390       -18.4327
  20   2.0000      -0.641792       -17.4640
  21   2.0000      -0.603488       -16.4218
  22   2.0000      -0.590379       -16.0650
  23   2.0000      -0.555162       -15.1067
  24   2.0000      -0.547010       -14.8849
  25   2.0000      -0.509409       -13.8617
  26   2.0000      -0.504962       -13.7407
  27   2.0000      -0.485428       -13.2092
  28   2.0000      -0.482161       -13.1203
  29   2.0000      -0.462912       -12.5965
  30   2.0000      -0.451523       -12.2866
  31   2.0000      -0.446179       -12.1411
  32   0.0000       0.023673         0.6442
  33   0.0000       0.031973         0.8700
  34   0.0000       0.032663         0.8888
  35   0.0000       0.032732         0.8907
  36   0.0000       0.048103         1.3089

MULLIKEN ATOMIC CHARGES
-----------------------
   0 Cl:   -0.276796
   1 Cl:   -0.256678
   2 B :    0.655605
   3 C :   -0.607630
   4 C :   -0.397055
   5 H :    0.261999
   6 C :   -0.861069
   7 H :    0.251630
   8 H :    0.251631
   9 H :    0.222743
  10 H :    0.270876
  11 H :    0.261999
  12 H :    0.222744
Sum of atomic charges:    0.0000000

LOEWDIN ATOMIC CHARGES
----------------------
   0 Cl:    1.303889
   1 Cl:    1.271752
   2 B :   -2.275372
   3 C :    0.417462
   4 C :    0.428444
   5 H :   -0.320279
   6 C :    0.926064
   7 H :   -0.292160
   8 H :   -0.292160
   9 H :   -0.283338
  10 H :   -0.280683
  11 H :   -0.320279
  12 H :   -0.283338

  Mayer bond orders larger than 0.100000
B(  0-Cl,  2-B ) :   0.9982 B(  1-Cl,  2-B ) :   0.9029 B(  1-Cl,  3-C ) :   0.1384
B(  2-B ,  3-C ) :   1.1008 B(  3-C ,  4-C ) :   0.9011 B(  3-C ,  5-H ) :   0.8874
B(  3-C , 11-H ) :   0.8874 B(  4-C ,  6-C ) :   0.9690 B(  4-C ,  7-H ) :   0.8785
B(  4-C ,  8-H ) :   0.8785 B(  6-C ,  9-H ) :   0.9543 B(  6-C , 10-H ) :   1.0020
B(  6-C , 12-H ) :   0.9543

MP2 TOTAL ENERGY:    -1062.652817747 Eh
FINAL SINGLE POINT ENERGY     -1062.652817747417

DIPOLE MOMENT
-------------
                                X             Y             Z
Electronic contribution:    -19.89103       3.07080       0.00001
Nuclear contribution   :     20.53876      -3.25032      -0.00001
                        -----------------------------------------
Total Dipole Moment    :      0.64773      -0.17952      -0.00000
                        -----------------------------------------
Magnitude (a.u.)       :      0.67215
Magnitude (Debye)      :      1.70846

Rotational constants in cm-1:     0.103068     0.040218     0.029393
Rotational constants in MHz :  3089.888031  1205.710023   881.169500

                             ****ORCA TERMINATED NORMALLY****
TOTAL RUN TIME: 0 days 1 hours 14 minutes 27 seconds 68 msec
