                         Program Version 5.0.4 -  RELEASE  -
|  1> ! ri-mp2 aug-cc-pvdz aug-cc-pvdz/c tightscf
|  2> %pal nprocs 16 end
|  3> %maxcore 3800
|  4> %base "DZ_Si-Si_24_AB"
|  5> %scf
|  6> STABPerform true
|  7> STABRestartUHFifUnstable true
|  8> end
|  9>
| 10> *xyz 0 1
| 11> Si         1.177786   -0.957470   -0.396123
| 12> Si        -0.731106    0.033598    0.505319
| 13> Cl        -2.344903   -1.113984   -0.037295
| 14> H         1.330287   -2.336774    0.104394
| 15> Cl        -0.939177    1.920846   -0.261380
| 16> H         1.104100   -0.952379   -1.868360
| 17> H        -0.729439    0.142691    1.972226
| 18> Cl         2.815935    0.139060    0.196498
| 19> *
| 20>
| 21> $new_job
| 22> ! ri-mp2 aug-cc-pvtz aug-cc-pvtz/c tightscf
| 23> %pal nprocs 16 end
| 24> %maxcore 3800
| 25> %base "TZ_Si-Si_24_AB"
| 26>
| 27> *xyz 0 1
| 28> Si         1.177786   -0.957470   -0.396123
| 29> Si        -0.731106    0.033598    0.505319
| 30> Cl        -2.344903   -1.113984   -0.037295
| 31> H         1.330287   -2.336774    0.104394
| 32> Cl        -0.939177    1.920846   -0.261380
| 33> H         1.104100   -0.952379   -1.868360
| 34> H        -0.729439    0.142691    1.972226
| 35> Cl         2.815935    0.139060    0.196498
| 36> *
| 37>
| 38> $new_job
| 39> ! ri-mp2 aug-cc-pvqz aug-cc-pvqz/c tightscf
| 40> %pal nprocs 16 end
| 41> %maxcore 3800
| 42> %base "QZ_Si-Si_24_AB"
| 43>
| 44> *xyz 0 1
| 45> Si         1.177786   -0.957470   -0.396123
| 46> Si        -0.731106    0.033598    0.505319
| 47> Cl        -2.344903   -1.113984   -0.037295
| 48> H         1.330287   -2.336774    0.104394
| 49> Cl        -0.939177    1.920846   -0.261380
| 50> H         1.104100   -0.952379   -1.868360
| 51> H        -0.729439    0.142691    1.972226
| 52> Cl         2.815935    0.139060    0.196498
| 53> *
| 54>
| 55>
| 56>
| 57>
| 58>                          ****END OF INPUT****
 Total Charge           Charge          ....    0
 Multiplicity           Mult            ....    1
 Number of Electrons    NEL             ....   82
MP2 TOTAL ENERGY:    -1958.918103267 Eh
FINAL SINGLE POINT ENERGY     -1958.918103266831
MP2 TOTAL ENERGY:    -1959.177726617 Eh
FINAL SINGLE POINT ENERGY     -1959.177726617244

CARTESIAN COORDINATES (ANGSTROEM)
---------------------------------
  Si     1.177786   -0.957470   -0.396123
  Si    -0.731106    0.033598    0.505319
  Cl    -2.344903   -1.113984   -0.037295
  H      1.330287   -2.336774    0.104394
  Cl    -0.939177    1.920846   -0.261380
  H      1.104100   -0.952379   -1.868360
  H     -0.729439    0.142691    1.972226
  Cl     2.815935    0.139060    0.196498

 Multiplicity           Mult            ....    1
 Number of Electrons    NEL             ....   82
 Basis Dimension        Dim             ....  558

ORBITAL ENERGIES
----------------

  NO   OCC          E(Eh)            E(eV)
   0   2.0000    -104.845675     -2852.9959
   1   2.0000    -104.844207     -2852.9559
   2   2.0000    -104.839868     -2852.8379
   3   2.0000     -68.863985     -1873.8843
   4   2.0000     -68.829914     -1872.9572
   5   2.0000     -10.573083      -287.7082
   6   2.0000     -10.571634      -287.6688
   7   2.0000     -10.567148      -287.5467
   8   2.0000      -8.039839      -218.7751
   9   2.0000      -8.038709      -218.7444
  10   2.0000      -8.038668      -218.7433
  11   2.0000      -8.038401      -218.7360
  12   2.0000      -8.037247      -218.7046
  13   2.0000      -8.037207      -218.7035
  14   2.0000      -8.033951      -218.6149
  15   2.0000      -8.032793      -218.5834
  16   2.0000      -8.032785      -218.5832
  17   2.0000      -6.205335      -168.8558
  18   2.0000      -6.176051      -168.0589
  19   2.0000      -4.312311      -117.3440
  20   2.0000      -4.311588      -117.3243
  21   2.0000      -4.310709      -117.3003
  22   2.0000      -4.282793      -116.5407
  23   2.0000      -4.281855      -116.5152
  24   2.0000      -4.281737      -116.5120
  25   2.0000      -1.129199       -30.7271
  26   2.0000      -1.108822       -30.1726
  27   2.0000      -1.101334       -29.9688
  28   2.0000      -0.762713       -20.7545
  29   2.0000      -0.691084       -18.8054
  30   2.0000      -0.567850       -15.4520
  31   2.0000      -0.563239       -15.3265
  32   2.0000      -0.540646       -14.7117
  33   2.0000      -0.539052       -14.6684
  34   2.0000      -0.535939       -14.5836
  35   2.0000      -0.492161       -13.3924
  36   2.0000      -0.486402       -13.2357
  37   2.0000      -0.477071       -12.9818
  38   2.0000      -0.470017       -12.7898
  39   2.0000      -0.463379       -12.6092
  40   2.0000      -0.408606       -11.1187
  41   0.0000       0.027553         0.7497
  42   0.0000       0.031071         0.8455
  43   0.0000       0.036284         0.9873
  44   0.0000       0.039831         1.0839
  45   0.0000       0.050274         1.3680

MULLIKEN ATOMIC CHARGES
-----------------------
   0 Si:    0.923287
   1 Si:    1.380965
   2 Cl:   -0.592744
   3 H :   -0.180653
   4 Cl:   -0.581174
   5 H :   -0.165506
   6 H :   -0.201555
   7 Cl:   -0.582620
Sum of atomic charges:    0.0000000

LOEWDIN ATOMIC CHARGES
----------------------
   0 Si:   -0.190935
   1 Si:   -1.288095
   2 Cl:    0.839631
   3 H :   -0.339280
   4 Cl:    0.845360
   5 H :   -0.336252
   6 H :   -0.370227
   7 Cl:    0.839797

  Mayer bond orders larger than 0.100000
B(  0-Si,  1-Si) :   0.8129 B(  0-Si,  3-H ) :   0.8709 B(  0-Si,  5-H ) :   0.8533
B(  0-Si,  7-Cl) :   0.5227 B(  1-Si,  2-Cl) :   0.5242 B(  1-Si,  4-Cl) :   0.5574
B(  1-Si,  6-H ) :   0.9114

MP2 TOTAL ENERGY:    -1959.266074794 Eh
FINAL SINGLE POINT ENERGY     -1959.266074794149

DIPOLE MOMENT
-------------
                                X             Y             Z
Electronic contribution:     -2.10992       3.67822      -0.21062
Nuclear contribution   :      2.18376      -4.13357       0.32354
                        -----------------------------------------
Total Dipole Moment    :      0.07384      -0.45535       0.11292
                        -----------------------------------------
Magnitude (a.u.)       :      0.47492
Magnitude (Debye)      :      1.20714

Rotational constants in cm-1:     0.073191     0.028681     0.021823
Rotational constants in MHz :  2194.211607   859.840045   654.224113

                             ****ORCA TERMINATED NORMALLY****
TOTAL RUN TIME: 0 days 0 hours 17 minutes 52 seconds 730 msec
