                         Program Version 5.0.4 -  RELEASE  -
|  1> ! ri-mp2 aug-cc-pvdz aug-cc-pvdz/c tightscf
|  2> %pal nprocs 16 end
|  3> %maxcore 3800
|  4> %base "DZ_B-F_21_AB"
|  5> %scf
|  6> STABPerform true
|  7> STABRestartUHFifUnstable true
|  8> end
|  9>
| 10> *xyz 0 1
| 11> F         2.158867   -0.406468    0.490173
| 12> F         0.968510    1.252819   -0.430956
| 13> B         1.013616   -0.011871   -0.042829
| 14> C        -0.180167   -0.992690   -0.234281
| 15> C        -1.534248   -0.347243   -0.524562
| 16> H         0.106858   -1.658953   -1.057522
| 17> C        -2.074956    0.442920    0.657937
| 18> H        -2.252445   -1.122166   -0.800006
| 19> H        -1.445458    0.310862   -1.391554
| 20> H        -2.194918   -0.197389    1.534213
| 21> H        -3.047371    0.880355    0.431332
| 22> H        -0.241450   -1.647672    0.640074
| 23> H        -1.403455    1.259235    0.930100
| 24> *
| 25>
| 26> $new_job
| 27> ! ri-mp2 aug-cc-pvtz aug-cc-pvtz/c tightscf
| 28> %pal nprocs 16 end
| 29> %maxcore 3800
| 30> %base "TZ_B-F_21_AB"
| 31>
| 32> *xyz 0 1
| 33> F         2.158867   -0.406468    0.490173
| 34> F         0.968510    1.252819   -0.430956
| 35> B         1.013616   -0.011871   -0.042829
| 36> C        -0.180167   -0.992690   -0.234281
| 37> C        -1.534248   -0.347243   -0.524562
| 38> H         0.106858   -1.658953   -1.057522
| 39> C        -2.074956    0.442920    0.657937
| 40> H        -2.252445   -1.122166   -0.800006
| 41> H        -1.445458    0.310862   -1.391554
| 42> H        -2.194918   -0.197389    1.534213
| 43> H        -3.047371    0.880355    0.431332
| 44> H        -0.241450   -1.647672    0.640074
| 45> H        -1.403455    1.259235    0.930100
| 46> *
| 47>
| 48> $new_job
| 49> ! ri-mp2 aug-cc-pvqz aug-cc-pvqz/c tightscf
| 50> %pal nprocs 16 end
| 51> %maxcore 3800
| 52> %base "QZ_B-F_21_AB"
| 53>
| 54> *xyz 0 1
| 55> F         2.158867   -0.406468    0.490173
| 56> F         0.968510    1.252819   -0.430956
| 57> B         1.013616   -0.011871   -0.042829
| 58> C        -0.180167   -0.992690   -0.234281
| 59> C        -1.534248   -0.347243   -0.524562
| 60> H         0.106858   -1.658953   -1.057522
| 61> C        -2.074956    0.442920    0.657937
| 62> H        -2.252445   -1.122166   -0.800006
| 63> H        -1.445458    0.310862   -1.391554
| 64> H        -2.194918   -0.197389    1.534213
| 65> H        -3.047371    0.880355    0.431332
| 66> H        -0.241450   -1.647672    0.640074
| 67> H        -1.403455    1.259235    0.930100
| 68> *
| 69>
| 70>
| 71>
| 72>
| 73>                          ****END OF INPUT****
 Total Charge           Charge          ....    0
 Multiplicity           Mult            ....    1
 Number of Electrons    NEL             ....   48
MP2 TOTAL ENERGY:     -342.348691862 Eh
FINAL SINGLE POINT ENERGY      -342.348691861664
MP2 TOTAL ENERGY:     -342.660685782 Eh
FINAL SINGLE POINT ENERGY      -342.660685782172

CARTESIAN COORDINATES (ANGSTROEM)
---------------------------------
  F      2.158867   -0.406468    0.490173
  F      0.968510    1.252819   -0.430956
  B      1.013616   -0.011871   -0.042829
  C     -0.180167   -0.992690   -0.234281
  C     -1.534248   -0.347243   -0.524562
  H      0.106858   -1.658953   -1.057522
  C     -2.074956    0.442920    0.657937
  H     -2.252445   -1.122166   -0.800006
  H     -1.445458    0.310862   -1.391554
  H     -2.194918   -0.197389    1.534213
  H     -3.047371    0.880355    0.431332
  H     -0.241450   -1.647672    0.640074
  H     -1.403455    1.259235    0.930100

 Multiplicity           Mult            ....    1
 Number of Electrons    NEL             ....   48
 Basis Dimension        Dim             ....  802

ORBITAL ENERGIES
----------------

  NO   OCC          E(Eh)            E(eV)
   0   2.0000     -26.304414      -715.7795
   1   2.0000     -26.302921      -715.7389
   2   2.0000     -11.228933      -305.5548
   3   2.0000     -11.216857      -305.2262
   4   2.0000     -11.216510      -305.2168
   5   2.0000      -7.697987      -209.4729
   6   2.0000      -1.638184       -44.5773
   7   2.0000      -1.604507       -43.6609
   8   2.0000      -1.070702       -29.1353
   9   2.0000      -0.948212       -25.8022
  10   2.0000      -0.829000       -22.5582
  11   2.0000      -0.802051       -21.8249
  12   2.0000      -0.753759       -20.5108
  13   2.0000      -0.714921       -19.4540
  14   2.0000      -0.709262       -19.3000
  15   2.0000      -0.653462       -17.7816
  16   2.0000      -0.647891       -17.6300
  17   2.0000      -0.621544       -16.9131
  18   2.0000      -0.609954       -16.5977
  19   2.0000      -0.560316       -15.2470
  20   2.0000      -0.531447       -14.4614
  21   2.0000      -0.490674       -13.3519
  22   2.0000      -0.487379       -13.2623
  23   2.0000      -0.470456       -12.8018
  24   0.0000       0.023127         0.6293
  25   0.0000       0.031525         0.8578
  26   0.0000       0.033399         0.9088
  27   0.0000       0.034318         0.9338
  28   0.0000       0.049099         1.3360

MULLIKEN ATOMIC CHARGES
-----------------------
   0 F :   -0.897424
   1 F :   -0.835740
   2 B :    1.748150
   3 C :   -0.466276
   4 C :   -0.441272
   5 H :    0.229623
   6 C :   -0.859763
   7 H :    0.245910
   8 H :    0.236118
   9 H :    0.219673
  10 H :    0.316803
  11 H :    0.275506
  12 H :    0.228691
Sum of atomic charges:    0.0000000

LOEWDIN ATOMIC CHARGES
----------------------
   0 F :    0.827306
   1 F :    0.847748
   2 B :   -1.692197
   3 C :    0.604330
   4 C :    0.480548
   5 H :   -0.291184
   6 C :    0.921615
   7 H :   -0.271019
   8 H :   -0.278750
   9 H :   -0.279191
  10 H :   -0.275719
  11 H :   -0.301838
  12 H :   -0.291649

  Mayer bond orders larger than 0.100000
B(  0-F ,  2-B ) :   0.1537 B(  1-F ,  2-B ) :   0.2675 B(  1-F ,  3-C ) :  -0.1547
B(  2-B ,  3-C ) :   0.9810 B(  3-C ,  4-C ) :   0.9536 B(  3-C ,  5-H ) :   0.9087
B(  3-C , 11-H ) :   0.8883 B(  4-C ,  6-C ) :   0.9378 B(  4-C ,  7-H ) :   0.8942
B(  4-C ,  8-H ) :   0.9045 B(  6-C ,  9-H ) :   0.9553 B(  6-C , 10-H ) :   0.9351
B(  6-C , 12-H ) :   0.9532

MP2 TOTAL ENERGY:     -342.757652975 Eh
FINAL SINGLE POINT ENERGY      -342.757652974644

DIPOLE MOMENT
-------------
                                X             Y             Z
Electronic contribution:     13.49376       2.52652      -0.37213
Nuclear contribution   :    -14.11006      -2.94492       0.25767
                        -----------------------------------------
Total Dipole Moment    :     -0.61630      -0.41840      -0.11446
                        -----------------------------------------
Magnitude (a.u.)       :      0.75365
Magnitude (Debye)      :      1.91562

Rotational constants in cm-1:     0.204133     0.069180     0.060801
Rotational constants in MHz :  6119.767072  2073.957151  1822.774161

                             ****ORCA TERMINATED NORMALLY****
TOTAL RUN TIME: 0 days 1 hours 7 minutes 5 seconds 776 msec
