                         Program Version 5.0.4 -  RELEASE  -
|  1> ! ri-mp2 aug-cc-pvdz aug-cc-pvdz/c tightscf
|  2> %pal nprocs 16 end
|  3> %maxcore 3800
|  4> %base "DZ_Si-Si_75_A"
|  5> %scf
|  6> STABPerform true
|  7> STABRestartUHFifUnstable true
|  8> end
|  9>
| 10> *xyz 0 2
| 11> Si         1.151024   -0.130551    0.110059
| 12> N        -0.425371    0.518981   -0.093670
| 13> H         1.206879   -1.404286   -0.659402
| 14> H         2.102199    0.867518   -0.448051
| 15> C        -1.656608   -0.237443    0.016258
| 16> H        -0.549170    1.512445    0.022387
| 17> H        -1.461467   -1.284811   -0.214556
| 18> H        -2.398056    0.122141   -0.699803
| 19> H        -2.097472   -0.193499    1.016736
| 20> *
| 21>
| 22> $new_job
| 23> ! ri-mp2 aug-cc-pvtz aug-cc-pvtz/c tightscf
| 24> %pal nprocs 16 end
| 25> %maxcore 3800
| 26> %base "TZ_Si-Si_75_A"
| 27>
| 28> *xyz 0 2
| 29> Si         1.151024   -0.130551    0.110059
| 30> N        -0.425371    0.518981   -0.093670
| 31> H         1.206879   -1.404286   -0.659402
| 32> H         2.102199    0.867518   -0.448051
| 33> C        -1.656608   -0.237443    0.016258
| 34> H        -0.549170    1.512445    0.022387
| 35> H        -1.461467   -1.284811   -0.214556
| 36> H        -2.398056    0.122141   -0.699803
| 37> H        -2.097472   -0.193499    1.016736
| 38> *
| 39>
| 40> $new_job
| 41> ! ri-mp2 aug-cc-pvqz aug-cc-pvqz/c tightscf
| 42> %pal nprocs 16 end
| 43> %maxcore 3800
| 44> %base "QZ_Si-Si_75_A"
| 45>
| 46> *xyz 0 2
| 47> Si         1.151024   -0.130551    0.110059
| 48> N        -0.425371    0.518981   -0.093670
| 49> H         1.206879   -1.404286   -0.659402
| 50> H         2.102199    0.867518   -0.448051
| 51> C        -1.656608   -0.237443    0.016258
| 52> H        -0.549170    1.512445    0.022387
| 53> H        -1.461467   -1.284811   -0.214556
| 54> H        -2.398056    0.122141   -0.699803
| 55> H        -2.097472   -0.193499    1.016736
| 56> *
| 57>
| 58>
| 59>
| 60>
| 61>                          ****END OF INPUT****
 Total Charge           Charge          ....    0
 Multiplicity           Mult            ....    2
 Number of Electrons    NEL             ....   33
MP2 TOTAL ENERGY:     -385.144664585 Eh
FINAL SINGLE POINT ENERGY      -385.144664585376
MP2 TOTAL ENERGY:     -385.273519472 Eh
FINAL SINGLE POINT ENERGY      -385.273519472443

CARTESIAN COORDINATES (ANGSTROEM)
---------------------------------
  Si     1.151024   -0.130551    0.110059
  N     -0.425371    0.518981   -0.093670
  H      1.206879   -1.404286   -0.659402
  H      2.102199    0.867518   -0.448051
  C     -1.656608   -0.237443    0.016258
  H     -0.549170    1.512445    0.022387
  H     -1.461467   -1.284811   -0.214556
  H     -2.398056    0.122141   -0.699803
  H     -2.097472   -0.193499    1.016736

 Multiplicity           Mult            ....    2
 Number of Electrons    NEL             ....   33
 Basis Dimension        Dim             ....  520

ORBITAL ENERGIES
----------------
                 SPIN UP ORBITALS
  NO   OCC          E(Eh)            E(eV)
   0   1.0000     -68.776914     -1871.5150
   1   1.0000     -15.544586      -422.9897
   2   1.0000     -11.253666      -306.2278
   3   1.0000      -6.124620      -166.6594
   4   1.0000      -4.236003      -115.2675
   5   1.0000      -4.228000      -115.0497
   6   1.0000      -4.227806      -115.0445
   7   1.0000      -1.181310       -32.1451
   8   1.0000      -0.909666       -24.7533
   9   1.0000      -0.724811       -19.7231
  10   1.0000      -0.639671       -17.4063
  11   1.0000      -0.602178       -16.3861
  12   1.0000      -0.567131       -15.4324
  13   1.0000      -0.508647       -13.8410
  14   1.0000      -0.478808       -13.0290
  15   1.0000      -0.428907       -11.6712
  16   1.0000      -0.298491        -8.1224
  17   0.0000       0.023983         0.6526
  18   0.0000       0.035743         0.9726
  19   0.0000       0.037072         1.0088
  20   0.0000       0.039874         1.0850
  21   0.0000       0.052163         1.4194

                 SPIN DOWN ORBITALS
  NO   OCC          E(Eh)            E(eV)
   0   1.0000     -68.772050     -1871.3826
   1   1.0000     -15.538563      -422.8258
   2   1.0000     -11.254126      -306.2403
   3   1.0000      -6.116896      -166.4492
   4   1.0000      -4.225155      -114.9723
   5   1.0000      -4.225121      -114.9714
   6   1.0000      -4.217009      -114.7507
   7   1.0000      -1.167662       -31.7737
   8   1.0000      -0.906508       -24.6673
   9   1.0000      -0.703598       -19.1459
  10   1.0000      -0.628347       -17.0982
  11   1.0000      -0.592805       -16.1310
  12   1.0000      -0.557325       -15.1656
  13   1.0000      -0.500930       -13.6310
  14   1.0000      -0.464386       -12.6366
  15   1.0000      -0.380505       -10.3541
  16   0.0000       0.023668         0.6440
  17   0.0000       0.033211         0.9037
  18   0.0000       0.037174         1.0115
  19   0.0000       0.037986         1.0337
  20   0.0000       0.051986         1.4146

MULLIKEN ATOMIC CHARGES AND SPIN POPULATIONS
--------------------------------------------
   0 Si:    0.631264    0.802784
   1 N :   -0.554121    0.109519
   2 H :   -0.230201    0.050461
   3 H :   -0.246791    0.042055
   4 C :   -0.709477   -0.004424
   5 H :    0.255489   -0.008538
   6 H :    0.273647    0.000537
   7 H :    0.298271    0.004282
   8 H :    0.281919    0.003323
Sum of atomic charges         :    0.0000000

LOEWDIN ATOMIC CHARGES AND SPIN POPULATIONS
-------------------------------------------
   0 Si:    0.920390    0.544640
   1 N :    0.645945    0.164690
   2 H :   -0.328705    0.128389
   3 H :   -0.344535    0.122969
   4 C :    0.653265    0.020064
   5 H :   -0.606854    0.015106
   6 H :   -0.341432    0.000374
   7 H :   -0.300672    0.001778
   8 H :   -0.297402    0.001991

  Mayer bond orders larger than 0.100000
B(  0-Si,  1-N ) :   0.9087 B(  0-Si,  2-H ) :   0.9093 B(  0-Si,  3-H ) :   0.8956
B(  1-N ,  4-C ) :   0.8716 B(  1-N ,  5-H ) :   0.9754 B(  4-C ,  6-H ) :   0.9294
B(  4-C ,  7-H ) :   0.9333 B(  4-C ,  8-H ) :   0.9273

MP2 TOTAL ENERGY:     -385.313176048 Eh
FINAL SINGLE POINT ENERGY      -385.313176048393

DIPOLE MOMENT
-------------
                                X             Y             Z
Electronic contribution:      2.87111       0.60620       1.10072
Nuclear contribution   :     -3.36862      -0.38073      -1.01994
                        -----------------------------------------
Total Dipole Moment    :     -0.49751       0.22547       0.08078
                        -----------------------------------------
Magnitude (a.u.)       :      0.55216
Magnitude (Debye)      :      1.40349

Rotational constants in cm-1:     1.178139     0.179709     0.163813
Rotational constants in MHz : 35319.733149  5387.532198  4911.001182

                             ****ORCA TERMINATED NORMALLY****
TOTAL RUN TIME: 0 days 0 hours 24 minutes 50 seconds 912 msec
