                         Program Version 5.0.4 -  RELEASE  -
|  1> ! ri-mp2 aug-cc-pvdz aug-cc-pvdz/c tightscf
|  2> %pal nprocs 16 end
|  3> %maxcore 3800
|  4> %base "DZ_P-N_89_AB"
|  5> %scf
|  6> STABPerform true
|  7> STABRestartUHFifUnstable true
|  8> end
|  9>
| 10> *xyz 0 1
| 11> N         0.382792    0.001690   -0.276862
| 12> P        -1.302143   -0.184241   -0.020393
| 13> N         1.100242   -1.162800    0.044786
| 14> N         1.043917    1.196191    0.079016
| 15> H         0.639344    1.600718    0.919957
| 16> H         0.957408    1.865100   -0.674900
| 17> H         1.459248   -1.104068    0.993920
| 18> H         1.892561   -1.234012   -0.581106
| 19> H        -1.681561    1.054442   -0.591972
| 20> H        -1.423517    0.335867    1.311420
| 21> *
| 22>
| 23> $new_job
| 24> ! ri-mp2 aug-cc-pvtz aug-cc-pvtz/c tightscf
| 25> %pal nprocs 16 end
| 26> %maxcore 3800
| 27> %base "TZ_P-N_89_AB"
| 28>
| 29> *xyz 0 1
| 30> N         0.382792    0.001690   -0.276862
| 31> P        -1.302143   -0.184241   -0.020393
| 32> N         1.100242   -1.162800    0.044786
| 33> N         1.043917    1.196191    0.079016
| 34> H         0.639344    1.600718    0.919957
| 35> H         0.957408    1.865100   -0.674900
| 36> H         1.459248   -1.104068    0.993920
| 37> H         1.892561   -1.234012   -0.581106
| 38> H        -1.681561    1.054442   -0.591972
| 39> H        -1.423517    0.335867    1.311420
| 40> *
| 41>
| 42> $new_job
| 43> ! ri-mp2 aug-cc-pvqz aug-cc-pvqz/c tightscf
| 44> %pal nprocs 16 end
| 45> %maxcore 3800
| 46> %base "QZ_P-N_89_AB"
| 47>
| 48> *xyz 0 1
| 49> N         0.382792    0.001690   -0.276862
| 50> P        -1.302143   -0.184241   -0.020393
| 51> N         1.100242   -1.162800    0.044786
| 52> N         1.043917    1.196191    0.079016
| 53> H         0.639344    1.600718    0.919957
| 54> H         0.957408    1.865100   -0.674900
| 55> H         1.459248   -1.104068    0.993920
| 56> H         1.892561   -1.234012   -0.581106
| 57> H        -1.681561    1.054442   -0.591972
| 58> H        -1.423517    0.335867    1.311420
| 59> *
| 60>
| 61>
| 62>
| 63>
| 64>                          ****END OF INPUT****
 Total Charge           Charge          ....    0
 Multiplicity           Mult            ....    1
 Number of Electrons    NEL             ....   42
MP2 TOTAL ENERGY:     -508.192586995 Eh
FINAL SINGLE POINT ENERGY      -508.192586995357
MP2 TOTAL ENERGY:     -508.388883283 Eh
FINAL SINGLE POINT ENERGY      -508.388883282598

CARTESIAN COORDINATES (ANGSTROEM)
---------------------------------
  N      0.382792    0.001690   -0.276862
  P     -1.302143   -0.184241   -0.020393
  N      1.100242   -1.162800    0.044786
  N      1.043917    1.196191    0.079016
  H      0.639344    1.600718    0.919957
  H      0.957408    1.865100   -0.674900
  H      1.459248   -1.104068    0.993920
  H      1.892561   -1.234012   -0.581106
  H     -1.681561    1.054442   -0.591972
  H     -1.423517    0.335867    1.311420

 Multiplicity           Mult            ....    1
 Number of Electrons    NEL             ....   42
 Basis Dimension        Dim             ....  600

ORBITAL ENERGIES
----------------

  NO   OCC          E(Eh)            E(eV)
   0   2.0000     -79.957964     -2175.7668
   1   2.0000     -15.606328      -424.6698
   2   2.0000     -15.581814      -424.0027
   3   2.0000     -15.574552      -423.8051
   4   2.0000      -7.497416      -204.0151
   5   2.0000      -5.391124      -146.6999
   6   2.0000      -5.390849      -146.6925
   7   2.0000      -5.389993      -146.6692
   8   2.0000      -1.328766       -36.1576
   9   2.0000      -1.155749       -31.4495
  10   2.0000      -0.981908       -26.7191
  11   2.0000      -0.812372       -22.1058
  12   2.0000      -0.711811       -19.3694
  13   2.0000      -0.677581       -18.4379
  14   2.0000      -0.648556       -17.6481
  15   2.0000      -0.608421       -16.5560
  16   2.0000      -0.523523       -14.2458
  17   2.0000      -0.449648       -12.2356
  18   2.0000      -0.426920       -11.6171
  19   2.0000      -0.392486       -10.6801
  20   2.0000      -0.360970        -9.8225
  21   0.0000       0.023211         0.6316
  22   0.0000       0.037056         1.0084
  23   0.0000       0.038747         1.0544
  24   0.0000       0.042517         1.1569
  25   0.0000       0.056897         1.5482

MULLIKEN ATOMIC CHARGES
-----------------------
   0 N :   -0.259494
   1 P :    0.566345
   2 N :   -0.508900
   3 N :   -0.604249
   4 H :    0.256664
   5 H :    0.264343
   6 H :    0.237204
   7 H :    0.277817
   8 H :   -0.113726
   9 H :   -0.116004
Sum of atomic charges:    0.0000000

LOEWDIN ATOMIC CHARGES
----------------------
   0 N :   -0.194712
   1 P :    1.310351
   2 N :    0.990172
   3 N :    1.043050
   4 H :   -0.564823
   5 H :   -0.545478
   6 H :   -0.546755
   7 H :   -0.546212
   8 H :   -0.486224
   9 H :   -0.459370

  Mayer bond orders larger than 0.100000
B(  0-N ,  1-P ) :   0.7632 B(  0-N ,  2-N ) :   0.7485 B(  0-N ,  3-N ) :   0.7236
B(  1-P ,  8-H ) :   0.9276 B(  1-P ,  9-H ) :   0.8898 B(  2-N ,  6-H ) :   0.9257
B(  2-N ,  7-H ) :   0.9174 B(  3-N ,  4-H ) :   0.9193 B(  3-N ,  5-H ) :   0.9351

MP2 TOTAL ENERGY:     -508.451984604 Eh
FINAL SINGLE POINT ENERGY      -508.451984604463

DIPOLE MOMENT
-------------
                                X             Y             Z
Electronic contribution:     -2.84774      -1.92459      -1.11455
Nuclear contribution   :      3.09201       2.68813       1.39295
                        -----------------------------------------
Total Dipole Moment    :      0.24427       0.76355       0.27840
                        -----------------------------------------
Magnitude (a.u.)       :      0.84863
Magnitude (Debye)      :      2.15705

Rotational constants in cm-1:     0.302708     0.160828     0.113373
Rotational constants in MHz :  9074.951116  4821.498912  3398.843807

                             ****ORCA TERMINATED NORMALLY****
TOTAL RUN TIME: 0 days 0 hours 17 minutes 28 seconds 243 msec
