                         Program Version 5.0.4 -  RELEASE  -
|  1> ! ri-mp2 aug-cc-pvdz aug-cc-pvdz/c tightscf
|  2> %pal nprocs 16 end
|  3> %maxcore 3800
|  4> %base "DZ_P-O_18_AB"
|  5>
|  6> *xyz 0 1
|  7> C        -3.101295   -0.078362   -0.001235
|  8> C        -2.231981   -1.149426   -0.038449
|  9> C        -0.874524   -0.895969   -0.049188
| 10> C        -2.669364    1.233116    0.026115
| 11> C        -1.311620    1.476340    0.014368
| 12> C        -0.415854    0.414770   -0.023995
| 13> H        -2.622273   -2.154900   -0.057388
| 14> H        -0.168988   -1.712128   -0.077015
| 15> H        -3.391156    2.034234    0.056185
| 16> H        -0.929478    2.486513    0.035905
| 17> C         1.030887    0.730266   -0.034677
| 18> O         1.810868   -0.365393   -0.095885
| 19> P         3.436408   -0.313563    0.121508
| 20> O         3.797398   -0.362631    1.525154
| 21> O         1.477133    1.848055   -0.005394
| 22> N        -4.552514   -0.345738    0.010133
| 23> O        -4.906903   -1.503199   -0.014491
| 24> O        -5.295388    0.609627    0.042905
| 25> O         3.879378   -1.543968   -0.748379
| 26> H         4.299649   -2.229096   -0.215383
| 27> O         3.891330    0.896524   -0.757125
| 28> H         3.345694    1.682460   -0.567763
| 29> *
| 30>
| 31> $new_job
| 32> ! ri-mp2 aug-cc-pvtz aug-cc-pvtz/c tightscf
| 33> %pal nprocs 16 end
| 34> %maxcore 3800
| 35> %base "TZ_P-O_18_AB"
| 36>
| 37> *xyz 0 1
| 38> C        -3.101295   -0.078362   -0.001235
| 39> C        -2.231981   -1.149426   -0.038449
| 40> C        -0.874524   -0.895969   -0.049188
| 41> C        -2.669364    1.233116    0.026115
| 42> C        -1.311620    1.476340    0.014368
| 43> C        -0.415854    0.414770   -0.023995
| 44> H        -2.622273   -2.154900   -0.057388
| 45> H        -0.168988   -1.712128   -0.077015
| 46> H        -3.391156    2.034234    0.056185
| 47> H        -0.929478    2.486513    0.035905
| 48> C         1.030887    0.730266   -0.034677
| 49> O         1.810868   -0.365393   -0.095885
| 50> P         3.436408   -0.313563    0.121508
| 51> O         3.797398   -0.362631    1.525154
| 52> O         1.477133    1.848055   -0.005394
| 53> N        -4.552514   -0.345738    0.010133
| 54> O        -4.906903   -1.503199   -0.014491
| 55> O        -5.295388    0.609627    0.042905
| 56> O         3.879378   -1.543968   -0.748379
| 57> H         4.299649   -2.229096   -0.215383
| 58> O         3.891330    0.896524   -0.757125
| 59> H         3.345694    1.682460   -0.567763
| 60> *
| 61>
| 62> $new_job
| 63> ! ri-mp2 aug-cc-pvqz aug-cc-pvqz/c tightscf
| 64> %pal nprocs 16 end
| 65> %maxcore 3800
| 66> %base "QZ_P-O_18_AB"
| 67>
| 68> *xyz 0 1
| 69> C        -3.101295   -0.078362   -0.001235
| 70> C        -2.231981   -1.149426   -0.038449
| 71> C        -0.874524   -0.895969   -0.049188
| 72> C        -2.669364    1.233116    0.026115
| 73> C        -1.311620    1.476340    0.014368
| 74> C        -0.415854    0.414770   -0.023995
| 75> H        -2.622273   -2.154900   -0.057388
| 76> H        -0.168988   -1.712128   -0.077015
| 77> H        -3.391156    2.034234    0.056185
| 78> H        -0.929478    2.486513    0.035905
| 79> C         1.030887    0.730266   -0.034677
| 80> O         1.810868   -0.365393   -0.095885
| 81> P         3.436408   -0.313563    0.121508
| 82> O         3.797398   -0.362631    1.525154
| 83> O         1.477133    1.848055   -0.005394
| 84> N        -4.552514   -0.345738    0.010133
| 85> O        -4.906903   -1.503199   -0.014491
| 86> O        -5.295388    0.609627    0.042905
| 87> O         3.879378   -1.543968   -0.748379
| 88> H         4.299649   -2.229096   -0.215383
| 89> O         3.891330    0.896524   -0.757125
| 90> H         3.345694    1.682460   -0.567763
| 91> *
| 92>
| 93>
| 94>
| 95>
| 96>                          ****END OF INPUT****
 Total Charge           Charge          ....    0
 Multiplicity           Mult            ....    1
 Number of Electrons    NEL             ....  126
MP2 TOTAL ENERGY:    -1190.522626805 Eh
FINAL SINGLE POINT ENERGY     -1190.522626804587
MP2 TOTAL ENERGY:    -1191.314760046 Eh
FINAL SINGLE POINT ENERGY     -1191.314760046355

CARTESIAN COORDINATES (ANGSTROEM)
---------------------------------
  C     -3.101295   -0.078362   -0.001235
  C     -2.231981   -1.149426   -0.038449
  C     -0.874524   -0.895969   -0.049188
  C     -2.669364    1.233116    0.026115
  C     -1.311620    1.476340    0.014368
  C     -0.415854    0.414770   -0.023995
  H     -2.622273   -2.154900   -0.057388
  H     -0.168988   -1.712128   -0.077015
  H     -3.391156    2.034234    0.056185
  H     -0.929478    2.486513    0.035905
  C      1.030887    0.730266   -0.034677
  O      1.810868   -0.365393   -0.095885
  P      3.436408   -0.313563    0.121508
  O      3.797398   -0.362631    1.525154
  O      1.477133    1.848055   -0.005394
  N     -4.552514   -0.345738    0.010133
  O     -4.906903   -1.503199   -0.014491
  O     -5.295388    0.609627    0.042905
  O      3.879378   -1.543968   -0.748379
  H      4.299649   -2.229096   -0.215383
  O      3.891330    0.896524   -0.757125
  H      3.345694    1.682460   -0.567763

 Multiplicity           Mult            ....    1
 Number of Electrons    NEL             ....  126
 Basis Dimension        Dim             .... 1560

ORBITAL ENERGIES
----------------

  NO   OCC          E(Eh)            E(eV)
   0   2.0000     -80.122254     -2180.2374
   1   2.0000     -20.647791      -561.8550
   2   2.0000     -20.627631      -561.3064
   3   2.0000     -20.616905      -561.0145
   4   2.0000     -20.616761      -561.0106
   5   2.0000     -20.614889      -560.9597
   6   2.0000     -20.596892      -560.4699
   7   2.0000     -20.529036      -558.6235
   8   2.0000     -15.869732      -431.8374
   9   2.0000     -11.442804      -311.3745
  10   2.0000     -11.335425      -308.4526
  11   2.0000     -11.299993      -307.4884
  12   2.0000     -11.291651      -307.2614
  13   2.0000     -11.290110      -307.2195
  14   2.0000     -11.289910      -307.2141
  15   2.0000     -11.288744      -307.1823
  16   2.0000      -7.640294      -207.9030
  17   2.0000      -5.539468      -150.7366
  18   2.0000      -5.538962      -150.7228
  19   2.0000      -5.537329      -150.6784
  20   2.0000      -1.635688       -44.5093
  21   2.0000      -1.528453       -41.5913
  22   2.0000      -1.463159       -39.8146
  23   2.0000      -1.426370       -38.8135
  24   2.0000      -1.414016       -38.4773
  25   2.0000      -1.410937       -38.3935
  26   2.0000      -1.325775       -36.0762
  27   2.0000      -1.231434       -33.5090
  28   2.0000      -1.131181       -30.7810
  29   2.0000      -1.080173       -29.3930
  30   2.0000      -1.014165       -27.5968
  31   2.0000      -0.937617       -25.5139
  32   2.0000      -0.894045       -24.3282
  33   2.0000      -0.871320       -23.7098
  34   2.0000      -0.835206       -22.7271
  35   2.0000      -0.806755       -21.9529
  36   2.0000      -0.779237       -21.2041
  37   2.0000      -0.761385       -20.7183
  38   2.0000      -0.748689       -20.3729
  39   2.0000      -0.745170       -20.2771
  40   2.0000      -0.744627       -20.2623
  41   2.0000      -0.707810       -19.2605
  42   2.0000      -0.696883       -18.9632
  43   2.0000      -0.681253       -18.5378
  44   2.0000      -0.680482       -18.5169
  45   2.0000      -0.671097       -18.2615
  46   2.0000      -0.650214       -17.6932
  47   2.0000      -0.629529       -17.1303
  48   2.0000      -0.610586       -16.6149
  49   2.0000      -0.596436       -16.2299
  50   2.0000      -0.592300       -16.1173
  51   2.0000      -0.566731       -15.4215
  52   2.0000      -0.564669       -15.3654
  53   2.0000      -0.553452       -15.0602
  54   2.0000      -0.543066       -14.7776
  55   2.0000      -0.514407       -13.9977
  56   2.0000      -0.513518       -13.9735
  57   2.0000      -0.510127       -13.8813
  58   2.0000      -0.492542       -13.4027
  59   2.0000      -0.488850       -13.3023
  60   2.0000      -0.473449       -12.8832
  61   2.0000      -0.407210       -11.0807
  62   2.0000      -0.391920       -10.6647
  63   0.0000       0.002241         0.0610
  64   0.0000       0.017372         0.4727
  65   0.0000       0.023296         0.6339
  66   0.0000       0.029465         0.8018
  67   0.0000       0.037018         1.0073

MULLIKEN ATOMIC CHARGES
-----------------------
   0 C :   -0.115768
   1 C :   -0.225761
   2 C :   -0.036636
   3 C :   -0.172157
   4 C :    0.003732
   5 C :   -0.450546
   6 H :    0.330293
   7 H :    0.197809
   8 H :    0.323735
   9 H :    0.221363
  10 C :    1.595331
  11 O :   -0.718960
  12 P :    2.648190
  13 O :   -1.129707
  14 O :   -0.845058
  15 N :    0.780035
  16 O :   -0.606184
  17 O :   -0.605202
  18 O :   -0.984369
  19 H :    0.378260
  20 O :   -0.965605
  21 H :    0.377204
Sum of atomic charges:    0.0000000

LOEWDIN ATOMIC CHARGES
----------------------
   0 C :   -0.287144
   1 C :    0.345558
   2 C :    0.356871
   3 C :    0.347213
   4 C :    0.349875
   5 C :   -0.132101
   6 H :   -0.345528
   7 H :   -0.331705
   8 H :   -0.344900
   9 H :   -0.326188
  10 C :   -1.088426
  11 O :    0.685338
  12 P :   -0.937424
  13 O :    0.305260
  14 O :    0.798577
  15 N :   -0.836641
  16 O :    0.560938
  17 O :    0.561427
  18 O :    1.099018
  19 H :   -0.858457
  20 O :    1.110439
  21 H :   -1.032000

  Mayer bond orders larger than 0.100000
B(  0-C ,  1-C ) :   1.3179 B(  0-C ,  2-C ) :  -0.3327 B(  0-C ,  3-C ) :   1.1836
B(  0-C ,  4-C ) :  -0.2372 B(  0-C ,  8-H ) :  -0.1063 B(  0-C , 15-N ) :   0.8377
B(  0-C , 16-O ) :   0.3002 B(  0-C , 17-O ) :   0.3491 B(  1-C ,  2-C ) :   1.0810
B(  1-C ,  4-C ) :   0.1004 B(  1-C ,  5-C ) :  -0.2367 B(  1-C ,  6-H ) :   0.9361
B(  1-C ,  7-H ) :  -0.1298 B(  1-C , 15-N ) :  -0.1249 B(  2-C ,  3-C ) :   0.1133
B(  2-C ,  5-C ) :   1.0287 B(  2-C ,  6-H ) :  -0.1374 B(  2-C ,  7-H ) :   1.0351
B(  2-C , 10-C ) :  -0.3610 B(  2-C , 11-O ) :  -0.1085 B(  3-C ,  4-C ) :   1.1977
B(  3-C ,  5-C ) :  -0.2742 B(  3-C ,  8-H ) :   0.9326 B(  3-C ,  9-H ) :  -0.1478
B(  3-C , 15-N ) :  -0.1323 B(  4-C ,  5-C ) :   1.0373 B(  4-C ,  8-H ) :  -0.1232
B(  4-C ,  9-H ) :   1.0308 B(  4-C , 10-C ) :  -0.4472 B(  4-C , 14-O ) :  -0.1643
B(  4-C , 17-O ) :  -0.1075 B(  5-C ,  7-H ) :  -0.1079 B(  5-C , 10-C ) :   1.1594
B(  5-C , 11-O ) :   0.2400 B(  5-C , 14-O ) :   0.5990 B( 10-C , 11-O ) :   0.9682
B( 10-C , 14-O ) :   0.8943 B( 11-O , 12-P ) :   0.6429 B( 11-O , 18-O ) :  -0.1199
B( 12-P , 13-O ) :   1.3811 B( 12-P , 18-O ) :   0.5145 B( 12-P , 20-O ) :   0.7141
B( 15-N , 16-O ) :   1.1874 B( 15-N , 17-O ) :   1.1790 B( 18-O , 19-H ) :   0.9298
B( 20-O , 21-H ) :   0.8239

MP2 TOTAL ENERGY:    -1191.575223052 Eh
FINAL SINGLE POINT ENERGY     -1191.575223052453

DIPOLE MOMENT
-------------
                                X             Y             Z
Electronic contribution:      3.02382      -0.69871       0.22296
Nuclear contribution   :     -2.57865       0.38024      -0.90208
                        -----------------------------------------
Total Dipole Moment    :      0.44518      -0.31847      -0.67912
                        -----------------------------------------
Magnitude (a.u.)       :      0.87224
Magnitude (Debye)      :      2.21706

Rotational constants in cm-1:     0.053091     0.006238     0.005799
Rotational constants in MHz :  1591.631603   187.007854   173.843897

                             ****ORCA TERMINATED NORMALLY****
TOTAL RUN TIME: 0 days 1 hours 44 minutes 21 seconds 7 msec
