                         Program Version 5.0.4 -  RELEASE  -
|  1> ! ri-mp2 aug-cc-pvdz aug-cc-pvdz/c tightscf
|  2> %pal nprocs 16 end
|  3> %maxcore 3800
|  4> %base "DZ_Si-Si_47_AB"
|  5> %scf
|  6> STABPerform true
|  7> STABRestartUHFifUnstable true
|  8> end
|  9>
| 10> *xyz 0 1
| 11> Si         1.748239   -1.055155    0.475652
| 12> Si        -0.202226   -2.149350   -0.203993
| 13> C        -1.828607    0.092836    0.351051
| 14> O        -1.156086    0.138939    1.357496
| 15> C        -1.601741   -0.978906   -0.680878
| 16> H        -1.378286   -0.489379   -1.631819
| 17> H        -2.532045   -1.531620   -0.838680
| 18> H        -0.640810   -3.053784    0.883711
| 19> H         0.093631   -2.992125   -1.389586
| 20> C         2.120822    0.510644   -0.539345
| 21> H         2.914888   -1.948315    0.265571
| 22> H         1.704658   -0.706526    1.911076
| 23> C         1.026942    1.530142   -0.507460
| 24> H         3.052226    0.921183   -0.145809
| 25> H         2.276377    0.197853   -1.572002
| 26> O         0.162626    1.548986   -1.356127
| 27> C        -2.882228    1.120669    0.064754
| 28> H        -3.054719    1.737985    0.942493
| 29> H        -3.811594    0.652323   -0.260034
| 30> H        -2.522064    1.744909   -0.755689
| 31> C         1.020454    2.498433    0.641364
| 32> H         0.899613    1.947612    1.575787
| 33> H         0.199321    3.200920    0.530417
| 34> H         1.968467    3.035719    0.693468
| 35> *
| 36>
| 37> $new_job
| 38> ! ri-mp2 aug-cc-pvtz aug-cc-pvtz/c tightscf
| 39> %pal nprocs 16 end
| 40> %maxcore 3800
| 41> %base "TZ_Si-Si_47_AB"
| 42>
| 43> *xyz 0 1
| 44> Si         1.748239   -1.055155    0.475652
| 45> Si        -0.202226   -2.149350   -0.203993
| 46> C        -1.828607    0.092836    0.351051
| 47> O        -1.156086    0.138939    1.357496
| 48> C        -1.601741   -0.978906   -0.680878
| 49> H        -1.378286   -0.489379   -1.631819
| 50> H        -2.532045   -1.531620   -0.838680
| 51> H        -0.640810   -3.053784    0.883711
| 52> H         0.093631   -2.992125   -1.389586
| 53> C         2.120822    0.510644   -0.539345
| 54> H         2.914888   -1.948315    0.265571
| 55> H         1.704658   -0.706526    1.911076
| 56> C         1.026942    1.530142   -0.507460
| 57> H         3.052226    0.921183   -0.145809
| 58> H         2.276377    0.197853   -1.572002
| 59> O         0.162626    1.548986   -1.356127
| 60> C        -2.882228    1.120669    0.064754
| 61> H        -3.054719    1.737985    0.942493
| 62> H        -3.811594    0.652323   -0.260034
| 63> H        -2.522064    1.744909   -0.755689
| 64> C         1.020454    2.498433    0.641364
| 65> H         0.899613    1.947612    1.575787
| 66> H         0.199321    3.200920    0.530417
| 67> H         1.968467    3.035719    0.693468
| 68> *
| 69>
| 70> $new_job
| 71> ! ri-mp2 aug-cc-pvqz aug-cc-pvqz/c tightscf
| 72> %pal nprocs 16 end
| 73> %maxcore 3800
| 74> %base "QZ_Si-Si_47_AB"
| 75>
| 76> *xyz 0 1
| 77> Si         1.748239   -1.055155    0.475652
| 78> Si        -0.202226   -2.149350   -0.203993
| 79> C        -1.828607    0.092836    0.351051
| 80> O        -1.156086    0.138939    1.357496
| 81> C        -1.601741   -0.978906   -0.680878
| 82> H        -1.378286   -0.489379   -1.631819
| 83> H        -2.532045   -1.531620   -0.838680
| 84> H        -0.640810   -3.053784    0.883711
| 85> H         0.093631   -2.992125   -1.389586
| 86> C         2.120822    0.510644   -0.539345
| 87> H         2.914888   -1.948315    0.265571
| 88> H         1.704658   -0.706526    1.911076
| 89> C         1.026942    1.530142   -0.507460
| 90> H         3.052226    0.921183   -0.145809
| 91> H         2.276377    0.197853   -1.572002
| 92> O         0.162626    1.548986   -1.356127
| 93> C        -2.882228    1.120669    0.064754
| 94> H        -3.054719    1.737985    0.942493
| 95> H        -3.811594    0.652323   -0.260034
| 96> H        -2.522064    1.744909   -0.755689
| 97> C         1.020454    2.498433    0.641364
| 98> H         0.899613    1.947612    1.575787
| 99> H         0.199321    3.200920    0.530417
|100> H         1.968467    3.035719    0.693468
|101> *
|102>
|103>
|104>
|105>
|106>                          ****END OF INPUT****
 Total Charge           Charge          ....    0
 Multiplicity           Mult            ....    1
 Number of Electrons    NEL             ....   94
MP2 TOTAL ENERGY:     -964.476575182 Eh
FINAL SINGLE POINT ENERGY      -964.476575182149
MP2 TOTAL ENERGY:     -964.889780410 Eh
FINAL SINGLE POINT ENERGY      -964.889780410371

CARTESIAN COORDINATES (ANGSTROEM)
---------------------------------
  Si     1.748239   -1.055155    0.475652
  Si    -0.202226   -2.149350   -0.203993
  C     -1.828607    0.092836    0.351051
  O     -1.156086    0.138939    1.357496
  C     -1.601741   -0.978906   -0.680878
  H     -1.378286   -0.489379   -1.631819
  H     -2.532045   -1.531620   -0.838680
  H     -0.640810   -3.053784    0.883711
  H      0.093631   -2.992125   -1.389586
  C      2.120822    0.510644   -0.539345
  H      2.914888   -1.948315    0.265571
  H      1.704658   -0.706526    1.911076
  C      1.026942    1.530142   -0.507460
  H      3.052226    0.921183   -0.145809
  H      2.276377    0.197853   -1.572002
  O      0.162626    1.548986   -1.356127
  C     -2.882228    1.120669    0.064754
  H     -3.054719    1.737985    0.942493
  H     -3.811594    0.652323   -0.260034
  H     -2.522064    1.744909   -0.755689
  C      1.020454    2.498433    0.641364
  H      0.899613    1.947612    1.575787
  H      0.199321    3.200920    0.530417
  H      1.968467    3.035719    0.693468

 Multiplicity           Mult            ....    1
 Number of Electrons    NEL             ....   94
 Basis Dimension        Dim             .... 1452

ORBITAL ENERGIES
----------------

  NO   OCC          E(Eh)            E(eV)
   0   2.0000     -68.765731     -1871.2107
   1   2.0000     -68.760326     -1871.0636
   2   2.0000     -20.545716      -559.0773
   3   2.0000     -20.539143      -558.8985
   4   2.0000     -11.334783      -308.4351
   5   2.0000     -11.333272      -308.3940
   6   2.0000     -11.226836      -305.4977
   7   2.0000     -11.226762      -305.4957
   8   2.0000     -11.224288      -305.4284
   9   2.0000     -11.219526      -305.2988
  10   2.0000      -6.115769      -166.4185
  11   2.0000      -6.110748      -166.2819
  12   2.0000      -4.221931      -114.8846
  13   2.0000      -4.221842      -114.8822
  14   2.0000      -4.221674      -114.8776
  15   2.0000      -4.216972      -114.7497
  16   2.0000      -4.216896      -114.7476
  17   2.0000      -4.216606      -114.7397
  18   2.0000      -1.396386       -37.9976
  19   2.0000      -1.389146       -37.8006
  20   2.0000      -1.042632       -28.3715
  21   2.0000      -1.039695       -28.2915
  22   2.0000      -0.966510       -26.3001
  23   2.0000      -0.961782       -26.1714
  24   2.0000      -0.759786       -20.6748
  25   2.0000      -0.743637       -20.2354
  26   2.0000      -0.713637       -19.4190
  27   2.0000      -0.666193       -18.1280
  28   2.0000      -0.653025       -17.7697
  29   2.0000      -0.647583       -17.6216
  30   2.0000      -0.643718       -17.5165
  31   2.0000      -0.626926       -17.0595
  32   2.0000      -0.612405       -16.6644
  33   2.0000      -0.594884       -16.1876
  34   2.0000      -0.565028       -15.3752
  35   2.0000      -0.558220       -15.1899
  36   2.0000      -0.555234       -15.1087
  37   2.0000      -0.538764       -14.6605
  38   2.0000      -0.517001       -14.0683
  39   2.0000      -0.496580       -13.5126
  40   2.0000      -0.480511       -13.0754
  41   2.0000      -0.470104       -12.7922
  42   2.0000      -0.458035       -12.4638
  43   2.0000      -0.445195       -12.1144
  44   2.0000      -0.418155       -11.3786
  45   2.0000      -0.410158       -11.1610
  46   2.0000      -0.389138       -10.5890
  47   0.0000       0.022598         0.6149
  48   0.0000       0.025772         0.7013
  49   0.0000       0.030324         0.8252
  50   0.0000       0.035417         0.9637
  51   0.0000       0.038967         1.0603

MULLIKEN ATOMIC CHARGES
-----------------------
   0 Si:    1.074651
   1 Si:    0.781150
   2 C :    1.037063
   3 O :   -1.007721
   4 C :   -0.712555
   5 H :    0.278990
   6 H :    0.339368
   7 H :   -0.304115
   8 H :   -0.346978
   9 C :   -0.820042
  10 H :   -0.576967
  11 H :   -0.272456
  12 C :    1.160727
  13 H :    0.305467
  14 H :    0.282519
  15 O :   -1.039052
  16 C :   -0.969113
  17 H :    0.285358
  18 H :    0.329227
  19 H :    0.280430
  20 C :   -1.019841
  21 H :    0.252486
  22 H :    0.293965
  23 H :    0.367440
Sum of atomic charges:   -0.0000000

LOEWDIN ATOMIC CHARGES
----------------------
   0 Si:    0.767202
   1 Si:    0.755609
   2 C :   -0.748131
   3 O :    0.762321
   4 C :    0.432294
   5 H :   -0.375937
   6 H :   -0.338335
   7 H :   -0.245873
   8 H :   -0.254433
   9 C :    0.447800
  10 H :   -0.252287
  11 H :   -0.237866
  12 C :   -0.739970
  13 H :   -0.353142
  14 H :   -0.363000
  15 O :    0.766417
  16 C :    0.899754
  17 H :   -0.306635
  18 H :   -0.289959
  19 H :   -0.304480
  20 C :    0.881392
  21 H :   -0.312310
  22 H :   -0.305585
  23 H :   -0.284846

  Mayer bond orders larger than 0.100000
B(  0-Si,  1-Si) :   0.9336 B(  0-Si,  9-C ) :   0.7683 B(  0-Si, 10-H ) :   0.4541
B(  0-Si, 11-H ) :   0.7822 B(  1-Si,  4-C ) :   0.8872 B(  1-Si,  7-H ) :   0.7700
B(  1-Si,  8-H ) :   0.7521 B(  2-C ,  3-O ) :   1.0015 B(  2-C ,  4-C ) :   0.8103
B(  2-C , 16-C ) :   0.7909 B(  3-O , 16-C ) :   0.1213 B(  4-C ,  5-H ) :   0.8947
B(  4-C ,  6-H ) :   0.9160 B(  9-C , 12-C ) :   0.9696 B(  9-C , 13-H ) :   0.9328
B(  9-C , 14-H ) :   0.9199 B(  9-C , 15-O ) :   0.1388 B( 12-C , 15-O ) :   0.9044
B( 12-C , 20-C ) :   0.8377 B( 16-C , 17-H ) :   0.9988 B( 16-C , 18-H ) :   0.9451
B( 16-C , 19-H ) :   0.8866 B( 20-C , 21-H ) :   0.9275 B( 20-C , 22-H ) :   0.9916
B( 20-C , 23-H ) :   0.8905

MP2 TOTAL ENERGY:     -965.021334313 Eh
FINAL SINGLE POINT ENERGY      -965.021334313132

DIPOLE MOMENT
-------------
                                X             Y             Z
Electronic contribution:      0.93259      -2.70883      -0.38326
Nuclear contribution   :     -0.95167       2.97482       0.19485
                        -----------------------------------------
Total Dipole Moment    :     -0.01908       0.26599      -0.18840
                        -----------------------------------------
Magnitude (a.u.)       :      0.32651
Magnitude (Debye)      :      0.82993

Rotational constants in cm-1:     0.034339     0.031750     0.020607
Rotational constants in MHz :  1029.458901   951.849467   617.773271

                             ****ORCA TERMINATED NORMALLY****
TOTAL RUN TIME: 0 days 8 hours 35 minutes 57 seconds 197 msec
