                         Program Version 5.0.4 -  RELEASE  -
|  1> ! ri-mp2 aug-cc-pvdz aug-cc-pvdz/c tightscf
|  2> %pal nprocs 16 end
|  3> %maxcore 3800
|  4> %base "DZ_P-C_23_AB"
|  5>
|  6> *xyz 0 1
|  7> C        -0.341541   -0.011753   -0.166445
|  8> N        -0.775910    1.410272    0.173430
|  9> N        -0.772096   -0.869716    1.002727
| 10> P         1.525065    0.031326   -0.326877
| 11> C        -0.997007   -0.537106   -1.437224
| 12> O         2.045881    0.220577    1.147412
| 13> O        -1.620971   -0.459097    1.742389
| 14> O        -1.637058    1.917997   -0.485793
| 15> O        -0.247082   -1.964454    1.059876
| 16> O        -0.181122    1.935687    1.091924
| 17> O         1.862904    1.014246   -1.337585
| 18> C        -2.467052   -0.911639   -1.319466
| 19> H        -0.416605   -1.403008   -1.753636
| 20> H        -0.844942    0.234032   -2.190497
| 21> H        -2.618019   -1.739436   -0.626053
| 22> H        -2.826345   -1.236156   -2.294549
| 23> H        -3.076362   -0.071184   -0.997920
| 24> H         1.764048    1.062354    1.536654
| 25> O         1.929351   -1.446200   -0.650937
| 26> H         1.596688   -2.087452   -0.003438
| 27> *
| 28>
| 29> $new_job
| 30> ! ri-mp2 aug-cc-pvtz aug-cc-pvtz/c tightscf
| 31> %pal nprocs 16 end
| 32> %maxcore 3800
| 33> %base "TZ_P-C_23_AB"
| 34>
| 35> *xyz 0 1
| 36> C        -0.341541   -0.011753   -0.166445
| 37> N        -0.775910    1.410272    0.173430
| 38> N        -0.772096   -0.869716    1.002727
| 39> P         1.525065    0.031326   -0.326877
| 40> C        -0.997007   -0.537106   -1.437224
| 41> O         2.045881    0.220577    1.147412
| 42> O        -1.620971   -0.459097    1.742389
| 43> O        -1.637058    1.917997   -0.485793
| 44> O        -0.247082   -1.964454    1.059876
| 45> O        -0.181122    1.935687    1.091924
| 46> O         1.862904    1.014246   -1.337585
| 47> C        -2.467052   -0.911639   -1.319466
| 48> H        -0.416605   -1.403008   -1.753636
| 49> H        -0.844942    0.234032   -2.190497
| 50> H        -2.618019   -1.739436   -0.626053
| 51> H        -2.826345   -1.236156   -2.294549
| 52> H        -3.076362   -0.071184   -0.997920
| 53> H         1.764048    1.062354    1.536654
| 54> O         1.929351   -1.446200   -0.650937
| 55> H         1.596688   -2.087452   -0.003438
| 56> *
| 57>
| 58> $new_job
| 59> ! ri-mp2 aug-cc-pvqz aug-cc-pvqz/c tightscf
| 60> %pal nprocs 16 end
| 61> %maxcore 3800
| 62> %base "QZ_P-C_23_AB"
| 63>
| 64> *xyz 0 1
| 65> C        -0.341541   -0.011753   -0.166445
| 66> N        -0.775910    1.410272    0.173430
| 67> N        -0.772096   -0.869716    1.002727
| 68> P         1.525065    0.031326   -0.326877
| 69> C        -0.997007   -0.537106   -1.437224
| 70> O         2.045881    0.220577    1.147412
| 71> O        -1.620971   -0.459097    1.742389
| 72> O        -1.637058    1.917997   -0.485793
| 73> O        -0.247082   -1.964454    1.059876
| 74> O        -0.181122    1.935687    1.091924
| 75> O         1.862904    1.014246   -1.337585
| 76> C        -2.467052   -0.911639   -1.319466
| 77> H        -0.416605   -1.403008   -1.753636
| 78> H        -0.844942    0.234032   -2.190497
| 79> H        -2.618019   -1.739436   -0.626053
| 80> H        -2.826345   -1.236156   -2.294549
| 81> H        -3.076362   -0.071184   -0.997920
| 82> H         1.764048    1.062354    1.536654
| 83> O         1.929351   -1.446200   -0.650937
| 84> H         1.596688   -2.087452   -0.003438
| 85> *
| 86>
| 87>
| 88>
| 89>
| 90>                          ****END OF INPUT****
 Total Charge           Charge          ....    0
 Multiplicity           Mult            ....    1
 Number of Electrons    NEL             ....  110
MP2 TOTAL ENERGY:    -1093.619027119 Eh
FINAL SINGLE POINT ENERGY     -1093.619027118979
MP2 TOTAL ENERGY:    -1094.320993044 Eh
FINAL SINGLE POINT ENERGY     -1094.320993043697

CARTESIAN COORDINATES (ANGSTROEM)
---------------------------------
  C     -0.341541   -0.011753   -0.166445
  N     -0.775910    1.410272    0.173430
  N     -0.772096   -0.869716    1.002727
  P      1.525065    0.031326   -0.326877
  C     -0.997007   -0.537106   -1.437224
  O      2.045881    0.220577    1.147412
  O     -1.620971   -0.459097    1.742389
  O     -1.637058    1.917997   -0.485793
  O     -0.247082   -1.964454    1.059876
  O     -0.181122    1.935687    1.091924
  O      1.862904    1.014246   -1.337585
  C     -2.467052   -0.911639   -1.319466
  H     -0.416605   -1.403008   -1.753636
  H     -0.844942    0.234032   -2.190497
  H     -2.618019   -1.739436   -0.626053
  H     -2.826345   -1.236156   -2.294549
  H     -3.076362   -0.071184   -0.997920
  H      1.764048    1.062354    1.536654
  O      1.929351   -1.446200   -0.650937
  H      1.596688   -2.087452   -0.003438

 Multiplicity           Mult            ....    1
 Number of Electrons    NEL             ....  110
 Basis Dimension        Dim             .... 1366

ORBITAL ENERGIES
----------------

  NO   OCC          E(Eh)            E(eV)
   0   2.0000     -80.116016     -2180.0676
   1   2.0000     -20.661354      -562.2240
   2   2.0000     -20.652781      -561.9907
   3   2.0000     -20.649525      -561.9021
   4   2.0000     -20.640129      -561.6465
   5   2.0000     -20.633608      -561.4690
   6   2.0000     -20.632628      -561.4423
   7   2.0000     -20.541367      -558.9590
   8   2.0000     -15.904669      -432.7880
   9   2.0000     -15.895527      -432.5393
  10   2.0000     -11.408400      -310.4383
  11   2.0000     -11.289818      -307.2116
  12   2.0000     -11.251115      -306.1584
  13   2.0000      -7.638051      -207.8419
  14   2.0000      -5.536546      -150.6571
  15   2.0000      -5.536217      -150.6481
  16   2.0000      -5.534882      -150.6118
  17   2.0000      -1.680858       -45.7385
  18   2.0000      -1.661815       -45.2203
  19   2.0000      -1.481781       -40.3213
  20   2.0000      -1.467202       -39.9246
  21   2.0000      -1.457903       -39.6715
  22   2.0000      -1.421860       -38.6908
  23   2.0000      -1.340877       -36.4871
  24   2.0000      -1.211628       -32.9701
  25   2.0000      -1.068217       -29.0677
  26   2.0000      -1.004480       -27.3333
  27   2.0000      -0.932580       -25.3768
  28   2.0000      -0.888866       -24.1873
  29   2.0000      -0.868193       -23.6247
  30   2.0000      -0.845579       -23.0094
  31   2.0000      -0.806319       -21.9411
  32   2.0000      -0.796585       -21.6762
  33   2.0000      -0.784979       -21.3604
  34   2.0000      -0.775353       -21.0984
  35   2.0000      -0.771315       -20.9885
  36   2.0000      -0.732805       -19.9406
  37   2.0000      -0.690715       -18.7953
  38   2.0000      -0.670899       -18.2561
  39   2.0000      -0.656131       -17.8542
  40   2.0000      -0.632926       -17.2228
  41   2.0000      -0.624340       -16.9892
  42   2.0000      -0.603404       -16.4194
  43   2.0000      -0.594791       -16.1851
  44   2.0000      -0.574242       -15.6259
  45   2.0000      -0.561921       -15.2907
  46   2.0000      -0.550556       -14.9814
  47   2.0000      -0.543214       -14.7816
  48   2.0000      -0.538149       -14.6438
  49   2.0000      -0.531604       -14.4657
  50   2.0000      -0.520805       -14.1718
  51   2.0000      -0.511357       -13.9147
  52   2.0000      -0.506014       -13.7693
  53   2.0000      -0.493667       -13.4334
  54   2.0000      -0.487610       -13.2685
  55   0.0000       0.019655         0.5348
  56   0.0000       0.028334         0.7710
  57   0.0000       0.032682         0.8893
  58   0.0000       0.034579         0.9409
  59   0.0000       0.038241         1.0406

MULLIKEN ATOMIC CHARGES
-----------------------
   0 C :    0.259887
   1 N :    1.212273
   2 N :    1.262589
   3 P :    2.728646
   4 C :   -0.503153
   5 O :   -1.048408
   6 O :   -0.721260
   7 O :   -0.668198
   8 O :   -0.794915
   9 O :   -0.737230
  10 O :   -1.302480
  11 C :   -0.839267
  12 H :    0.325357
  13 H :    0.370277
  14 H :    0.194335
  15 H :    0.294197
  16 H :    0.239238
  17 H :    0.432579
  18 O :   -1.163042
  19 H :    0.458577
Sum of atomic charges:   -0.0000000

LOEWDIN ATOMIC CHARGES
----------------------
   0 C :   -0.673687
   1 N :   -0.861979
   2 N :   -0.860623
   3 P :   -0.692234
   4 C :    0.420392
   5 O :    1.133155
   6 O :    0.613064
   7 O :    0.633005
   8 O :    0.627049
   9 O :    0.603982
  10 O :    0.347094
  11 C :    0.931908
  12 H :   -0.304611
  13 H :   -0.297582
  14 H :   -0.294652
  15 H :   -0.266805
  16 H :   -0.309292
  17 H :   -0.934629
  18 O :    1.132821
  19 H :   -0.946377

  Mayer bond orders larger than 0.100000
B(  0-C ,  1-N ) :   0.7504 B(  0-C ,  2-N ) :   0.8216 B(  0-C ,  3-P ) :   0.6156
B(  0-C ,  4-C ) :   0.5500 B(  0-C ,  5-O ) :  -0.1857 B(  0-C ,  6-O ) :   0.1499
B(  0-C ,  7-O ) :   0.2142 B(  0-C ,  8-O ) :   0.1535 B(  0-C ,  9-O ) :   0.1248
B(  0-C , 10-O ) :  -0.2634 B(  0-C , 11-C ) :  -0.1159 B(  0-C , 18-O ) :  -0.1952
B(  1-N ,  7-O ) :   1.0815 B(  1-N ,  9-O ) :   1.0097 B(  2-N ,  6-O ) :   1.1086
B(  2-N ,  8-O ) :   0.9970 B(  3-P ,  5-O ) :   0.5951 B(  3-P , 10-O ) :   1.2794
B(  3-P , 18-O ) :   0.4583 B(  4-C , 11-C ) :   0.9315 B(  4-C , 12-H ) :   0.9388
B(  4-C , 13-H ) :   0.8225 B(  5-O , 17-H ) :   0.8104 B(  6-O ,  8-O ) :   0.1171
B(  7-O ,  9-O ) :   0.1295 B( 11-C , 14-H ) :   0.9690 B( 11-C , 15-H ) :   0.9792
B( 11-C , 16-H ) :   0.9717 B( 18-O , 19-H ) :   0.7715

MP2 TOTAL ENERGY:    -1094.553587720 Eh
FINAL SINGLE POINT ENERGY     -1094.553587720070

DIPOLE MOMENT
-------------
                                X             Y             Z
Electronic contribution:      7.04601       3.92963       5.65604
Nuclear contribution   :     -7.57480      -5.06486      -5.76207
                        -----------------------------------------
Total Dipole Moment    :     -0.52879      -1.13523      -0.10603
                        -----------------------------------------
Magnitude (a.u.)       :      1.25683
Magnitude (Debye)      :      3.19460

Rotational constants in cm-1:     0.032186     0.024065     0.021747
Rotational constants in MHz :   964.910870   721.464686   651.948272

                             ****ORCA TERMINATED NORMALLY****
TOTAL RUN TIME: 0 days 1 hours 28 minutes 32 seconds 924 msec
