                         Program Version 5.0.4 -  RELEASE  -
|  1> ! ri-mp2 aug-cc-pvdz aug-cc-pvdz/c tightscf
|  2> %pal nprocs 16 end
|  3> %maxcore 3800
|  4> %base "DZ_Si-Cl_37_A"
|  5> %scf
|  6> STABPerform true
|  7> STABRestartUHFifUnstable true
|  8> end
|  9>
| 10> *xyz 0 2
| 11> C        -1.492056   -0.399008    0.025519
| 12> O        -1.898835   -1.518502    0.049198
| 13> Si         0.319805   -0.020754    0.588524
| 14> O        -2.277333    0.635077   -0.313174
| 15> Cl         0.768678    1.876924   -0.095605
| 16> Cl         1.563827   -1.388988   -0.253283
| 17> H        -1.768160    1.457099   -0.349547
| 18> *
| 19>
| 20> $new_job
| 21> ! ri-mp2 aug-cc-pvtz aug-cc-pvtz/c tightscf
| 22> %pal nprocs 16 end
| 23> %maxcore 3800
| 24> %base "TZ_Si-Cl_37_A"
| 25>
| 26> *xyz 0 2
| 27> C        -1.492056   -0.399008    0.025519
| 28> O        -1.898835   -1.518502    0.049198
| 29> Si         0.319805   -0.020754    0.588524
| 30> O        -2.277333    0.635077   -0.313174
| 31> Cl         0.768678    1.876924   -0.095605
| 32> Cl         1.563827   -1.388988   -0.253283
| 33> H        -1.768160    1.457099   -0.349547
| 34> *
| 35>
| 36> $new_job
| 37> ! ri-mp2 aug-cc-pvqz aug-cc-pvqz/c tightscf
| 38> %pal nprocs 16 end
| 39> %maxcore 3800
| 40> %base "QZ_Si-Cl_37_A"
| 41>
| 42> *xyz 0 2
| 43> C        -1.492056   -0.399008    0.025519
| 44> O        -1.898835   -1.518502    0.049198
| 45> Si         0.319805   -0.020754    0.588524
| 46> O        -2.277333    0.635077   -0.313174
| 47> Cl         0.768678    1.876924   -0.095605
| 48> Cl         1.563827   -1.388988   -0.253283
| 49> H        -1.768160    1.457099   -0.349547
| 50> *
| 51>
| 52>
| 53>
| 54>
| 55>                          ****END OF INPUT****
 Total Charge           Charge          ....    0
 Multiplicity           Mult            ....    2
 Number of Electrons    NEL             ....   71
MP2 TOTAL ENERGY:    -1397.110325922 Eh
FINAL SINGLE POINT ENERGY     -1397.110325921870
MP2 TOTAL ENERGY:    -1397.422056763 Eh
FINAL SINGLE POINT ENERGY     -1397.422056763408

CARTESIAN COORDINATES (ANGSTROEM)
---------------------------------
  C     -1.492056   -0.399008    0.025519
  O     -1.898835   -1.518502    0.049198
  Si     0.319805   -0.020754    0.588524
  O     -2.277333    0.635077   -0.313174
  Cl     0.768678    1.876924   -0.095605
  Cl     1.563827   -1.388988   -0.253283
  H     -1.768160    1.457099   -0.349547

 Multiplicity           Mult            ....    2
 Number of Electrons    NEL             ....   71
 Basis Dimension        Dim             ....  538

ORBITAL ENERGIES
----------------
                 SPIN UP ORBITALS
  NO   OCC          E(Eh)            E(eV)
   0   1.0000    -104.871478     -2853.6980
   1   1.0000    -104.864550     -2853.5095
   2   1.0000     -68.900870     -1874.8880
   3   1.0000     -20.631178      -561.4029
   4   1.0000     -20.573402      -559.8307
   5   1.0000     -11.397223      -310.1342
   6   1.0000     -10.598639      -288.4036
   7   1.0000     -10.591632      -288.2130
   8   1.0000      -8.066511      -219.5009
   9   1.0000      -8.064236      -219.4390
  10   1.0000      -8.063911      -219.4302
  11   1.0000      -8.059672      -219.3148
  12   1.0000      -8.057180      -219.2470
  13   1.0000      -8.056768      -219.2358
  14   1.0000      -6.242252      -169.8603
  15   1.0000      -4.352770      -118.4449
  16   1.0000      -4.345093      -118.2360
  17   1.0000      -4.343864      -118.2026
  18   1.0000      -1.484006       -40.3819
  19   1.0000      -1.393714       -37.9249
  20   1.0000      -1.154275       -31.4094
  21   1.0000      -1.126121       -30.6433
  22   1.0000      -0.871778       -23.7223
  23   1.0000      -0.808009       -21.9870
  24   1.0000      -0.689706       -18.7679
  25   1.0000      -0.679734       -18.4965
  26   1.0000      -0.650798       -17.7091
  27   1.0000      -0.599266       -16.3069
  28   1.0000      -0.578701       -15.7473
  29   1.0000      -0.548726       -14.9316
  30   1.0000      -0.528985       -14.3944
  31   1.0000      -0.513685       -13.9781
  32   1.0000      -0.502965       -13.6864
  33   1.0000      -0.490450       -13.3458
  34   1.0000      -0.458642       -12.4803
  35   1.0000      -0.380435       -10.3522
  36   0.0000       0.024558         0.6682
  37   0.0000       0.034122         0.9285
  38   0.0000       0.036590         0.9957
  39   0.0000       0.041518         1.1298
  40   0.0000       0.060874         1.6565

                 SPIN DOWN ORBITALS
  NO   OCC          E(Eh)            E(eV)
   0   1.0000    -104.870424     -2853.6693
   1   1.0000    -104.863416     -2853.4786
   2   1.0000     -68.894641     -1874.7185
   3   1.0000     -20.630782      -561.3921
   4   1.0000     -20.571617      -559.7822
   5   1.0000     -11.394945      -310.0722
   6   1.0000     -10.597487      -288.3723
   7   1.0000     -10.590401      -288.1795
   8   1.0000      -8.064093      -219.4351
   9   1.0000      -8.063369      -219.4154
  10   1.0000      -8.061865      -219.3745
  11   1.0000      -8.057045      -219.2434
  12   1.0000      -8.056198      -219.2203
  13   1.0000      -8.054603      -219.1769
  14   1.0000      -6.231912      -169.5789
  15   1.0000      -4.341054      -118.1261
  16   1.0000      -4.340206      -118.1030
  17   1.0000      -4.331634      -117.8697
  18   1.0000      -1.481368       -40.3101
  19   1.0000      -1.390187       -37.8289
  20   1.0000      -1.144879       -31.1537
  21   1.0000      -1.117810       -30.4171
  22   1.0000      -0.863787       -23.5048
  23   1.0000      -0.791455       -21.5366
  24   1.0000      -0.682880       -18.5821
  25   1.0000      -0.658038       -17.9061
  26   1.0000      -0.648724       -17.6527
  27   1.0000      -0.591926       -16.1071
  28   1.0000      -0.567495       -15.4423
  29   1.0000      -0.528158       -14.3719
  30   1.0000      -0.522897       -14.2287
  31   1.0000      -0.505284       -13.7495
  32   1.0000      -0.491827       -13.3833
  33   1.0000      -0.488554       -13.2942
  34   1.0000      -0.441207       -12.0059
  35   0.0000      -0.007146        -0.1944
  36   0.0000       0.028189         0.7671
  37   0.0000       0.036179         0.9845
  38   0.0000       0.039465         1.0739
  39   0.0000       0.042480         1.1560

MULLIKEN ATOMIC CHARGES AND SPIN POPULATIONS
--------------------------------------------
   0 C :    0.619458    0.042551
   1 O :   -0.680414    0.037979
   2 Si:    1.442615    0.821514
   3 O :   -0.692679    0.007072
   4 Cl:   -0.559381    0.040470
   5 Cl:   -0.524418    0.049571
   6 H :    0.394819    0.000844
Sum of atomic charges         :    0.0000000

LOEWDIN ATOMIC CHARGES AND SPIN POPULATIONS
-------------------------------------------
   0 C :   -1.210974    0.126301
   1 O :    0.553831    0.037891
   2 Si:   -1.161292    0.555163
   3 O :    1.149595    0.011976
   4 Cl:    0.821936    0.130141
   5 Cl:    0.810652    0.133884
   6 H :   -0.963748    0.004643

  Mayer bond orders larger than 0.100000
B(  0-C ,  1-O ) :   1.6947 B(  0-C ,  2-Si) :   0.7999 B(  0-C ,  3-O ) :   0.9498
B(  2-Si,  4-Cl) :   0.6579 B(  2-Si,  5-Cl) :   0.7571 B(  3-O ,  6-H ) :   0.8438

MP2 TOTAL ENERGY:    -1397.527874813 Eh
FINAL SINGLE POINT ENERGY     -1397.527874812522

DIPOLE MOMENT
-------------
                                X             Y             Z
Electronic contribution:      5.54937       0.35280       0.24224
Nuclear contribution   :     -4.80600       0.69109       0.10158
                        -----------------------------------------
Total Dipole Moment    :      0.74337       1.04388       0.34382
                        -----------------------------------------
Magnitude (a.u.)       :      1.32684
Magnitude (Debye)      :      3.37256

Rotational constants in cm-1:     0.066186     0.057143     0.032319
Rotational constants in MHz :  1984.211470  1713.097707   968.908531

                             ****ORCA TERMINATED NORMALLY****
TOTAL RUN TIME: 0 days 0 hours 28 minutes 5 seconds 793 msec
