                         Program Version 5.0.4 -  RELEASE  -
|  1> ! ri-mp2 aug-cc-pvdz aug-cc-pvdz/c tightscf
|  2> %pal nprocs 16 end
|  3> %maxcore 3800
|  4> %base "DZ_S-Cl_20_AB"
|  5>
|  6> *xyz 0 1
|  7> Cl         1.661201   -0.000021   -0.620710
|  8> S         0.485975    0.000037    1.045922
|  9> C        -1.180158    0.000010    0.328619
| 10> C        -1.482811    1.265053   -0.454765
| 11> H        -1.308337    2.155327    0.146798
| 12> H        -2.524422    1.261863   -0.779956
| 13> H        -0.854655    1.324289   -1.343503
| 14> C        -1.482806   -1.265087   -0.454680
| 15> H        -1.766566    0.000040    1.255284
| 16> H        -0.854650   -1.324379   -1.343415
| 17> H        -2.524416   -1.261922   -0.779871
| 18> H        -1.308327   -2.155319    0.146942
| 19> *
| 20>
| 21> $new_job
| 22> ! ri-mp2 aug-cc-pvtz aug-cc-pvtz/c tightscf
| 23> %pal nprocs 16 end
| 24> %maxcore 3800
| 25> %base "TZ_S-Cl_20_AB"
| 26>
| 27> *xyz 0 1
| 28> Cl         1.661201   -0.000021   -0.620710
| 29> S         0.485975    0.000037    1.045922
| 30> C        -1.180158    0.000010    0.328619
| 31> C        -1.482811    1.265053   -0.454765
| 32> H        -1.308337    2.155327    0.146798
| 33> H        -2.524422    1.261863   -0.779956
| 34> H        -0.854655    1.324289   -1.343503
| 35> C        -1.482806   -1.265087   -0.454680
| 36> H        -1.766566    0.000040    1.255284
| 37> H        -0.854650   -1.324379   -1.343415
| 38> H        -2.524416   -1.261922   -0.779871
| 39> H        -1.308327   -2.155319    0.146942
| 40> *
| 41>
| 42> $new_job
| 43> ! ri-mp2 aug-cc-pvqz aug-cc-pvqz/c tightscf
| 44> %pal nprocs 16 end
| 45> %maxcore 3800
| 46> %base "QZ_S-Cl_20_AB"
| 47>
| 48> *xyz 0 1
| 49> Cl         1.661201   -0.000021   -0.620710
| 50> S         0.485975    0.000037    1.045922
| 51> C        -1.180158    0.000010    0.328619
| 52> C        -1.482811    1.265053   -0.454765
| 53> H        -1.308337    2.155327    0.146798
| 54> H        -2.524422    1.261863   -0.779956
| 55> H        -0.854655    1.324289   -1.343503
| 56> C        -1.482806   -1.265087   -0.454680
| 57> H        -1.766566    0.000040    1.255284
| 58> H        -0.854650   -1.324379   -1.343415
| 59> H        -2.524416   -1.261922   -0.779871
| 60> H        -1.308327   -2.155319    0.146942
| 61> *
| 62>
| 63>
| 64>
| 65>
| 66>                          ****END OF INPUT****
 Total Charge           Charge          ....    0
 Multiplicity           Mult            ....    1
 Number of Electrons    NEL             ....   58
MP2 TOTAL ENERGY:     -975.467351246 Eh
FINAL SINGLE POINT ENERGY      -975.467351246340
MP2 TOTAL ENERGY:     -975.699460075 Eh
FINAL SINGLE POINT ENERGY      -975.699460074728

CARTESIAN COORDINATES (ANGSTROEM)
---------------------------------
  Cl     1.661201   -0.000021   -0.620710
  S      0.485975    0.000037    1.045922
  C     -1.180158    0.000010    0.328619
  C     -1.482811    1.265053   -0.454765
  H     -1.308337    2.155327    0.146798
  H     -2.524422    1.261863   -0.779956
  H     -0.854655    1.324289   -1.343503
  C     -1.482806   -1.265087   -0.454680
  H     -1.766566    0.000040    1.255284
  H     -0.854650   -1.324379   -1.343415
  H     -2.524416   -1.261922   -0.779871
  H     -1.308327   -2.155319    0.146942

 Multiplicity           Mult            ....    1
 Number of Electrons    NEL             ....   58
 Basis Dimension        Dim             ....  730

ORBITAL ENERGIES
----------------

  NO   OCC          E(Eh)            E(eV)
   0   2.0000    -104.844788     -2852.9717
   1   2.0000     -91.998269     -2503.4002
   2   2.0000     -11.279483      -306.9303
   3   2.0000     -11.227077      -305.5043
   4   2.0000     -11.227061      -305.5038
   5   2.0000     -10.569269      -287.6044
   6   2.0000      -8.996869      -244.8173
   7   2.0000      -8.036283      -218.6784
   8   2.0000      -8.034452      -218.6286
   9   2.0000      -8.034259      -218.6233
  10   2.0000      -6.678210      -181.7233
  11   2.0000      -6.676401      -181.6741
  12   2.0000      -6.675379      -181.6463
  13   2.0000      -1.149594       -31.2821
  14   2.0000      -1.082251       -29.4496
  15   2.0000      -0.950726       -25.8706
  16   2.0000      -0.920233       -25.0408
  17   2.0000      -0.778791       -21.1920
  18   2.0000      -0.646376       -17.5888
  19   2.0000      -0.617611       -16.8061
  20   2.0000      -0.588802       -16.0221
  21   2.0000      -0.555723       -15.1220
  22   2.0000      -0.540152       -14.6983
  23   2.0000      -0.511888       -13.9292
  24   2.0000      -0.499287       -13.5863
  25   2.0000      -0.492091       -13.3905
  26   2.0000      -0.489868       -13.3300
  27   2.0000      -0.426777       -11.6132
  28   2.0000      -0.352514        -9.5924
  29   0.0000       0.023981         0.6526
  30   0.0000       0.032589         0.8868
  31   0.0000       0.034041         0.9263
  32   0.0000       0.042812         1.1650
  33   0.0000       0.053951         1.4681

MULLIKEN ATOMIC CHARGES
-----------------------
   0 Cl:   -0.364468
   1 S :    0.102468
   2 C :    0.132566
   3 C :   -0.908187
   4 H :    0.310977
   5 H :    0.254716
   6 H :    0.258157
   7 C :   -0.908187
   8 H :    0.298106
   9 H :    0.258156
  10 H :    0.254718
  11 H :    0.310978
Sum of atomic charges:   -0.0000000

LOEWDIN ATOMIC CHARGES
----------------------
   0 Cl:    0.526916
   1 S :    0.512528
   2 C :   -0.406231
   3 C :    0.798872
   4 H :   -0.301940
   5 H :   -0.283927
   6 H :   -0.329783
   7 C :    0.798872
   8 H :   -0.399655
   9 H :   -0.329783
  10 H :   -0.283928
  11 H :   -0.301941

  Mayer bond orders larger than 0.100000
B(  0-Cl,  1-S ) :   0.9945 B(  0-Cl,  2-C ) :  -0.1941 B(  1-S ,  2-C ) :   0.8460
B(  2-C ,  3-C ) :   0.8645 B(  2-C ,  7-C ) :   0.8645 B(  2-C ,  8-H ) :   0.8048
B(  3-C ,  4-H ) :   0.9432 B(  3-C ,  5-H ) :   0.9428 B(  3-C ,  6-H ) :   0.9548
B(  7-C ,  9-H ) :   0.9548 B(  7-C , 10-H ) :   0.9428 B(  7-C , 11-H ) :   0.9432

MP2 TOTAL ENERGY:     -975.772200374 Eh
FINAL SINGLE POINT ENERGY      -975.772200374122

DIPOLE MOMENT
-------------
                                X             Y             Z
Electronic contribution:     12.34066       0.00007       1.79690
Nuclear contribution   :    -13.32818      -0.00007      -1.81410
                        -----------------------------------------
Total Dipole Moment    :     -0.98752      -0.00000      -0.01720
                        -----------------------------------------
Magnitude (a.u.)       :      0.98767
Magnitude (Debye)      :      2.51045

Rotational constants in cm-1:     0.145565     0.067701     0.065928
Rotational constants in MHz :  4363.933324  2029.632362  1976.480263

                             ****ORCA TERMINATED NORMALLY****
TOTAL RUN TIME: 0 days 0 hours 9 minutes 28 seconds 888 msec
