                         Program Version 5.0.4 -  RELEASE  -
|  1> ! ri-mp2 aug-cc-pvdz aug-cc-pvdz/c tightscf
|  2> %pal nprocs 16 end
|  3> %maxcore 3800
|  4> %base "DZ_Si-S_37_A"
|  5> %scf
|  6> STABPerform true
|  7> STABRestartUHFifUnstable true
|  8> end
|  9>
| 10> *xyz 0 2
| 11> S        -0.127824    0.073960    0.250688
| 12> O         1.104637   -0.895969   -0.106951
| 13> O         0.216215    1.403134   -0.183439
| 14> O        -1.305192   -0.608648   -0.194402
| 15> H         1.919900   -0.371490   -0.132673
| 16> *
| 17>
| 18> $new_job
| 19> ! ri-mp2 aug-cc-pvtz aug-cc-pvtz/c tightscf
| 20> %pal nprocs 16 end
| 21> %maxcore 3800
| 22> %base "TZ_Si-S_37_A"
| 23>
| 24> *xyz 0 2
| 25> S        -0.127824    0.073960    0.250688
| 26> O         1.104637   -0.895969   -0.106951
| 27> O         0.216215    1.403134   -0.183439
| 28> O        -1.305192   -0.608648   -0.194402
| 29> H         1.919900   -0.371490   -0.132673
| 30> *
| 31>
| 32> $new_job
| 33> ! ri-mp2 aug-cc-pvqz aug-cc-pvqz/c tightscf
| 34> %pal nprocs 16 end
| 35> %maxcore 3800
| 36> %base "QZ_Si-S_37_A"
| 37>
| 38> *xyz 0 2
| 39> S        -0.127824    0.073960    0.250688
| 40> O         1.104637   -0.895969   -0.106951
| 41> O         0.216215    1.403134   -0.183439
| 42> O        -1.305192   -0.608648   -0.194402
| 43> H         1.919900   -0.371490   -0.132673
| 44> *
| 45>
| 46>
| 47>
| 48>
| 49>                          ****END OF INPUT****
 Total Charge           Charge          ....    0
 Multiplicity           Mult            ....    2
 Number of Electrons    NEL             ....   41
MP2 TOTAL ENERGY:     -623.355495878 Eh
FINAL SINGLE POINT ENERGY      -623.355495878156
MP2 TOTAL ENERGY:     -623.635465368 Eh
FINAL SINGLE POINT ENERGY      -623.635465367840

CARTESIAN COORDINATES (ANGSTROEM)
---------------------------------
  S     -0.127824    0.073960    0.250688
  O      1.104637   -0.895969   -0.106951
  O      0.216215    1.403134   -0.183439
  O     -1.305192   -0.608648   -0.194402
  H      1.919900   -0.371490   -0.132673

 Multiplicity           Mult            ....    2
 Number of Electrons    NEL             ....   41
 Basis Dimension        Dim             ....  370

ORBITAL ENERGIES
----------------
                 SPIN UP ORBITALS
  NO   OCC          E(Eh)            E(eV)
   0   1.0000     -92.219663     -2509.4246
   1   1.0000     -20.665135      -562.3269
   2   1.0000     -20.613404      -560.9192
   3   1.0000     -20.612926      -560.9062
   4   1.0000      -9.191106      -250.1027
   5   1.0000      -6.881384      -187.2520
   6   1.0000      -6.872307      -187.0050
   7   1.0000      -6.870927      -186.9674
   8   1.0000      -1.546652       -42.0865
   9   1.0000      -1.434421       -39.0326
  10   1.0000      -1.414932       -38.5022
  11   1.0000      -0.936006       -25.4700
  12   1.0000      -0.792499       -21.5650
  13   1.0000      -0.737462       -20.0674
  14   1.0000      -0.726847       -19.7785
  15   1.0000      -0.679385       -18.4870
  16   1.0000      -0.615358       -16.7447
  17   1.0000      -0.576121       -15.6770
  18   1.0000      -0.567554       -15.4439
  19   1.0000      -0.535846       -14.5811
  20   1.0000      -0.465539       -12.6680
  21   0.0000       0.020128         0.5477
  22   0.0000       0.058320         1.5870
  23   0.0000       0.065411         1.7799
  24   0.0000       0.068132         1.8540
  25   0.0000       0.096608         2.6288

                 SPIN DOWN ORBITALS
  NO   OCC          E(Eh)            E(eV)
   0   1.0000     -92.214761     -2509.2912
   1   1.0000     -20.658242      -562.1393
   2   1.0000     -20.601020      -560.5823
   3   1.0000     -20.599752      -560.5478
   4   1.0000      -9.184103      -249.9122
   5   1.0000      -6.871270      -186.9767
   6   1.0000      -6.870254      -186.9491
   7   1.0000      -6.861026      -186.6980
   8   1.0000      -1.519786       -41.3555
   9   1.0000      -1.407125       -38.2898
  10   1.0000      -1.375738       -37.4357
  11   1.0000      -0.887998       -24.1637
  12   1.0000      -0.758866       -20.6498
  13   1.0000      -0.705822       -19.2064
  14   1.0000      -0.680649       -18.5214
  15   1.0000      -0.643472       -17.5098
  16   1.0000      -0.564738       -15.3673
  17   1.0000      -0.559089       -15.2136
  18   1.0000      -0.524320       -14.2675
  19   1.0000      -0.496408       -13.5080
  20   0.0000      -0.013426        -0.3653
  21   0.0000       0.026646         0.7251
  22   0.0000       0.061583         1.6758
  23   0.0000       0.066062         1.7976
  24   0.0000       0.069886         1.9017

MULLIKEN ATOMIC CHARGES AND SPIN POPULATIONS
--------------------------------------------
   0 S :    2.031048    0.367399
   1 O :   -0.644200    0.118172
   2 O :   -0.878750    0.252671
   3 O :   -0.858603    0.271365
   4 H :    0.350505   -0.009607
Sum of atomic charges         :   -0.0000000

LOEWDIN ATOMIC CHARGES AND SPIN POPULATIONS
-------------------------------------------
   0 S :   -0.282690    0.372118
   1 O :    0.929810    0.127141
   2 O :    0.146033    0.235197
   3 O :    0.131201    0.246150
   4 H :   -0.924354    0.019394

  Mayer bond orders larger than 0.100000
B(  0-S ,  1-O ) :   0.8377 B(  0-S ,  2-O ) :   1.5181 B(  0-S ,  3-O ) :   1.5327
B(  1-O ,  4-H ) :   0.9025

MP2 TOTAL ENERGY:     -623.727968603 Eh
FINAL SINGLE POINT ENERGY      -623.727968603216

DIPOLE MOMENT
-------------
                                X             Y             Z
Electronic contribution:     -0.72196       0.25504       0.63285
Nuclear contribution   :      1.82763      -0.35655      -0.14063
                        -----------------------------------------
Total Dipole Moment    :      1.10568      -0.10152       0.49222
                        -----------------------------------------
Magnitude (a.u.)       :      1.21454
Magnitude (Debye)      :      3.08712

Rotational constants in cm-1:     0.314546     0.304167     0.164783
Rotational constants in MHz :  9429.842704  9118.696590  4940.064580

                             ****ORCA TERMINATED NORMALLY****
TOTAL RUN TIME: 0 days 0 hours 12 minutes 28 seconds 98 msec
