                         Program Version 5.0.4 -  RELEASE  -
|  1> ! ri-mp2 aug-cc-pvdz aug-cc-pvdz/c tightscf
|  2> %pal nprocs 16 end
|  3> %maxcore 3800
|  4> %base "DZ_Si-Cl_14_AB"
|  5> %scf
|  6> STABPerform true
|  7> STABRestartUHFifUnstable true
|  8> end
|  9>
| 10> *xyz 0 1
| 11> Si         1.882502   -0.370630    0.400407
| 12> C         0.193406   -0.857370   -0.208885
| 13> C        -0.954336    0.011898    0.300327
| 14> H         0.031602   -1.900509    0.086623
| 15> H         0.210175   -0.854063   -1.303292
| 16> C         3.221172   -1.471615   -0.263548
| 17> H         3.064198   -2.500883    0.065034
| 18> H         4.201465   -1.149266    0.086930
| 19> H         3.229725   -1.459301   -1.353907
| 20> Cl         2.271412    1.572580   -0.213572
| 21> C        -2.316525   -0.432163   -0.211573
| 22> H        -0.781592    1.050809    0.007742
| 23> H        -0.963223    0.004806    1.394654
| 24> C        -3.461228    0.433567    0.291783
| 25> H        -2.492225   -1.472586    0.081590
| 26> H        -2.309389   -0.423243   -1.306488
| 27> C        -4.818391   -0.015574   -0.226227
| 28> H        -3.281503    1.471831   -0.001545
| 29> H        -3.464630    0.424233    1.385658
| 30> H        -4.851869    0.015593   -1.316965
| 31> H        -5.620824    0.620376    0.148689
| 32> H        -5.035972   -1.040574    0.080264
| 33> H         1.910449   -0.344723    1.878774
| 34> *
| 35>
| 36> $new_job
| 37> ! ri-mp2 aug-cc-pvtz aug-cc-pvtz/c tightscf
| 38> %pal nprocs 16 end
| 39> %maxcore 3800
| 40> %base "TZ_Si-Cl_14_AB"
| 41>
| 42> *xyz 0 1
| 43> Si         1.882502   -0.370630    0.400407
| 44> C         0.193406   -0.857370   -0.208885
| 45> C        -0.954336    0.011898    0.300327
| 46> H         0.031602   -1.900509    0.086623
| 47> H         0.210175   -0.854063   -1.303292
| 48> C         3.221172   -1.471615   -0.263548
| 49> H         3.064198   -2.500883    0.065034
| 50> H         4.201465   -1.149266    0.086930
| 51> H         3.229725   -1.459301   -1.353907
| 52> Cl         2.271412    1.572580   -0.213572
| 53> C        -2.316525   -0.432163   -0.211573
| 54> H        -0.781592    1.050809    0.007742
| 55> H        -0.963223    0.004806    1.394654
| 56> C        -3.461228    0.433567    0.291783
| 57> H        -2.492225   -1.472586    0.081590
| 58> H        -2.309389   -0.423243   -1.306488
| 59> C        -4.818391   -0.015574   -0.226227
| 60> H        -3.281503    1.471831   -0.001545
| 61> H        -3.464630    0.424233    1.385658
| 62> H        -4.851869    0.015593   -1.316965
| 63> H        -5.620824    0.620376    0.148689
| 64> H        -5.035972   -1.040574    0.080264
| 65> H         1.910449   -0.344723    1.878774
| 66> *
| 67>
| 68> $new_job
| 69> ! ri-mp2 aug-cc-pvqz aug-cc-pvqz/c tightscf
| 70> %pal nprocs 16 end
| 71> %maxcore 3800
| 72> %base "QZ_Si-Cl_14_AB"
| 73>
| 74> *xyz 0 1
| 75> Si         1.882502   -0.370630    0.400407
| 76> C         0.193406   -0.857370   -0.208885
| 77> C        -0.954336    0.011898    0.300327
| 78> H         0.031602   -1.900509    0.086623
| 79> H         0.210175   -0.854063   -1.303292
| 80> C         3.221172   -1.471615   -0.263548
| 81> H         3.064198   -2.500883    0.065034
| 82> H         4.201465   -1.149266    0.086930
| 83> H         3.229725   -1.459301   -1.353907
| 84> Cl         2.271412    1.572580   -0.213572
| 85> C        -2.316525   -0.432163   -0.211573
| 86> H        -0.781592    1.050809    0.007742
| 87> H        -0.963223    0.004806    1.394654
| 88> C        -3.461228    0.433567    0.291783
| 89> H        -2.492225   -1.472586    0.081590
| 90> H        -2.309389   -0.423243   -1.306488
| 91> C        -4.818391   -0.015574   -0.226227
| 92> H        -3.281503    1.471831   -0.001545
| 93> H        -3.464630    0.424233    1.385658
| 94> H        -4.851869    0.015593   -1.316965
| 95> H        -5.620824    0.620376    0.148689
| 96> H        -5.035972   -1.040574    0.080264
| 97> H         1.910449   -0.344723    1.878774
| 98> *
| 99>
|100>
|101>
|102>
|103>                          ****END OF INPUT****
 Total Charge           Charge          ....    0
 Multiplicity           Mult            ....    1
 Number of Electrons    NEL             ....   82
MP2 TOTAL ENERGY:     -985.637773530 Eh
FINAL SINGLE POINT ENERGY      -985.637773529953
MP2 TOTAL ENERGY:     -985.971232346 Eh
FINAL SINGLE POINT ENERGY      -985.971232346283

CARTESIAN COORDINATES (ANGSTROEM)
---------------------------------
  Si     1.882502   -0.370630    0.400407
  C      0.193406   -0.857370   -0.208885
  C     -0.954336    0.011898    0.300327
  H      0.031602   -1.900509    0.086623
  H      0.210175   -0.854063   -1.303292
  C      3.221172   -1.471615   -0.263548
  H      3.064198   -2.500883    0.065034
  H      4.201465   -1.149266    0.086930
  H      3.229725   -1.459301   -1.353907
  Cl     2.271412    1.572580   -0.213572
  C     -2.316525   -0.432163   -0.211573
  H     -0.781592    1.050809    0.007742
  H     -0.963223    0.004806    1.394654
  C     -3.461228    0.433567    0.291783
  H     -2.492225   -1.472586    0.081590
  H     -2.309389   -0.423243   -1.306488
  C     -4.818391   -0.015574   -0.226227
  H     -3.281503    1.471831   -0.001545
  H     -3.464630    0.424233    1.385658
  H     -4.851869    0.015593   -1.316965
  H     -5.620824    0.620376    0.148689
  H     -5.035972   -1.040574    0.080264
  H      1.910449   -0.344723    1.878774

 Multiplicity           Mult            ....    1
 Number of Electrons    NEL             ....   82
 Basis Dimension        Dim             .... 1338

ORBITAL ENERGIES
----------------

  NO   OCC          E(Eh)            E(eV)
   0   2.0000    -104.811046     -2852.0536
   1   2.0000     -68.794196     -1871.9853
   2   2.0000     -11.222155      -305.3704
   3   2.0000     -11.214988      -305.1754
   4   2.0000     -11.214300      -305.1566
   5   2.0000     -11.211778      -305.0880
   6   2.0000     -11.210598      -305.0559
   7   2.0000     -11.209169      -305.0170
   8   2.0000     -10.538666      -286.7717
   9   2.0000      -8.005461      -217.8397
  10   2.0000      -8.004434      -217.8117
  11   2.0000      -8.004431      -217.8116
  12   2.0000      -6.140527      -167.0922
  13   2.0000      -4.247688      -115.5855
  14   2.0000      -4.246464      -115.5522
  15   2.0000      -4.246049      -115.5409
  16   2.0000      -1.090484       -29.6736
  17   2.0000      -1.079977       -29.3877
  18   2.0000      -1.021189       -27.7880
  19   2.0000      -0.956996       -26.0412
  20   2.0000      -0.922425       -25.1005
  21   2.0000      -0.826415       -22.4879
  22   2.0000      -0.791012       -21.5245
  23   2.0000      -0.673939       -18.3388
  24   2.0000      -0.654131       -17.7998
  25   2.0000      -0.604689       -16.4544
  26   2.0000      -0.590818       -16.0770
  27   2.0000      -0.574501       -15.6330
  28   2.0000      -0.572514       -15.5789
  29   2.0000      -0.560567       -15.2538
  30   2.0000      -0.536259       -14.5923
  31   2.0000      -0.517755       -14.0888
  32   2.0000      -0.501840       -13.6558
  33   2.0000      -0.497832       -13.5467
  34   2.0000      -0.486593       -13.2409
  35   2.0000      -0.481134       -13.0923
  36   2.0000      -0.465869       -12.6769
  37   2.0000      -0.464390       -12.6367
  38   2.0000      -0.458027       -12.4635
  39   2.0000      -0.432017       -11.7558
  40   2.0000      -0.412066       -11.2129
  41   0.0000       0.021829         0.5940
  42   0.0000       0.027389         0.7453
  43   0.0000       0.031509         0.8574
  44   0.0000       0.033181         0.9029
  45   0.0000       0.040916         1.1134

MULLIKEN ATOMIC CHARGES
-----------------------
   0 Si:    1.574690
   1 C :   -0.666599
   2 C :   -0.357512
   3 H :    0.207701
   4 H :    0.170887
   5 C :   -1.145454
   6 H :    0.248944
   7 H :    0.292793
   8 H :    0.215368
   9 Cl:   -0.765918
  10 C :   -0.241137
  11 H :    0.254364
  12 H :    0.262679
  13 C :   -0.481267
  14 H :    0.227789
  15 H :    0.228812
  16 C :   -0.903579
  17 H :    0.228003
  18 H :    0.228684
  19 H :    0.226298
  20 H :    0.268052
  21 H :    0.224379
  22 H :   -0.297976
Sum of atomic charges:   -0.0000000

LOEWDIN ATOMIC CHARGES
----------------------
   0 Si:   -0.268597
   1 C :    0.495637
   2 C :    0.433097
   3 H :   -0.325727
   4 H :   -0.331114
   5 C :    0.895282
   6 H :   -0.350965
   7 H :   -0.363536
   8 H :   -0.357084
   9 Cl:    0.965880
  10 C :    0.503022
  11 H :   -0.297346
  12 H :   -0.278438
  13 C :    0.505179
  14 H :   -0.266954
  15 H :   -0.266686
  16 C :    0.925692
  17 H :   -0.270172
  18 H :   -0.270460
  19 H :   -0.284178
  20 H :   -0.283105
  21 H :   -0.284364
  22 H :   -0.225062

  Mayer bond orders larger than 0.100000
B(  0-Si,  1-C ) :   0.9348 B(  0-Si,  5-C ) :   0.8183 B(  0-Si,  9-Cl) :   0.1108
B(  0-Si, 22-H ) :   0.8465 B(  1-C ,  2-C ) :   1.0773 B(  1-C ,  3-H ) :   0.8889
B(  1-C ,  4-H ) :   0.9336 B(  1-C , 10-C ) :  -0.1248 B(  2-C , 10-C ) :   1.0310
B(  2-C , 11-H ) :   0.8277 B(  2-C , 12-H ) :   0.8205 B(  5-C ,  6-H ) :   0.9421
B(  5-C ,  7-H ) :   0.9573 B(  5-C ,  8-H ) :   0.9720 B( 10-C , 13-C ) :   0.9693
B( 10-C , 14-H ) :   0.8595 B( 10-C , 15-H ) :   0.8704 B( 10-C , 16-C ) :  -0.1124
B( 13-C , 16-C ) :   1.0302 B( 13-C , 17-H ) :   0.8752 B( 13-C , 18-H ) :   0.8759
B( 13-C , 20-H ) :  -0.1027 B( 16-C , 19-H ) :   0.9521 B( 16-C , 20-H ) :   1.0263
B( 16-C , 21-H ) :   0.9566

MP2 TOTAL ENERGY:     -986.073905354 Eh
FINAL SINGLE POINT ENERGY      -986.073905353882

DIPOLE MOMENT
-------------
                                X             Y             Z
Electronic contribution:     19.69954       9.18131      -0.21291
Nuclear contribution   :    -19.94184      -9.99756       0.21968
                        -----------------------------------------
Total Dipole Moment    :     -0.24230      -0.81625       0.00676
                        -----------------------------------------
Magnitude (a.u.)       :      0.85148
Magnitude (Debye)      :      2.16429

Rotational constants in cm-1:     0.095475     0.015499     0.013887
Rotational constants in MHz :  2862.273388   464.637349   416.327464

                             ****ORCA TERMINATED NORMALLY****
TOTAL RUN TIME: 0 days 6 hours 54 minutes 51 seconds 767 msec
