                         Program Version 5.0.4 -  RELEASE  -
|  1> ! ri-mp2 aug-cc-pvdz aug-cc-pvdz/c tightscf
|  2> %pal nprocs 16 end
|  3> %maxcore 3800
|  4> %base "DZ_P-N_81_AB"
|  5>
|  6> *xyz 0 1
|  7> P        -2.769790    0.150025   -0.000076
|  8> N        -1.335429   -0.753379   -0.000010
|  9> C        -0.006179   -0.335334    0.000010
| 10> C         0.344919    1.010545    0.000088
| 11> C         1.008400   -1.293080   -0.000046
| 12> C         2.334381   -0.912350   -0.000024
| 13> C         2.682816    0.429899    0.000053
| 14> C         1.679468    1.381091    0.000109
| 15> H         3.722219    0.727067    0.000070
| 16> H         1.932313    2.433367    0.000171
| 17> H        -0.422194    1.770664    0.000135
| 18> H         0.746185   -2.344513   -0.000108
| 19> H         3.104411   -1.672730   -0.000069
| 20> H        -2.494294    1.087733   -1.028188
| 21> H        -2.494423    1.087685    1.028115
| 22> H        -1.462196   -1.750618   -0.000059
| 23> *
| 24>
| 25> $new_job
| 26> ! ri-mp2 aug-cc-pvtz aug-cc-pvtz/c tightscf
| 27> %pal nprocs 16 end
| 28> %maxcore 3800
| 29> %base "TZ_P-N_81_AB"
| 30>
| 31> *xyz 0 1
| 32> P        -2.769790    0.150025   -0.000076
| 33> N        -1.335429   -0.753379   -0.000010
| 34> C        -0.006179   -0.335334    0.000010
| 35> C         0.344919    1.010545    0.000088
| 36> C         1.008400   -1.293080   -0.000046
| 37> C         2.334381   -0.912350   -0.000024
| 38> C         2.682816    0.429899    0.000053
| 39> C         1.679468    1.381091    0.000109
| 40> H         3.722219    0.727067    0.000070
| 41> H         1.932313    2.433367    0.000171
| 42> H        -0.422194    1.770664    0.000135
| 43> H         0.746185   -2.344513   -0.000108
| 44> H         3.104411   -1.672730   -0.000069
| 45> H        -2.494294    1.087733   -1.028188
| 46> H        -2.494423    1.087685    1.028115
| 47> H        -1.462196   -1.750618   -0.000059
| 48> *
| 49>
| 50> $new_job
| 51> ! ri-mp2 aug-cc-pvqz aug-cc-pvqz/c tightscf
| 52> %pal nprocs 16 end
| 53> %maxcore 3800
| 54> %base "QZ_P-N_81_AB"
| 55>
| 56> *xyz 0 1
| 57> P        -2.769790    0.150025   -0.000076
| 58> N        -1.335429   -0.753379   -0.000010
| 59> C        -0.006179   -0.335334    0.000010
| 60> C         0.344919    1.010545    0.000088
| 61> C         1.008400   -1.293080   -0.000046
| 62> C         2.334381   -0.912350   -0.000024
| 63> C         2.682816    0.429899    0.000053
| 64> C         1.679468    1.381091    0.000109
| 65> H         3.722219    0.727067    0.000070
| 66> H         1.932313    2.433367    0.000171
| 67> H        -0.422194    1.770664    0.000135
| 68> H         0.746185   -2.344513   -0.000108
| 69> H         3.104411   -1.672730   -0.000069
| 70> H        -2.494294    1.087733   -1.028188
| 71> H        -2.494423    1.087685    1.028115
| 72> H        -1.462196   -1.750618   -0.000059
| 73> *
| 74>
| 75>
| 76>
| 77>
| 78>                          ****END OF INPUT****
 Total Charge           Charge          ....    0
 Multiplicity           Mult            ....    1
 Number of Electrons    NEL             ....   66
MP2 TOTAL ENERGY:     -628.199396176 Eh
FINAL SINGLE POINT ENERGY      -628.199396176399
MP2 TOTAL ENERGY:     -628.500540811 Eh
FINAL SINGLE POINT ENERGY      -628.500540810753

CARTESIAN COORDINATES (ANGSTROEM)
---------------------------------
  P     -2.769790    0.150025   -0.000076
  N     -1.335429   -0.753379   -0.000010
  C     -0.006179   -0.335334    0.000010
  C      0.344919    1.010545    0.000088
  C      1.008400   -1.293080   -0.000046
  C      2.334381   -0.912350   -0.000024
  C      2.682816    0.429899    0.000053
  C      1.679468    1.381091    0.000109
  H      3.722219    0.727067    0.000070
  H      1.932313    2.433367    0.000171
  H     -0.422194    1.770664    0.000135
  H      0.746185   -2.344513   -0.000108
  H      3.104411   -1.672730   -0.000069
  H     -2.494294    1.087733   -1.028188
  H     -2.494423    1.087685    1.028115
  H     -1.462196   -1.750618   -0.000059

 Multiplicity           Mult            ....    1
 Number of Electrons    NEL             ....   66
 Basis Dimension        Dim             .... 1012

ORBITAL ENERGIES
----------------

  NO   OCC          E(Eh)            E(eV)
   0   2.0000     -79.964905     -2175.9557
   1   2.0000     -15.573812      -423.7850
   2   2.0000     -11.282396      -307.0096
   3   2.0000     -11.235318      -305.7285
   4   2.0000     -11.234611      -305.7093
   5   2.0000     -11.226353      -305.4846
   6   2.0000     -11.223603      -305.4098
   7   2.0000     -11.220040      -305.3128
   8   2.0000      -7.503866      -204.1906
   9   2.0000      -5.398099      -146.8897
  10   2.0000      -5.397541      -146.8746
  11   2.0000      -5.397096      -146.8624
  12   2.0000      -1.238196       -33.6930
  13   2.0000      -1.138231       -30.9729
  14   2.0000      -1.019676       -27.7468
  15   2.0000      -0.999969       -27.2105
  16   2.0000      -0.867277       -23.5998
  17   2.0000      -0.833856       -22.6904
  18   2.0000      -0.795048       -21.6344
  19   2.0000      -0.719241       -19.5715
  20   2.0000      -0.672689       -18.3048
  21   2.0000      -0.640724       -17.4350
  22   2.0000      -0.608277       -16.5521
  23   2.0000      -0.587873       -15.9968
  24   2.0000      -0.578259       -15.7352
  25   2.0000      -0.577248       -15.7077
  26   2.0000      -0.513326       -13.9683
  27   2.0000      -0.510983       -13.9046
  28   2.0000      -0.491472       -13.3736
  29   2.0000      -0.440265       -11.9802
  30   2.0000      -0.380670       -10.3586
  31   2.0000      -0.342529        -9.3207
  32   2.0000      -0.300536        -8.1780
  33   0.0000       0.024014         0.6535
  34   0.0000       0.028026         0.7626
  35   0.0000       0.030778         0.8375
  36   0.0000       0.040590         1.1045
  37   0.0000       0.044296         1.2054

MULLIKEN ATOMIC CHARGES
-----------------------
   0 P :    0.406775
   1 N :   -0.824031
   2 C :    0.574340
   3 C :   -0.170493
   4 C :   -0.397193
   5 C :   -0.330449
   6 C :   -0.316586
   7 C :   -0.362934
   8 H :    0.302770
   9 H :    0.233405
  10 H :    0.310808
  11 H :    0.245216
  12 H :    0.253434
  13 H :   -0.075925
  14 H :   -0.075930
  15 H :    0.226794
Sum of atomic charges:   -0.0000000

LOEWDIN ATOMIC CHARGES
----------------------
   0 P :    1.381759
   1 N :    0.556036
   2 C :   -0.330675
   3 C :    0.297178
   4 C :    0.328538
   5 C :    0.329018
   6 C :    0.329967
   7 C :    0.332611
   8 H :   -0.329678
   9 H :   -0.318595
  10 H :   -0.380630
  11 H :   -0.323454
  12 H :   -0.319538
  13 H :   -0.456616
  14 H :   -0.456617
  15 H :   -0.639306

  Mayer bond orders larger than 0.100000
B(  0-P ,  1-N ) :   0.9314 B(  0-P , 13-H ) :   0.8798 B(  0-P , 14-H ) :   0.8798
B(  1-N ,  2-C ) :   0.6892 B(  1-N , 15-H ) :   1.0266 B(  2-C ,  3-C ) :   1.2479
B(  2-C ,  4-C ) :   1.0581 B(  2-C ,  5-C ) :  -0.2702 B(  2-C ,  7-C ) :  -0.2309
B(  2-C , 11-H ) :  -0.1024 B(  3-C ,  5-C ) :   0.1029 B(  3-C ,  7-C ) :   1.1410
B(  3-C ,  9-H ) :  -0.1346 B(  3-C , 10-H ) :   0.9311 B(  4-C ,  5-C ) :   1.3615
B(  4-C ,  7-C ) :   0.1330 B(  4-C , 11-H ) :   0.9926 B(  4-C , 12-H ) :  -0.1347
B(  5-C ,  6-C ) :   1.1396 B(  5-C , 12-H ) :   1.1133 B(  6-C ,  7-C ) :   1.2263
B(  6-C ,  8-H ) :   1.0349 B(  7-C ,  9-H ) :   1.1487 B(  7-C , 10-H ) :  -0.1063

MP2 TOTAL ENERGY:     -628.595864995 Eh
FINAL SINGLE POINT ENERGY      -628.595864994977

DIPOLE MOMENT
-------------
                                X             Y             Z
Electronic contribution:     -5.09424      -1.30634      -0.00015
Nuclear contribution   :      5.21334       1.18032       0.00014
                        -----------------------------------------
Total Dipole Moment    :      0.11911      -0.12602      -0.00002
                        -----------------------------------------
Magnitude (a.u.)       :      0.17340
Magnitude (Debye)      :      0.44074

Rotational constants in cm-1:     0.163550     0.033260     0.027834
Rotational constants in MHz :  4903.100795   997.118254   834.439688

                             ****ORCA TERMINATED NORMALLY****
TOTAL RUN TIME: 0 days 0 hours 29 minutes 19 seconds 378 msec
