                         Program Version 5.0.4 -  RELEASE  -
|  1> ! ri-mp2 aug-cc-pvdz aug-cc-pvdz/c tightscf
|  2> %pal nprocs 16 end
|  3> %maxcore 3800
|  4> %base "DZ_S-Cl_46_AB"
|  5>
|  6> *xyz 0 1
|  7> Cl        -1.381773   -0.494655    0.000000
|  8> S         0.000000    0.962842    0.000000
|  9> N         1.538753    0.160442    0.000000
| 10> O         1.589860   -1.014928    0.000000
| 11> *
| 12>
| 13> $new_job
| 14> ! ri-mp2 aug-cc-pvtz aug-cc-pvtz/c tightscf
| 15> %pal nprocs 16 end
| 16> %maxcore 3800
| 17> %base "TZ_S-Cl_46_AB"
| 18>
| 19> *xyz 0 1
| 20> Cl        -1.381773   -0.494655    0.000000
| 21> S         0.000000    0.962842    0.000000
| 22> N         1.538753    0.160442    0.000000
| 23> O         1.589860   -1.014928    0.000000
| 24> *
| 25>
| 26> $new_job
| 27> ! ri-mp2 aug-cc-pvqz aug-cc-pvqz/c tightscf
| 28> %pal nprocs 16 end
| 29> %maxcore 3800
| 30> %base "QZ_S-Cl_46_AB"
| 31>
| 32> *xyz 0 1
| 33> Cl        -1.381773   -0.494655    0.000000
| 34> S         0.000000    0.962842    0.000000
| 35> N         1.538753    0.160442    0.000000
| 36> O         1.589860   -1.014928    0.000000
| 37> *
| 38>
| 39>
| 40>
| 41>
| 42>                          ****END OF INPUT****
 Total Charge           Charge          ....    0
 Multiplicity           Mult            ....    1
 Number of Electrons    NEL             ....   48
MP2 TOTAL ENERGY:     -986.912912563 Eh
FINAL SINGLE POINT ENERGY      -986.912912563467
MP2 TOTAL ENERGY:     -987.131934035 Eh
FINAL SINGLE POINT ENERGY      -987.131934034891

CARTESIAN COORDINATES (ANGSTROEM)
---------------------------------
  Cl    -1.381773   -0.494655    0.000000
  S      0.000000    0.962842    0.000000
  N      1.538753    0.160442    0.000000
  O      1.589860   -1.014928    0.000000

 Multiplicity           Mult            ....    1
 Number of Electrons    NEL             ....   48
 Basis Dimension        Dim             ....  328

ORBITAL ENERGIES
----------------

  NO   OCC          E(Eh)            E(eV)
   0   2.0000    -104.881414     -2853.9684
   1   2.0000     -92.061631     -2505.1243
   2   2.0000     -20.668133      -562.4085
   3   2.0000     -15.764057      -428.9618
   4   2.0000     -10.605614      -288.5934
   5   2.0000      -9.058700      -246.4998
   6   2.0000      -8.072607      -219.6668
   7   2.0000      -8.070596      -219.6121
   8   2.0000      -8.070399      -219.6067
   9   2.0000      -6.739548      -183.3924
  10   2.0000      -6.737689      -183.3418
  11   2.0000      -6.736616      -183.3126
  12   2.0000      -1.581083       -43.0235
  13   2.0000      -1.185647       -32.2631
  14   2.0000      -1.064825       -28.9754
  15   2.0000      -0.864762       -23.5314
  16   2.0000      -0.725193       -19.7335
  17   2.0000      -0.713550       -19.4167
  18   2.0000      -0.659849       -17.9554
  19   2.0000      -0.549500       -14.9527
  20   2.0000      -0.537969       -14.6389
  21   2.0000      -0.502076       -13.6622
  22   2.0000      -0.417901       -11.3717
  23   2.0000      -0.400724       -10.9042
  24   0.0000       0.039961         1.0874
  25   0.0000       0.057422         1.5625
  26   0.0000       0.058986         1.6051
  27   0.0000       0.059448         1.6177
  28   0.0000       0.078508         2.1363

MULLIKEN ATOMIC CHARGES
-----------------------
   0 Cl:   -0.181424
   1 S :    0.499671
   2 N :    0.046625
   3 O :   -0.364871
Sum of atomic charges:    0.0000000

LOEWDIN ATOMIC CHARGES
----------------------
   0 Cl:    0.421582
   1 S :    0.056154
   2 N :   -0.694480
   3 O :    0.216745

  Mayer bond orders larger than 0.100000
B(  0-Cl,  1-S ) :   1.0032 B(  1-S ,  2-N ) :   1.0412 B(  2-N ,  3-O ) :   1.7583

MP2 TOTAL ENERGY:     -987.205889726 Eh
FINAL SINGLE POINT ENERGY      -987.205889726167

DIPOLE MOMENT
-------------
                                X             Y             Z
Electronic contribution:     -2.11007      -0.20594      -0.00000
Nuclear contribution   :      1.85893       0.61280       0.00000
                        -----------------------------------------
Total Dipole Moment    :     -0.25114       0.40686      -0.00000
                        -----------------------------------------
Magnitude (a.u.)       :      0.47813
Magnitude (Debye)      :      1.21530

Rotational constants in cm-1:     0.305433     0.119308     0.085795
Rotational constants in MHz :  9156.657815  3576.774742  2572.071768

                             ****ORCA TERMINATED NORMALLY****
TOTAL RUN TIME: 0 days 0 hours 1 minutes 28 seconds 218 msec
