                         Program Version 5.0.4 -  RELEASE  -
|  1> ! ri-mp2 aug-cc-pvdz aug-cc-pvdz/c tightscf
|  2> %pal nprocs 16 end
|  3> %maxcore 3800
|  4> %base "DZ_S-Cl_38_AB"
|  5>
|  6> *xyz 0 1
|  7> Cl        -1.379115   -0.578715    0.000000
|  8> S        -0.128478    1.011420    0.000000
|  9> C         1.448696    0.276209    0.000000
| 10> C         1.787967   -0.999510    0.000000
| 11> H         2.196446    1.064258    0.000001
| 12> H         1.052488   -1.790560   -0.000001
| 13> H         2.831679   -1.278459    0.000000
| 14> *
| 15>
| 16> $new_job
| 17> ! ri-mp2 aug-cc-pvtz aug-cc-pvtz/c tightscf
| 18> %pal nprocs 16 end
| 19> %maxcore 3800
| 20> %base "TZ_S-Cl_38_AB"
| 21>
| 22> *xyz 0 1
| 23> Cl        -1.379115   -0.578715    0.000000
| 24> S        -0.128478    1.011420    0.000000
| 25> C         1.448696    0.276209    0.000000
| 26> C         1.787967   -0.999510    0.000000
| 27> H         2.196446    1.064258    0.000001
| 28> H         1.052488   -1.790560   -0.000001
| 29> H         2.831679   -1.278459    0.000000
| 30> *
| 31>
| 32> $new_job
| 33> ! ri-mp2 aug-cc-pvqz aug-cc-pvqz/c tightscf
| 34> %pal nprocs 16 end
| 35> %maxcore 3800
| 36> %base "QZ_S-Cl_38_AB"
| 37>
| 38> *xyz 0 1
| 39> Cl        -1.379115   -0.578715    0.000000
| 40> S        -0.128478    1.011420    0.000000
| 41> C         1.448696    0.276209    0.000000
| 42> C         1.787967   -0.999510    0.000000
| 43> H         2.196446    1.064258    0.000001
| 44> H         1.052488   -1.790560   -0.000001
| 45> H         2.831679   -1.278459    0.000000
| 46> *
| 47>
| 48>
| 49>
| 50>
| 51>                          ****END OF INPUT****
 Total Charge           Charge          ....    0
 Multiplicity           Mult            ....    1
 Number of Electrons    NEL             ....   48
MP2 TOTAL ENERGY:     -935.052263715 Eh
FINAL SINGLE POINT ENERGY      -935.052263715046
MP2 TOTAL ENERGY:     -935.241598555 Eh
FINAL SINGLE POINT ENERGY      -935.241598554692

CARTESIAN COORDINATES (ANGSTROEM)
---------------------------------
  Cl    -1.379115   -0.578715    0.000000
  S     -0.128478    1.011420    0.000000
  C      1.448696    0.276209    0.000000
  C      1.787967   -0.999510    0.000000
  H      2.196446    1.064258    0.000001
  H      1.052488   -1.790560   -0.000001
  H      2.831679   -1.278459    0.000000

 Multiplicity           Mult            ....    1
 Number of Electrons    NEL             ....   48
 Basis Dimension        Dim             ....  466

ORBITAL ENERGIES
----------------

  NO   OCC          E(Eh)            E(eV)
   0   2.0000    -104.859641     -2853.3759
   1   2.0000     -92.020977     -2504.0181
   2   2.0000     -11.281677      -306.9901
   3   2.0000     -11.240029      -305.8567
   4   2.0000     -10.584059      -288.0069
   5   2.0000      -9.019155      -245.4237
   6   2.0000      -8.051085      -219.0812
   7   2.0000      -8.049151      -219.0285
   8   2.0000      -8.048962      -219.0234
   9   2.0000      -6.700589      -182.3323
  10   2.0000      -6.698845      -182.2849
  11   2.0000      -6.697780      -182.2558
  12   2.0000      -1.164329       -31.6830
  13   2.0000      -1.071411       -29.1546
  14   2.0000      -0.938537       -25.5389
  15   2.0000      -0.772825       -21.0296
  16   2.0000      -0.657659       -17.8958
  17   2.0000      -0.625120       -17.0104
  18   2.0000      -0.534673       -14.5492
  19   2.0000      -0.527632       -14.3576
  20   2.0000      -0.519912       -14.1475
  21   2.0000      -0.454960       -12.3801
  22   2.0000      -0.442678       -12.0459
  23   2.0000      -0.335603        -9.1322
  24   0.0000       0.026190         0.7127
  25   0.0000       0.032629         0.8879
  26   0.0000       0.043638         1.1874
  27   0.0000       0.057737         1.5711
  28   0.0000       0.061860         1.6833

MULLIKEN ATOMIC CHARGES
-----------------------
   0 Cl:   -0.300712
   1 S :    0.340747
   2 C :   -0.514218
   3 C :   -0.810954
   4 H :    0.462615
   5 H :    0.471606
   6 H :    0.350916
Sum of atomic charges:    0.0000000

LOEWDIN ATOMIC CHARGES
----------------------
   0 Cl:    0.521289
   1 S :    0.427299
   2 C :   -0.262380
   3 C :    0.614371
   4 H :   -0.475987
   5 H :   -0.452481
   6 H :   -0.372112

  Mayer bond orders larger than 0.100000
B(  0-Cl,  1-S ) :   1.0237 B(  0-Cl,  2-C ) :  -0.1069 B(  1-S ,  2-C ) :   0.8876
B(  2-C ,  3-C ) :   1.7480 B(  2-C ,  4-H ) :   0.7568 B(  3-C ,  5-H ) :   0.7741
B(  3-C ,  6-H ) :   0.9389

MP2 TOTAL ENERGY:     -935.302739923 Eh
FINAL SINGLE POINT ENERGY      -935.302739923121

DIPOLE MOMENT
-------------
                                X             Y             Z
Electronic contribution:     -7.05279       1.18181       0.00000
Nuclear contribution   :      7.68170      -1.15167       0.00000
                        -----------------------------------------
Total Dipole Moment    :      0.62891       0.03014       0.00000
                        -----------------------------------------
Magnitude (a.u.)       :      0.62963
Magnitude (Debye)      :      1.60040

Rotational constants in cm-1:     0.266077     0.116113     0.080837
Rotational constants in MHz :  7976.793772  3480.977519  2423.424162

                             ****ORCA TERMINATED NORMALLY****
TOTAL RUN TIME: 0 days 0 hours 2 minutes 26 seconds 301 msec
