                         Program Version 5.0.4 -  RELEASE  -
|  1> ! ri-mp2 aug-cc-pvdz aug-cc-pvdz/c tightscf
|  2> %pal nprocs 16 end
|  3> %maxcore 3800
|  4> %base "DZ_B-Si_6_AB"
|  5> %scf
|  6> STABPerform true
|  7> STABRestartUHFifUnstable true
|  8> end
|  9>
| 10> *xyz 0 1
| 11> C        -1.611010    0.201048   -0.040153
| 12> B         1.627437    0.018434   -0.026095
| 13> C         1.820743    1.561690   -0.004721
| 14> H         0.899040    2.134514   -0.108295
| 15> H         2.574889    1.923348   -0.706545
| 16> H         2.198889    1.791139    1.002954
| 17> O        -1.600342    1.410390    0.009931
| 18> C        -2.761289   -0.544392   -0.660168
| 19> C         2.724867   -0.927721   -0.601161
| 20> H         2.777970   -1.915095   -0.141403
| 21> H         3.720946   -0.482946   -0.637247
| 22> H         2.426980   -1.105836   -1.645727
| 23> H        -3.202346   -1.219264    0.077057
| 24> H        -2.397262   -1.171718   -1.477349
| 25> H        -3.512596    0.152671   -1.027584
| 26> Si        -0.099155   -0.749969    0.707642
| 27> H        -0.275546   -2.207051    0.474613
| 28> H        -0.197113   -0.519237    2.170780
| 29> *
| 30>
| 31> $new_job
| 32> ! ri-mp2 aug-cc-pvtz aug-cc-pvtz/c tightscf
| 33> %pal nprocs 16 end
| 34> %maxcore 3800
| 35> %base "TZ_B-Si_6_AB"
| 36>
| 37> *xyz 0 1
| 38> C        -1.611010    0.201048   -0.040153
| 39> B         1.627437    0.018434   -0.026095
| 40> C         1.820743    1.561690   -0.004721
| 41> H         0.899040    2.134514   -0.108295
| 42> H         2.574889    1.923348   -0.706545
| 43> H         2.198889    1.791139    1.002954
| 44> O        -1.600342    1.410390    0.009931
| 45> C        -2.761289   -0.544392   -0.660168
| 46> C         2.724867   -0.927721   -0.601161
| 47> H         2.777970   -1.915095   -0.141403
| 48> H         3.720946   -0.482946   -0.637247
| 49> H         2.426980   -1.105836   -1.645727
| 50> H        -3.202346   -1.219264    0.077057
| 51> H        -2.397262   -1.171718   -1.477349
| 52> H        -3.512596    0.152671   -1.027584
| 53> Si        -0.099155   -0.749969    0.707642
| 54> H        -0.275546   -2.207051    0.474613
| 55> H        -0.197113   -0.519237    2.170780
| 56> *
| 57>
| 58> $new_job
| 59> ! ri-mp2 aug-cc-pvqz aug-cc-pvqz/c tightscf
| 60> %pal nprocs 16 end
| 61> %maxcore 3800
| 62> %base "QZ_B-Si_6_AB"
| 63>
| 64> *xyz 0 1
| 65> C        -1.611010    0.201048   -0.040153
| 66> B         1.627437    0.018434   -0.026095
| 67> C         1.820743    1.561690   -0.004721
| 68> H         0.899040    2.134514   -0.108295
| 69> H         2.574889    1.923348   -0.706545
| 70> H         2.198889    1.791139    1.002954
| 71> O        -1.600342    1.410390    0.009931
| 72> C        -2.761289   -0.544392   -0.660168
| 73> C         2.724867   -0.927721   -0.601161
| 74> H         2.777970   -1.915095   -0.141403
| 75> H         3.720946   -0.482946   -0.637247
| 76> H         2.426980   -1.105836   -1.645727
| 77> H        -3.202346   -1.219264    0.077057
| 78> H        -2.397262   -1.171718   -1.477349
| 79> H        -3.512596    0.152671   -1.027584
| 80> Si        -0.099155   -0.749969    0.707642
| 81> H        -0.275546   -2.207051    0.474613
| 82> H        -0.197113   -0.519237    2.170780
| 83> *
| 84>
| 85>
| 86>
| 87>
| 88>                          ****END OF INPUT****
 Total Charge           Charge          ....    0
 Multiplicity           Mult            ....    1
 Number of Electrons    NEL             ....   62
MP2 TOTAL ENERGY:     -547.337062276 Eh
FINAL SINGLE POINT ENERGY      -547.337062276186
MP2 TOTAL ENERGY:     -547.607723169 Eh
FINAL SINGLE POINT ENERGY      -547.607723168575

CARTESIAN COORDINATES (ANGSTROEM)
---------------------------------
  C     -1.611010    0.201048   -0.040153
  B      1.627437    0.018434   -0.026095
  C      1.820743    1.561690   -0.004721
  H      0.899040    2.134514   -0.108295
  H      2.574889    1.923348   -0.706545
  H      2.198889    1.791139    1.002954
  O     -1.600342    1.410390    0.009931
  C     -2.761289   -0.544392   -0.660168
  C      2.724867   -0.927721   -0.601161
  H      2.777970   -1.915095   -0.141403
  H      3.720946   -0.482946   -0.637247
  H      2.426980   -1.105836   -1.645727
  H     -3.202346   -1.219264    0.077057
  H     -2.397262   -1.171718   -1.477349
  H     -3.512596    0.152671   -1.027584
  Si    -0.099155   -0.749969    0.707642
  H     -0.275546   -2.207051    0.474613
  H     -0.197113   -0.519237    2.170780

 Multiplicity           Mult            ....    1
 Number of Electrons    NEL             ....   62
 Basis Dimension        Dim             .... 1070

ORBITAL ENERGIES
----------------

  NO   OCC          E(Eh)            E(eV)
   0   2.0000     -68.756042     -1870.9470
   1   2.0000     -20.548262      -559.1466
   2   2.0000     -11.313145      -307.8463
   3   2.0000     -11.229916      -305.5815
   4   2.0000     -11.201075      -304.7967
   5   2.0000     -11.190327      -304.5043
   6   2.0000      -7.597632      -206.7421
   7   2.0000      -6.108467      -166.2198
   8   2.0000      -4.214591      -114.6848
   9   2.0000      -4.214468      -114.6815
  10   2.0000      -4.213976      -114.6681
  11   2.0000      -1.386545       -37.7298
  12   2.0000      -1.008260       -27.4361
  13   2.0000      -0.974984       -26.5307
  14   2.0000      -0.929067       -25.2812
  15   2.0000      -0.790825       -21.5194
  16   2.0000      -0.703698       -19.1486
  17   2.0000      -0.630401       -17.1541
  18   2.0000      -0.617805       -16.8113
  19   2.0000      -0.600436       -16.3387
  20   2.0000      -0.594189       -16.1687
  21   2.0000      -0.571907       -15.5624
  22   2.0000      -0.561405       -15.2766
  23   2.0000      -0.551328       -15.0024
  24   2.0000      -0.533854       -14.5269
  25   2.0000      -0.527135       -14.3441
  26   2.0000      -0.501957       -13.6589
  27   2.0000      -0.476396       -12.9634
  28   2.0000      -0.460019       -12.5178
  29   2.0000      -0.400549       -10.8995
  30   2.0000      -0.368555       -10.0289
  31   0.0000       0.019685         0.5357
  32   0.0000       0.028180         0.7668
  33   0.0000       0.031425         0.8551
  34   0.0000       0.036347         0.9890
  35   0.0000       0.043970         1.1965

MULLIKEN ATOMIC CHARGES
-----------------------
   0 C :    0.557847
   1 B :    0.291878
   2 C :   -1.158380
   3 H :    0.435280
   4 H :    0.328913
   5 H :    0.277024
   6 O :   -0.880363
   7 C :   -0.911740
   8 C :   -1.136046
   9 H :    0.347552
  10 H :    0.328318
  11 H :    0.279004
  12 H :    0.241601
  13 H :    0.253640
  14 H :    0.371075
  15 Si:    0.791818
  16 H :   -0.231561
  17 H :   -0.185861
Sum of atomic charges:    0.0000000

LOEWDIN ATOMIC CHARGES
----------------------
   0 C :   -0.669893
   1 B :   -0.466962
   2 C :    1.008228
   3 H :   -0.342811
   4 H :   -0.299415
   5 H :   -0.295074
   6 O :    0.659784
   7 C :    0.821093
   8 C :    1.008148
   9 H :   -0.314793
  10 H :   -0.303543
  11 H :   -0.299865
  12 H :   -0.311305
  13 H :   -0.312626
  14 H :   -0.323235
  15 Si:    0.902283
  16 H :   -0.231503
  17 H :   -0.228512

  Mayer bond orders larger than 0.100000
B(  0-C ,  6-O ) :   1.2463 B(  0-C ,  7-C ) :   0.8753 B(  0-C , 15-Si) :   0.5579
B(  1-B ,  2-C ) :   0.9824 B(  1-B ,  8-C ) :   0.9806 B(  1-B , 15-Si) :   0.6776
B(  2-C ,  3-H ) :   0.8370 B(  2-C ,  4-H ) :   0.8643 B(  2-C ,  5-H ) :   0.8952
B(  6-O ,  7-C ) :   0.1399 B(  7-C , 12-H ) :   0.9645 B(  7-C , 13-H ) :   0.9277
B(  7-C , 14-H ) :   0.9164 B(  8-C ,  9-H ) :   0.9031 B(  8-C , 10-H ) :   0.8570
B(  8-C , 11-H ) :   0.9017 B( 15-Si, 16-H ) :   0.6914 B( 15-Si, 17-H ) :   0.6957

MP2 TOTAL ENERGY:     -547.692730718 Eh
FINAL SINGLE POINT ENERGY      -547.692730718267

DIPOLE MOMENT
-------------
                                X             Y             Z
Electronic contribution:     -3.43945       1.68589       1.81108
Nuclear contribution   :      3.76121      -2.62089      -2.08371
                        -----------------------------------------
Total Dipole Moment    :      0.32176      -0.93500      -0.27263
                        -----------------------------------------
Magnitude (a.u.)       :      1.02571
Magnitude (Debye)      :      2.60714

Rotational constants in cm-1:     0.110611     0.039481     0.033293
Rotational constants in MHz :  3316.044712  1183.619896   998.094802

                             ****ORCA TERMINATED NORMALLY****
TOTAL RUN TIME: 0 days 2 hours 2 minutes 3 seconds 152 msec
