                         Program Version 5.0.4 -  RELEASE  -
|  1> ! ri-mp2 aug-cc-pvdz aug-cc-pvdz/c tightscf
|  2> %pal nprocs 16 end
|  3> %maxcore 3800
|  4> %base "DZ_B-Si_31_AB"
|  5>
|  6> *xyz 0 1
|  7> C         0.281666   -0.352249    0.558617
|  8> C         1.045644   -1.269071   -0.156181
|  9> C         2.290144   -0.925088   -0.653823
| 10> C         2.795967    0.347873   -0.450152
| 11> C         2.045620    1.270765    0.258191
| 12> C         0.801496    0.923262    0.756110
| 13> B        -2.442040    1.588936   -0.796462
| 14> H         2.868525   -1.656554   -1.202970
| 15> H         3.769132    0.617327   -0.837851
| 16> H         2.431633    2.267303    0.428695
| 17> H         0.225002    1.651407    1.313288
| 18> H         0.658472   -2.266972   -0.322549
| 19> C        -1.089620   -0.711129    1.051670
| 20> Si        -2.387941   -0.345553   -0.269826
| 21> H        -2.124020    2.449117   -0.035585
| 22> H        -2.849321    1.934671   -1.860707
| 23> H        -2.140897   -1.235508   -1.429986
| 24> H        -3.745998   -0.666454    0.254042
| 25> H        -1.336870   -0.139778    1.948019
| 26> H        -1.139795   -1.767673    1.318884
| 27> *
| 28>
| 29> $new_job
| 30> ! ri-mp2 aug-cc-pvtz aug-cc-pvtz/c tightscf
| 31> %pal nprocs 16 end
| 32> %maxcore 3800
| 33> %base "TZ_B-Si_31_AB"
| 34>
| 35> *xyz 0 1
| 36> C         0.281666   -0.352249    0.558617
| 37> C         1.045644   -1.269071   -0.156181
| 38> C         2.290144   -0.925088   -0.653823
| 39> C         2.795967    0.347873   -0.450152
| 40> C         2.045620    1.270765    0.258191
| 41> C         0.801496    0.923262    0.756110
| 42> B        -2.442040    1.588936   -0.796462
| 43> H         2.868525   -1.656554   -1.202970
| 44> H         3.769132    0.617327   -0.837851
| 45> H         2.431633    2.267303    0.428695
| 46> H         0.225002    1.651407    1.313288
| 47> H         0.658472   -2.266972   -0.322549
| 48> C        -1.089620   -0.711129    1.051670
| 49> Si        -2.387941   -0.345553   -0.269826
| 50> H        -2.124020    2.449117   -0.035585
| 51> H        -2.849321    1.934671   -1.860707
| 52> H        -2.140897   -1.235508   -1.429986
| 53> H        -3.745998   -0.666454    0.254042
| 54> H        -1.336870   -0.139778    1.948019
| 55> H        -1.139795   -1.767673    1.318884
| 56> *
| 57>
| 58> $new_job
| 59> ! ri-mp2 aug-cc-pvqz aug-cc-pvqz/c tightscf
| 60> %pal nprocs 16 end
| 61> %maxcore 3800
| 62> %base "QZ_B-Si_31_AB"
| 63>
| 64> *xyz 0 1
| 65> C         0.281666   -0.352249    0.558617
| 66> C         1.045644   -1.269071   -0.156181
| 67> C         2.290144   -0.925088   -0.653823
| 68> C         2.795967    0.347873   -0.450152
| 69> C         2.045620    1.270765    0.258191
| 70> C         0.801496    0.923262    0.756110
| 71> B        -2.442040    1.588936   -0.796462
| 72> H         2.868525   -1.656554   -1.202970
| 73> H         3.769132    0.617327   -0.837851
| 74> H         2.431633    2.267303    0.428695
| 75> H         0.225002    1.651407    1.313288
| 76> H         0.658472   -2.266972   -0.322549
| 77> C        -1.089620   -0.711129    1.051670
| 78> Si        -2.387941   -0.345553   -0.269826
| 79> H        -2.124020    2.449117   -0.035585
| 80> H        -2.849321    1.934671   -1.860707
| 81> H        -2.140897   -1.235508   -1.429986
| 82> H        -3.745998   -0.666454    0.254042
| 83> H        -1.336870   -0.139778    1.948019
| 84> H        -1.139795   -1.767673    1.318884
| 85> *
| 86>
| 87>
| 88>
| 89>
| 90>                          ****END OF INPUT****
 Total Charge           Charge          ....    0
 Multiplicity           Mult            ....    1
 Number of Electrons    NEL             ....   72
MP2 TOTAL ENERGY:     -586.244851049 Eh
FINAL SINGLE POINT ENERGY      -586.244851048690
MP2 TOTAL ENERGY:     -586.546051685 Eh
FINAL SINGLE POINT ENERGY      -586.546051684658

CARTESIAN COORDINATES (ANGSTROEM)
---------------------------------
  C      0.281666   -0.352249    0.558617
  C      1.045644   -1.269071   -0.156181
  C      2.290144   -0.925088   -0.653823
  C      2.795967    0.347873   -0.450152
  C      2.045620    1.270765    0.258191
  C      0.801496    0.923262    0.756110
  B     -2.442040    1.588936   -0.796462
  H      2.868525   -1.656554   -1.202970
  H      3.769132    0.617327   -0.837851
  H      2.431633    2.267303    0.428695
  H      0.225002    1.651407    1.313288
  H      0.658472   -2.266972   -0.322549
  C     -1.089620   -0.711129    1.051670
  Si    -2.387941   -0.345553   -0.269826
  H     -2.124020    2.449117   -0.035585
  H     -2.849321    1.934671   -1.860707
  H     -2.140897   -1.235508   -1.429986
  H     -3.745998   -0.666454    0.254042
  H     -1.336870   -0.139778    1.948019
  H     -1.139795   -1.767673    1.318884

 Multiplicity           Mult            ....    1
 Number of Electrons    NEL             ....   72
 Basis Dimension        Dim             .... 1230

ORBITAL ENERGIES
----------------

  NO   OCC          E(Eh)            E(eV)
   0   2.0000     -68.751170     -1870.8145
   1   2.0000     -11.244455      -305.9772
   2   2.0000     -11.232874      -305.6620
   3   2.0000     -11.232600      -305.6546
   4   2.0000     -11.227496      -305.5157
   5   2.0000     -11.227130      -305.5057
   6   2.0000     -11.226829      -305.4976
   7   2.0000     -11.216194      -305.2082
   8   2.0000      -7.607304      -207.0053
   9   2.0000      -6.102658      -166.0618
  10   2.0000      -4.209079      -114.5349
  11   2.0000      -4.208633      -114.5227
  12   2.0000      -4.208354      -114.5151
  13   2.0000      -1.160611       -31.5818
  14   2.0000      -1.050139       -28.5757
  15   2.0000      -1.016926       -27.6720
  16   2.0000      -0.933983       -25.4150
  17   2.0000      -0.829674       -22.5766
  18   2.0000      -0.802417       -21.8349
  19   2.0000      -0.731467       -19.9042
  20   2.0000      -0.697293       -18.9743
  21   2.0000      -0.646019       -17.5791
  22   2.0000      -0.637720       -17.3533
  23   2.0000      -0.632668       -17.2158
  24   2.0000      -0.587216       -15.9790
  25   2.0000      -0.575967       -15.6728
  26   2.0000      -0.549967       -14.9654
  27   2.0000      -0.528332       -14.3767
  28   2.0000      -0.503880       -13.7113
  29   2.0000      -0.492797       -13.4097
  30   2.0000      -0.487726       -13.2717
  31   2.0000      -0.464967       -12.6524
  32   2.0000      -0.450378       -12.2554
  33   2.0000      -0.409358       -11.1392
  34   2.0000      -0.339877        -9.2485
  35   2.0000      -0.320112        -8.7107
  36   0.0000       0.022960         0.6248
  37   0.0000       0.026790         0.7290
  38   0.0000       0.027726         0.7545
  39   0.0000       0.031493         0.8570
  40   0.0000       0.034890         0.9494

MULLIKEN ATOMIC CHARGES
-----------------------
   0 C :    0.543966
   1 C :   -0.559098
   2 C :   -0.314397
   3 C :   -0.311663
   4 C :   -0.274437
   5 C :   -0.522315
   6 B :    0.395602
   7 H :    0.231172
   8 H :    0.339214
   9 H :    0.221189
  10 H :    0.301328
  11 H :    0.273860
  12 C :   -0.468148
  13 Si:    0.633725
  14 H :   -0.156231
  15 H :   -0.297556
  16 H :   -0.194806
  17 H :   -0.297944
  18 H :    0.199613
  19 H :    0.256925
Sum of atomic charges:   -0.0000000

LOEWDIN ATOMIC CHARGES
----------------------
   0 C :   -0.168249
   1 C :    0.326539
   2 C :    0.343067
   3 C :    0.335515
   4 C :    0.344423
   5 C :    0.318917
   6 B :    0.373512
   7 H :   -0.318443
   8 H :   -0.324231
   9 H :   -0.317469
  10 H :   -0.321526
  11 H :   -0.314080
  12 C :    0.472455
  13 Si:    0.881995
  14 H :   -0.243057
  15 H :   -0.251203
  16 H :   -0.222694
  17 H :   -0.229464
  18 H :   -0.344128
  19 H :   -0.341880

  Mayer bond orders larger than 0.100000
B(  0-C ,  1-C ) :   1.0589 B(  0-C ,  2-C ) :  -0.3316 B(  0-C ,  4-C ) :  -0.3608
B(  0-C ,  5-C ) :   1.0378 B(  0-C , 12-C ) :   0.6433 B(  0-C , 19-H ) :  -0.1129
B(  1-C ,  2-C ) :   1.3744 B(  1-C ,  4-C ) :   0.1656 B(  1-C ,  7-H ) :  -0.1415
B(  1-C , 11-H ) :   0.9787 B(  1-C , 12-C ) :  -0.1658 B(  2-C ,  3-C ) :   1.1238
B(  2-C ,  5-C ) :   0.1227 B(  2-C ,  7-H ) :   1.1420 B(  3-C ,  4-C ) :   1.1358
B(  3-C ,  7-H ) :  -0.1016 B(  3-C ,  8-H ) :   0.9898 B(  3-C ,  9-H ) :  -0.1035
B(  4-C ,  5-C ) :   1.3419 B(  4-C ,  9-H ) :   1.1500 B(  5-C ,  9-H ) :  -0.1337
B(  5-C , 10-H ) :   0.9427 B(  5-C , 12-C ) :  -0.1510 B(  6-B , 13-Si) :   0.8912
B(  6-B , 14-H ) :   0.9039 B(  6-B , 15-H ) :   0.9016 B( 12-C , 13-Si) :   0.7782
B( 12-C , 18-H ) :   1.0275 B( 12-C , 19-H ) :   1.0190 B( 13-Si, 16-H ) :   0.7443
B( 13-Si, 17-H ) :   0.7201

MP2 TOTAL ENERGY:     -586.640571468 Eh
FINAL SINGLE POINT ENERGY      -586.640571467822

DIPOLE MOMENT
-------------
                                X             Y             Z
Electronic contribution:      1.35379       0.11043      -0.08548
Nuclear contribution   :     -1.28237      -0.07313       0.23345
                        -----------------------------------------
Total Dipole Moment    :      0.07142       0.03730       0.14797
                        -----------------------------------------
Magnitude (a.u.)       :      0.16849
Magnitude (Debye)      :      0.42826

Rotational constants in cm-1:     0.090160     0.028654     0.025476
Rotational constants in MHz :  2702.921693   859.030664   763.744971

                             ****ORCA TERMINATED NORMALLY****
TOTAL RUN TIME: 0 days 0 hours 50 minutes 22 seconds 742 msec
