                         Program Version 5.0.4 -  RELEASE  -
|  1> ! ri-mp2 aug-cc-pvdz aug-cc-pvdz/c tightscf
|  2> %pal nprocs 16 end
|  3> %maxcore 3800
|  4> %base "DZ_Si-S_52_AB"
|  5>
|  6> *xyz 0 1
|  7> C        -1.770677   -0.657992    1.208377
|  8> C        -0.496108   -1.187393    1.202359
|  9> C        -2.383593   -0.392748   -0.000024
| 10> C        -1.770669   -0.657925   -1.208436
| 11> C        -0.496100   -1.187326   -1.202439
| 12> C         0.153795   -1.440545   -0.000045
| 13> H         0.010336   -1.393413    2.133838
| 14> H        -2.289343   -0.443123    2.129797
| 15> N        -3.728739    0.196212   -0.000012
| 16> H        -2.289330   -0.443005   -2.129848
| 17> H         0.010351   -1.393293   -2.133926
| 18> S         1.808255   -2.091023   -0.000058
| 19> Si         2.902325   -0.232419    0.000006
| 20> C         2.551291    0.781057    1.493785
| 21> C         2.551302    0.781153   -1.493711
| 22> C         1.573860    1.687483   -1.630425
| 23> C         1.573847    1.687379    1.630549
| 24> C         0.586390    2.138206    0.672207
| 25> C         0.586395    2.138249   -0.672062
| 26> H         3.178160    0.618529    2.365792
| 27> H         1.463414    2.158055    2.604190
| 28> H         3.178177    0.618681   -2.365724
| 29> H         1.463434    2.158222   -2.604036
| 30> H        -0.272553    2.615854    1.130542
| 31> H        -0.272544    2.615926   -1.130372
| 32> O        -4.243787    0.424989    1.073829
| 33> O        -4.243784    0.425038   -1.073844
| 34> H         4.298598   -0.713488   -0.000004
| 35> *
| 36>
| 37> $new_job
| 38> ! ri-mp2 aug-cc-pvtz aug-cc-pvtz/c tightscf
| 39> %pal nprocs 16 end
| 40> %maxcore 3800
| 41> %base "TZ_Si-S_52_AB"
| 42>
| 43> *xyz 0 1
| 44> C        -1.770677   -0.657992    1.208377
| 45> C        -0.496108   -1.187393    1.202359
| 46> C        -2.383593   -0.392748   -0.000024
| 47> C        -1.770669   -0.657925   -1.208436
| 48> C        -0.496100   -1.187326   -1.202439
| 49> C         0.153795   -1.440545   -0.000045
| 50> H         0.010336   -1.393413    2.133838
| 51> H        -2.289343   -0.443123    2.129797
| 52> N        -3.728739    0.196212   -0.000012
| 53> H        -2.289330   -0.443005   -2.129848
| 54> H         0.010351   -1.393293   -2.133926
| 55> S         1.808255   -2.091023   -0.000058
| 56> Si         2.902325   -0.232419    0.000006
| 57> C         2.551291    0.781057    1.493785
| 58> C         2.551302    0.781153   -1.493711
| 59> C         1.573860    1.687483   -1.630425
| 60> C         1.573847    1.687379    1.630549
| 61> C         0.586390    2.138206    0.672207
| 62> C         0.586395    2.138249   -0.672062
| 63> H         3.178160    0.618529    2.365792
| 64> H         1.463414    2.158055    2.604190
| 65> H         3.178177    0.618681   -2.365724
| 66> H         1.463434    2.158222   -2.604036
| 67> H        -0.272553    2.615854    1.130542
| 68> H        -0.272544    2.615926   -1.130372
| 69> O        -4.243787    0.424989    1.073829
| 70> O        -4.243784    0.425038   -1.073844
| 71> H         4.298598   -0.713488   -0.000004
| 72> *
| 73>
| 74> $new_job
| 75> ! ri-mp2 aug-cc-pvqz aug-cc-pvqz/c tightscf
| 76> %pal nprocs 16 end
| 77> %maxcore 3800
| 78> %base "QZ_Si-S_52_AB"
| 79>
| 80> *xyz 0 1
| 81> C        -1.770677   -0.657992    1.208377
| 82> C        -0.496108   -1.187393    1.202359
| 83> C        -2.383593   -0.392748   -0.000024
| 84> C        -1.770669   -0.657925   -1.208436
| 85> C        -0.496100   -1.187326   -1.202439
| 86> C         0.153795   -1.440545   -0.000045
| 87> H         0.010336   -1.393413    2.133838
| 88> H        -2.289343   -0.443123    2.129797
| 89> N        -3.728739    0.196212   -0.000012
| 90> H        -2.289330   -0.443005   -2.129848
| 91> H         0.010351   -1.393293   -2.133926
| 92> S         1.808255   -2.091023   -0.000058
| 93> Si         2.902325   -0.232419    0.000006
| 94> C         2.551291    0.781057    1.493785
| 95> C         2.551302    0.781153   -1.493711
| 96> C         1.573860    1.687483   -1.630425
| 97> C         1.573847    1.687379    1.630549
| 98> C         0.586390    2.138206    0.672207
| 99> C         0.586395    2.138249   -0.672062
|100> H         3.178160    0.618529    2.365792
|101> H         1.463414    2.158055    2.604190
|102> H         3.178177    0.618681   -2.365724
|103> H         1.463434    2.158222   -2.604036
|104> H        -0.272553    2.615854    1.130542
|105> H        -0.272544    2.615926   -1.130372
|106> O        -4.243787    0.424989    1.073829
|107> O        -4.243784    0.425038   -1.073844
|108> H         4.298598   -0.713488   -0.000004
|109> *
|110>
|111>
|112>
|113>
|114>                          ****END OF INPUT****
 Total Charge           Charge          ....    0
 Multiplicity           Mult            ....    1
 Number of Electrons    NEL             ....  136
MP2 TOTAL ENERGY:    -1353.853435970 Eh
FINAL SINGLE POINT ENERGY     -1353.853435969612
MP2 TOTAL ENERGY:    -1354.504641706 Eh
FINAL SINGLE POINT ENERGY     -1354.504641706063

CARTESIAN COORDINATES (ANGSTROEM)
---------------------------------
  C     -1.770677   -0.657992    1.208377
  C     -0.496108   -1.187393    1.202359
  C     -2.383593   -0.392748   -0.000024
  C     -1.770669   -0.657925   -1.208436
  C     -0.496100   -1.187326   -1.202439
  C      0.153795   -1.440545   -0.000045
  H      0.010336   -1.393413    2.133838
  H     -2.289343   -0.443123    2.129797
  N     -3.728739    0.196212   -0.000012
  H     -2.289330   -0.443005   -2.129848
  H      0.010351   -1.393293   -2.133926
  S      1.808255   -2.091023   -0.000058
  Si     2.902325   -0.232419    0.000006
  C      2.551291    0.781057    1.493785
  C      2.551302    0.781153   -1.493711
  C      1.573860    1.687483   -1.630425
  C      1.573847    1.687379    1.630549
  C      0.586390    2.138206    0.672207
  C      0.586395    2.138249   -0.672062
  H      3.178160    0.618529    2.365792
  H      1.463414    2.158055    2.604190
  H      3.178177    0.618681   -2.365724
  H      1.463434    2.158222   -2.604036
  H     -0.272553    2.615854    1.130542
  H     -0.272544    2.615926   -1.130372
  O     -4.243787    0.424989    1.073829
  O     -4.243784    0.425038   -1.073844
  H      4.298598   -0.713488   -0.000004

 Multiplicity           Mult            ....    1
 Number of Electrons    NEL             ....  136
 Basis Dimension        Dim             .... 1874

ORBITAL ENERGIES
----------------

  NO   OCC          E(Eh)            E(eV)
   0   2.0000     -91.952435     -2502.1530
   1   2.0000     -68.796093     -1872.0369
   2   2.0000     -20.599833      -560.5500
   3   2.0000     -20.599780      -560.5485
   4   2.0000     -15.853165      -431.3866
   5   2.0000     -11.307066      -307.6809
   6   2.0000     -11.295231      -307.3589
   7   2.0000     -11.270358      -306.6820
   8   2.0000     -11.270316      -306.6809
   9   2.0000     -11.262086      -306.4570
  10   2.0000     -11.262086      -306.4569
  11   2.0000     -11.261007      -306.4276
  12   2.0000     -11.260975      -306.4267
  13   2.0000     -11.255343      -306.2735
  14   2.0000     -11.253739      -306.2298
  15   2.0000     -11.231411      -305.6222
  16   2.0000     -11.231407      -305.6221
  17   2.0000      -8.956917      -243.7301
  18   2.0000      -6.638394      -180.6399
  19   2.0000      -6.637544      -180.6167
  20   2.0000      -6.636892      -180.5990
  21   2.0000      -6.143790      -167.1810
  22   2.0000      -4.250694      -115.6673
  23   2.0000      -4.249931      -115.6465
  24   2.0000      -4.249894      -115.6455
  25   2.0000      -1.617946       -44.0266
  26   2.0000      -1.407986       -38.3133
  27   2.0000      -1.208479       -32.8844
  28   2.0000      -1.131138       -30.7798
  29   2.0000      -1.110787       -30.2260
  30   2.0000      -1.066269       -29.0147
  31   2.0000      -1.056172       -28.7399
  32   2.0000      -1.013981       -27.5918
  33   2.0000      -0.998888       -27.1811
  34   2.0000      -0.915438       -24.9103
  35   2.0000      -0.880709       -23.9653
  36   2.0000      -0.871026       -23.7018
  37   2.0000      -0.825574       -22.4650
  38   2.0000      -0.811114       -22.0715
  39   2.0000      -0.786132       -21.3917
  40   2.0000      -0.733881       -19.9699
  41   2.0000      -0.728425       -19.8215
  42   2.0000      -0.708235       -19.2721
  43   2.0000      -0.693431       -18.8692
  44   2.0000      -0.692818       -18.8525
  45   2.0000      -0.667588       -18.1660
  46   2.0000      -0.658504       -17.9188
  47   2.0000      -0.643722       -17.5166
  48   2.0000      -0.638518       -17.3750
  49   2.0000      -0.626115       -17.0374
  50   2.0000      -0.595889       -16.2150
  51   2.0000      -0.569788       -15.5047
  52   2.0000      -0.557081       -15.1589
  53   2.0000      -0.533430       -14.5154
  54   2.0000      -0.530745       -14.4423
  55   2.0000      -0.516189       -14.0462
  56   2.0000      -0.497384       -13.5345
  57   2.0000      -0.497001       -13.5241
  58   2.0000      -0.490227       -13.3397
  59   2.0000      -0.477378       -12.9901
  60   2.0000      -0.469314       -12.7707
  61   2.0000      -0.458962       -12.4890
  62   2.0000      -0.452352       -12.3091
  63   2.0000      -0.404130       -10.9969
  64   2.0000      -0.375725       -10.2240
  65   2.0000      -0.365313        -9.9407
  66   2.0000      -0.364303        -9.9132
  67   2.0000      -0.325695        -8.8626
  68   0.0000       0.017203         0.4681
  69   0.0000       0.022285         0.6064
  70   0.0000       0.026104         0.7103
  71   0.0000       0.029798         0.8108
  72   0.0000       0.036157         0.9839

MULLIKEN ATOMIC CHARGES
-----------------------
   0 C :   -0.036851
   1 C :   -0.189200
   2 C :    0.204737
   3 C :   -0.036718
   4 C :   -0.189129
   5 C :   -0.066345
   6 H :    0.281516
   7 H :    0.339934
   8 N :    0.739615
   9 H :    0.339968
  10 H :    0.281597
  11 S :   -0.686222
  12 Si:    1.880243
  13 C :   -0.945751
  14 C :   -0.945843
  15 C :   -0.050711
  16 C :   -0.050791
  17 C :   -0.237331
  18 C :   -0.237477
  19 H :    0.294344
  20 H :    0.295099
  21 H :    0.294314
  22 H :    0.295164
  23 H :    0.195617
  24 H :    0.195601
  25 O :   -0.641324
  26 O :   -0.641318
  27 H :   -0.682737
Sum of atomic charges:   -0.0000000

LOEWDIN ATOMIC CHARGES
----------------------
   0 C :    0.317358
   1 C :    0.239120
   2 C :   -0.310960
   3 C :    0.317359
   4 C :    0.239120
   5 C :   -0.593604
   6 H :   -0.332262
   7 H :   -0.341638
   8 N :   -0.844733
   9 H :   -0.341637
  10 H :   -0.332262
  11 S :    1.267912
  12 Si:    0.020200
  13 C :    0.362803
  14 C :    0.362803
  15 C :    0.283534
  16 C :    0.283534
  17 C :    0.333500
  18 C :    0.333501
  19 H :   -0.395299
  20 H :   -0.335081
  21 H :   -0.395299
  22 H :   -0.335081
  23 H :   -0.339346
  24 H :   -0.339347
  25 O :    0.553947
  26 O :    0.553947
  27 H :   -0.232089

  Mayer bond orders larger than 0.100000
B(  0-C ,  1-C ) :   1.3885 B(  0-C ,  2-C ) :   1.0882 B(  0-C ,  4-C ) :   0.1690
B(  0-C ,  7-H ) :   0.8790 B(  0-C ,  8-N ) :  -0.1041 B(  1-C ,  2-C ) :  -0.1755
B(  1-C ,  3-C ) :   0.1691 B(  1-C ,  5-C ) :   0.8437 B(  1-C ,  6-H ) :   1.0765
B(  1-C , 11-S ) :  -0.2638 B(  1-C , 25-O ) :  -0.1002 B(  2-C ,  3-C ) :   1.0881
B(  2-C ,  4-C ) :  -0.1755 B(  2-C ,  7-H ) :  -0.1080 B(  2-C ,  8-N ) :   0.7439
B(  2-C ,  9-H ) :  -0.1080 B(  2-C , 25-O ) :   0.3075 B(  2-C , 26-O ) :   0.3075
B(  3-C ,  4-C ) :   1.3886 B(  3-C ,  8-N ) :  -0.1042 B(  3-C ,  9-H ) :   0.8790
B(  4-C ,  5-C ) :   0.8436 B(  4-C , 10-H ) :   1.0765 B(  4-C , 11-S ) :  -0.2639
B(  4-C , 26-O ) :  -0.1003 B(  5-C , 11-S ) :   1.0920 B(  8-N , 25-O ) :   1.1184
B(  8-N , 26-O ) :   1.1184 B( 11-S , 12-Si) :   0.7890 B( 12-Si, 13-C ) :   0.8031
B( 12-Si, 14-C ) :   0.8030 B( 12-Si, 27-H ) :   0.3696 B( 13-C , 14-C ) :   0.1858
B( 13-C , 16-C ) :   1.5718 B( 13-C , 19-H ) :   0.9137 B( 14-C , 15-C ) :   1.5717
B( 14-C , 21-H ) :   0.9138 B( 15-C , 16-C ) :   0.1301 B( 15-C , 18-C ) :   0.9505
B( 15-C , 22-H ) :   0.9875 B( 16-C , 17-C ) :   0.9504 B( 16-C , 20-H ) :   0.9875
B( 17-C , 18-C ) :   1.6143 B( 17-C , 23-H ) :   1.0618 B( 18-C , 24-H ) :   1.0618

MP2 TOTAL ENERGY:    -1354.716158676 Eh
FINAL SINGLE POINT ENERGY     -1354.716158675559

DIPOLE MOMENT
-------------
                                X             Y             Z
Electronic contribution:     -6.43019      -6.04897      -0.00023
Nuclear contribution   :      7.90674       6.34426       0.00024
                        -----------------------------------------
Total Dipole Moment    :      1.47655       0.29529       0.00002
                        -----------------------------------------
Magnitude (a.u.)       :      1.50579
Magnitude (Debye)      :      3.82740

Rotational constants in cm-1:     0.023369     0.009257     0.008511
Rotational constants in MHz :   700.571185   277.525627   255.158409

                             ****ORCA TERMINATED NORMALLY****
TOTAL RUN TIME: 0 days 4 hours 9 minutes 53 seconds 56 msec
