                         Program Version 5.0.4 -  RELEASE  -
|  1> ! ri-mp2 aug-cc-pvdz aug-cc-pvdz/c tightscf
|  2> %pal nprocs 16 end
|  3> %maxcore 3800
|  4> %base "DZ_B-Si_35_A"
|  5> %scf
|  6> STABPerform true
|  7> STABRestartUHFifUnstable true
|  8> end
|  9>
| 10> *xyz 0 2
| 11> C         0.634820   -0.040238   -0.390830
| 12> C        -0.107110   -1.283084    0.112920
| 13> C        -1.596730   -1.224663   -0.208747
| 14> C        -2.236426    0.048310    0.330980
| 15> C        -1.512156    1.288706   -0.176291
| 16> C        -0.022330    1.238708    0.151187
| 17> H         0.020223   -1.362566    1.198281
| 18> H         0.331897   -2.186497   -0.315506
| 19> H        -2.101023   -2.104053    0.197210
| 20> H        -1.728875   -1.261552   -1.295001
| 21> H        -2.199124    0.033242    1.425322
| 22> H        -3.292243    0.087506    0.056040
| 23> H        -1.956484    2.190010    0.251311
| 24> H        -1.636900    1.361713   -1.261478
| 25> H         0.477780    2.122583   -0.249733
| 26> H         0.104506    1.276241    1.238540
| 27> Si         2.472000   -0.088202    0.022946
| 28> H         0.558165   -0.018737   -1.484680
| 29> H         2.681110   -0.187797    1.491497
| 30> H         3.172562    1.118298   -0.488363
| 31> *
| 32>
| 33> $new_job
| 34> ! ri-mp2 aug-cc-pvtz aug-cc-pvtz/c tightscf
| 35> %pal nprocs 16 end
| 36> %maxcore 3800
| 37> %base "TZ_B-Si_35_A"
| 38>
| 39> *xyz 0 2
| 40> C         0.634820   -0.040238   -0.390830
| 41> C        -0.107110   -1.283084    0.112920
| 42> C        -1.596730   -1.224663   -0.208747
| 43> C        -2.236426    0.048310    0.330980
| 44> C        -1.512156    1.288706   -0.176291
| 45> C        -0.022330    1.238708    0.151187
| 46> H         0.020223   -1.362566    1.198281
| 47> H         0.331897   -2.186497   -0.315506
| 48> H        -2.101023   -2.104053    0.197210
| 49> H        -1.728875   -1.261552   -1.295001
| 50> H        -2.199124    0.033242    1.425322
| 51> H        -3.292243    0.087506    0.056040
| 52> H        -1.956484    2.190010    0.251311
| 53> H        -1.636900    1.361713   -1.261478
| 54> H         0.477780    2.122583   -0.249733
| 55> H         0.104506    1.276241    1.238540
| 56> Si         2.472000   -0.088202    0.022946
| 57> H         0.558165   -0.018737   -1.484680
| 58> H         2.681110   -0.187797    1.491497
| 59> H         3.172562    1.118298   -0.488363
| 60> *
| 61>
| 62> $new_job
| 63> ! ri-mp2 aug-cc-pvqz aug-cc-pvqz/c tightscf
| 64> %pal nprocs 16 end
| 65> %maxcore 3800
| 66> %base "QZ_B-Si_35_A"
| 67>
| 68> *xyz 0 2
| 69> C         0.634820   -0.040238   -0.390830
| 70> C        -0.107110   -1.283084    0.112920
| 71> C        -1.596730   -1.224663   -0.208747
| 72> C        -2.236426    0.048310    0.330980
| 73> C        -1.512156    1.288706   -0.176291
| 74> C        -0.022330    1.238708    0.151187
| 75> H         0.020223   -1.362566    1.198281
| 76> H         0.331897   -2.186497   -0.315506
| 77> H        -2.101023   -2.104053    0.197210
| 78> H        -1.728875   -1.261552   -1.295001
| 79> H        -2.199124    0.033242    1.425322
| 80> H        -3.292243    0.087506    0.056040
| 81> H        -1.956484    2.190010    0.251311
| 82> H        -1.636900    1.361713   -1.261478
| 83> H         0.477780    2.122583   -0.249733
| 84> H         0.104506    1.276241    1.238540
| 85> Si         2.472000   -0.088202    0.022946
| 86> H         0.558165   -0.018737   -1.484680
| 87> H         2.681110   -0.187797    1.491497
| 88> H         3.172562    1.118298   -0.488363
| 89> *
| 90>
| 91>
| 92>
| 93>
| 94>                          ****END OF INPUT****
 Total Charge           Charge          ....    0
 Multiplicity           Mult            ....    2
 Number of Electrons    NEL             ....   63
MP2 TOTAL ENERGY:     -524.676190479 Eh
FINAL SINGLE POINT ENERGY      -524.676190479012
MP2 TOTAL ENERGY:     -524.931496296 Eh
FINAL SINGLE POINT ENERGY      -524.931496296051

CARTESIAN COORDINATES (ANGSTROEM)
---------------------------------
  C      0.634820   -0.040238   -0.390830
  C     -0.107110   -1.283084    0.112920
  C     -1.596730   -1.224663   -0.208747
  C     -2.236426    0.048310    0.330980
  C     -1.512156    1.288706   -0.176291
  C     -0.022330    1.238708    0.151187
  H      0.020223   -1.362566    1.198281
  H      0.331897   -2.186497   -0.315506
  H     -2.101023   -2.104053    0.197210
  H     -1.728875   -1.261552   -1.295001
  H     -2.199124    0.033242    1.425322
  H     -3.292243    0.087506    0.056040
  H     -1.956484    2.190010    0.251311
  H     -1.636900    1.361713   -1.261478
  H      0.477780    2.122583   -0.249733
  H      0.104506    1.276241    1.238540
  Si     2.472000   -0.088202    0.022946
  H      0.558165   -0.018737   -1.484680
  H      2.681110   -0.187797    1.491497
  H      3.172562    1.118298   -0.488363

 Multiplicity           Mult            ....    2
 Number of Electrons    NEL             ....   63
 Basis Dimension        Dim             .... 1162

ORBITAL ENERGIES
----------------
                 SPIN UP ORBITALS
  NO   OCC          E(Eh)            E(eV)
   0   1.0000     -68.765952     -1871.2167
   1   1.0000     -11.220889      -305.3359
   2   1.0000     -11.219916      -305.3094
   3   1.0000     -11.214740      -305.1686
   4   1.0000     -11.214530      -305.1629
   5   1.0000     -11.214274      -305.1559
   6   1.0000     -11.213419      -305.1326
   7   1.0000      -6.116865      -166.4484
   8   1.0000      -4.229566      -115.0923
   9   1.0000      -4.219776      -114.8259
  10   1.0000      -4.219312      -114.8133
  11   1.0000      -1.119731       -30.4694
  12   1.0000      -1.007642       -27.4193
  13   1.0000      -1.006657       -27.3925
  14   1.0000      -0.834707       -22.7135
  15   1.0000      -0.833361       -22.6769
  16   1.0000      -0.756838       -20.5946
  17   1.0000      -0.700315       -19.0565
  18   1.0000      -0.640986       -17.4421
  19   1.0000      -0.606216       -16.4960
  20   1.0000      -0.602549       -16.3962
  21   1.0000      -0.586088       -15.9483
  22   1.0000      -0.531829       -14.4718
  23   1.0000      -0.526219       -14.3192
  24   1.0000      -0.502711       -13.6795
  25   1.0000      -0.487504       -13.2657
  26   1.0000      -0.485620       -13.2144
  27   1.0000      -0.468650       -12.7526
  28   1.0000      -0.454131       -12.3575
  29   1.0000      -0.432715       -11.7748
  30   1.0000      -0.403919       -10.9912
  31   1.0000      -0.316370        -8.6089
  32   0.0000       0.024201         0.6586
  33   0.0000       0.029672         0.8074
  34   0.0000       0.030197         0.8217
  35   0.0000       0.030837         0.8391
  36   0.0000       0.042909         1.1676

                 SPIN DOWN ORBITALS
  NO   OCC          E(Eh)            E(eV)
   0   1.0000     -68.760333     -1871.0638
   1   1.0000     -11.220118      -305.3149
   2   1.0000     -11.219897      -305.3089
   3   1.0000     -11.214479      -305.1615
   4   1.0000     -11.214246      -305.1552
   5   1.0000     -11.213942      -305.1469
   6   1.0000     -11.213409      -305.1324
   7   1.0000      -6.108287      -166.2149
   8   1.0000      -4.216028      -114.7240
   9   1.0000      -4.215587      -114.7120
  10   1.0000      -4.207303      -114.4865
  11   1.0000      -1.118475       -30.4352
  12   1.0000      -1.006761       -27.3954
  13   1.0000      -1.004403       -27.3312
  14   1.0000      -0.833437       -22.6790
  15   1.0000      -0.829627       -22.5753
  16   1.0000      -0.755713       -20.5640
  17   1.0000      -0.671056       -18.2604
  18   1.0000      -0.634580       -17.2678
  19   1.0000      -0.605667       -16.4810
  20   1.0000      -0.601973       -16.3805
  21   1.0000      -0.580094       -15.7852
  22   1.0000      -0.530256       -14.4290
  23   1.0000      -0.523054       -14.2330
  24   1.0000      -0.499757       -13.5991
  25   1.0000      -0.485408       -13.2086
  26   1.0000      -0.484173       -13.1750
  27   1.0000      -0.462611       -12.5883
  28   1.0000      -0.453545       -12.3416
  29   1.0000      -0.431329       -11.7371
  30   1.0000      -0.395333       -10.7576
  31   0.0000       0.023438         0.6378
  32   0.0000       0.027741         0.7549
  33   0.0000       0.029994         0.8162
  34   0.0000       0.030822         0.8387
  35   0.0000       0.039894         1.0856

MULLIKEN ATOMIC CHARGES AND SPIN POPULATIONS
--------------------------------------------
   0 C :    0.088421   -0.071027
   1 C :   -0.434708    0.045973
   2 C :   -0.489708   -0.002564
   3 C :   -0.429039    0.000036
   4 C :   -0.457223    0.006076
   5 C :   -0.452491    0.018782
   6 H :    0.203581   -0.001411
   7 H :    0.250037    0.006696
   8 H :    0.233828   -0.000563
   9 H :    0.142575    0.001006
  10 H :    0.132558   -0.000025
  11 H :    0.248905   -0.000362
  12 H :    0.236179    0.002966
  13 H :    0.162249   -0.001343
  14 H :    0.231009    0.002254
  15 H :    0.213267   -0.007610
  16 Si:    0.464268    1.000006
  17 H :    0.242124    0.000839
  18 H :   -0.251349    0.001802
  19 H :   -0.334482   -0.001530
Sum of atomic charges         :    0.0000000

LOEWDIN ATOMIC CHARGES AND SPIN POPULATIONS
-------------------------------------------
   0 C :    0.039350    0.131942
   1 C :    0.437766    0.025655
   2 C :    0.533557    0.000043
   3 C :    0.531030    0.000587
   4 C :    0.534828    0.005314
   5 C :    0.442667    0.020211
   6 H :   -0.279418    0.001378
   7 H :   -0.275214    0.011384
   8 H :   -0.257514   -0.000134
   9 H :   -0.262631   -0.000018
  10 H :   -0.262407    0.000040
  11 H :   -0.258768    0.000108
  12 H :   -0.257339    0.001495
  13 H :   -0.262551    0.000756
  14 H :   -0.275905    0.006762
  15 H :   -0.276435    0.007164
  16 Si:    1.111782    0.526662
  17 H :   -0.342836    0.013527
  18 H :   -0.303566    0.123297
  19 H :   -0.316396    0.123827

  Mayer bond orders larger than 0.100000
B(  0-C ,  1-C ) :   0.7952 B(  0-C ,  5-C ) :   0.8787 B(  0-C , 16-Si) :   0.6389
B(  0-C , 17-H ) :   0.9038 B(  1-C ,  2-C ) :   0.8541 B(  1-C ,  6-H ) :   0.9596
B(  1-C ,  7-H ) :   0.9536 B(  2-C ,  3-C ) :   0.8958 B(  2-C ,  8-H ) :   0.9885
B(  2-C ,  9-H ) :   1.0241 B(  3-C ,  4-C ) :   0.8996 B(  3-C , 10-H ) :   1.0167
B(  3-C , 11-H ) :   0.9516 B(  4-C ,  5-C ) :   0.8503 B(  4-C , 12-H ) :   0.9761
B(  4-C , 13-H ) :   1.0026 B(  5-C , 14-H ) :   0.9511 B(  5-C , 15-H ) :   0.9462
B( 16-Si, 18-H ) :   0.8672 B( 16-Si, 19-H ) :   0.7958

MP2 TOTAL ENERGY:     -525.009053066 Eh
FINAL SINGLE POINT ENERGY      -525.009053065613

DIPOLE MOMENT
-------------
                                X             Y             Z
Electronic contribution:      5.54612      -1.09543      -0.87905
Nuclear contribution   :     -5.97409       1.12174       0.79611
                        -----------------------------------------
Total Dipole Moment    :     -0.42797       0.02631      -0.08294
                        -----------------------------------------
Magnitude (a.u.)       :      0.43673
Magnitude (Debye)      :      1.11007

Rotational constants in cm-1:     0.139185     0.046801     0.037819
Rotational constants in MHz :  4172.665612  1403.056068  1133.773955

                             ****ORCA TERMINATED NORMALLY****
TOTAL RUN TIME: 0 days 11 hours 6 minutes 15 seconds 206 msec
