                         Program Version 5.0.4 -  RELEASE  -
|  1> ! ri-mp2 aug-cc-pvdz aug-cc-pvdz/c tightscf
|  2> %pal nprocs 16 end
|  3> %maxcore 3800
|  4> %base "DZ_Si-Cl_36_A"
|  5> %scf
|  6> STABPerform true
|  7> STABRestartUHFifUnstable true
|  8> end
|  9>
| 10> *xyz 0 2
| 11> Si         0.542262    0.000000   -0.619434
| 12> C        -1.299376    0.000000    0.008458
| 13> Cl         1.409322    1.682378    0.129048
| 14> Cl         1.409322   -1.682378    0.129048
| 15> F        -1.956056   -1.082138   -0.437807
| 16> F        -1.956056    1.082138   -0.437807
| 17> F        -1.389262    0.000000    1.346027
| 18> *
| 19>
| 20> $new_job
| 21> ! ri-mp2 aug-cc-pvtz aug-cc-pvtz/c tightscf
| 22> %pal nprocs 16 end
| 23> %maxcore 3800
| 24> %base "TZ_Si-Cl_36_A"
| 25>
| 26> *xyz 0 2
| 27> Si         0.542262    0.000000   -0.619434
| 28> C        -1.299376    0.000000    0.008458
| 29> Cl         1.409322    1.682378    0.129048
| 30> Cl         1.409322   -1.682378    0.129048
| 31> F        -1.956056   -1.082138   -0.437807
| 32> F        -1.956056    1.082138   -0.437807
| 33> F        -1.389262    0.000000    1.346027
| 34> *
| 35>
| 36> $new_job
| 37> ! ri-mp2 aug-cc-pvqz aug-cc-pvqz/c tightscf
| 38> %pal nprocs 16 end
| 39> %maxcore 3800
| 40> %base "QZ_Si-Cl_36_A"
| 41>
| 42> *xyz 0 2
| 43> Si         0.542262    0.000000   -0.619434
| 44> C        -1.299376    0.000000    0.008458
| 45> Cl         1.409322    1.682378    0.129048
| 46> Cl         1.409322   -1.682378    0.129048
| 47> F        -1.956056   -1.082138   -0.437807
| 48> F        -1.956056    1.082138   -0.437807
| 49> F        -1.389262    0.000000    1.346027
| 50> *
| 51>
| 52>
| 53>
| 54>
| 55>                          ****END OF INPUT****
 Total Charge           Charge          ....    0
 Multiplicity           Mult            ....    2
 Number of Electrons    NEL             ....   81
MP2 TOTAL ENERGY:    -1545.340427201 Eh
FINAL SINGLE POINT ENERGY     -1545.340427201437
MP2 TOTAL ENERGY:    -1545.776187358 Eh
FINAL SINGLE POINT ENERGY     -1545.776187357588

CARTESIAN COORDINATES (ANGSTROEM)
---------------------------------
  Si     0.542262    0.000000   -0.619434
  C     -1.299376    0.000000    0.008458
  Cl     1.409322    1.682378    0.129048
  Cl     1.409322   -1.682378    0.129048
  F     -1.956056   -1.082138   -0.437807
  F     -1.956056    1.082138   -0.437807
  F     -1.389262    0.000000    1.346027

 Multiplicity           Mult            ....    2
 Number of Electrons    NEL             ....   81
 Basis Dimension        Dim             ....  572

ORBITAL ENERGIES
----------------
                 SPIN UP ORBITALS
  NO   OCC          E(Eh)            E(eV)
   0   1.0000    -104.866171     -2853.5536
   1   1.0000    -104.866171     -2853.5536
   2   1.0000     -68.902532     -1874.9332
   3   1.0000     -26.346604      -716.9275
   4   1.0000     -26.346584      -716.9270
   5   1.0000     -26.346187      -716.9162
   6   1.0000     -11.505797      -313.0887
   7   1.0000     -10.593333      -288.2592
   8   1.0000     -10.593329      -288.2591
   9   1.0000      -8.061405      -219.3620
  10   1.0000      -8.061404      -219.3620
  11   1.0000      -8.058840      -219.2922
  12   1.0000      -8.058840      -219.2922
  13   1.0000      -8.058492      -219.2827
  14   1.0000      -8.058492      -219.2827
  15   1.0000      -6.243875      -169.9045
  16   1.0000      -4.354399      -118.4892
  17   1.0000      -4.346666      -118.2788
  18   1.0000      -4.345596      -118.2497
  19   1.0000      -1.737817       -47.2884
  20   1.0000      -1.643796       -44.7300
  21   1.0000      -1.643439       -44.7202
  22   1.0000      -1.154381       -31.4123
  23   1.0000      -1.125482       -30.6259
  24   1.0000      -0.985088       -26.8056
  25   1.0000      -0.848596       -23.0915
  26   1.0000      -0.830265       -22.5926
  27   1.0000      -0.829852       -22.5814
  28   1.0000      -0.720874       -19.6160
  29   1.0000      -0.719284       -19.5727
  30   1.0000      -0.704736       -19.1768
  31   1.0000      -0.675138       -18.3714
  32   1.0000      -0.674945       -18.3662
  33   1.0000      -0.659108       -17.9352
  34   1.0000      -0.584671       -15.9097
  35   1.0000      -0.561393       -15.2763
  36   1.0000      -0.547251       -14.8915
  37   1.0000      -0.507603       -13.8126
  38   1.0000      -0.498567       -13.5667
  39   1.0000      -0.489725       -13.3261
  40   1.0000      -0.390329       -10.6214
  41   0.0000       0.031836         0.8663
  42   0.0000       0.038390         1.0447
  43   0.0000       0.038595         1.0502
  44   0.0000       0.043284         1.1778
  45   0.0000       0.074726         2.0334

                 SPIN DOWN ORBITALS
  NO   OCC          E(Eh)            E(eV)
   0   1.0000    -104.865042     -2853.5229
   1   1.0000    -104.865042     -2853.5229
   2   1.0000     -68.896192     -1874.7607
   3   1.0000     -26.346793      -716.9327
   4   1.0000     -26.346773      -716.9321
   5   1.0000     -26.345003      -716.8840
   6   1.0000     -11.502516      -312.9994
   7   1.0000     -10.592108      -288.2259
   8   1.0000     -10.592102      -288.2257
   9   1.0000      -8.058713      -219.2887
  10   1.0000      -8.058712      -219.2887
  11   1.0000      -8.057922      -219.2672
  12   1.0000      -8.057921      -219.2672
  13   1.0000      -8.056356      -219.2246
  14   1.0000      -8.056355      -219.2246
  15   1.0000      -6.233243      -169.6152
  16   1.0000      -4.342569      -118.1673
  17   1.0000      -4.341800      -118.1464
  18   1.0000      -4.333422      -117.9184
  19   1.0000      -1.736589       -47.2550
  20   1.0000      -1.643889       -44.7325
  21   1.0000      -1.641675       -44.6722
  22   1.0000      -1.144539       -31.1445
  23   1.0000      -1.116906       -30.3926
  24   1.0000      -0.978614       -26.6294
  25   1.0000      -0.838446       -22.8153
  26   1.0000      -0.829060       -22.5599
  27   1.0000      -0.827839       -22.5266
  28   1.0000      -0.719802       -19.5868
  29   1.0000      -0.716806       -19.5053
  30   1.0000      -0.676075       -18.3969
  31   1.0000      -0.675144       -18.3716
  32   1.0000      -0.672381       -18.2964
  33   1.0000      -0.658646       -17.9227
  34   1.0000      -0.572312       -15.5734
  35   1.0000      -0.552417       -15.0320
  36   1.0000      -0.522017       -14.2048
  37   1.0000      -0.497252       -13.5309
  38   1.0000      -0.488487       -13.2924
  39   1.0000      -0.487681       -13.2705
  40   0.0000      -0.003832        -0.1043
  41   0.0000       0.037923         1.0319
  42   0.0000       0.039688         1.0800
  43   0.0000       0.041328         1.1246
  44   0.0000       0.045043         1.2257

MULLIKEN ATOMIC CHARGES AND SPIN POPULATIONS
--------------------------------------------
   0 Si:    1.421202    0.839486
   1 C :    1.476379    0.058734
   2 Cl:   -0.545879    0.047753
   3 Cl:   -0.545879    0.047753
   4 F :   -0.600278   -0.003063
   5 F :   -0.600278   -0.003063
   6 F :   -0.605266    0.012399
Sum of atomic charges         :    0.0000000

LOEWDIN ATOMIC CHARGES AND SPIN POPULATIONS
-------------------------------------------
   0 Si:   -1.261416    0.564295
   1 C :   -2.334672    0.133698
   2 Cl:    0.806603    0.132547
   3 Cl:    0.806603    0.132547
   4 F :    0.659450    0.007093
   5 F :    0.659450    0.007093
   6 F :    0.663983    0.022726

  Mayer bond orders larger than 0.100000
B(  0-Si,  1-C ) :   0.7493 B(  0-Si,  2-Cl) :   0.7198 B(  0-Si,  3-Cl) :   0.7198
B(  1-C ,  4-F ) :   0.5627 B(  1-C ,  5-F ) :   0.5627 B(  1-C ,  6-F ) :   0.5481

MP2 TOTAL ENERGY:    -1545.921635388 Eh
FINAL SINGLE POINT ENERGY     -1545.921635388258

DIPOLE MOMENT
-------------
                                X             Y             Z
Electronic contribution:     -0.53140       0.00000       0.24969
Nuclear contribution   :      1.05959       0.00000      -0.72099
                        -----------------------------------------
Total Dipole Moment    :      0.52819       0.00000      -0.47129
                        -----------------------------------------
Magnitude (a.u.)       :      0.70789
Magnitude (Debye)      :      1.79931

Rotational constants in cm-1:     0.056410     0.041617     0.028256
Rotational constants in MHz :  1691.117153  1247.647904   847.106953

                             ****ORCA TERMINATED NORMALLY****
TOTAL RUN TIME: 0 days 0 hours 50 minutes 5 seconds 240 msec
