                         Program Version 5.0.4 -  RELEASE  -
|  1> ! ri-mp2 aug-cc-pvdz aug-cc-pvdz/c tightscf
|  2> %pal nprocs 16 end
|  3> %maxcore 3800
|  4> %base "DZ_B-F_60_AB"
|  5>
|  6> *xyz 0 1
|  7> F         1.700471    1.133611   -0.034113
|  8> B         1.038211   -0.000000    0.044103
|  9> F         1.700461   -1.133619   -0.034117
| 10> N        -0.367283    0.000003    0.378514
| 11> N        -1.255141    0.000015   -0.467575
| 12> C        -2.601981   -0.000005    0.079082
| 13> H        -3.116047    0.878188   -0.313577
| 14> H        -2.598513   -0.000026    1.169677
| 15> H        -3.116038   -0.878188   -0.313612
| 16> *
| 17>
| 18> $new_job
| 19> ! ri-mp2 aug-cc-pvtz aug-cc-pvtz/c tightscf
| 20> %pal nprocs 16 end
| 21> %maxcore 3800
| 22> %base "TZ_B-F_60_AB"
| 23>
| 24> *xyz 0 1
| 25> F         1.700471    1.133611   -0.034113
| 26> B         1.038211   -0.000000    0.044103
| 27> F         1.700461   -1.133619   -0.034117
| 28> N        -0.367283    0.000003    0.378514
| 29> N        -1.255141    0.000015   -0.467575
| 30> C        -2.601981   -0.000005    0.079082
| 31> H        -3.116047    0.878188   -0.313577
| 32> H        -2.598513   -0.000026    1.169677
| 33> H        -3.116038   -0.878188   -0.313612
| 34> *
| 35>
| 36> $new_job
| 37> ! ri-mp2 aug-cc-pvqz aug-cc-pvqz/c tightscf
| 38> %pal nprocs 16 end
| 39> %maxcore 3800
| 40> %base "QZ_B-F_60_AB"
| 41>
| 42> *xyz 0 1
| 43> F         1.700471    1.133611   -0.034113
| 44> B         1.038211   -0.000000    0.044103
| 45> F         1.700461   -1.133619   -0.034117
| 46> N        -0.367283    0.000003    0.378514
| 47> N        -1.255141    0.000015   -0.467575
| 48> C        -2.601981   -0.000005    0.079082
| 49> H        -3.116047    0.878188   -0.313577
| 50> H        -2.598513   -0.000026    1.169677
| 51> H        -3.116038   -0.878188   -0.313612
| 52> *
| 53>
| 54>
| 55>
| 56>
| 57>                          ****END OF INPUT****
 Total Charge           Charge          ....    0
 Multiplicity           Mult            ....    1
 Number of Electrons    NEL             ....   46
MP2 TOTAL ENERGY:     -373.164808797 Eh
FINAL SINGLE POINT ENERGY      -373.164808797387
MP2 TOTAL ENERGY:     -373.488902545 Eh
FINAL SINGLE POINT ENERGY      -373.488902545357

CARTESIAN COORDINATES (ANGSTROEM)
---------------------------------
  F      1.700471    1.133611   -0.034113
  B      1.038211   -0.000000    0.044103
  F      1.700461   -1.133619   -0.034117
  N     -0.367283    0.000003    0.378514
  N     -1.255141    0.000015   -0.467575
  C     -2.601981   -0.000005    0.079082
  H     -3.116047    0.878188   -0.313577
  H     -2.598513   -0.000026    1.169677
  H     -3.116038   -0.878188   -0.313612

 Multiplicity           Mult            ....    1
 Number of Electrons    NEL             ....   46
 Basis Dimension        Dim             ....  618

ORBITAL ENERGIES
----------------

  NO   OCC          E(Eh)            E(eV)
   0   2.0000     -26.321126      -716.2342
   1   2.0000     -26.321109      -716.2338
   2   2.0000     -15.657813      -426.0708
   3   2.0000     -15.615881      -424.9297
   4   2.0000     -11.264099      -306.5117
   5   2.0000      -7.731596      -210.3874
   6   2.0000      -1.655145       -45.0388
   7   2.0000      -1.624668       -44.2095
   8   2.0000      -1.383340       -37.6426
   9   2.0000      -1.056061       -28.7369
  10   2.0000      -0.884059       -24.0565
  11   2.0000      -0.815904       -22.2019
  12   2.0000      -0.775666       -21.1070
  13   2.0000      -0.735076       -20.0024
  14   2.0000      -0.726240       -19.7620
  15   2.0000      -0.670091       -18.2341
  16   2.0000      -0.670062       -18.2333
  17   2.0000      -0.664734       -18.0883
  18   2.0000      -0.645111       -17.5544
  19   2.0000      -0.625364       -17.0170
  20   2.0000      -0.550465       -14.9789
  21   2.0000      -0.498882       -13.5753
  22   2.0000      -0.391629       -10.6568
  23   0.0000       0.025174         0.6850
  24   0.0000       0.036039         0.9807
  25   0.0000       0.036633         0.9968
  26   0.0000       0.039598         1.0775
  27   0.0000       0.052694         1.4339

MULLIKEN ATOMIC CHARGES
-----------------------
   0 F :   -0.741516
   1 B :    1.694165
   2 F :   -0.741516
   3 N :   -0.257475
   4 N :   -0.204044
   5 C :   -0.690858
   6 H :    0.317137
   7 H :    0.306971
   8 H :    0.317138
Sum of atomic charges:   -0.0000000

LOEWDIN ATOMIC CHARGES
----------------------
   0 F :    0.802198
   1 B :   -1.983704
   2 F :    0.802196
   3 N :    0.361550
   4 N :    0.338470
   5 C :    0.677170
   6 H :   -0.326266
   7 H :   -0.345348
   8 H :   -0.326265

  Mayer bond orders larger than 0.100000
B(  0-F ,  1-B ) :   0.4979 B(  0-F ,  3-N ) :  -0.1190 B(  1-B ,  2-F ) :   0.4979
B(  1-B ,  3-N ) :   0.8986 B(  2-F ,  3-N ) :  -0.1190 B(  3-N ,  4-N ) :   1.7455
B(  4-N ,  5-C ) :   0.9061 B(  5-C ,  6-H ) :   0.8946 B(  5-C ,  7-H ) :   0.9101
B(  5-C ,  8-H ) :   0.8946

MP2 TOTAL ENERGY:     -373.593038921 Eh
FINAL SINGLE POINT ENERGY      -373.593038921400

DIPOLE MOMENT
-------------
                                X             Y             Z
Electronic contribution:     11.36766       0.00002      -0.46667
Nuclear contribution   :    -12.26008      -0.00002       0.53968
                        -----------------------------------------
Total Dipole Moment    :     -0.89242      -0.00000       0.07301
                        -----------------------------------------
Magnitude (a.u.)       :      0.89540
Magnitude (Debye)      :      2.27592

Rotational constants in cm-1:     0.294914     0.065306     0.055869
Rotational constants in MHz :  8841.285597  1957.835431  1674.906166

                             ****ORCA TERMINATED NORMALLY****
TOTAL RUN TIME: 0 days 0 hours 5 minutes 34 seconds 316 msec
