                         Program Version 5.0.4 -  RELEASE  -
|  1> ! ri-mp2 aug-cc-pvdz aug-cc-pvdz/c tightscf
|  2> %pal nprocs 16 end
|  3> %maxcore 3800
|  4> %base "DZ_B-Cl_43_A"
|  5> %scf
|  6> STABPerform true
|  7> STABRestartUHFifUnstable true
|  8> end
|  9>
| 10> *xyz 0 2
| 11> B        -0.601160    0.659408   -0.000005
| 12> C         1.829199   -0.018925   -0.000001
| 13> O         2.980786   -0.127346    0.000001
| 14> N         0.632042    0.031624   -0.000005
| 15> Cl        -2.131763   -0.140358    0.000003
| 16> *
| 17>
| 18> $new_job
| 19> ! ri-mp2 aug-cc-pvtz aug-cc-pvtz/c tightscf
| 20> %pal nprocs 16 end
| 21> %maxcore 3800
| 22> %base "TZ_B-Cl_43_A"
| 23>
| 24> *xyz 0 2
| 25> B        -0.601160    0.659408   -0.000005
| 26> C         1.829199   -0.018925   -0.000001
| 27> O         2.980786   -0.127346    0.000001
| 28> N         0.632042    0.031624   -0.000005
| 29> Cl        -2.131763   -0.140358    0.000003
| 30> *
| 31>
| 32> $new_job
| 33> ! ri-mp2 aug-cc-pvqz aug-cc-pvqz/c tightscf
| 34> %pal nprocs 16 end
| 35> %maxcore 3800
| 36> %base "QZ_B-Cl_43_A"
| 37>
| 38> *xyz 0 2
| 39> B        -0.601160    0.659408   -0.000005
| 40> C         1.829199   -0.018925   -0.000001
| 41> O         2.980786   -0.127346    0.000001
| 42> N         0.632042    0.031624   -0.000005
| 43> Cl        -2.131763   -0.140358    0.000003
| 44> *
| 45>
| 46>
| 47>
| 48>
| 49>                          ****END OF INPUT****
 Total Charge           Charge          ....    0
 Multiplicity           Mult            ....    2
 Number of Electrons    NEL             ....   43
MP2 TOTAL ENERGY:     -652.102389193 Eh
FINAL SINGLE POINT ENERGY      -652.102389193049
MP2 TOTAL ENERGY:     -652.317757301 Eh
FINAL SINGLE POINT ENERGY      -652.317757300577

CARTESIAN COORDINATES (ANGSTROEM)
---------------------------------
  B     -0.601160    0.659408   -0.000005
  C      1.829199   -0.018925   -0.000001
  O      2.980786   -0.127346    0.000001
  N      0.632042    0.031624   -0.000005
  Cl    -2.131763   -0.140358    0.000003

 Multiplicity           Mult            ....    2
 Number of Electrons    NEL             ....   43
 Basis Dimension        Dim             ....  404

ORBITAL ENERGIES
----------------
                 SPIN UP ORBITALS
  NO   OCC          E(Eh)            E(eV)
   0   1.0000    -104.853382     -2853.2056
   1   1.0000     -20.641052      -561.6716
   2   1.0000     -15.609688      -424.7612
   3   1.0000     -11.437629      -311.2337
   4   1.0000     -10.581006      -287.9238
   5   1.0000      -8.049121      -219.0277
   6   1.0000      -8.046353      -218.9524
   7   1.0000      -8.046129      -218.9463
   8   1.0000      -7.723497      -210.1670
   9   1.0000      -1.502264       -40.8787
  10   1.0000      -1.295311       -35.2472
  11   1.0000      -1.137533       -30.9538
  12   1.0000      -0.889395       -24.2017
  13   1.0000      -0.757896       -20.6234
  14   1.0000      -0.692424       -18.8418
  15   1.0000      -0.680858       -18.5271
  16   1.0000      -0.630625       -17.1602
  17   1.0000      -0.551941       -15.0191
  18   1.0000      -0.524658       -14.2767
  19   1.0000      -0.481721       -13.1083
  20   1.0000      -0.472572       -12.8593
  21   1.0000      -0.350633        -9.5412
  22   0.0000       0.030550         0.8313
  23   0.0000       0.033829         0.9205
  24   0.0000       0.035979         0.9790
  25   0.0000       0.039055         1.0627
  26   0.0000       0.058975         1.6048

                 SPIN DOWN ORBITALS
  NO   OCC          E(Eh)            E(eV)
   0   1.0000    -104.852326     -2853.1768
   1   1.0000     -20.639200      -561.6212
   2   1.0000     -15.610611      -424.7863
   3   1.0000     -11.436445      -311.2015
   4   1.0000     -10.579752      -287.8897
   5   1.0000      -8.046500      -218.9564
   6   1.0000      -8.046054      -218.9443
   7   1.0000      -8.044012      -218.8887
   8   1.0000      -7.701874      -209.5786
   9   1.0000      -1.498534       -40.7772
  10   1.0000      -1.292352       -35.1667
  11   1.0000      -1.127171       -30.6719
  12   1.0000      -0.874708       -23.8020
  13   1.0000      -0.754533       -20.5319
  14   1.0000      -0.681115       -18.5341
  15   1.0000      -0.678411       -18.4605
  16   1.0000      -0.605415       -16.4742
  17   1.0000      -0.522202       -14.2098
  18   1.0000      -0.513014       -13.9598
  19   1.0000      -0.476352       -12.9622
  20   1.0000      -0.473721       -12.8906
  21   0.0000       0.022456         0.6110
  22   0.0000       0.035413         0.9636
  23   0.0000       0.035782         0.9737
  24   0.0000       0.038642         1.0515
  25   0.0000       0.068658         1.8683

MULLIKEN ATOMIC CHARGES AND SPIN POPULATIONS
--------------------------------------------
   0 B :    0.463089    0.929867
   1 C :    1.135276    0.039191
   2 O :   -0.548467    0.034834
   3 N :   -0.845662   -0.031493
   4 Cl:   -0.204235    0.027601
Sum of atomic charges         :   -0.0000000

LOEWDIN ATOMIC CHARGES AND SPIN POPULATIONS
-------------------------------------------
   0 B :   -1.342324    0.579980
   1 C :   -0.787984    0.059227
   2 O :    0.621871    0.035829
   3 N :    0.356135    0.154928
   4 Cl:    1.152302    0.170036

  Mayer bond orders larger than 0.100000
B(  0-B ,  3-N ) :   1.0851 B(  0-B ,  4-Cl) :   1.1227 B(  1-C ,  2-O ) :   1.7970
B(  1-C ,  3-N ) :   2.0430 B(  2-O ,  3-N ) :   0.2547

MP2 TOTAL ENERGY:     -652.390274199 Eh
FINAL SINGLE POINT ENERGY      -652.390274199102

DIPOLE MOMENT
-------------
                                X             Y             Z
Electronic contribution:     -3.36650       0.39309       0.00000
Nuclear contribution   :      3.27944      -0.30405      -0.00000
                        -----------------------------------------
Total Dipole Moment    :     -0.08706       0.08904       0.00000
                        -----------------------------------------
Magnitude (a.u.)       :      0.12453
Magnitude (Debye)      :      0.31653

Rotational constants in cm-1:     2.970346     0.047781     0.047024
Rotational constants in MHz : 89048.745862  1432.431180  1409.753987

                             ****ORCA TERMINATED NORMALLY****
TOTAL RUN TIME: 0 days 0 hours 13 minutes 20 seconds 569 msec
