                         Program Version 5.0.4 -  RELEASE  -
|  1> ! ri-mp2 aug-cc-pvdz aug-cc-pvdz/c tightscf
|  2> %pal nprocs 16 end
|  3> %maxcore 3800
|  4> %base "DZ_Si-Si_120_AB"
|  5> %scf
|  6> STABPerform true
|  7> STABRestartUHFifUnstable true
|  8> end
|  9>
| 10> *xyz 0 1
| 11> Si        -2.604482    0.747518    0.148310
| 12> Si        -1.171410   -0.966227   -0.528782
| 13> S         0.855837   -0.458170    0.209601
| 14> H        -1.039735   -1.128727   -1.988065
| 15> H        -1.421112   -2.263656    0.125798
| 16> O         0.803889   -0.215945    1.623946
| 17> O         0.994198    0.950005   -0.539981
| 18> O         1.864736   -1.342758   -0.296407
| 19> H        -3.982024    0.381287   -0.247677
| 20> H        -2.211880    2.000122   -0.525660
| 21> C         2.240607    1.648313   -0.376906
| 22> H         2.140136    2.561728   -0.954011
| 23> H         3.059188    1.044237   -0.763627
| 24> H         2.402966    1.882451    0.673849
| 25> H        -2.524666    0.894926    1.613356
| 26> *
| 27>
| 28> $new_job
| 29> ! ri-mp2 aug-cc-pvtz aug-cc-pvtz/c tightscf
| 30> %pal nprocs 16 end
| 31> %maxcore 3800
| 32> %base "TZ_Si-Si_120_AB"
| 33>
| 34> *xyz 0 1
| 35> Si        -2.604482    0.747518    0.148310
| 36> Si        -1.171410   -0.966227   -0.528782
| 37> S         0.855837   -0.458170    0.209601
| 38> H        -1.039735   -1.128727   -1.988065
| 39> H        -1.421112   -2.263656    0.125798
| 40> O         0.803889   -0.215945    1.623946
| 41> O         0.994198    0.950005   -0.539981
| 42> O         1.864736   -1.342758   -0.296407
| 43> H        -3.982024    0.381287   -0.247677
| 44> H        -2.211880    2.000122   -0.525660
| 45> C         2.240607    1.648313   -0.376906
| 46> H         2.140136    2.561728   -0.954011
| 47> H         3.059188    1.044237   -0.763627
| 48> H         2.402966    1.882451    0.673849
| 49> H        -2.524666    0.894926    1.613356
| 50> *
| 51>
| 52> $new_job
| 53> ! ri-mp2 aug-cc-pvqz aug-cc-pvqz/c tightscf
| 54> %pal nprocs 16 end
| 55> %maxcore 3800
| 56> %base "QZ_Si-Si_120_AB"
| 57>
| 58> *xyz 0 1
| 59> Si        -2.604482    0.747518    0.148310
| 60> Si        -1.171410   -0.966227   -0.528782
| 61> S         0.855837   -0.458170    0.209601
| 62> H        -1.039735   -1.128727   -1.988065
| 63> H        -1.421112   -2.263656    0.125798
| 64> O         0.803889   -0.215945    1.623946
| 65> O         0.994198    0.950005   -0.539981
| 66> O         1.864736   -1.342758   -0.296407
| 67> H        -3.982024    0.381287   -0.247677
| 68> H        -2.211880    2.000122   -0.525660
| 69> C         2.240607    1.648313   -0.376906
| 70> H         2.140136    2.561728   -0.954011
| 71> H         3.059188    1.044237   -0.763627
| 72> H         2.402966    1.882451    0.673849
| 73> H        -2.524666    0.894926    1.613356
| 74> *
| 75>
| 76>
| 77>
| 78>
| 79>                          ****END OF INPUT****
 Total Charge           Charge          ....    0
 Multiplicity           Mult            ....    1
 Number of Electrons    NEL             ....   82
MP2 TOTAL ENERGY:    -1243.556975759 Eh
FINAL SINGLE POINT ENERGY     -1243.556975758698
MP2 TOTAL ENERGY:    -1243.955819673 Eh
FINAL SINGLE POINT ENERGY     -1243.955819673439

CARTESIAN COORDINATES (ANGSTROEM)
---------------------------------
  Si    -2.604482    0.747518    0.148310
  Si    -1.171410   -0.966227   -0.528782
  S      0.855837   -0.458170    0.209601
  H     -1.039735   -1.128727   -1.988065
  H     -1.421112   -2.263656    0.125798
  O      0.803889   -0.215945    1.623946
  O      0.994198    0.950005   -0.539981
  O      1.864736   -1.342758   -0.296407
  H     -3.982024    0.381287   -0.247677
  H     -2.211880    2.000122   -0.525660
  C      2.240607    1.648313   -0.376906
  H      2.140136    2.561728   -0.954011
  H      3.059188    1.044237   -0.763627
  H      2.402966    1.882451    0.673849
  H     -2.524666    0.894926    1.613356

 Multiplicity           Mult            ....    1
 Number of Electrons    NEL             ....   82
 Basis Dimension        Dim             ....  940

ORBITAL ENERGIES
----------------

  NO   OCC          E(Eh)            E(eV)
   0   2.0000     -92.184338     -2508.4634
   1   2.0000     -68.816153     -1872.5827
   2   2.0000     -68.791209     -1871.9040
   3   2.0000     -20.614794      -560.9571
   4   2.0000     -20.546911      -559.1099
   5   2.0000     -20.546831      -559.1077
   6   2.0000     -11.299299      -307.4696
   7   2.0000      -9.152345      -249.0480
   8   2.0000      -6.838271      -186.0788
   9   2.0000      -6.836511      -186.0309
  10   2.0000      -6.836429      -186.0287
  11   2.0000      -6.166232      -167.7917
  12   2.0000      -6.142061      -167.1340
  13   2.0000      -4.272608      -116.2636
  14   2.0000      -4.271666      -116.2380
  15   2.0000      -4.271560      -116.2350
  16   2.0000      -4.248402      -115.6049
  17   2.0000      -4.248064      -115.5957
  18   2.0000      -4.247961      -115.5929
  19   2.0000      -1.497863       -40.7589
  20   2.0000      -1.387940       -37.7678
  21   2.0000      -1.347370       -36.6638
  22   2.0000      -0.996588       -27.1185
  23   2.0000      -0.861486       -23.4422
  24   2.0000      -0.786070       -21.3901
  25   2.0000      -0.736300       -20.0357
  26   2.0000      -0.703491       -19.1430
  27   2.0000      -0.688934       -18.7468
  28   2.0000      -0.666989       -18.1497
  29   2.0000      -0.631520       -17.1845
  30   2.0000      -0.611145       -16.6301
  31   2.0000      -0.574989       -15.6463
  32   2.0000      -0.532920       -14.5015
  33   2.0000      -0.523060       -14.2332
  34   2.0000      -0.511940       -13.9306
  35   2.0000      -0.505250       -13.7486
  36   2.0000      -0.500898       -13.6301
  37   2.0000      -0.496434       -13.5087
  38   2.0000      -0.464723       -12.6458
  39   2.0000      -0.452992       -12.3265
  40   2.0000      -0.423186       -11.5155
  41   0.0000       0.020382         0.5546
  42   0.0000       0.027737         0.7548
  43   0.0000       0.028999         0.7891
  44   0.0000       0.037499         1.0204
  45   0.0000       0.044650         1.2150

MULLIKEN ATOMIC CHARGES
-----------------------
   0 Si:    0.392266
   1 Si:    0.944384
   2 S :    2.439938
   3 H :   -0.187200
   4 H :   -0.252735
   5 O :   -1.208472
   6 O :   -0.799734
   7 O :   -1.255400
   8 H :   -0.187399
   9 H :   -0.124748
  10 C :   -0.707058
  11 H :    0.385984
  12 H :    0.335771
  13 H :    0.331732
  14 H :   -0.107329
Sum of atomic charges:    0.0000000

LOEWDIN ATOMIC CHARGES
----------------------
   0 Si:    1.038624
   1 Si:    0.599459
   2 S :   -0.693073
   3 H :   -0.284210
   4 H :   -0.289206
   5 O :    0.233619
   6 O :    0.544174
   7 O :    0.233107
   8 H :   -0.317308
   9 H :   -0.307370
  10 C :    0.530191
  11 H :   -0.328682
  12 H :   -0.330656
  13 H :   -0.324532
  14 H :   -0.304137

  Mayer bond orders larger than 0.100000
B(  0-Si,  1-Si) :   0.7390 B(  0-Si,  8-H ) :   0.7759 B(  0-Si,  9-H ) :   0.7706
B(  0-Si, 14-H ) :   0.7739 B(  1-Si,  2-S ) :   0.5626 B(  1-Si,  3-H ) :   0.8407
B(  1-Si,  4-H ) :   0.8230 B(  2-S ,  5-O ) :   1.0844 B(  2-S ,  6-O ) :   0.5708
B(  2-S ,  7-O ) :   0.9876 B(  6-O , 10-C ) :   0.9064 B( 10-C , 11-H ) :   0.8774
B( 10-C , 12-H ) :   0.8688 B( 10-C , 13-H ) :   0.8717

MP2 TOTAL ENERGY:    -1244.085933844 Eh
FINAL SINGLE POINT ENERGY     -1244.085933843653

DIPOLE MOMENT
-------------
                                X             Y             Z
Electronic contribution:      2.20889      -4.43917       1.16237
Nuclear contribution   :     -3.26772       5.31080      -2.00699
                        -----------------------------------------
Total Dipole Moment    :     -1.05883       0.87163      -0.84462
                        -----------------------------------------
Magnitude (a.u.)       :      1.61067
Magnitude (Debye)      :      4.09400

Rotational constants in cm-1:     0.077940     0.032802     0.028439
Rotational constants in MHz :  2336.590773   983.367953   852.590334

                             ****ORCA TERMINATED NORMALLY****
TOTAL RUN TIME: 0 days 1 hours 24 minutes 26 seconds 784 msec
