                         Program Version 5.0.4 -  RELEASE  -
|  1> ! ri-mp2 aug-cc-pvdz aug-cc-pvdz/c tightscf
|  2> %pal nprocs 16 end
|  3> %maxcore 3800
|  4> %base "DZ_Si-F_17_AB"
|  5> %scf
|  6> STABPerform true
|  7> STABRestartUHFifUnstable true
|  8> end
|  9>
| 10> *xyz 0 1
| 11> Si         0.150168    0.482210   -0.000001
| 12> C        -1.499161   -0.355673   -0.000001
| 13> F         1.306448   -0.628909    0.000002
| 14> H        -1.621992   -0.982304    0.883872
| 15> H        -1.621988   -0.982311   -0.883869
| 16> H        -2.298699    0.388068   -0.000006
| 17> H         0.338631    1.309912    1.208933
| 18> H         0.338633    1.309909   -1.208936
| 19> *
| 20>
| 21> $new_job
| 22> ! ri-mp2 aug-cc-pvtz aug-cc-pvtz/c tightscf
| 23> %pal nprocs 16 end
| 24> %maxcore 3800
| 25> %base "TZ_Si-F_17_AB"
| 26>
| 27> *xyz 0 1
| 28> Si         0.150168    0.482210   -0.000001
| 29> C        -1.499161   -0.355673   -0.000001
| 30> F         1.306448   -0.628909    0.000002
| 31> H        -1.621992   -0.982304    0.883872
| 32> H        -1.621988   -0.982311   -0.883869
| 33> H        -2.298699    0.388068   -0.000006
| 34> H         0.338631    1.309912    1.208933
| 35> H         0.338633    1.309909   -1.208936
| 36> *
| 37>
| 38> $new_job
| 39> ! ri-mp2 aug-cc-pvqz aug-cc-pvqz/c tightscf
| 40> %pal nprocs 16 end
| 41> %maxcore 3800
| 42> %base "QZ_Si-F_17_AB"
| 43>
| 44> *xyz 0 1
| 45> Si         0.150168    0.482210   -0.000001
| 46> C        -1.499161   -0.355673   -0.000001
| 47> F         1.306448   -0.628909    0.000002
| 48> H        -1.621992   -0.982304    0.883872
| 49> H        -1.621988   -0.982311   -0.883869
| 50> H        -2.298699    0.388068   -0.000006
| 51> H         0.338631    1.309912    1.208933
| 52> H         0.338633    1.309909   -1.208936
| 53> *
| 54>
| 55>
| 56>
| 57>
| 58>                          ****END OF INPUT****
 Total Charge           Charge          ....    0
 Multiplicity           Mult            ....    1
 Number of Electrons    NEL             ....   34
MP2 TOTAL ENERGY:     -429.695994119 Eh
FINAL SINGLE POINT ENERGY      -429.695994118763
MP2 TOTAL ENERGY:     -429.865964294 Eh
FINAL SINGLE POINT ENERGY      -429.865964293733

CARTESIAN COORDINATES (ANGSTROEM)
---------------------------------
  Si     0.150168    0.482210   -0.000001
  C     -1.499161   -0.355673   -0.000001
  F      1.306448   -0.628909    0.000002
  H     -1.621992   -0.982304    0.883872
  H     -1.621988   -0.982311   -0.883869
  H     -2.298699    0.388068   -0.000006
  H      0.338631    1.309912    1.208933
  H      0.338633    1.309909   -1.208936

 Multiplicity           Mult            ....    1
 Number of Electrons    NEL             ....   34
 Basis Dimension        Dim             ....  474

ORBITAL ENERGIES
----------------

  NO   OCC          E(Eh)            E(eV)
   0   2.0000     -68.802301     -1872.2058
   1   2.0000     -26.273736      -714.9447
   2   2.0000     -11.214235      -305.1548
   3   2.0000      -6.146737      -167.2612
   4   2.0000      -4.254105      -115.7601
   5   2.0000      -4.253232      -115.7363
   6   2.0000      -4.252925      -115.7280
   7   2.0000      -1.576342       -42.8944
   8   2.0000      -0.961725       -26.1699
   9   2.0000      -0.753441       -20.5022
  10   2.0000      -0.660917       -17.9845
  11   2.0000      -0.660391       -17.9701
  12   2.0000      -0.619940       -16.8694
  13   2.0000      -0.572216       -15.5708
  14   2.0000      -0.561904       -15.2902
  15   2.0000      -0.474805       -12.9201
  16   2.0000      -0.464795       -12.6477
  17   0.0000       0.024944         0.6788
  18   0.0000       0.036791         1.0011
  19   0.0000       0.037132         1.0104
  20   0.0000       0.038530         1.0485
  21   0.0000       0.057219         1.5570

MULLIKEN ATOMIC CHARGES
-----------------------
   0 Si:    1.359922
   1 C :   -0.954036
   2 F :   -0.685390
   3 H :    0.243764
   4 H :    0.243764
   5 H :    0.233336
   6 H :   -0.220680
   7 H :   -0.220680
Sum of atomic charges:   -0.0000000

LOEWDIN ATOMIC CHARGES
----------------------
   0 Si:    0.325974
   1 C :    0.889654
   2 F :    0.398498
   3 H :   -0.364359
   4 H :   -0.364360
   5 H :   -0.368714
   6 H :   -0.258346
   7 H :   -0.258346

  Mayer bond orders larger than 0.100000
B(  0-Si,  1-C ) :   0.9119 B(  0-Si,  2-F ) :   0.3918 B(  0-Si,  6-H ) :   0.8782
B(  0-Si,  7-H ) :   0.8782 B(  1-C ,  3-H ) :   0.9546 B(  1-C ,  4-H ) :   0.9546
B(  1-C ,  5-H ) :   0.9457

MP2 TOTAL ENERGY:     -429.920528637 Eh
FINAL SINGLE POINT ENERGY      -429.920528637336

DIPOLE MOMENT
-------------
                                X             Y             Z
Electronic contribution:      5.45968      -1.38537       0.00000
Nuclear contribution   :     -6.13780       1.62795      -0.00001
                        -----------------------------------------
Total Dipole Moment    :     -0.67812       0.24259      -0.00000
                        -----------------------------------------
Magnitude (a.u.)       :      0.72020
Magnitude (Debye)      :      1.83061

Rotational constants in cm-1:     0.666098     0.224338     0.184419
Rotational constants in MHz : 19969.125523  6725.481926  5528.756082

                             ****ORCA TERMINATED NORMALLY****
TOTAL RUN TIME: 0 days 0 hours 10 minutes 33 seconds 348 msec
