                         Program Version 5.0.4 -  RELEASE  -
|  1> ! ri-mp2 aug-cc-pvdz aug-cc-pvdz/c tightscf
|  2> %pal nprocs 16 end
|  3> %maxcore 3800
|  4> %base "DZ_Si-F_26_AB"
|  5>
|  6> *xyz 0 1
|  7> C        -0.232269    2.017395   -0.875143
|  8> Si        -0.032041    0.566339    0.196210
|  9> N         1.474725   -0.386182   -0.232513
| 10> N        -1.365832   -0.681729   -0.017262
| 11> O        -1.161064   -1.815509    0.357996
| 12> O        -2.408305   -0.265319   -0.491171
| 13> O         1.416749   -0.740637   -1.402549
| 14> O         2.390558   -0.589879    0.525582
| 15> F         0.000566    0.865441    1.735482
| 16> H        -0.276385    1.705283   -1.917578
| 17> H         0.605280    2.703414   -0.744230
| 18> H        -1.157567    2.535346   -0.624048
| 19> *
| 20>
| 21> $new_job
| 22> ! ri-mp2 aug-cc-pvtz aug-cc-pvtz/c tightscf
| 23> %pal nprocs 16 end
| 24> %maxcore 3800
| 25> %base "TZ_Si-F_26_AB"
| 26>
| 27> *xyz 0 1
| 28> C        -0.232269    2.017395   -0.875143
| 29> Si        -0.032041    0.566339    0.196210
| 30> N         1.474725   -0.386182   -0.232513
| 31> N        -1.365832   -0.681729   -0.017262
| 32> O        -1.161064   -1.815509    0.357996
| 33> O        -2.408305   -0.265319   -0.491171
| 34> O         1.416749   -0.740637   -1.402549
| 35> O         2.390558   -0.589879    0.525582
| 36> F         0.000566    0.865441    1.735482
| 37> H        -0.276385    1.705283   -1.917578
| 38> H         0.605280    2.703414   -0.744230
| 39> H        -1.157567    2.535346   -0.624048
| 40> *
| 41>
| 42> $new_job
| 43> ! ri-mp2 aug-cc-pvqz aug-cc-pvqz/c tightscf
| 44> %pal nprocs 16 end
| 45> %maxcore 3800
| 46> %base "QZ_Si-F_26_AB"
| 47>
| 48> *xyz 0 1
| 49> C        -0.232269    2.017395   -0.875143
| 50> Si        -0.032041    0.566339    0.196210
| 51> N         1.474725   -0.386182   -0.232513
| 52> N        -1.365832   -0.681729   -0.017262
| 53> O        -1.161064   -1.815509    0.357996
| 54> O        -2.408305   -0.265319   -0.491171
| 55> O         1.416749   -0.740637   -1.402549
| 56> O         2.390558   -0.589879    0.525582
| 57> F         0.000566    0.865441    1.735482
| 58> H        -0.276385    1.705283   -1.917578
| 59> H         0.605280    2.703414   -0.744230
| 60> H        -1.157567    2.535346   -0.624048
| 61> *
| 62>
| 63>
| 64>
| 65>
| 66>                          ****END OF INPUT****
 Total Charge           Charge          ....    0
 Multiplicity           Mult            ....    1
 Number of Electrons    NEL             ....   78
MP2 TOTAL ENERGY:     -837.882185845 Eh
FINAL SINGLE POINT ENERGY      -837.882185844812
MP2 TOTAL ENERGY:     -838.379218677 Eh
FINAL SINGLE POINT ENERGY      -838.379218676515

CARTESIAN COORDINATES (ANGSTROEM)
---------------------------------
  C     -0.232269    2.017395   -0.875143
  Si    -0.032041    0.566339    0.196210
  N      1.474725   -0.386182   -0.232513
  N     -1.365832   -0.681729   -0.017262
  O     -1.161064   -1.815509    0.357996
  O     -2.408305   -0.265319   -0.491171
  O      1.416749   -0.740637   -1.402549
  O      2.390558   -0.589879    0.525582
  F      0.000566    0.865441    1.735482
  H     -0.276385    1.705283   -1.917578
  H      0.605280    2.703414   -0.744230
  H     -1.157567    2.535346   -0.624048

 Multiplicity           Mult            ....    1
 Number of Electrons    NEL             ....   78
 Basis Dimension        Dim             ....  862

ORBITAL ENERGIES
----------------

  NO   OCC          E(Eh)            E(eV)
   0   2.0000     -68.934245     -1875.7962
   1   2.0000     -26.360169      -717.2967
   2   2.0000     -20.639829      -561.6383
   3   2.0000     -20.634652      -561.4974
   4   2.0000     -20.633182      -561.4574
   5   2.0000     -20.632038      -561.4263
   6   2.0000     -15.851820      -431.3500
   7   2.0000     -15.851111      -431.3307
   8   2.0000     -11.276862      -306.8590
   9   2.0000      -6.274547      -170.7391
  10   2.0000      -4.381996      -119.2402
  11   2.0000      -4.381826      -119.2356
  12   2.0000      -4.380250      -119.1927
  13   2.0000      -1.667899       -45.3859
  14   2.0000      -1.635419       -44.5020
  15   2.0000      -1.631454       -44.3941
  16   2.0000      -1.435536       -39.0629
  17   2.0000      -1.432923       -38.9918
  18   2.0000      -1.047445       -28.5024
  19   2.0000      -0.996019       -27.1031
  20   2.0000      -0.967526       -26.3277
  21   2.0000      -0.838895       -22.8275
  22   2.0000      -0.808491       -22.0001
  23   2.0000      -0.796801       -21.6820
  24   2.0000      -0.756902       -20.5963
  25   2.0000      -0.754762       -20.5381
  26   2.0000      -0.747560       -20.3421
  27   2.0000      -0.741964       -20.1899
  28   2.0000      -0.731476       -19.9045
  29   2.0000      -0.721933       -19.6448
  30   2.0000      -0.629151       -17.1201
  31   2.0000      -0.626354       -17.0440
  32   2.0000      -0.592268       -16.1164
  33   2.0000      -0.537050       -14.6139
  34   2.0000      -0.533105       -14.5065
  35   2.0000      -0.501162       -13.6373
  36   2.0000      -0.491743       -13.3810
  37   2.0000      -0.484739       -13.1904
  38   2.0000      -0.478297       -13.0151
  39   0.0000       0.014592         0.3971
  40   0.0000       0.031170         0.8482
  41   0.0000       0.033866         0.9215
  42   0.0000       0.037918         1.0318
  43   0.0000       0.043239         1.1766

MULLIKEN ATOMIC CHARGES
-----------------------
   0 C :   -0.999182
   1 Si:    1.927433
   2 N :    0.644463
   3 N :    0.691322
   4 O :   -0.583646
   5 O :   -0.616626
   6 O :   -0.579603
   7 O :   -0.587073
   8 F :   -0.759048
   9 H :    0.289704
  10 H :    0.291838
  11 H :    0.280418
Sum of atomic charges:    0.0000000

LOEWDIN ATOMIC CHARGES
----------------------
   0 C :    0.991244
   1 Si:   -0.686513
   2 N :   -0.861298
   3 N :   -0.860269
   4 O :    0.477021
   5 O :    0.470455
   6 O :    0.475163
   7 O :    0.479088
   8 F :    0.524761
   9 H :   -0.340196
  10 H :   -0.332066
  11 H :   -0.337390

  Mayer bond orders larger than 0.100000
B(  0-C ,  1-Si) :   0.9310 B(  0-C ,  9-H ) :   0.9335 B(  0-C , 10-H ) :   0.9260
B(  0-C , 11-H ) :   0.9252 B(  1-Si,  2-N ) :   0.6017 B(  1-Si,  3-N ) :   0.5467
B(  1-Si,  7-O ) :   0.1028 B(  1-Si,  8-F ) :   0.3990 B(  2-N ,  6-O ) :   1.3145
B(  2-N ,  7-O ) :   1.2580 B(  3-N ,  4-O ) :   1.2651 B(  3-N ,  5-O ) :   1.2341
B(  4-O ,  5-O ) :   0.1660 B(  6-O ,  7-O ) :   0.1578

MP2 TOTAL ENERGY:     -838.545572765 Eh
FINAL SINGLE POINT ENERGY      -838.545572764944

DIPOLE MOMENT
-------------
                                X             Y             Z
Electronic contribution:      0.67985      -3.68600       4.60328
Nuclear contribution   :     -0.78211       5.69778      -4.77984
                        -----------------------------------------
Total Dipole Moment    :     -0.10226       2.01178      -0.17655
                        -----------------------------------------
Magnitude (a.u.)       :      2.02210
Magnitude (Debye)      :      5.13977

Rotational constants in cm-1:     0.060205     0.041100     0.036345
Rotational constants in MHz :  1804.912208  1232.132134  1089.597327

                             ****ORCA TERMINATED NORMALLY****
TOTAL RUN TIME: 0 days 0 hours 13 minutes 11 seconds 779 msec
