                         Program Version 5.0.4 -  RELEASE  -
|  1> ! ri-mp2 aug-cc-pvdz aug-cc-pvdz/c tightscf
|  2> %pal nprocs 16 end
|  3> %maxcore 3800
|  4> %base "DZ_Si-Si_158_AB"
|  5>
|  6> *xyz 0 1
|  7> Si        -1.174306    2.256271   -0.027372
|  8> Si         1.174307    2.256271    0.027370
|  9> C         1.727088    0.472697   -0.087318
| 10> H         1.694257    2.792268    1.307432
| 11> H         1.734885    3.074870   -1.072356
| 12> C         1.320956   -0.301502   -1.170029
| 13> C         2.407837   -0.169209    0.941408
| 14> C         2.663994   -1.530186    0.906054
| 15> C         2.232581   -2.275582   -0.178657
| 16> C         1.562851   -1.664197   -1.222384
| 17> H         2.731294    0.409364    1.798179
| 18> H         3.197351   -2.006395    1.717561
| 19> C        -1.727087    0.472697    0.087317
| 20> H        -1.694256    2.792267   -1.307434
| 21> H        -1.734885    3.074871    1.072353
| 22> C        -1.320959   -0.301501    1.170030
| 23> C        -2.407833   -0.169210   -0.941410
| 24> C        -2.663989   -1.530187   -0.906055
| 25> C        -2.232580   -2.275582    0.178658
| 26> C        -1.562853   -1.664195    1.222387
| 27> H        -2.731287    0.409362   -1.798183
| 28> H        -3.197343   -2.006398   -1.717563
| 29> O         0.663097    0.351645   -2.169961
| 30> O        -0.663104    0.351648    2.169963
| 31> H         2.419564   -3.340626   -0.216536
| 32> H        -2.419563   -3.340626    0.216539
| 33> H         1.222128   -2.243626   -2.072257
| 34> H        -1.222133   -2.243623    2.072261
| 35> H         0.249017   -0.278954   -2.766870
| 36> H        -0.249025   -0.278950    2.766875
| 37> *
| 38>
| 39> $new_job
| 40> ! ri-mp2 aug-cc-pvtz aug-cc-pvtz/c tightscf
| 41> %pal nprocs 16 end
| 42> %maxcore 3800
| 43> %base "TZ_Si-Si_158_AB"
| 44>
| 45> *xyz 0 1
| 46> Si        -1.174306    2.256271   -0.027372
| 47> Si         1.174307    2.256271    0.027370
| 48> C         1.727088    0.472697   -0.087318
| 49> H         1.694257    2.792268    1.307432
| 50> H         1.734885    3.074870   -1.072356
| 51> C         1.320956   -0.301502   -1.170029
| 52> C         2.407837   -0.169209    0.941408
| 53> C         2.663994   -1.530186    0.906054
| 54> C         2.232581   -2.275582   -0.178657
| 55> C         1.562851   -1.664197   -1.222384
| 56> H         2.731294    0.409364    1.798179
| 57> H         3.197351   -2.006395    1.717561
| 58> C        -1.727087    0.472697    0.087317
| 59> H        -1.694256    2.792267   -1.307434
| 60> H        -1.734885    3.074871    1.072353
| 61> C        -1.320959   -0.301501    1.170030
| 62> C        -2.407833   -0.169210   -0.941410
| 63> C        -2.663989   -1.530187   -0.906055
| 64> C        -2.232580   -2.275582    0.178658
| 65> C        -1.562853   -1.664195    1.222387
| 66> H        -2.731287    0.409362   -1.798183
| 67> H        -3.197343   -2.006398   -1.717563
| 68> O         0.663097    0.351645   -2.169961
| 69> O        -0.663104    0.351648    2.169963
| 70> H         2.419564   -3.340626   -0.216536
| 71> H        -2.419563   -3.340626    0.216539
| 72> H         1.222128   -2.243626   -2.072257
| 73> H        -1.222133   -2.243623    2.072261
| 74> H         0.249017   -0.278954   -2.766870
| 75> H        -0.249025   -0.278950    2.766875
| 76> *
| 77>
| 78> $new_job
| 79> ! ri-mp2 aug-cc-pvqz aug-cc-pvqz/c tightscf
| 80> %pal nprocs 16 end
| 81> %maxcore 3800
| 82> %base "QZ_Si-Si_158_AB"
| 83>
| 84> *xyz 0 1
| 85> Si        -1.174306    2.256271   -0.027372
| 86> Si         1.174307    2.256271    0.027370
| 87> C         1.727088    0.472697   -0.087318
| 88> H         1.694257    2.792268    1.307432
| 89> H         1.734885    3.074870   -1.072356
| 90> C         1.320956   -0.301502   -1.170029
| 91> C         2.407837   -0.169209    0.941408
| 92> C         2.663994   -1.530186    0.906054
| 93> C         2.232581   -2.275582   -0.178657
| 94> C         1.562851   -1.664197   -1.222384
| 95> H         2.731294    0.409364    1.798179
| 96> H         3.197351   -2.006395    1.717561
| 97> C        -1.727087    0.472697    0.087317
| 98> H        -1.694256    2.792267   -1.307434
| 99> H        -1.734885    3.074871    1.072353
|100> C        -1.320959   -0.301501    1.170030
|101> C        -2.407833   -0.169210   -0.941410
|102> C        -2.663989   -1.530187   -0.906055
|103> C        -2.232580   -2.275582    0.178658
|104> C        -1.562853   -1.664195    1.222387
|105> H        -2.731287    0.409362   -1.798183
|106> H        -3.197343   -2.006398   -1.717563
|107> O         0.663097    0.351645   -2.169961
|108> O        -0.663104    0.351648    2.169963
|109> H         2.419564   -3.340626   -0.216536
|110> H        -2.419563   -3.340626    0.216539
|111> H         1.222128   -2.243626   -2.072257
|112> H        -1.222133   -2.243623    2.072261
|113> H         0.249017   -0.278954   -2.766870
|114> H        -0.249025   -0.278950    2.766875
|115> *
|116>
|117>
|118>
|119>
|120>                          ****END OF INPUT****
 Total Charge           Charge          ....    0
 Multiplicity           Mult            ....    1
 Number of Electrons    NEL             ....  130
MP2 TOTAL ENERGY:    -1192.475048986 Eh
FINAL SINGLE POINT ENERGY     -1192.475048986393
MP2 TOTAL ENERGY:    -1193.072793848 Eh
FINAL SINGLE POINT ENERGY     -1193.072793848040

CARTESIAN COORDINATES (ANGSTROEM)
---------------------------------
  Si    -1.174306    2.256271   -0.027372
  Si     1.174307    2.256271    0.027370
  C      1.727088    0.472697   -0.087318
  H      1.694257    2.792268    1.307432
  H      1.734885    3.074870   -1.072356
  C      1.320956   -0.301502   -1.170029
  C      2.407837   -0.169209    0.941408
  C      2.663994   -1.530186    0.906054
  C      2.232581   -2.275582   -0.178657
  C      1.562851   -1.664197   -1.222384
  H      2.731294    0.409364    1.798179
  H      3.197351   -2.006395    1.717561
  C     -1.727087    0.472697    0.087317
  H     -1.694256    2.792267   -1.307434
  H     -1.734885    3.074871    1.072353
  C     -1.320959   -0.301501    1.170030
  C     -2.407833   -0.169210   -0.941410
  C     -2.663989   -1.530187   -0.906055
  C     -2.232580   -2.275582    0.178658
  C     -1.562853   -1.664195    1.222387
  H     -2.731287    0.409362   -1.798183
  H     -3.197343   -2.006398   -1.717563
  O      0.663097    0.351645   -2.169961
  O     -0.663104    0.351648    2.169963
  H      2.419564   -3.340626   -0.216536
  H     -2.419563   -3.340626    0.216539
  H      1.222128   -2.243626   -2.072257
  H     -1.222133   -2.243623    2.072261
  H      0.249017   -0.278954   -2.766870
  H     -0.249025   -0.278950    2.766875

 Multiplicity           Mult            ....    1
 Number of Electrons    NEL             ....  130
 Basis Dimension        Dim             .... 1932

ORBITAL ENERGIES
----------------

  NO   OCC          E(Eh)            E(eV)
   0   2.0000     -68.751428     -1870.8215
   1   2.0000     -68.751427     -1870.8214
   2   2.0000     -20.591579      -560.3253
   3   2.0000     -20.591579      -560.3253
   4   2.0000     -11.302409      -307.5542
   5   2.0000     -11.302408      -307.5542
   6   2.0000     -11.242632      -305.9276
   7   2.0000     -11.242632      -305.9276
   8   2.0000     -11.239818      -305.8510
   9   2.0000     -11.239818      -305.8510
  10   2.0000     -11.230870      -305.6075
  11   2.0000     -11.230869      -305.6075
  12   2.0000     -11.225628      -305.4649
  13   2.0000     -11.225628      -305.4649
  14   2.0000     -11.212360      -305.1038
  15   2.0000     -11.212358      -305.1038
  16   2.0000      -6.101706      -166.0359
  17   2.0000      -6.101562      -166.0320
  18   2.0000      -4.208073      -114.5075
  19   2.0000      -4.207980      -114.5050
  20   2.0000      -4.207857      -114.5016
  21   2.0000      -4.207663      -114.4963
  22   2.0000      -4.207629      -114.4954
  23   2.0000      -4.207279      -114.4859
  24   2.0000      -1.412798       -38.4442
  25   2.0000      -1.412198       -38.4279
  26   2.0000      -1.153585       -31.3906
  27   2.0000      -1.152246       -31.3542
  28   2.0000      -1.024476       -27.8774
  29   2.0000      -1.022076       -27.8121
  30   2.0000      -1.009726       -27.4760
  31   2.0000      -1.007462       -27.4144
  32   2.0000      -0.854762       -23.2593
  33   2.0000      -0.850724       -23.1494
  34   2.0000      -0.829819       -22.5805
  35   2.0000      -0.824800       -22.4440
  36   2.0000      -0.745166       -20.2770
  37   2.0000      -0.741611       -20.1803
  38   2.0000      -0.721798       -19.6411
  39   2.0000      -0.691876       -18.8269
  40   2.0000      -0.673626       -18.3303
  41   2.0000      -0.659737       -17.9524
  42   2.0000      -0.646701       -17.5976
  43   2.0000      -0.635370       -17.2893
  44   2.0000      -0.613484       -16.6937
  45   2.0000      -0.604613       -16.4524
  46   2.0000      -0.604344       -16.4450
  47   2.0000      -0.594141       -16.1674
  48   2.0000      -0.580346       -15.7920
  49   2.0000      -0.573428       -15.6038
  50   2.0000      -0.546196       -14.8627
  51   2.0000      -0.541312       -14.7299
  52   2.0000      -0.514936       -14.0121
  53   2.0000      -0.513659       -13.9774
  54   2.0000      -0.492863       -13.4115
  55   2.0000      -0.489875       -13.3302
  56   2.0000      -0.474649       -12.9158
  57   2.0000      -0.460276       -12.5247
  58   2.0000      -0.452422       -12.3110
  59   2.0000      -0.440647       -11.9906
  60   2.0000      -0.397367       -10.8129
  61   2.0000      -0.341493        -9.2925
  62   2.0000      -0.339394        -9.2354
  63   2.0000      -0.319764        -8.7012
  64   2.0000      -0.315538        -8.5862
  65   0.0000       0.017656         0.4804
  66   0.0000       0.022843         0.6216
  67   0.0000       0.028269         0.7692
  68   0.0000       0.029556         0.8043
  69   0.0000       0.036523         0.9938

MULLIKEN ATOMIC CHARGES
-----------------------
   0 Si:    1.110071
   1 Si:    1.110238
   2 C :   -0.085127
   3 H :   -0.382307
   4 H :   -0.437091
   5 C :    1.264257
   6 C :   -0.660046
   7 C :   -0.263773
   8 C :   -0.321001
   9 C :   -0.470755
  10 H :    0.237516
  11 H :    0.256397
  12 C :   -0.085011
  13 H :   -0.382354
  14 H :   -0.437073
  15 C :    1.264249
  16 C :   -0.659911
  17 C :   -0.263917
  18 C :   -0.321011
  19 C :   -0.470816
  20 H :    0.237493
  21 H :    0.256388
  22 O :   -1.058693
  23 O :   -1.058676
  24 H :    0.244401
  25 H :    0.244328
  26 H :    0.170627
  27 H :    0.170679
  28 H :    0.395455
  29 H :    0.395463
Sum of atomic charges:    0.0000000

LOEWDIN ATOMIC CHARGES
----------------------
   0 Si:    0.741307
   1 Si:    0.741307
   2 C :   -0.167034
   3 H :   -0.242455
   4 H :   -0.249268
   5 C :   -0.542210
   6 C :    0.237099
   7 C :    0.337977
   8 C :    0.331528
   9 C :    0.332242
  10 H :   -0.336221
  11 H :   -0.324791
  12 C :   -0.167035
  13 H :   -0.242456
  14 H :   -0.249267
  15 C :   -0.542211
  16 C :    0.237098
  17 C :    0.337977
  18 C :    0.331529
  19 C :    0.332242
  20 H :   -0.336221
  21 H :   -0.324791
  22 O :    1.284223
  23 O :    1.284222
  24 H :   -0.313617
  25 H :   -0.313617
  26 H :   -0.313819
  27 H :   -0.313820
  28 H :   -0.774961
  29 H :   -0.774959

  Mayer bond orders larger than 0.100000
B(  0-Si,  1-Si) :   0.7819 B(  0-Si, 12-C ) :   0.8826 B(  0-Si, 13-H ) :   0.6470
B(  0-Si, 14-H ) :   0.6219 B(  0-Si, 15-C ) :  -0.2300 B(  0-Si, 16-C ) :  -0.1341
B(  1-Si,  2-C ) :   0.8827 B(  1-Si,  3-H ) :   0.6472 B(  1-Si,  4-H ) :   0.6219
B(  1-Si,  5-C ) :  -0.2298 B(  1-Si,  6-C ) :  -0.1341 B(  2-C ,  5-C ) :   0.9334
B(  2-C ,  6-C ) :   1.1145 B(  2-C ,  7-C ) :  -0.1763 B(  2-C ,  9-C ) :  -0.2329
B(  2-C , 10-H ) :  -0.1130 B(  2-C , 12-C ) :  -0.1059 B(  2-C , 22-O ) :   0.2674
B(  5-C ,  8-C ) :  -0.1544 B(  5-C ,  9-C ) :   1.2281 B(  5-C , 15-C ) :   0.1373
B(  5-C , 22-O ) :  -0.3498 B(  6-C ,  7-C ) :   1.2127 B(  6-C ,  8-C ) :   0.1243
B(  6-C ,  9-C ) :   0.1959 B(  6-C , 10-H ) :   1.0421 B(  6-C , 11-H ) :  -0.1519
B(  7-C ,  8-C ) :   1.1760 B(  7-C , 11-H ) :   1.1225 B(  8-C ,  9-C ) :   1.2492
B(  8-C , 24-H ) :   1.1294 B(  9-C , 22-O ) :   0.1905 B(  9-C , 24-H ) :  -0.1518
B(  9-C , 26-H ) :   1.0862 B( 12-C , 15-C ) :   0.9335 B( 12-C , 16-C ) :   1.1144
B( 12-C , 17-C ) :  -0.1764 B( 12-C , 19-C ) :  -0.2329 B( 12-C , 20-H ) :  -0.1130
B( 12-C , 23-O ) :   0.2672 B( 15-C , 18-C ) :  -0.1544 B( 15-C , 19-C ) :   1.2279
B( 15-C , 23-O ) :  -0.3496 B( 16-C , 17-C ) :   1.2125 B( 16-C , 18-C ) :   0.1242
B( 16-C , 19-C ) :   0.1958 B( 16-C , 20-H ) :   1.0421 B( 16-C , 21-H ) :  -0.1519
B( 17-C , 18-C ) :   1.1758 B( 17-C , 21-H ) :   1.1226 B( 18-C , 19-C ) :   1.2491
B( 18-C , 25-H ) :   1.1295 B( 19-C , 23-O ) :   0.1906 B( 19-C , 25-H ) :  -0.1518
B( 19-C , 27-H ) :   1.0861 B( 22-O , 28-H ) :   0.8818 B( 23-O , 29-H ) :   0.8818

MP2 TOTAL ENERGY:    -1193.265163830 Eh
FINAL SINGLE POINT ENERGY     -1193.265163830350

DIPOLE MOMENT
-------------
                                X             Y             Z
Electronic contribution:     -0.00000       1.90600       0.00000
Nuclear contribution   :      0.00000      -3.41736       0.00000
                        -----------------------------------------
Total Dipole Moment    :      0.00000      -1.51136       0.00000
                        -----------------------------------------
Magnitude (a.u.)       :      1.51136
Magnitude (Debye)      :      3.84157

Rotational constants in cm-1:     0.018229     0.015910     0.012238
Rotational constants in MHz :   546.502473   476.965710   366.896981

                             ****ORCA TERMINATED NORMALLY****
TOTAL RUN TIME: 0 days 4 hours 43 minutes 21 seconds 513 msec
