                         Program Version 5.0.4 -  RELEASE  -
|  1> ! ri-mp2 aug-cc-pvdz aug-cc-pvdz/c tightscf
|  2> %pal nprocs 16 end
|  3> %maxcore 3800
|  4> %base "DZ_S-F_65_AB"
|  5> %scf
|  6> STABPerform true
|  7> STABRestartUHFifUnstable true
|  8> end
|  9>
| 10> *xyz 0 1
| 11> F        -2.323561   -0.167376    0.506348
| 12> S        -1.182152   -0.837804   -0.434357
| 13> C         0.281204   -0.174732    0.424439
| 14> O         0.279963    1.181575    0.644295
| 15> O         1.280894   -0.621529   -0.430428
| 16> C         0.153250    2.018375   -0.497884
| 17> H         0.342809    3.029284   -0.148124
| 18> H        -0.852269    1.957790   -0.914519
| 19> H         0.879638    1.751083   -1.265329
| 20> C         2.556315   -0.737517    0.178237
| 21> H         3.244350   -1.067296   -0.595342
| 22> H         2.534626   -1.476586    0.983514
| 23> H         2.885998    0.223935    0.575833
| 24> H         0.359864   -0.624096    1.416870
| 25> *
| 26>
| 27> $new_job
| 28> ! ri-mp2 aug-cc-pvtz aug-cc-pvtz/c tightscf
| 29> %pal nprocs 16 end
| 30> %maxcore 3800
| 31> %base "TZ_S-F_65_AB"
| 32>
| 33> *xyz 0 1
| 34> F        -2.323561   -0.167376    0.506348
| 35> S        -1.182152   -0.837804   -0.434357
| 36> C         0.281204   -0.174732    0.424439
| 37> O         0.279963    1.181575    0.644295
| 38> O         1.280894   -0.621529   -0.430428
| 39> C         0.153250    2.018375   -0.497884
| 40> H         0.342809    3.029284   -0.148124
| 41> H        -0.852269    1.957790   -0.914519
| 42> H         0.879638    1.751083   -1.265329
| 43> C         2.556315   -0.737517    0.178237
| 44> H         3.244350   -1.067296   -0.595342
| 45> H         2.534626   -1.476586    0.983514
| 46> H         2.885998    0.223935    0.575833
| 47> H         0.359864   -0.624096    1.416870
| 48> *
| 49>
| 50> $new_job
| 51> ! ri-mp2 aug-cc-pvqz aug-cc-pvqz/c tightscf
| 52> %pal nprocs 16 end
| 53> %maxcore 3800
| 54> %base "QZ_S-F_65_AB"
| 55>
| 56> *xyz 0 1
| 57> F        -2.323561   -0.167376    0.506348
| 58> S        -1.182152   -0.837804   -0.434357
| 59> C         0.281204   -0.174732    0.424439
| 60> O         0.279963    1.181575    0.644295
| 61> O         1.280894   -0.621529   -0.430428
| 62> C         0.153250    2.018375   -0.497884
| 63> H         0.342809    3.029284   -0.148124
| 64> H        -0.852269    1.957790   -0.914519
| 65> H         0.879638    1.751083   -1.265329
| 66> C         2.556315   -0.737517    0.178237
| 67> H         3.244350   -1.067296   -0.595342
| 68> H         2.534626   -1.476586    0.983514
| 69> H         2.885998    0.223935    0.575833
| 70> H         0.359864   -0.624096    1.416870
| 71> *
| 72>
| 73>
| 74>
| 75>
| 76>                          ****END OF INPUT****
 Total Charge           Charge          ....    0
 Multiplicity           Mult            ....    1
 Number of Electrons    NEL             ....   66
MP2 TOTAL ENERGY:     -765.539508403 Eh
FINAL SINGLE POINT ENERGY      -765.539508403297
MP2 TOTAL ENERGY:     -765.916577404 Eh
FINAL SINGLE POINT ENERGY      -765.916577404128

CARTESIAN COORDINATES (ANGSTROEM)
---------------------------------
  F     -2.323561   -0.167376    0.506348
  S     -1.182152   -0.837804   -0.434357
  C      0.281204   -0.174732    0.424439
  O      0.279963    1.181575    0.644295
  O      1.280894   -0.621529   -0.430428
  C      0.153250    2.018375   -0.497884
  H      0.342809    3.029284   -0.148124
  H     -0.852269    1.957790   -0.914519
  H      0.879638    1.751083   -1.265329
  C      2.556315   -0.737517    0.178237
  H      3.244350   -1.067296   -0.595342
  H      2.534626   -1.476586    0.983514
  H      2.885998    0.223935    0.575833
  H      0.359864   -0.624096    1.416870

 Multiplicity           Mult            ....    1
 Number of Electrons    NEL             ....   66
 Basis Dimension        Dim             ....  886

ORBITAL ENERGIES
----------------

  NO   OCC          E(Eh)            E(eV)
   0   2.0000     -92.022980     -2504.0726
   1   2.0000     -26.301204      -715.6922
   2   2.0000     -20.589845      -560.2782
   3   2.0000     -20.580891      -560.0345
   4   2.0000     -11.378666      -309.6292
   5   2.0000     -11.291248      -307.2505
   6   2.0000     -11.276116      -306.8387
   7   2.0000      -9.018282      -245.3999
   8   2.0000      -6.699816      -182.3113
   9   2.0000      -6.697626      -182.2517
  10   2.0000      -6.696447      -182.2196
  11   2.0000      -1.600411       -43.5494
  12   2.0000      -1.451350       -39.4933
  13   2.0000      -1.376853       -37.4661
  14   2.0000      -1.039523       -28.2868
  15   2.0000      -0.960347       -26.1324
  16   2.0000      -0.939200       -25.5569
  17   2.0000      -0.830085       -22.5878
  18   2.0000      -0.727974       -19.8092
  19   2.0000      -0.718101       -19.5405
  20   2.0000      -0.712771       -19.3955
  21   2.0000      -0.682046       -18.5594
  22   2.0000      -0.668129       -18.1807
  23   2.0000      -0.635909       -17.3040
  24   2.0000      -0.621637       -16.9156
  25   2.0000      -0.609958       -16.5978
  26   2.0000      -0.584267       -15.8987
  27   2.0000      -0.541522       -14.7356
  28   2.0000      -0.531320       -14.4579
  29   2.0000      -0.482052       -13.1173
  30   2.0000      -0.470860       -12.8128
  31   2.0000      -0.435256       -11.8439
  32   2.0000      -0.373435       -10.1617
  33   0.0000       0.023430         0.6376
  34   0.0000       0.032347         0.8802
  35   0.0000       0.034909         0.9499
  36   0.0000       0.040579         1.1042
  37   0.0000       0.051098         1.3905

MULLIKEN ATOMIC CHARGES
-----------------------
   0 F :   -0.660246
   1 S :    0.422482
   2 C :    0.747050
   3 O :   -0.786163
   4 O :   -0.821833
   5 C :   -0.703711
   6 H :    0.405819
   7 H :    0.325556
   8 H :    0.307238
   9 C :   -0.662230
  10 H :    0.401851
  11 H :    0.290206
  12 H :    0.306199
  13 H :    0.427784
Sum of atomic charges:   -0.0000000

LOEWDIN ATOMIC CHARGES
----------------------
   0 F :    0.082350
   1 S :    0.693312
   2 C :   -1.102659
   3 O :    0.821771
   4 O :    0.759143
   5 C :    0.537947
   6 H :   -0.323535
   7 H :   -0.347113
   8 H :   -0.325847
   9 C :    0.583248
  10 H :   -0.319204
  11 H :   -0.306594
  12 H :   -0.306140
  13 H :   -0.446677

  Mayer bond orders larger than 0.100000
B(  0-F ,  1-S ) :   0.6197 B(  0-F ,  2-C ) :  -0.1325 B(  1-S ,  2-C ) :   0.7644
B(  2-C ,  3-O ) :   0.6871 B(  2-C ,  4-O ) :   0.6163 B(  2-C , 13-H ) :   0.7616
B(  3-O ,  5-C ) :   0.8614 B(  4-O ,  9-C ) :   0.8850 B(  5-C ,  6-H ) :   0.8565
B(  5-C ,  7-H ) :   0.9012 B(  5-C ,  8-H ) :   0.8921 B(  9-C , 10-H ) :   0.8596
B(  9-C , 11-H ) :   0.9165 B(  9-C , 12-H ) :   0.8944

MP2 TOTAL ENERGY:     -766.037950914 Eh
FINAL SINGLE POINT ENERGY      -766.037950913663

DIPOLE MOMENT
-------------
                                X             Y             Z
Electronic contribution:    -10.39086      -3.84126       0.35764
Nuclear contribution   :     11.54661       3.92468      -0.42291
                        -----------------------------------------
Total Dipole Moment    :      1.15576       0.08342      -0.06527
                        -----------------------------------------
Magnitude (a.u.)       :      1.16060
Magnitude (Debye)      :      2.95002

Rotational constants in cm-1:     0.105889     0.053890     0.041274
Rotational constants in MHz :  3174.482173  1615.583165  1237.359034

                             ****ORCA TERMINATED NORMALLY****
TOTAL RUN TIME: 0 days 1 hours 16 minutes 53 seconds 142 msec
