                         Program Version 5.0.4 -  RELEASE  -
|  1> ! ri-mp2 aug-cc-pvdz aug-cc-pvdz/c tightscf
|  2> %pal nprocs 16 end
|  3> %maxcore 3800
|  4> %base "DZ_S-F_39_AB"
|  5> %scf
|  6> STABPerform true
|  7> STABRestartUHFifUnstable true
|  8> end
|  9>
| 10> *xyz 0 1
| 11> F         1.396063    0.823015   -0.000001
| 12> S         0.586480   -0.580106   -0.000004
| 13> C        -0.984731   -0.045439    0.000003
| 14> C        -2.144836    0.266840    0.000007
| 15> H        -3.170842    0.546162    0.000011
| 16> *
| 17>
| 18> $new_job
| 19> ! ri-mp2 aug-cc-pvtz aug-cc-pvtz/c tightscf
| 20> %pal nprocs 16 end
| 21> %maxcore 3800
| 22> %base "TZ_S-F_39_AB"
| 23>
| 24> *xyz 0 1
| 25> F         1.396063    0.823015   -0.000001
| 26> S         0.586480   -0.580106   -0.000004
| 27> C        -0.984731   -0.045439    0.000003
| 28> C        -2.144836    0.266840    0.000007
| 29> H        -3.170842    0.546162    0.000011
| 30> *
| 31>
| 32> $new_job
| 33> ! ri-mp2 aug-cc-pvqz aug-cc-pvqz/c tightscf
| 34> %pal nprocs 16 end
| 35> %maxcore 3800
| 36> %base "QZ_S-F_39_AB"
| 37>
| 38> *xyz 0 1
| 39> F         1.396063    0.823015   -0.000001
| 40> S         0.586480   -0.580106   -0.000004
| 41> C        -0.984731   -0.045439    0.000003
| 42> C        -2.144836    0.266840    0.000007
| 43> H        -3.170842    0.546162    0.000011
| 44> *
| 45>
| 46>
| 47>
| 48>
| 49>                          ****END OF INPUT****
 Total Charge           Charge          ....    0
 Multiplicity           Mult            ....    1
 Number of Electrons    NEL             ....   38
MP2 TOTAL ENERGY:     -573.790258195 Eh
FINAL SINGLE POINT ENERGY      -573.790258194778
MP2 TOTAL ENERGY:     -573.995808500 Eh
FINAL SINGLE POINT ENERGY      -573.995808499504

CARTESIAN COORDINATES (ANGSTROEM)
---------------------------------
  F      1.396063    0.823015   -0.000001
  S      0.586480   -0.580106   -0.000004
  C     -0.984731   -0.045439    0.000003
  C     -2.144836    0.266840    0.000007
  H     -3.170842    0.546162    0.000011

 Multiplicity           Mult            ....    1
 Number of Electrons    NEL             ....   38
 Basis Dimension        Dim             ....  370

ORBITAL ENERGIES
----------------

  NO   OCC          E(Eh)            E(eV)
   0   2.0000     -92.067727     -2505.2902
   1   2.0000     -26.321246      -716.2375
   2   2.0000     -11.275785      -306.8297
   3   2.0000     -11.268058      -306.6194
   4   2.0000      -9.060598      -246.5514
   5   2.0000      -6.742228      -183.4653
   6   2.0000      -6.740620      -183.4216
   7   2.0000      -6.739131      -183.3811
   8   2.0000      -1.621140       -44.1135
   9   2.0000      -1.099600       -29.9216
  10   2.0000      -0.989491       -26.9254
  11   2.0000      -0.771414       -20.9913
  12   2.0000      -0.721973       -19.6459
  13   2.0000      -0.703133       -19.1332
  14   2.0000      -0.693343       -18.8668
  15   2.0000      -0.557456       -15.1691
  16   2.0000      -0.495665       -13.4877
  17   2.0000      -0.441188       -12.0053
  18   2.0000      -0.360796        -9.8178
  19   0.0000       0.023813         0.6480
  20   0.0000       0.044957         1.2234
  21   0.0000       0.050880         1.3845
  22   0.0000       0.065287         1.7766
  23   0.0000       0.066402         1.8069

MULLIKEN ATOMIC CHARGES
-----------------------
   0 F :   -0.575779
   1 S :    0.907339
   2 C :   -0.571829
   3 C :   -0.333006
   4 H :    0.573276
Sum of atomic charges:    0.0000000

LOEWDIN ATOMIC CHARGES
----------------------
   0 F :    0.067572
   1 S :    0.574604
   2 C :   -0.590434
   3 C :    0.411604
   4 H :   -0.463345

  Mayer bond orders larger than 0.100000
B(  0-F ,  1-S ) :   0.6617 B(  1-S ,  2-C ) :   0.9181 B(  2-C ,  3-C ) :   2.5097
B(  3-C ,  4-H ) :   0.7022

MP2 TOTAL ENERGY:     -574.062930800 Eh
FINAL SINGLE POINT ENERGY      -574.062930800055

DIPOLE MOMENT
-------------
                                X             Y             Z
Electronic contribution:      3.55618      -0.01956      -0.00001
Nuclear contribution   :     -4.28425      -0.23331       0.00001
                        -----------------------------------------
Total Dipole Moment    :     -0.72808      -0.25286       0.00000
                        -----------------------------------------
Magnitude (a.u.)       :      0.77074
Magnitude (Debye)      :      1.95906

Rotational constants in cm-1:     0.680910     0.134970     0.112642
Rotational constants in MHz : 20413.177551  4046.296918  3376.923634

                             ****ORCA TERMINATED NORMALLY****
TOTAL RUN TIME: 0 days 0 hours 4 minutes 31 seconds 874 msec
