                         Program Version 5.0.4 -  RELEASE  -
|  1> ! ri-mp2 aug-cc-pvdz aug-cc-pvdz/c tightscf
|  2> %pal nprocs 16 end
|  3> %maxcore 3800
|  4> %base "DZ_B-B_8_AB"
|  5> %scf
|  6> STABPerform true
|  7> STABRestartUHFifUnstable true
|  8> end
|  9>
| 10> *xyz 0 1
| 11> B         1.670752   -0.000001    0.000004
| 12> B        -0.012891   -0.000000    0.000000
| 13> F        -0.714921    1.121951   -0.000036
| 14> F        -0.714923   -1.121950    0.000033
| 15> H         2.289650   -0.000012   -1.016368
| 16> H         2.289641    0.000009    1.016381
| 17> *
| 18>
| 19> $new_job
| 20> ! ri-mp2 aug-cc-pvtz aug-cc-pvtz/c tightscf
| 21> %pal nprocs 16 end
| 22> %maxcore 3800
| 23> %base "TZ_B-B_8_AB"
| 24>
| 25> *xyz 0 1
| 26> B         1.670752   -0.000001    0.000004
| 27> B        -0.012891   -0.000000    0.000000
| 28> F        -0.714921    1.121951   -0.000036
| 29> F        -0.714923   -1.121950    0.000033
| 30> H         2.289650   -0.000012   -1.016368
| 31> H         2.289641    0.000009    1.016381
| 32> *
| 33>
| 34> $new_job
| 35> ! ri-mp2 aug-cc-pvqz aug-cc-pvqz/c tightscf
| 36> %pal nprocs 16 end
| 37> %maxcore 3800
| 38> %base "QZ_B-B_8_AB"
| 39>
| 40> *xyz 0 1
| 41> B         1.670752   -0.000001    0.000004
| 42> B        -0.012891   -0.000000    0.000000
| 43> F        -0.714921    1.121951   -0.000036
| 44> F        -0.714923   -1.121950    0.000033
| 45> H         2.289650   -0.000012   -1.016368
| 46> H         2.289641    0.000009    1.016381
| 47> *
| 48>
| 49>
| 50>
| 51>
| 52>                          ****END OF INPUT****
 Total Charge           Charge          ....    0
 Multiplicity           Mult            ....    1
 Number of Electrons    NEL             ....   30
MP2 TOTAL ENERGY:     -250.084661095 Eh
FINAL SINGLE POINT ENERGY      -250.084661094667
MP2 TOTAL ENERGY:     -250.304474890 Eh
FINAL SINGLE POINT ENERGY      -250.304474889689

CARTESIAN COORDINATES (ANGSTROEM)
---------------------------------
  B      1.670752   -0.000001    0.000004
  B     -0.012891   -0.000000    0.000000
  F     -0.714921    1.121951   -0.000036
  F     -0.714923   -1.121950    0.000033
  H      2.289650   -0.000012   -1.016368
  H      2.289641    0.000009    1.016381

 Multiplicity           Mult            ....    1
 Number of Electrons    NEL             ....   30
 Basis Dimension        Dim             ....  412

ORBITAL ENERGIES
----------------

  NO   OCC          E(Eh)            E(eV)
   0   2.0000     -26.310806      -715.9534
   1   2.0000     -26.310790      -715.9530
   2   2.0000      -7.698468      -209.4860
   3   2.0000      -7.619007      -207.3237
   4   2.0000      -1.643801       -44.7301
   5   2.0000      -1.610759       -43.8310
   6   2.0000      -0.825221       -22.4554
   7   2.0000      -0.760378       -20.6909
   8   2.0000      -0.757877       -20.6229
   9   2.0000      -0.711859       -19.3707
  10   2.0000      -0.679344       -18.4859
  11   2.0000      -0.658257       -17.9121
  12   2.0000      -0.650478       -17.7004
  13   2.0000      -0.515037       -14.0149
  14   2.0000      -0.479536       -13.0488
  15   0.0000       0.023915         0.6508
  16   0.0000       0.026248         0.7142
  17   0.0000       0.032619         0.8876
  18   0.0000       0.033035         0.8989
  19   0.0000       0.051837         1.4106

MULLIKEN ATOMIC CHARGES
-----------------------
   0 B :    0.295922
   1 B :    1.498423
   2 F :   -0.737530
   3 F :   -0.737530
   4 H :   -0.159643
   5 H :   -0.159642
Sum of atomic charges:    0.0000000

LOEWDIN ATOMIC CHARGES
----------------------
   0 B :    0.475709
   1 B :   -1.562598
   2 F :    0.776752
   3 F :    0.776751
   4 H :   -0.233307
   5 H :   -0.233307

  Mayer bond orders larger than 0.100000
B(  0-B ,  1-B ) :   0.9998 B(  0-B ,  4-H ) :   0.9551 B(  0-B ,  5-H ) :   0.9551
B(  1-B ,  2-F ) :   0.4142 B(  1-B ,  3-F ) :   0.4142

MP2 TOTAL ENERGY:     -250.374164037 Eh
FINAL SINGLE POINT ENERGY      -250.374164036656

DIPOLE MOMENT
-------------
                                X             Y             Z
Electronic contribution:     -3.68373       0.00000      -0.00001
Nuclear contribution   :      4.25591      -0.00000       0.00001
                        -----------------------------------------
Total Dipole Moment    :      0.57217      -0.00000       0.00000
                        -----------------------------------------
Magnitude (a.u.)       :      0.57217
Magnitude (Debye)      :      1.45435

Rotational constants in cm-1:     0.337755     0.272331     0.156601
Rotational constants in MHz : 10125.633756  8164.280407  4694.781895

                             ****ORCA TERMINATED NORMALLY****
TOTAL RUN TIME: 0 days 0 hours 6 minutes 21 seconds 40 msec
