                         Program Version 5.0.4 -  RELEASE  -
|  1> ! ri-mp2 aug-cc-pvdz aug-cc-pvdz/c tightscf
|  2> %pal nprocs 16 end
|  3> %maxcore 3800
|  4> %base "DZ_S-S_13_B"
|  5> %scf
|  6> STABPerform true
|  7> STABRestartUHFifUnstable true
|  8> end
|  9>
| 10> *xyz 0 2
| 11> S         1.030008   -1.222161   -0.000154
| 12> C         0.829521    0.515459    0.000014
| 13> O         1.785875    1.239115    0.000039
| 14> C        -0.575512    1.075469    0.000134
| 15> Cl        -1.816582   -0.193304    0.000050
| 16> H        -0.704678    1.691224   -0.886206
| 17> H        -0.704603    1.691030    0.886620
| 18> *
| 19>
| 20> $new_job
| 21> ! ri-mp2 aug-cc-pvtz aug-cc-pvtz/c tightscf
| 22> %pal nprocs 16 end
| 23> %maxcore 3800
| 24> %base "TZ_S-S_13_B"
| 25>
| 26> *xyz 0 2
| 27> S         1.030008   -1.222161   -0.000154
| 28> C         0.829521    0.515459    0.000014
| 29> O         1.785875    1.239115    0.000039
| 30> C        -0.575512    1.075469    0.000134
| 31> Cl        -1.816582   -0.193304    0.000050
| 32> H        -0.704678    1.691224   -0.886206
| 33> H        -0.704603    1.691030    0.886620
| 34> *
| 35>
| 36> $new_job
| 37> ! ri-mp2 aug-cc-pvqz aug-cc-pvqz/c tightscf
| 38> %pal nprocs 16 end
| 39> %maxcore 3800
| 40> %base "QZ_S-S_13_B"
| 41>
| 42> *xyz 0 2
| 43> S         1.030008   -1.222161   -0.000154
| 44> C         0.829521    0.515459    0.000014
| 45> O         1.785875    1.239115    0.000039
| 46> C        -0.575512    1.075469    0.000134
| 47> Cl        -1.816582   -0.193304    0.000050
| 48> H        -0.704678    1.691224   -0.886206
| 49> H        -0.704603    1.691030    0.886620
| 50> *
| 51>
| 52>
| 53>
| 54>
| 55>                          ****END OF INPUT****
 Total Charge           Charge          ....    0
 Multiplicity           Mult            ....    2
 Number of Electrons    NEL             ....   55
MP2 TOTAL ENERGY:    -1009.526545500 Eh
FINAL SINGLE POINT ENERGY     -1009.526545499887
MP2 TOTAL ENERGY:    -1009.762320305 Eh
FINAL SINGLE POINT ENERGY     -1009.762320304696

CARTESIAN COORDINATES (ANGSTROEM)
---------------------------------
  S      1.030008   -1.222161   -0.000154
  C      0.829521    0.515459    0.000014
  O      1.785875    1.239115    0.000039
  C     -0.575512    1.075469    0.000134
  Cl    -1.816582   -0.193304    0.000050
  H     -0.704678    1.691224   -0.886206
  H     -0.704603    1.691030    0.886620

 Multiplicity           Mult            ....    2
 Number of Electrons    NEL             ....   55
 Basis Dimension        Dim             ....  500

ORBITAL ENERGIES
----------------
                 SPIN UP ORBITALS
  NO   OCC          E(Eh)            E(eV)
   0   1.0000    -104.857519     -2853.3182
   1   1.0000     -92.009754     -2503.7127
   2   1.0000     -20.577154      -559.9328
   3   1.0000     -11.388496      -309.8967
   4   1.0000     -11.330357      -308.3147
   5   1.0000     -10.583387      -287.9886
   6   1.0000      -9.012728      -245.2488
   7   1.0000      -8.050331      -219.0606
   8   1.0000      -8.049298      -219.0325
   9   1.0000      -8.048506      -219.0110
  10   1.0000      -6.708892      -182.5582
  11   1.0000      -6.689604      -182.0334
  12   1.0000      -6.688542      -182.0045
  13   1.0000      -1.433980       -39.0206
  14   1.0000      -1.179262       -32.0894
  15   1.0000      -1.054196       -28.6861
  16   1.0000      -0.977024       -26.5862
  17   1.0000      -0.764189       -20.7946
  18   1.0000      -0.685143       -18.6437
  19   1.0000      -0.678662       -18.4673
  20   1.0000      -0.651167       -17.7191
  21   1.0000      -0.573347       -15.6016
  22   1.0000      -0.563920       -15.3450
  23   1.0000      -0.506538       -13.7836
  24   1.0000      -0.469601       -12.7785
  25   1.0000      -0.468209       -12.7406
  26   1.0000      -0.429306       -11.6820
  27   1.0000      -0.414505       -11.2792
  28   0.0000       0.026436         0.7194
  29   0.0000       0.037450         1.0191
  30   0.0000       0.045408         1.2356
  31   0.0000       0.054983         1.4962
  32   0.0000       0.066648         1.8136

                 SPIN DOWN ORBITALS
  NO   OCC          E(Eh)            E(eV)
   0   1.0000    -104.857043     -2853.3052
   1   1.0000     -92.000102     -2503.4500
   2   1.0000     -20.576086      -559.9038
   3   1.0000     -11.389429      -309.9221
   4   1.0000     -11.330233      -308.3113
   5   1.0000     -10.582829      -287.9734
   6   1.0000      -9.002039      -244.9579
   7   1.0000      -8.050013      -219.0520
   8   1.0000      -8.048196      -219.0025
   9   1.0000      -8.047653      -218.9878
  10   1.0000      -6.684573      -181.8965
  11   1.0000      -6.682537      -181.8411
  12   1.0000      -6.665799      -181.3856
  13   1.0000      -1.430469       -38.9250
  14   1.0000      -1.175146       -31.9773
  15   1.0000      -1.010253       -27.4904
  16   1.0000      -0.948560       -25.8116
  17   1.0000      -0.745703       -20.2916
  18   1.0000      -0.678619       -18.4662
  19   1.0000      -0.673669       -18.3315
  20   1.0000      -0.633835       -17.2475
  21   1.0000      -0.568069       -15.4579
  22   1.0000      -0.563358       -15.3297
  23   1.0000      -0.484871       -13.1940
  24   1.0000      -0.467970       -12.7341
  25   1.0000      -0.429881       -11.6977
  26   1.0000      -0.395007       -10.7487
  27   0.0000      -0.001989        -0.0541
  28   0.0000       0.026792         0.7290
  29   0.0000       0.037417         1.0182
  30   0.0000       0.046142         1.2556
  31   0.0000       0.058563         1.5936

MULLIKEN ATOMIC CHARGES AND SPIN POPULATIONS
--------------------------------------------
   0 S :    0.142591    1.106364
   1 C :    0.458898   -0.122344
   2 O :   -0.658831    0.003470
   3 C :   -0.363319    0.004486
   4 Cl:   -0.243155    0.009547
   5 H :    0.331910   -0.000762
   6 H :    0.331908   -0.000762
Sum of atomic charges         :   -0.0000000

LOEWDIN ATOMIC CHARGES AND SPIN POPULATIONS
-------------------------------------------
   0 S :    0.959208    0.728652
   1 C :   -1.474581    0.183411
   2 O :    0.569347    0.024257
   3 C :   -0.339919    0.015933
   4 Cl:    1.131356    0.046076
   5 H :   -0.422706    0.000836
   6 H :   -0.422705    0.000836

  Mayer bond orders larger than 0.100000
B(  0-S ,  1-C ) :   0.9944 B(  1-C ,  2-O ) :   1.5741 B(  1-C ,  3-C ) :   0.9819
B(  3-C ,  4-Cl) :   0.9013 B(  3-C ,  5-H ) :   0.8352 B(  3-C ,  6-H ) :   0.8352

MP2 TOTAL ENERGY:    -1009.840727444 Eh
FINAL SINGLE POINT ENERGY     -1009.840727444131

DIPOLE MOMENT
-------------
                                X             Y             Z
Electronic contribution:     -1.78580      -3.41550      -0.00028
Nuclear contribution   :      1.11826       3.50384       0.00033
                        -----------------------------------------
Total Dipole Moment    :     -0.66754       0.08834       0.00005
                        -----------------------------------------
Magnitude (a.u.)       :      0.67336
Magnitude (Debye)      :      1.71154

Rotational constants in cm-1:     0.171978     0.077716     0.054071
Rotational constants in MHz :  5155.782688  2329.877520  1621.020309

                             ****ORCA TERMINATED NORMALLY****
TOTAL RUN TIME: 0 days 0 hours 29 minutes 39 seconds 186 msec
