                         Program Version 5.0.4 -  RELEASE  -
|  1> ! ri-mp2 aug-cc-pvdz aug-cc-pvdz/c tightscf
|  2> %pal nprocs 16 end
|  3> %maxcore 3800
|  4> %base "DZ_Si-S_44_AB"
|  5>
|  6> *xyz 0 1
|  7> C         2.884845    0.973409    0.000001
|  8> S         2.190262   -0.710006    0.000001
|  9> H         2.585284    1.518812   -0.890706
| 10> H         2.585283    1.518813    0.890707
| 11> Si         0.141872   -0.257883    0.000000
| 12> C        -0.539493    1.357850   -0.000001
| 13> C        -1.929719    1.433019   -0.000001
| 14> C        -1.129204   -1.466734    0.000000
| 15> C        -2.430391   -0.982209   -0.000001
| 16> C        -2.811746    0.358507   -0.000001
| 17> H        -3.870673    0.578317   -0.000002
| 18> H        -2.374561    2.423537   -0.000002
| 19> H         0.023080    2.280684   -0.000001
| 20> H        -0.975628   -2.536749    0.000001
| 21> H        -3.234164   -1.712222   -0.000001
| 22> H         3.965227    0.856217    0.000001
| 23> *
| 24>
| 25> $new_job
| 26> ! ri-mp2 aug-cc-pvtz aug-cc-pvtz/c tightscf
| 27> %pal nprocs 16 end
| 28> %maxcore 3800
| 29> %base "TZ_Si-S_44_AB"
| 30>
| 31> *xyz 0 1
| 32> C         2.884845    0.973409    0.000001
| 33> S         2.190262   -0.710006    0.000001
| 34> H         2.585284    1.518812   -0.890706
| 35> H         2.585283    1.518813    0.890707
| 36> Si         0.141872   -0.257883    0.000000
| 37> C        -0.539493    1.357850   -0.000001
| 38> C        -1.929719    1.433019   -0.000001
| 39> C        -1.129204   -1.466734    0.000000
| 40> C        -2.430391   -0.982209   -0.000001
| 41> C        -2.811746    0.358507   -0.000001
| 42> H        -3.870673    0.578317   -0.000002
| 43> H        -2.374561    2.423537   -0.000002
| 44> H         0.023080    2.280684   -0.000001
| 45> H        -0.975628   -2.536749    0.000001
| 46> H        -3.234164   -1.712222   -0.000001
| 47> H         3.965227    0.856217    0.000001
| 48> *
| 49>
| 50> $new_job
| 51> ! ri-mp2 aug-cc-pvqz aug-cc-pvqz/c tightscf
| 52> %pal nprocs 16 end
| 53> %maxcore 3800
| 54> %base "QZ_Si-S_44_AB"
| 55>
| 56> *xyz 0 1
| 57> C         2.884845    0.973409    0.000001
| 58> S         2.190262   -0.710006    0.000001
| 59> H         2.585284    1.518812   -0.890706
| 60> H         2.585283    1.518813    0.890707
| 61> Si         0.141872   -0.257883    0.000000
| 62> C        -0.539493    1.357850   -0.000001
| 63> C        -1.929719    1.433019   -0.000001
| 64> C        -1.129204   -1.466734    0.000000
| 65> C        -2.430391   -0.982209   -0.000001
| 66> C        -2.811746    0.358507   -0.000001
| 67> H        -3.870673    0.578317   -0.000002
| 68> H        -2.374561    2.423537   -0.000002
| 69> H         0.023080    2.280684   -0.000001
| 70> H        -0.975628   -2.536749    0.000001
| 71> H        -3.234164   -1.712222   -0.000001
| 72> H         3.965227    0.856217    0.000001
| 73> *
| 74>
| 75>
| 76>
| 77>
| 78>                          ****END OF INPUT****
 Total Charge           Charge          ....    0
 Multiplicity           Mult            ....    1
 Number of Electrons    NEL             ....   74
MP2 TOTAL ENERGY:     -919.409022978 Eh
FINAL SINGLE POINT ENERGY      -919.409022977833
MP2 TOTAL ENERGY:     -919.705234448 Eh
FINAL SINGLE POINT ENERGY      -919.705234447947

CARTESIAN COORDINATES (ANGSTROEM)
---------------------------------
  C      2.884845    0.973409    0.000001
  S      2.190262   -0.710006    0.000001
  H      2.585284    1.518812   -0.890706
  H      2.585283    1.518813    0.890707
  Si     0.141872   -0.257883    0.000000
  C     -0.539493    1.357850   -0.000001
  C     -1.929719    1.433019   -0.000001
  C     -1.129204   -1.466734    0.000000
  C     -2.430391   -0.982209   -0.000001
  C     -2.811746    0.358507   -0.000001
  H     -3.870673    0.578317   -0.000002
  H     -2.374561    2.423537   -0.000002
  H      0.023080    2.280684   -0.000001
  H     -0.975628   -2.536749    0.000001
  H     -3.234164   -1.712222   -0.000001
  H      3.965227    0.856217    0.000001

 Multiplicity           Mult            ....    1
 Number of Electrons    NEL             ....   74
 Basis Dimension        Dim             .... 1016

ORBITAL ENERGIES
----------------

  NO   OCC          E(Eh)            E(eV)
   0   2.0000     -91.962300     -2502.4214
   1   2.0000     -68.780793     -1871.6205
   2   2.0000     -11.273860      -306.7773
   3   2.0000     -11.246361      -306.0291
   4   2.0000     -11.246027      -306.0200
   5   2.0000     -11.211421      -305.0783
   6   2.0000     -11.209957      -305.0384
   7   2.0000     -11.207743      -304.9782
   8   2.0000      -8.966074      -243.9793
   9   2.0000      -6.647511      -180.8880
  10   2.0000      -6.646801      -180.8687
  11   2.0000      -6.646034      -180.8478
  12   2.0000      -6.133545      -166.9023
  13   2.0000      -4.240394      -115.3870
  14   2.0000      -4.238930      -115.3471
  15   2.0000      -4.238246      -115.3285
  16   2.0000      -1.108672       -30.1685
  17   2.0000      -1.053666       -28.6717
  18   2.0000      -1.011310       -27.5192
  19   2.0000      -0.929570       -25.2949
  20   2.0000      -0.877651       -23.8821
  21   2.0000      -0.798906       -21.7393
  22   2.0000      -0.731101       -19.8943
  23   2.0000      -0.676055       -18.3964
  24   2.0000      -0.621151       -16.9024
  25   2.0000      -0.609535       -16.5863
  26   2.0000      -0.592951       -16.1350
  27   2.0000      -0.583201       -15.8697
  28   2.0000      -0.573447       -15.6043
  29   2.0000      -0.526504       -14.3269
  30   2.0000      -0.504069       -13.7164
  31   2.0000      -0.476132       -12.9562
  32   2.0000      -0.448262       -12.1978
  33   2.0000      -0.435596       -11.8532
  34   2.0000      -0.393322       -10.7028
  35   2.0000      -0.351058        -9.5528
  36   2.0000      -0.273377        -7.4390
  37   0.0000       0.021267         0.5787
  38   0.0000       0.028270         0.7693
  39   0.0000       0.029812         0.8112
  40   0.0000       0.038717         1.0535
  41   0.0000       0.039562         1.0765

MULLIKEN ATOMIC CHARGES
-----------------------
   0 C :   -0.988303
   1 S :   -0.176213
   2 H :    0.267063
   3 H :    0.267063
   4 Si:    1.436204
   5 C :   -0.952251
   6 C :   -0.327413
   7 C :   -0.859628
   8 C :   -0.340985
   9 C :   -0.295991
  10 H :    0.299149
  11 H :    0.279715
  12 H :    0.334854
  13 H :    0.304079
  14 H :    0.298194
  15 H :    0.454462
Sum of atomic charges:   -0.0000000

LOEWDIN ATOMIC CHARGES
----------------------
   0 C :    0.474578
   1 S :    1.200240
   2 H :   -0.373704
   3 H :   -0.373704
   4 Si:   -0.029014
   5 C :    0.310484
   6 C :    0.221988
   7 C :    0.302084
   8 C :    0.216247
   9 C :    0.289816
  10 H :   -0.351219
  11 H :   -0.329567
  12 H :   -0.422287
  13 H :   -0.419008
  14 H :   -0.330110
  15 H :   -0.386825

  Mayer bond orders larger than 0.100000
B(  0-C ,  1-S ) :   1.0125 B(  0-C ,  2-H ) :   0.9084 B(  0-C ,  3-H ) :   0.9084
B(  0-C , 15-H ) :   0.7786 B(  1-S ,  4-Si) :   1.1269 B(  4-Si,  5-C ) :   0.9937
B(  4-Si,  7-C ) :   1.0666 B(  5-C ,  6-C ) :   1.2868 B(  5-C ,  9-C ) :  -0.1203
B(  5-C , 11-H ) :  -0.1231 B(  5-C , 12-H ) :   0.9177 B(  6-C ,  9-C ) :   1.2300
B(  6-C , 11-H ) :   1.0235 B(  7-C ,  8-C ) :   1.4452 B(  7-C , 13-H ) :   0.9162
B(  7-C , 14-H ) :  -0.1341 B(  8-C ,  9-C ) :   1.2190 B(  8-C , 14-H ) :   0.9895
B(  9-C , 10-H ) :   0.9854

MP2 TOTAL ENERGY:     -919.798779077 Eh
FINAL SINGLE POINT ENERGY      -919.798779077021

DIPOLE MOMENT
-------------
                                X             Y             Z
Electronic contribution:      1.92011      -4.40735       0.00000
Nuclear contribution   :     -1.35964       4.91901      -0.00000
                        -----------------------------------------
Total Dipole Moment    :      0.56047       0.51166      -0.00000
                        -----------------------------------------
Magnitude (a.u.)       :      0.75889
Magnitude (Debye)      :      1.92895

Rotational constants in cm-1:     0.118187     0.030803     0.024548
Rotational constants in MHz :  3543.142460   923.441193   735.937096

                             ****ORCA TERMINATED NORMALLY****
TOTAL RUN TIME: 0 days 0 hours 26 minutes 38 seconds 419 msec
