                         Program Version 5.0.4 -  RELEASE  -
|  1> ! ri-mp2 aug-cc-pvdz aug-cc-pvdz/c tightscf
|  2> %pal nprocs 16 end
|  3> %maxcore 3800
|  4> %base "DZ_B-Cl_36_A"
|  5> %scf
|  6> STABPerform true
|  7> STABRestartUHFifUnstable true
|  8> end
|  9>
| 10> *xyz 0 2
| 11> Cl        -2.567031   -0.442224   -0.044395
| 12> B        -0.925900   -0.766782   -0.264963
| 13> S         0.425051    0.474337    0.059164
| 14> O         0.637191    0.414529    1.474814
| 15> O         1.688656   -0.124325   -0.673635
| 16> C         2.342301   -1.260986   -0.086544
| 17> H         3.197692   -1.460694   -0.723730
| 18> H         1.673039   -2.121823   -0.083704
| 19> H         2.662001   -1.027516    0.925437
| 20> O         0.159363    1.702079   -0.609408
| 21> *
| 22>
| 23> $new_job
| 24> ! ri-mp2 aug-cc-pvtz aug-cc-pvtz/c tightscf
| 25> %pal nprocs 16 end
| 26> %maxcore 3800
| 27> %base "TZ_B-Cl_36_A"
| 28>
| 29> *xyz 0 2
| 30> Cl        -2.567031   -0.442224   -0.044395
| 31> B        -0.925900   -0.766782   -0.264963
| 32> S         0.425051    0.474337    0.059164
| 33> O         0.637191    0.414529    1.474814
| 34> O         1.688656   -0.124325   -0.673635
| 35> C         2.342301   -1.260986   -0.086544
| 36> H         3.197692   -1.460694   -0.723730
| 37> H         1.673039   -2.121823   -0.083704
| 38> H         2.662001   -1.027516    0.925437
| 39> O         0.159363    1.702079   -0.609408
| 40> *
| 41>
| 42> $new_job
| 43> ! ri-mp2 aug-cc-pvqz aug-cc-pvqz/c tightscf
| 44> %pal nprocs 16 end
| 45> %maxcore 3800
| 46> %base "QZ_B-Cl_36_A"
| 47>
| 48> *xyz 0 2
| 49> Cl        -2.567031   -0.442224   -0.044395
| 50> B        -0.925900   -0.766782   -0.264963
| 51> S         0.425051    0.474337    0.059164
| 52> O         0.637191    0.414529    1.474814
| 53> O         1.688656   -0.124325   -0.673635
| 54> C         2.342301   -1.260986   -0.086544
| 55> H         3.197692   -1.460694   -0.723730
| 56> H         1.673039   -2.121823   -0.083704
| 57> H         2.662001   -1.027516    0.925437
| 58> O         0.159363    1.702079   -0.609408
| 59> *
| 60>
| 61>
| 62>
| 63>
| 64>                          ****END OF INPUT****
 Total Charge           Charge          ....    0
 Multiplicity           Mult            ....    2
 Number of Electrons    NEL             ....   71
MP2 TOTAL ENERGY:    -1146.930454577 Eh
FINAL SINGLE POINT ENERGY     -1146.930454577255
MP2 TOTAL ENERGY:    -1147.335234619 Eh
FINAL SINGLE POINT ENERGY     -1147.335234619239

CARTESIAN COORDINATES (ANGSTROEM)
---------------------------------
  Cl    -2.567031   -0.442224   -0.044395
  B     -0.925900   -0.766782   -0.264963
  S      0.425051    0.474337    0.059164
  O      0.637191    0.414529    1.474814
  O      1.688656   -0.124325   -0.673635
  C      2.342301   -1.260986   -0.086544
  H      3.197692   -1.460694   -0.723730
  H      1.673039   -2.121823   -0.083704
  H      2.662001   -1.027516    0.925437
  O      0.159363    1.702079   -0.609408

 Multiplicity           Mult            ....    2
 Number of Electrons    NEL             ....   71
 Basis Dimension        Dim             ....  706

ORBITAL ENERGIES
----------------
                 SPIN UP ORBITALS
  NO   OCC          E(Eh)            E(eV)
   0   1.0000    -104.889306     -2854.1831
   1   1.0000     -92.208021     -2509.1078
   2   1.0000     -20.630855      -561.3941
   3   1.0000     -20.568103      -559.6865
   4   1.0000     -20.564093      -559.5774
   5   1.0000     -11.313636      -307.8597
   6   1.0000     -10.616651      -288.8938
   7   1.0000      -9.174526      -249.6516
   8   1.0000      -8.084304      -219.9851
   9   1.0000      -8.082262      -219.9295
  10   1.0000      -8.081655      -219.9130
  11   1.0000      -7.746081      -210.7816
  12   1.0000      -6.860810      -186.6921
  13   1.0000      -6.859507      -186.6567
  14   1.0000      -6.858913      -186.6405
  15   1.0000      -1.523182       -41.4479
  16   1.0000      -1.406508       -38.2730
  17   1.0000      -1.373298       -37.3693
  18   1.0000      -1.175584       -31.9893
  19   1.0000      -1.007546       -27.4167
  20   1.0000      -0.902982       -24.5714
  21   1.0000      -0.782872       -21.3030
  22   1.0000      -0.728043       -19.8111
  23   1.0000      -0.700306       -19.0563
  24   1.0000      -0.683150       -18.5894
  25   1.0000      -0.650737       -17.7075
  26   1.0000      -0.638394       -17.3716
  27   1.0000      -0.579433       -15.7672
  28   1.0000      -0.557510       -15.1706
  29   1.0000      -0.543488       -14.7891
  30   1.0000      -0.538936       -14.6652
  31   1.0000      -0.518311       -14.1040
  32   1.0000      -0.515456       -14.0263
  33   1.0000      -0.505150       -13.7458
  34   1.0000      -0.494404       -13.4534
  35   1.0000      -0.387504       -10.5445
  36   0.0000       0.016026         0.4361
  37   0.0000       0.019925         0.5422
  38   0.0000       0.030517         0.8304
  39   0.0000       0.037535         1.0214
  40   0.0000       0.039629         1.0784

                 SPIN DOWN ORBITALS
  NO   OCC          E(Eh)            E(eV)
   0   1.0000    -104.888624     -2854.1646
   1   1.0000     -92.207415     -2509.0913
   2   1.0000     -20.631372      -561.4082
   3   1.0000     -20.567493      -559.6699
   4   1.0000     -20.562326      -559.5293
   5   1.0000     -11.313450      -307.8546
   6   1.0000     -10.615870      -288.8725
   7   1.0000      -9.173631      -249.6272
   8   1.0000      -8.082973      -219.9489
   9   1.0000      -8.082223      -219.9285
  10   1.0000      -8.079628      -219.8578
  11   1.0000      -7.724873      -210.2045
  12   1.0000      -6.860063      -186.6718
  13   1.0000      -6.858717      -186.6352
  14   1.0000      -6.857842      -186.6114
  15   1.0000      -1.521653       -41.4063
  16   1.0000      -1.405692       -38.2508
  17   1.0000      -1.369788       -37.2738
  18   1.0000      -1.167536       -31.7703
  19   1.0000      -1.006312       -27.3831
  20   1.0000      -0.888931       -24.1890
  21   1.0000      -0.774249       -21.0684
  22   1.0000      -0.723540       -19.6885
  23   1.0000      -0.699337       -19.0299
  24   1.0000      -0.672161       -18.2904
  25   1.0000      -0.637411       -17.3448
  26   1.0000      -0.635186       -17.2843
  27   1.0000      -0.575753       -15.6670
  28   1.0000      -0.545612       -14.8468
  29   1.0000      -0.538736       -14.6598
  30   1.0000      -0.528771       -14.3886
  31   1.0000      -0.514188       -13.9918
  32   1.0000      -0.509976       -13.8771
  33   1.0000      -0.494015       -13.4428
  34   1.0000      -0.474411       -12.9094
  35   0.0000       0.012288         0.3344
  36   0.0000       0.028213         0.7677
  37   0.0000       0.031440         0.8555
  38   0.0000       0.038478         1.0470
  39   0.0000       0.041231         1.1220

MULLIKEN ATOMIC CHARGES AND SPIN POPULATIONS
--------------------------------------------
   0 Cl:   -0.140177    0.015066
   1 B :    0.254710    0.965664
   2 S :    2.680157    0.009450
   3 O :   -1.154151    0.011968
   4 O :   -0.792480   -0.023234
   5 C :   -0.678406   -0.005723
   6 H :    0.442418    0.001723
   7 H :    0.309922   -0.008287
   8 H :    0.305139   -0.001473
   9 O :   -1.227132    0.034846
Sum of atomic charges         :    0.0000000

LOEWDIN ATOMIC CHARGES AND SPIN POPULATIONS
-------------------------------------------
   0 Cl:    1.245321    0.167201
   1 B :   -1.251118    0.585618
   2 S :   -0.657459    0.142574
   3 O :    0.295770    0.018354
   4 O :    0.578735    0.004554
   5 C :    0.524958    0.021072
   6 H :   -0.322491    0.001258
   7 H :   -0.335133    0.023760
   8 H :   -0.340438    0.001215
   9 O :    0.261855    0.034393

  Mayer bond orders larger than 0.100000
B(  0-Cl,  1-B ) :   1.2268 B(  1-B ,  2-S ) :   0.8586 B(  2-S ,  3-O ) :   1.1953
B(  2-S ,  4-O ) :   0.7048 B(  2-S ,  9-O ) :   1.0488 B(  4-O ,  5-C ) :   0.8550
B(  5-C ,  6-H ) :   0.8103 B(  5-C ,  7-H ) :   0.8865 B(  5-C ,  8-H ) :   0.8905

MP2 TOTAL ENERGY:    -1147.468562653 Eh
FINAL SINGLE POINT ENERGY     -1147.468562653156

DIPOLE MOMENT
-------------
                                X             Y             Z
Electronic contribution:    -11.21877       1.42759      -0.68158
Nuclear contribution   :     11.29856      -3.15326       0.37376
                        -----------------------------------------
Total Dipole Moment    :      0.07978      -1.72566      -0.30781
                        -----------------------------------------
Magnitude (a.u.)       :      1.75472
Magnitude (Debye)      :      4.46013

Rotational constants in cm-1:     0.115118     0.038539     0.034902
Rotational constants in MHz :  3451.163362  1155.377001  1046.343943

                             ****ORCA TERMINATED NORMALLY****
TOTAL RUN TIME: 0 days 1 hours 41 minutes 32 seconds 627 msec
