                         Program Version 5.0.4 -  RELEASE  -
|  1> ! ri-mp2 aug-cc-pvdz aug-cc-pvdz/c tightscf
|  2> %pal nprocs 16 end
|  3> %maxcore 3800
|  4> %base "DZ_B-Cl_23_A"
|  5> %scf
|  6> STABPerform true
|  7> STABRestartUHFifUnstable true
|  8> end
|  9>
| 10> *xyz 0 2
| 11> Cl        -2.341139   -0.021478   -0.049469
| 12> B        -0.836681   -0.451953   -0.679850
| 13> S         0.777325    0.059740    0.099654
| 14> O         0.814444    1.467658    0.294465
| 15> O         0.987681   -0.871487    1.167847
| 16> O         1.866608   -0.243953   -1.017381
| 17> H         2.195698   -1.148694   -0.913700
| 18> *
| 19>
| 20> $new_job
| 21> ! ri-mp2 aug-cc-pvtz aug-cc-pvtz/c tightscf
| 22> %pal nprocs 16 end
| 23> %maxcore 3800
| 24> %base "TZ_B-Cl_23_A"
| 25>
| 26> *xyz 0 2
| 27> Cl        -2.341139   -0.021478   -0.049469
| 28> B        -0.836681   -0.451953   -0.679850
| 29> S         0.777325    0.059740    0.099654
| 30> O         0.814444    1.467658    0.294465
| 31> O         0.987681   -0.871487    1.167847
| 32> O         1.866608   -0.243953   -1.017381
| 33> H         2.195698   -1.148694   -0.913700
| 34> *
| 35>
| 36> $new_job
| 37> ! ri-mp2 aug-cc-pvqz aug-cc-pvqz/c tightscf
| 38> %pal nprocs 16 end
| 39> %maxcore 3800
| 40> %base "QZ_B-Cl_23_A"
| 41>
| 42> *xyz 0 2
| 43> Cl        -2.341139   -0.021478   -0.049469
| 44> B        -0.836681   -0.451953   -0.679850
| 45> S         0.777325    0.059740    0.099654
| 46> O         0.814444    1.467658    0.294465
| 47> O         0.987681   -0.871487    1.167847
| 48> O         1.866608   -0.243953   -1.017381
| 49> H         2.195698   -1.148694   -0.913700
| 50> *
| 51>
| 52>
| 53>
| 54>
| 55>                          ****END OF INPUT****
 Total Charge           Charge          ....    0
 Multiplicity           Mult            ....    2
 Number of Electrons    NEL             ....   63
MP2 TOTAL ENERGY:    -1107.760381053 Eh
FINAL SINGLE POINT ENERGY     -1107.760381053399
MP2 TOTAL ENERGY:    -1108.126051464 Eh
FINAL SINGLE POINT ENERGY     -1108.126051464024

CARTESIAN COORDINATES (ANGSTROEM)
---------------------------------
  Cl    -2.341139   -0.021478   -0.049469
  B     -0.836681   -0.451953   -0.679850
  S      0.777325    0.059740    0.099654
  O      0.814444    1.467658    0.294465
  O      0.987681   -0.871487    1.167847
  O      1.866608   -0.243953   -1.017381
  H      2.195698   -1.148694   -0.913700

 Multiplicity           Mult            ....    2
 Number of Electrons    NEL             ....   63
 Basis Dimension        Dim             ....  534

ORBITAL ENERGIES
----------------
                 SPIN UP ORBITALS
  NO   OCC          E(Eh)            E(eV)
   0   1.0000    -104.893252     -2854.2905
   1   1.0000     -92.218016     -2509.3798
   2   1.0000     -20.645122      -561.7823
   3   1.0000     -20.576873      -559.9252
   4   1.0000     -20.573133      -559.8234
   5   1.0000     -10.620590      -289.0009
   6   1.0000      -9.184478      -249.9223
   7   1.0000      -8.088248      -220.0924
   8   1.0000      -8.086182      -220.0362
   9   1.0000      -8.085568      -220.0195
  10   1.0000      -7.752179      -210.9475
  11   1.0000      -6.870716      -186.9617
  12   1.0000      -6.869421      -186.9264
  13   1.0000      -6.868790      -186.9093
  14   1.0000      -1.531457       -41.6731
  15   1.0000      -1.411599       -38.4116
  16   1.0000      -1.382553       -37.6212
  17   1.0000      -1.179679       -32.1007
  18   1.0000      -0.941878       -25.6298
  19   1.0000      -0.817152       -22.2358
  20   1.0000      -0.742691       -20.2097
  21   1.0000      -0.706785       -19.2326
  22   1.0000      -0.675336       -18.3768
  23   1.0000      -0.649572       -17.6757
  24   1.0000      -0.594943       -16.1892
  25   1.0000      -0.566156       -15.4059
  26   1.0000      -0.549317       -14.9477
  27   1.0000      -0.538055       -14.6412
  28   1.0000      -0.525532       -14.3005
  29   1.0000      -0.514532       -14.0011
  30   1.0000      -0.505387       -13.7523
  31   1.0000      -0.393474       -10.7070
  32   0.0000       0.011452         0.3116
  33   0.0000       0.020723         0.5639
  34   0.0000       0.031149         0.8476
  35   0.0000       0.039411         1.0724
  36   0.0000       0.040978         1.1151

                 SPIN DOWN ORBITALS
  NO   OCC          E(Eh)            E(eV)
   0   1.0000    -104.892578     -2854.2721
   1   1.0000     -92.217396     -2509.3629
   2   1.0000     -20.645433      -561.7908
   3   1.0000     -20.576261      -559.9085
   4   1.0000     -20.571438      -559.7773
   5   1.0000     -10.619816      -288.9799
   6   1.0000      -9.183562      -249.8974
   7   1.0000      -8.086891      -220.0555
   8   1.0000      -8.086174      -220.0360
   9   1.0000      -8.083583      -219.9655
  10   1.0000      -7.730555      -210.3591
  11   1.0000      -6.870091      -186.9447
  12   1.0000      -6.868581      -186.9036
  13   1.0000      -6.867626      -186.8776
  14   1.0000      -1.529810       -41.6283
  15   1.0000      -1.410583       -38.3839
  16   1.0000      -1.379274       -37.5319
  17   1.0000      -1.171680       -31.8830
  18   1.0000      -0.931881       -25.3578
  19   1.0000      -0.804879       -21.9019
  20   1.0000      -0.738126       -20.0854
  21   1.0000      -0.703808       -19.1516
  22   1.0000      -0.655890       -17.8477
  23   1.0000      -0.645748       -17.5717
  24   1.0000      -0.589389       -16.0381
  25   1.0000      -0.552609       -15.0373
  26   1.0000      -0.547405       -14.8956
  27   1.0000      -0.523926       -14.2568
  28   1.0000      -0.519527       -14.1371
  29   1.0000      -0.504445       -13.7266
  30   1.0000      -0.484667       -13.1885
  31   0.0000       0.009772         0.2659
  32   0.0000       0.028751         0.7823
  33   0.0000       0.033211         0.9037
  34   0.0000       0.039460         1.0738
  35   0.0000       0.041184         1.1207

MULLIKEN ATOMIC CHARGES AND SPIN POPULATIONS
--------------------------------------------
   0 Cl:   -0.108655    0.019977
   1 B :    0.253389    0.954078
   2 S :    2.500251   -0.008980
   3 O :   -1.148956    0.033638
   4 O :   -1.102515    0.013744
   5 O :   -0.747375   -0.013595
   6 H :    0.353861    0.001138
Sum of atomic charges         :   -0.0000000

LOEWDIN ATOMIC CHARGES AND SPIN POPULATIONS
-------------------------------------------
   0 Cl:    1.234643    0.170103
   1 B :   -1.249937    0.609779
   2 S :   -0.642080    0.151121
   3 O :    0.256444    0.033542
   4 O :    0.277465    0.019907
   5 O :    1.005662    0.010685
   6 H :   -0.882196    0.004862

  Mayer bond orders larger than 0.100000
B(  0-Cl,  1-B ) :   1.2814 B(  1-B ,  2-S ) :   0.8910 B(  2-S ,  3-O ) :   1.1736
B(  2-S ,  4-O ) :   1.2610 B(  2-S ,  5-O ) :   0.6981 B(  5-O ,  6-H ) :   0.8794

MP2 TOTAL ENERGY:    -1108.248532605 Eh
FINAL SINGLE POINT ENERGY     -1108.248532604500

DIPOLE MOMENT
-------------
                                X             Y             Z
Electronic contribution:     -6.30186      -0.27689      -0.69766
Nuclear contribution   :      5.81065      -0.69700      -0.27056
                        -----------------------------------------
Total Dipole Moment    :     -0.49121      -0.97389      -0.96822
                        -----------------------------------------
Magnitude (a.u.)       :      1.45850
Magnitude (Debye)      :      3.70720

Rotational constants in cm-1:     0.173468     0.047662     0.046937
Rotational constants in MHz :  5200.426979  1428.870187  1407.124883

                             ****ORCA TERMINATED NORMALLY****
TOTAL RUN TIME: 0 days 0 hours 38 minutes 27 seconds 703 msec
