                         Program Version 5.0.4 -  RELEASE  -
|  1> ! ri-mp2 aug-cc-pvdz aug-cc-pvdz/c tightscf
|  2> %pal nprocs 16 end
|  3> %maxcore 3800
|  4> %base "DZ_S-Cl_36_A"
|  5> %scf
|  6> STABPerform true
|  7> STABRestartUHFifUnstable true
|  8> end
|  9>
| 10> *xyz 0 2
| 11> S         1.051582   -0.125899    0.000000
| 12> O        -0.358747    0.592904    0.000000
| 13> O        -1.467950   -0.372350    0.000000
| 14> H        -2.211739    0.249948   -0.000001
| 15> *
| 16>
| 17> $new_job
| 18> ! ri-mp2 aug-cc-pvtz aug-cc-pvtz/c tightscf
| 19> %pal nprocs 16 end
| 20> %maxcore 3800
| 21> %base "TZ_S-Cl_36_A"
| 22>
| 23> *xyz 0 2
| 24> S         1.051582   -0.125899    0.000000
| 25> O        -0.358747    0.592904    0.000000
| 26> O        -1.467950   -0.372350    0.000000
| 27> H        -2.211739    0.249948   -0.000001
| 28> *
| 29>
| 30> $new_job
| 31> ! ri-mp2 aug-cc-pvqz aug-cc-pvqz/c tightscf
| 32> %pal nprocs 16 end
| 33> %maxcore 3800
| 34> %base "QZ_S-Cl_36_A"
| 35>
| 36> *xyz 0 2
| 37> S         1.051582   -0.125899    0.000000
| 38> O        -0.358747    0.592904    0.000000
| 39> O        -1.467950   -0.372350    0.000000
| 40> H        -2.211739    0.249948   -0.000001
| 41> *
| 42>
| 43>
| 44>
| 45>
| 46>                          ****END OF INPUT****
 Total Charge           Charge          ....    0
 Multiplicity           Mult            ....    2
 Number of Electrons    NEL             ....   33
MP2 TOTAL ENERGY:     -548.232277592 Eh
FINAL SINGLE POINT ENERGY      -548.232277591994
MP2 TOTAL ENERGY:     -548.410357656 Eh
FINAL SINGLE POINT ENERGY      -548.410357655878

CARTESIAN COORDINATES (ANGSTROEM)
---------------------------------
  S      1.051582   -0.125899    0.000000
  O     -0.358747    0.592904    0.000000
  O     -1.467950   -0.372350    0.000000
  H     -2.211739    0.249948   -0.000001

 Multiplicity           Mult            ....    2
 Number of Electrons    NEL             ....   33
 Basis Dimension        Dim             ....  290

ORBITAL ENERGIES
----------------
                 SPIN UP ORBITALS
  NO   OCC          E(Eh)            E(eV)
   0   1.0000     -92.024990     -2504.1273
   1   1.0000     -20.689255      -562.9832
   2   1.0000     -20.650771      -561.9360
   3   1.0000      -9.022390      -245.5117
   4   1.0000      -6.716696      -182.7706
   5   1.0000      -6.699925      -182.3142
   6   1.0000      -6.698019      -182.2624
   7   1.0000      -1.516359       -41.2622
   8   1.0000      -1.280876       -34.8544
   9   1.0000      -0.931579       -25.3496
  10   1.0000      -0.745230       -20.2787
  11   1.0000      -0.703697       -19.1486
  12   1.0000      -0.656249       -17.8574
  13   1.0000      -0.576584       -15.6897
  14   1.0000      -0.534727       -14.5507
  15   1.0000      -0.421135       -11.4597
  16   1.0000      -0.389725       -10.6050
  17   0.0000       0.026275         0.7150
  18   0.0000       0.061903         1.6845
  19   0.0000       0.070060         1.9064
  20   0.0000       0.079522         2.1639
  21   0.0000       0.093649         2.5483

                 SPIN DOWN ORBITALS
  NO   OCC          E(Eh)            E(eV)
   0   1.0000     -92.016478     -2503.8957
   1   1.0000     -20.675851      -562.6185
   2   1.0000     -20.655284      -562.0588
   3   1.0000      -9.013026      -245.2569
   4   1.0000      -6.696881      -182.2314
   5   1.0000      -6.692816      -182.1208
   6   1.0000      -6.677215      -181.6963
   7   1.0000      -1.501078       -40.8464
   8   1.0000      -1.273219       -34.6460
   9   1.0000      -0.861382       -23.4394
  10   1.0000      -0.738306       -20.0903
  11   1.0000      -0.651098       -17.7173
  12   1.0000      -0.632301       -17.2058
  13   1.0000      -0.562608       -15.3094
  14   1.0000      -0.493696       -13.4342
  15   1.0000      -0.374706       -10.1963
  16   0.0000       0.021530         0.5859
  17   0.0000       0.026453         0.7198
  18   0.0000       0.064747         1.7619
  19   0.0000       0.071043         1.9332
  20   0.0000       0.093981         2.5574

MULLIKEN ATOMIC CHARGES AND SPIN POPULATIONS
--------------------------------------------
   0 S :    0.446948    0.919594
   1 O :   -0.483450    0.189881
   2 O :   -0.312476   -0.113346
   3 H :    0.348978    0.003871
Sum of atomic charges         :    0.0000000

LOEWDIN ATOMIC CHARGES AND SPIN POPULATIONS
-------------------------------------------
   0 S :    0.506331    0.763045
   1 O :   -0.361346    0.320484
   2 O :    0.789583   -0.066932
   3 H :   -0.934568   -0.016596

  Mayer bond orders larger than 0.100000
B(  0-S ,  1-O ) :   0.9782 B(  1-O ,  2-O ) :   0.7903 B(  2-O ,  3-H ) :   0.9182

MP2 TOTAL ENERGY:     -548.468349980 Eh
FINAL SINGLE POINT ENERGY      -548.468349979812

DIPOLE MOMENT
-------------
                                X             Y             Z
Electronic contribution:      1.73914      -0.01399       0.00000
Nuclear contribution   :     -2.16505       0.24509      -0.00000
                        -----------------------------------------
Total Dipole Moment    :     -0.42591       0.23110      -0.00000
                        -----------------------------------------
Magnitude (a.u.)       :      0.48457
Magnitude (Debye)      :      1.23168

Rotational constants in cm-1:     2.004925     0.219373     0.197737
Rotational constants in MHz : 60106.136362  6576.644124  5928.017183

                             ****ORCA TERMINATED NORMALLY****
TOTAL RUN TIME: 0 days 0 hours 4 minutes 44 seconds 331 msec
