                         Program Version 5.0.4 -  RELEASE  -
|  1> ! ri-mp2 aug-cc-pvdz aug-cc-pvdz/c tightscf
|  2> %pal nprocs 16 end
|  3> %maxcore 3800
|  4> %base "DZ_B-Si_21_B"
|  5> %scf
|  6> STABPerform true
|  7> STABRestartUHFifUnstable true
|  8> end
|  9>
| 10> *xyz 0 2
| 11> Si         0.000004   -0.000002   -0.079951
| 12> H        -0.851651   -1.121517    0.373097
| 13> H        -0.545499    1.298287    0.373078
| 14> H         1.397087   -0.176744    0.373143
| 15> *
| 16>
| 17> $new_job
| 18> ! ri-mp2 aug-cc-pvtz aug-cc-pvtz/c tightscf
| 19> %pal nprocs 16 end
| 20> %maxcore 3800
| 21> %base "TZ_B-Si_21_B"
| 22>
| 23> *xyz 0 2
| 24> Si         0.000004   -0.000002   -0.079951
| 25> H        -0.851651   -1.121517    0.373097
| 26> H        -0.545499    1.298287    0.373078
| 27> H         1.397087   -0.176744    0.373143
| 28> *
| 29>
| 30> $new_job
| 31> ! ri-mp2 aug-cc-pvqz aug-cc-pvqz/c tightscf
| 32> %pal nprocs 16 end
| 33> %maxcore 3800
| 34> %base "QZ_B-Si_21_B"
| 35>
| 36> *xyz 0 2
| 37> Si         0.000004   -0.000002   -0.079951
| 38> H        -0.851651   -1.121517    0.373097
| 39> H        -0.545499    1.298287    0.373078
| 40> H         1.397087   -0.176744    0.373143
| 41> *
| 42>
| 43>
| 44>
| 45>
| 46>                          ****END OF INPUT****
 Total Charge           Charge          ....    0
 Multiplicity           Mult            ....    2
 Number of Electrons    NEL             ....   17
MP2 TOTAL ENERGY:     -290.724483157 Eh
FINAL SINGLE POINT ENERGY      -290.724483157171
MP2 TOTAL ENERGY:     -290.759243346 Eh
FINAL SINGLE POINT ENERGY      -290.759243345542

CARTESIAN COORDINATES (ANGSTROEM)
---------------------------------
  Si     0.000004   -0.000002   -0.079951
  H     -0.851651   -1.121517    0.373097
  H     -0.545499    1.298287    0.373078
  H      1.397087   -0.176744    0.373143

 Multiplicity           Mult            ....    2
 Number of Electrons    NEL             ....   17
 Basis Dimension        Dim             ....  222

ORBITAL ENERGIES
----------------
                 SPIN UP ORBITALS
  NO   OCC          E(Eh)            E(eV)
   0   1.0000     -68.784158     -1871.7121
   1   1.0000      -6.134690      -166.9334
   2   1.0000      -4.247548      -115.5816
   3   1.0000      -4.237460      -115.3071
   4   1.0000      -4.237460      -115.3071
   5   1.0000      -0.730162       -19.8687
   6   1.0000      -0.494145       -13.4464
   7   1.0000      -0.494141       -13.4463
   8   1.0000      -0.337895        -9.1946
   9   0.0000       0.027250         0.7415
  10   0.0000       0.042329         1.1518
  11   0.0000       0.042329         1.1518
  12   0.0000       0.047541         1.2937
  13   0.0000       0.064790         1.7630

                 SPIN DOWN ORBITALS
  NO   OCC          E(Eh)            E(eV)
   0   1.0000     -68.778355     -1871.5542
   1   1.0000      -6.125800      -166.6915
   2   1.0000      -4.233493      -115.1992
   3   1.0000      -4.233493      -115.1992
   4   1.0000      -4.224855      -114.9641
   5   1.0000      -0.684894       -18.6369
   6   1.0000      -0.486779       -13.2459
   7   1.0000      -0.486775       -13.2458
   8   0.0000       0.021637         0.5888
   9   0.0000       0.029211         0.7949
  10   0.0000       0.042752         1.1633
  11   0.0000       0.042752         1.1633
  12   0.0000       0.065478         1.7818

MULLIKEN ATOMIC CHARGES AND SPIN POPULATIONS
--------------------------------------------
   0 Si:    0.578490    0.979163
   1 H :   -0.192830    0.006945
   2 H :   -0.192831    0.006944
   3 H :   -0.192828    0.006948
Sum of atomic charges         :    0.0000000

LOEWDIN ATOMIC CHARGES AND SPIN POPULATIONS
-------------------------------------------
   0 Si:    1.292377    0.577705
   1 H :   -0.430793    0.140765
   2 H :   -0.430794    0.140764
   3 H :   -0.430789    0.140766

  Mayer bond orders larger than 0.100000
B(  0-Si,  1-H ) :   0.8938 B(  0-Si,  2-H ) :   0.8938 B(  0-Si,  3-H ) :   0.8938

MP2 TOTAL ENERGY:     -290.770535149 Eh
FINAL SINGLE POINT ENERGY      -290.770535148670

DIPOLE MOMENT
-------------
                                X             Y             Z
Electronic contribution:      0.00008      -0.00003      -1.14635
Nuclear contribution   :     -0.00006       0.00003       1.15370
                        -----------------------------------------
Total Dipole Moment    :      0.00002      -0.00001       0.00735
                        -----------------------------------------
Magnitude (a.u.)       :      0.00735
Magnitude (Debye)      :      0.01868

Rotational constants in cm-1:     4.736946     4.736755     2.811054
Rotational constants in MHz : 142010.077450 142004.337200 84273.269378

                             ****ORCA TERMINATED NORMALLY****
TOTAL RUN TIME: 0 days 0 hours 1 minutes 25 seconds 775 msec
