                         Program Version 5.0.4 -  RELEASE  -
|  1> ! ri-mp2 aug-cc-pvdz aug-cc-pvdz/c tightscf
|  2> %pal nprocs 16 end
|  3> %maxcore 3800
|  4> %base "DZ_Si-Si_78_AB"
|  5> %scf
|  6> STABPerform true
|  7> STABRestartUHFifUnstable true
|  8> end
|  9>
| 10> *xyz 0 1
| 11> Si        -1.166465   -0.956228    0.101287
| 12> Si         1.166465   -0.956228   -0.101287
| 13> N         1.647304    0.678203    0.139677
| 14> H         1.624262   -1.371835   -1.450866
| 15> H         1.780936   -1.933447    0.842228
| 16> N        -1.647305    0.678202   -0.139680
| 17> H        -1.624262   -1.371831    1.450868
| 18> H        -1.780935   -1.933450   -0.842225
| 19> C         3.014557    1.147500    0.014798
| 20> H         1.080785    1.237276    0.757400
| 21> H         3.499048    0.640641   -0.821086
| 22> H         3.621374    0.964659    0.908534
| 23> H         3.039147    2.217482   -0.198505
| 24> C        -3.014557    1.147500   -0.014796
| 25> H        -1.080790    1.237272   -0.757410
| 26> H        -3.499043    0.640645    0.821093
| 27> H        -3.621379    0.964654   -0.908528
| 28> H        -3.039147    2.217483    0.198502
| 29> *
| 30>
| 31> $new_job
| 32> ! ri-mp2 aug-cc-pvtz aug-cc-pvtz/c tightscf
| 33> %pal nprocs 16 end
| 34> %maxcore 3800
| 35> %base "TZ_Si-Si_78_AB"
| 36>
| 37> *xyz 0 1
| 38> Si        -1.166465   -0.956228    0.101287
| 39> Si         1.166465   -0.956228   -0.101287
| 40> N         1.647304    0.678203    0.139677
| 41> H         1.624262   -1.371835   -1.450866
| 42> H         1.780936   -1.933447    0.842228
| 43> N        -1.647305    0.678202   -0.139680
| 44> H        -1.624262   -1.371831    1.450868
| 45> H        -1.780935   -1.933450   -0.842225
| 46> C         3.014557    1.147500    0.014798
| 47> H         1.080785    1.237276    0.757400
| 48> H         3.499048    0.640641   -0.821086
| 49> H         3.621374    0.964659    0.908534
| 50> H         3.039147    2.217482   -0.198505
| 51> C        -3.014557    1.147500   -0.014796
| 52> H        -1.080790    1.237272   -0.757410
| 53> H        -3.499043    0.640645    0.821093
| 54> H        -3.621379    0.964654   -0.908528
| 55> H        -3.039147    2.217483    0.198502
| 56> *
| 57>
| 58> $new_job
| 59> ! ri-mp2 aug-cc-pvqz aug-cc-pvqz/c tightscf
| 60> %pal nprocs 16 end
| 61> %maxcore 3800
| 62> %base "QZ_Si-Si_78_AB"
| 63>
| 64> *xyz 0 1
| 65> Si        -1.166465   -0.956228    0.101287
| 66> Si         1.166465   -0.956228   -0.101287
| 67> N         1.647304    0.678203    0.139677
| 68> H         1.624262   -1.371835   -1.450866
| 69> H         1.780936   -1.933447    0.842228
| 70> N        -1.647305    0.678202   -0.139680
| 71> H        -1.624262   -1.371831    1.450868
| 72> H        -1.780935   -1.933450   -0.842225
| 73> C         3.014557    1.147500    0.014798
| 74> H         1.080785    1.237276    0.757400
| 75> H         3.499048    0.640641   -0.821086
| 76> H         3.621374    0.964659    0.908534
| 77> H         3.039147    2.217482   -0.198505
| 78> C        -3.014557    1.147500   -0.014796
| 79> H        -1.080790    1.237272   -0.757410
| 80> H        -3.499043    0.640645    0.821093
| 81> H        -3.621379    0.964654   -0.908528
| 82> H        -3.039147    2.217483    0.198502
| 83> *
| 84>
| 85>
| 86>
| 87>
| 88>                          ****END OF INPUT****
 Total Charge           Charge          ....    0
 Multiplicity           Mult            ....    1
 Number of Electrons    NEL             ....   66
MP2 TOTAL ENERGY:     -770.400880445 Eh
FINAL SINGLE POINT ENERGY      -770.400880444907
MP2 TOTAL ENERGY:     -770.664559718 Eh
FINAL SINGLE POINT ENERGY      -770.664559717508

CARTESIAN COORDINATES (ANGSTROEM)
---------------------------------
  Si    -1.166465   -0.956228    0.101287
  Si     1.166465   -0.956228   -0.101287
  N      1.647304    0.678203    0.139677
  H      1.624262   -1.371835   -1.450866
  H      1.780936   -1.933447    0.842228
  N     -1.647305    0.678202   -0.139680
  H     -1.624262   -1.371831    1.450868
  H     -1.780935   -1.933450   -0.842225
  C      3.014557    1.147500    0.014798
  H      1.080785    1.237276    0.757400
  H      3.499048    0.640641   -0.821086
  H      3.621374    0.964659    0.908534
  H      3.039147    2.217482   -0.198505
  C     -3.014557    1.147500   -0.014796
  H     -1.080790    1.237272   -0.757410
  H     -3.499043    0.640645    0.821093
  H     -3.621379    0.964654   -0.908528
  H     -3.039147    2.217483    0.198502

 Multiplicity           Mult            ....    1
 Number of Electrons    NEL             ....   66
 Basis Dimension        Dim             .... 1040

ORBITAL ENERGIES
----------------

  NO   OCC          E(Eh)            E(eV)
   0   2.0000     -68.762805     -1871.1311
   1   2.0000     -68.762804     -1871.1310
   2   2.0000     -15.531081      -422.6222
   3   2.0000     -15.531078      -422.6221
   4   2.0000     -11.249360      -306.1106
   5   2.0000     -11.249360      -306.1106
   6   2.0000      -6.110835      -166.2843
   7   2.0000      -6.110686      -166.2802
   8   2.0000      -4.217850      -114.7735
   9   2.0000      -4.217187      -114.7555
  10   2.0000      -4.217153      -114.7546
  11   2.0000      -4.217124      -114.7538
  12   2.0000      -4.216929      -114.7485
  13   2.0000      -4.216890      -114.7474
  14   2.0000      -1.170391       -31.8480
  15   2.0000      -1.164916       -31.6990
  16   2.0000      -0.908577       -24.7236
  17   2.0000      -0.898889       -24.4600
  18   2.0000      -0.736372       -20.0377
  19   2.0000      -0.697915       -18.9912
  20   2.0000      -0.643334       -17.5060
  21   2.0000      -0.612783       -16.6747
  22   2.0000      -0.592945       -16.1349
  23   2.0000      -0.587569       -15.9886
  24   2.0000      -0.574526       -15.6336
  25   2.0000      -0.558443       -15.1960
  26   2.0000      -0.506256       -13.7759
  27   2.0000      -0.499807       -13.6004
  28   2.0000      -0.486418       -13.2361
  29   2.0000      -0.463785       -12.6202
  30   2.0000      -0.395186       -10.7536
  31   2.0000      -0.372049       -10.1240
  32   2.0000      -0.366251        -9.9662
  33   0.0000       0.024006         0.6532
  34   0.0000       0.029855         0.8124
  35   0.0000       0.032983         0.8975
  36   0.0000       0.036559         0.9948
  37   0.0000       0.043654         1.1879

MULLIKEN ATOMIC CHARGES
-----------------------
   0 Si:    0.796882
   1 Si:    0.796883
   2 N :   -0.593310
   3 H :   -0.221330
   4 H :   -0.301341
   5 N :   -0.593309
   6 H :   -0.221330
   7 H :   -0.301341
   8 C :   -0.844123
   9 H :    0.251489
  10 H :    0.293536
  11 H :    0.295389
  12 H :    0.322807
  13 C :   -0.844123
  14 H :    0.251489
  15 H :    0.293536
  16 H :    0.295389
  17 H :    0.322808
Sum of atomic charges:    0.0000000

LOEWDIN ATOMIC CHARGES
----------------------
   0 Si:    0.620008
   1 Si:    0.620009
   2 N :    0.721571
   3 H :   -0.250776
   4 H :   -0.257718
   5 N :    0.721570
   6 H :   -0.250775
   7 H :   -0.257718
   8 C :    0.686409
   9 H :   -0.602883
  10 H :   -0.325729
  11 H :   -0.291464
  12 H :   -0.299419
  13 C :    0.686408
  14 H :   -0.602882
  15 H :   -0.325730
  16 H :   -0.291463
  17 H :   -0.299419

  Mayer bond orders larger than 0.100000
B(  0-Si,  1-Si) :   0.8280 B(  0-Si,  5-N ) :   0.8655 B(  0-Si,  6-H ) :   0.8800
B(  0-Si,  7-H ) :   0.7477 B(  1-Si,  2-N ) :   0.8655 B(  1-Si,  3-H ) :   0.8800
B(  1-Si,  4-H ) :   0.7477 B(  2-N ,  8-C ) :   0.9134 B(  2-N ,  9-H ) :   1.0160
B(  5-N , 13-C ) :   0.9134 B(  5-N , 14-H ) :   1.0160 B(  8-C , 10-H ) :   0.9330
B(  8-C , 11-H ) :   0.9395 B(  8-C , 12-H ) :   0.9289 B( 13-C , 15-H ) :   0.9330
B( 13-C , 16-H ) :   0.9395 B( 13-C , 17-H ) :   0.9289

MP2 TOTAL ENERGY:     -770.746022260 Eh
FINAL SINGLE POINT ENERGY      -770.746022260410

DIPOLE MOMENT
-------------
                                X             Y             Z
Electronic contribution:      0.00000      -3.07415      -0.00001
Nuclear contribution   :     -0.00000       3.74382       0.00001
                        -----------------------------------------
Total Dipole Moment    :     -0.00000       0.66967      -0.00000
                        -----------------------------------------
Magnitude (a.u.)       :      0.66967
Magnitude (Debye)      :      1.70217

Rotational constants in cm-1:     0.125931     0.036205     0.029198
Rotational constants in MHz :  3775.329826  1085.388686   875.323305

                             ****ORCA TERMINATED NORMALLY****
TOTAL RUN TIME: 0 days 2 hours 20 minutes 25 seconds 659 msec
