                         Program Version 5.0.4 -  RELEASE  -
|  1> ! ri-mp2 aug-cc-pvdz aug-cc-pvdz/c tightscf
|  2> %pal nprocs 16 end
|  3> %maxcore 3800
|  4> %base "DZ_Si-Cl_53_AB"
|  5> %scf
|  6> STABPerform true
|  7> STABRestartUHFifUnstable true
|  8> end
|  9>
| 10> *xyz 0 1
| 11> Si        -0.324445   -0.898155    0.000001
| 12> C         1.309883    0.074821    0.000006
| 13> Cl        -1.941596    0.391144    0.000001
| 14> N         1.322061    1.421985   -0.000001
| 15> H         0.467221    1.949962   -0.000002
| 16> H         2.206377    1.906183   -0.000006
| 17> O         2.315252   -0.612215   -0.000006
| 18> H        -0.379998   -1.718267    1.217705
| 19> H        -0.379994   -1.718264   -1.217705
| 20> *
| 21>
| 22> $new_job
| 23> ! ri-mp2 aug-cc-pvtz aug-cc-pvtz/c tightscf
| 24> %pal nprocs 16 end
| 25> %maxcore 3800
| 26> %base "TZ_Si-Cl_53_AB"
| 27>
| 28> *xyz 0 1
| 29> Si        -0.324445   -0.898155    0.000001
| 30> C         1.309883    0.074821    0.000006
| 31> Cl        -1.941596    0.391144    0.000001
| 32> N         1.322061    1.421985   -0.000001
| 33> H         0.467221    1.949962   -0.000002
| 34> H         2.206377    1.906183   -0.000006
| 35> O         2.315252   -0.612215   -0.000006
| 36> H        -0.379998   -1.718267    1.217705
| 37> H        -0.379994   -1.718264   -1.217705
| 38> *
| 39>
| 40> $new_job
| 41> ! ri-mp2 aug-cc-pvqz aug-cc-pvqz/c tightscf
| 42> %pal nprocs 16 end
| 43> %maxcore 3800
| 44> %base "QZ_Si-Cl_53_AB"
| 45>
| 46> *xyz 0 1
| 47> Si        -0.324445   -0.898155    0.000001
| 48> C         1.309883    0.074821    0.000006
| 49> Cl        -1.941596    0.391144    0.000001
| 50> N         1.322061    1.421985   -0.000001
| 51> H         0.467221    1.949962   -0.000002
| 52> H         2.206377    1.906183   -0.000006
| 53> O         2.315252   -0.612215   -0.000006
| 54> H        -0.379998   -1.718267    1.217705
| 55> H        -0.379994   -1.718264   -1.217705
| 56> *
| 57>
| 58>
| 59>
| 60>
| 61>                          ****END OF INPUT****
 Total Charge           Charge          ....    0
 Multiplicity           Mult            ....    1
 Number of Electrons    NEL             ....   56
MP2 TOTAL ENERGY:     -918.788530585 Eh
FINAL SINGLE POINT ENERGY      -918.788530585314
MP2 TOTAL ENERGY:     -919.031894208 Eh
FINAL SINGLE POINT ENERGY      -919.031894208047

CARTESIAN COORDINATES (ANGSTROEM)
---------------------------------
  Si    -0.324445   -0.898155    0.000001
  C      1.309883    0.074821    0.000006
  Cl    -1.941596    0.391144    0.000001
  N      1.322061    1.421985   -0.000001
  H      0.467221    1.949962   -0.000002
  H      2.206377    1.906183   -0.000006
  O      2.315252   -0.612215   -0.000006
  H     -0.379998   -1.718267    1.217705
  H     -0.379994   -1.718264   -1.217705

 Multiplicity           Mult            ....    1
 Number of Electrons    NEL             ....   56
 Basis Dimension        Dim             ....  592

ORBITAL ENERGIES
----------------

  NO   OCC          E(Eh)            E(eV)
   0   2.0000    -104.842626     -2852.9129
   1   2.0000     -68.831317     -1872.9954
   2   2.0000     -20.536141      -558.8168
   3   2.0000     -15.599222      -424.4764
   4   2.0000     -11.349396      -308.8328
   5   2.0000     -10.570028      -287.6251
   6   2.0000      -8.036814      -218.6928
   7   2.0000      -8.035753      -218.6640
   8   2.0000      -8.035714      -218.6629
   9   2.0000      -6.177212      -168.0905
  10   2.0000      -4.284260      -116.5806
  11   2.0000      -4.282942      -116.5448
  12   2.0000      -4.282843      -116.5421
  13   2.0000      -1.394568       -37.9481
  14   2.0000      -1.227444       -33.4005
  15   2.0000      -1.111808       -30.2538
  16   2.0000      -0.849189       -23.1076
  17   2.0000      -0.768842       -20.9213
  18   2.0000      -0.717840       -19.5334
  19   2.0000      -0.655618       -17.8403
  20   2.0000      -0.591512       -16.0959
  21   2.0000      -0.577366       -15.7109
  22   2.0000      -0.539896       -14.6913
  23   2.0000      -0.534739       -14.5510
  24   2.0000      -0.491788       -13.3822
  25   2.0000      -0.466263       -12.6877
  26   2.0000      -0.427846       -11.6423
  27   2.0000      -0.409624       -11.1464
  28   0.0000       0.020674         0.5626
  29   0.0000       0.033751         0.9184
  30   0.0000       0.038423         1.0455
  31   0.0000       0.040066         1.0902
  32   0.0000       0.049994         1.3604

MULLIKEN ATOMIC CHARGES
-----------------------
   0 Si:    1.265642
   1 C :    0.566520
   2 Cl:   -0.593583
   3 N :   -0.747794
   4 H :    0.383426
   5 H :    0.219356
   6 O :   -0.792400
   7 H :   -0.150584
   8 H :   -0.150582
Sum of atomic charges:   -0.0000000

LOEWDIN ATOMIC CHARGES
----------------------
   0 Si:   -0.028603
   1 C :   -0.935948
   2 Cl:    0.884570
   3 N :    1.148440
   4 H :   -0.571328
   5 H :   -0.499576
   6 O :    0.587571
   7 H :   -0.292563
   8 H :   -0.292562

  Mayer bond orders larger than 0.100000
B(  0-Si,  1-C ) :   0.7832 B(  0-Si,  2-Cl) :   0.4563 B(  0-Si,  7-H ) :   0.8872
B(  0-Si,  8-H ) :   0.8872 B(  1-C ,  3-N ) :   1.1336 B(  1-C ,  6-O ) :   1.4675
B(  3-N ,  4-H ) :   0.8607 B(  3-N ,  5-H ) :   1.0117 B(  3-N ,  6-O ) :   0.1186

MP2 TOTAL ENERGY:     -919.113752149 Eh
FINAL SINGLE POINT ENERGY      -919.113752149408

DIPOLE MOMENT
-------------
                                X             Y             Z
Electronic contribution:     -5.11831       0.90067       0.00001
Nuclear contribution   :      4.56370      -0.08326      -0.00001
                        -----------------------------------------
Total Dipole Moment    :     -0.55461       0.81741       0.00000
                        -----------------------------------------
Magnitude (a.u.)       :      0.98780
Magnitude (Debye)      :      2.51079

Rotational constants in cm-1:     0.214409     0.061091     0.048360
Rotational constants in MHz :  6427.831641  1831.468030  1449.793356

                             ****ORCA TERMINATED NORMALLY****
TOTAL RUN TIME: 0 days 0 hours 19 minutes 11 seconds 504 msec
