                         Program Version 5.0.4 -  RELEASE  -
|  1> ! ri-mp2 aug-cc-pvdz aug-cc-pvdz/c tightscf
|  2> %pal nprocs 16 end
|  3> %maxcore 3800
|  4> %base "DZ_B-Si_42_B"
|  5> %scf
|  6> STABPerform true
|  7> STABRestartUHFifUnstable true
|  8> end
|  9>
| 10> *xyz 0 2
| 11> Si         0.671822   -0.000000   -0.100046
| 12> C        -1.196345   -0.000000    0.029233
| 13> H        -1.621240    0.882499   -0.448478
| 14> H        -1.507181   -0.000047    1.076452
| 15> H        -1.621251   -0.882451   -0.448558
| 16> H         1.261114    1.210966    0.522918
| 17> H         1.261117   -1.210965    0.522918
| 18> *
| 19>
| 20> $new_job
| 21> ! ri-mp2 aug-cc-pvtz aug-cc-pvtz/c tightscf
| 22> %pal nprocs 16 end
| 23> %maxcore 3800
| 24> %base "TZ_B-Si_42_B"
| 25>
| 26> *xyz 0 2
| 27> Si         0.671822   -0.000000   -0.100046
| 28> C        -1.196345   -0.000000    0.029233
| 29> H        -1.621240    0.882499   -0.448478
| 30> H        -1.507181   -0.000047    1.076452
| 31> H        -1.621251   -0.882451   -0.448558
| 32> H         1.261114    1.210966    0.522918
| 33> H         1.261117   -1.210965    0.522918
| 34> *
| 35>
| 36> $new_job
| 37> ! ri-mp2 aug-cc-pvqz aug-cc-pvqz/c tightscf
| 38> %pal nprocs 16 end
| 39> %maxcore 3800
| 40> %base "QZ_B-Si_42_B"
| 41>
| 42> *xyz 0 2
| 43> Si         0.671822   -0.000000   -0.100046
| 44> C        -1.196345   -0.000000    0.029233
| 45> H        -1.621240    0.882499   -0.448478
| 46> H        -1.507181   -0.000047    1.076452
| 47> H        -1.621251   -0.882451   -0.448558
| 48> H         1.261114    1.210966    0.522918
| 49> H         1.261117   -1.210965    0.522918
| 50> *
| 51>
| 52>
| 53>
| 54>
| 55>                          ****END OF INPUT****
 Total Charge           Charge          ....    0
 Multiplicity           Mult            ....    2
 Number of Electrons    NEL             ....   25
MP2 TOTAL ENERGY:     -329.921390486 Eh
FINAL SINGLE POINT ENERGY      -329.921390485970
MP2 TOTAL ENERGY:     -329.997997774 Eh
FINAL SINGLE POINT ENERGY      -329.997997773835

CARTESIAN COORDINATES (ANGSTROEM)
---------------------------------
  Si     0.671822   -0.000000   -0.100046
  C     -1.196345   -0.000000    0.029233
  H     -1.621240    0.882499   -0.448478
  H     -1.507181   -0.000047    1.076452
  H     -1.621251   -0.882451   -0.448558
  H      1.261114    1.210966    0.522918
  H      1.261117   -1.210965    0.522918

 Multiplicity           Mult            ....    2
 Number of Electrons    NEL             ....   25
 Basis Dimension        Dim             ....  394

ORBITAL ENERGIES
----------------
                 SPIN UP ORBITALS
  NO   OCC          E(Eh)            E(eV)
   0   1.0000     -68.772777     -1871.4024
   1   1.0000     -11.212552      -305.1090
   2   1.0000      -6.123065      -166.6171
   3   1.0000      -4.235855      -115.2635
   4   1.0000      -4.226038      -114.9963
   5   1.0000      -4.225755      -114.9886
   6   1.0000      -0.954168       -25.9642
   7   1.0000      -0.693891       -18.8817
   8   1.0000      -0.568821       -15.4784
   9   1.0000      -0.567553       -15.4439
  10   1.0000      -0.474622       -12.9151
  11   1.0000      -0.462954       -12.5976
  12   1.0000      -0.321215        -8.7407
  13   0.0000       0.025229         0.6865
  14   0.0000       0.036237         0.9860
  15   0.0000       0.038695         1.0530
  16   0.0000       0.039700         1.0803
  17   0.0000       0.057551         1.5661

                 SPIN DOWN ORBITALS
  NO   OCC          E(Eh)            E(eV)
   0   1.0000     -68.767130     -1871.2487
   1   1.0000     -11.212071      -305.0960
   2   1.0000      -6.114390      -166.3810
   3   1.0000      -4.222264      -114.8936
   4   1.0000      -4.221969      -114.8856
   5   1.0000      -4.213618      -114.6584
   6   1.0000      -0.948552       -25.8114
   7   1.0000      -0.652721       -17.7614
   8   1.0000      -0.566744       -15.4219
   9   1.0000      -0.557268       -15.1640
  10   1.0000      -0.466878       -12.7044
  11   1.0000      -0.455468       -12.3939
  12   0.0000       0.024141         0.6569
  13   0.0000       0.032636         0.8881
  14   0.0000       0.037084         1.0091
  15   0.0000       0.038905         1.0587
  16   0.0000       0.052617         1.4318

MULLIKEN ATOMIC CHARGES AND SPIN POPULATIONS
--------------------------------------------
   0 Si:    0.670373    0.965913
   1 C :   -0.928119   -0.004129
   2 H :    0.239636   -0.001757
   3 H :    0.219287    0.022629
   4 H :    0.239638   -0.001757
   5 H :   -0.220409    0.009551
   6 H :   -0.220407    0.009551
Sum of atomic charges         :    0.0000000

LOEWDIN ATOMIC CHARGES AND SPIN POPULATIONS
-------------------------------------------
   0 Si:    1.077415    0.548325
   1 C :    0.793132    0.144527
   2 H :   -0.389464    0.013784
   3 H :   -0.378390    0.018518
   4 H :   -0.389463    0.013785
   5 H :   -0.356615    0.130531
   6 H :   -0.356615    0.130530

  Mayer bond orders larger than 0.100000
B(  0-Si,  1-C ) :   0.8879 B(  0-Si,  5-H ) :   0.8856 B(  0-Si,  6-H ) :   0.8856
B(  1-C ,  2-H ) :   0.9522 B(  1-C ,  3-H ) :   0.9442 B(  1-C ,  4-H ) :   0.9522

MP2 TOTAL ENERGY:     -330.021006863 Eh
FINAL SINGLE POINT ENERGY      -330.021006863086

DIPOLE MOMENT
-------------
                                X             Y             Z
Electronic contribution:      2.03470      -0.00000      -1.24128
Nuclear contribution   :     -2.35942       0.00000       1.28083
                        -----------------------------------------
Total Dipole Moment    :     -0.32472      -0.00000       0.03955
                        -----------------------------------------
Magnitude (a.u.)       :      0.32712
Magnitude (Debye)      :      0.83149

Rotational constants in cm-1:     2.450791     0.392654     0.373728
Rotational constants in MHz : 73472.864985 11771.479069 11204.080872

                             ****ORCA TERMINATED NORMALLY****
TOTAL RUN TIME: 0 days 0 hours 7 minutes 35 seconds 730 msec
