                         Program Version 5.0.4 -  RELEASE  -
|  1> ! ri-mp2 aug-cc-pvdz aug-cc-pvdz/c tightscf
|  2> %pal nprocs 16 end
|  3> %maxcore 3800
|  4> %base "DZ_Si-Si_148_AB"
|  5> %scf
|  6> STABPerform true
|  7> STABRestartUHFifUnstable true
|  8> end
|  9>
| 10> *xyz 0 1
| 11> Si        -0.929221   -0.736808   -0.000003
| 12> Si         0.929222    0.736810   -0.000003
| 13> B         2.444096   -0.541747    0.000006
| 14> H         0.833278    1.593779    1.204616
| 15> H         0.833284    1.593777   -1.204624
| 16> H         2.873493   -0.978065    1.020516
| 17> H         2.873510   -0.978069   -1.020494
| 18> B        -2.444098    0.541743    0.000006
| 19> H        -0.833271   -1.593778    1.204615
| 20> H        -0.833279   -1.593774   -1.204625
| 21> H        -2.873500    0.978062    1.020514
| 22> H        -2.873513    0.978066   -1.020494
| 23> *
| 24>
| 25> $new_job
| 26> ! ri-mp2 aug-cc-pvtz aug-cc-pvtz/c tightscf
| 27> %pal nprocs 16 end
| 28> %maxcore 3800
| 29> %base "TZ_Si-Si_148_AB"
| 30>
| 31> *xyz 0 1
| 32> Si        -0.929221   -0.736808   -0.000003
| 33> Si         0.929222    0.736810   -0.000003
| 34> B         2.444096   -0.541747    0.000006
| 35> H         0.833278    1.593779    1.204616
| 36> H         0.833284    1.593777   -1.204624
| 37> H         2.873493   -0.978065    1.020516
| 38> H         2.873510   -0.978069   -1.020494
| 39> B        -2.444098    0.541743    0.000006
| 40> H        -0.833271   -1.593778    1.204615
| 41> H        -0.833279   -1.593774   -1.204625
| 42> H        -2.873500    0.978062    1.020514
| 43> H        -2.873513    0.978066   -1.020494
| 44> *
| 45>
| 46> $new_job
| 47> ! ri-mp2 aug-cc-pvqz aug-cc-pvqz/c tightscf
| 48> %pal nprocs 16 end
| 49> %maxcore 3800
| 50> %base "QZ_Si-Si_148_AB"
| 51>
| 52> *xyz 0 1
| 53> Si        -0.929221   -0.736808   -0.000003
| 54> Si         0.929222    0.736810   -0.000003
| 55> B         2.444096   -0.541747    0.000006
| 56> H         0.833278    1.593779    1.204616
| 57> H         0.833284    1.593777   -1.204624
| 58> H         2.873493   -0.978065    1.020516
| 59> H         2.873510   -0.978069   -1.020494
| 60> B        -2.444098    0.541743    0.000006
| 61> H        -0.833271   -1.593778    1.204615
| 62> H        -0.833279   -1.593774   -1.204625
| 63> H        -2.873500    0.978062    1.020514
| 64> H        -2.873513    0.978066   -1.020494
| 65> *
| 66>
| 67>
| 68>
| 69>
| 70>                          ****END OF INPUT****
 Total Charge           Charge          ....    0
 Multiplicity           Mult            ....    1
 Number of Electrons    NEL             ....   46
MP2 TOTAL ENERGY:     -632.202107744 Eh
FINAL SINGLE POINT ENERGY      -632.202107744297
MP2 TOTAL ENERGY:     -632.320775282 Eh
FINAL SINGLE POINT ENERGY      -632.320775282477

CARTESIAN COORDINATES (ANGSTROEM)
---------------------------------
  Si    -0.929221   -0.736808   -0.000003
  Si     0.929222    0.736810   -0.000003
  B      2.444096   -0.541747    0.000006
  H      0.833278    1.593779    1.204616
  H      0.833284    1.593777   -1.204624
  H      2.873493   -0.978065    1.020516
  H      2.873510   -0.978069   -1.020494
  B     -2.444098    0.541743    0.000006
  H     -0.833271   -1.593778    1.204615
  H     -0.833279   -1.593774   -1.204625
  H     -2.873500    0.978062    1.020514
  H     -2.873513    0.978066   -1.020494

 Multiplicity           Mult            ....    1
 Number of Electrons    NEL             ....   46
 Basis Dimension        Dim             ....  696

ORBITAL ENERGIES
----------------

  NO   OCC          E(Eh)            E(eV)
   0   2.0000     -68.754410     -1870.9026
   1   2.0000     -68.754409     -1870.9026
   2   2.0000      -7.612158      -207.1374
   3   2.0000      -7.612157      -207.1373
   4   2.0000      -6.107170      -166.1845
   5   2.0000      -6.107036      -166.1809
   6   2.0000      -4.213801      -114.6633
   7   2.0000      -4.213194      -114.6468
   8   2.0000      -4.212986      -114.6412
   9   2.0000      -4.212919      -114.6393
  10   2.0000      -4.212755      -114.6349
  11   2.0000      -4.212697      -114.6333
  12   2.0000      -0.775372       -21.0989
  13   2.0000      -0.722032       -19.6475
  14   2.0000      -0.654050       -17.7976
  15   2.0000      -0.631940       -17.1960
  16   2.0000      -0.524069       -14.2606
  17   2.0000      -0.510118       -13.8810
  18   2.0000      -0.474481       -12.9113
  19   2.0000      -0.463020       -12.5994
  20   2.0000      -0.443127       -12.0581
  21   2.0000      -0.431173       -11.7328
  22   2.0000      -0.362805        -9.8724
  23   0.0000       0.017212         0.4684
  24   0.0000       0.025093         0.6828
  25   0.0000       0.028208         0.7676
  26   0.0000       0.029581         0.8049
  27   0.0000       0.035271         0.9598

MULLIKEN ATOMIC CHARGES
-----------------------
   0 Si:    0.465567
   1 Si:    0.465571
   2 B :    0.279645
   3 H :   -0.188389
   4 H :   -0.188389
   5 H :   -0.184218
   6 H :   -0.184219
   7 B :    0.279646
   8 H :   -0.188388
   9 H :   -0.188389
  10 H :   -0.184218
  11 H :   -0.184219
Sum of atomic charges:    0.0000000

LOEWDIN ATOMIC CHARGES
----------------------
   0 Si:    0.803652
   1 Si:    0.803653
   2 B :    0.263789
   3 H :   -0.279171
   4 H :   -0.279171
   5 H :   -0.254550
   6 H :   -0.254550
   7 B :    0.263789
   8 H :   -0.279170
   9 H :   -0.279170
  10 H :   -0.254550
  11 H :   -0.254550

  Mayer bond orders larger than 0.100000
B(  0-Si,  1-Si) :   0.6934 B(  0-Si,  7-B ) :   0.9345 B(  0-Si,  8-H ) :   0.8013
B(  0-Si,  9-H ) :   0.8013 B(  1-Si,  2-B ) :   0.9345 B(  1-Si,  3-H ) :   0.8013
B(  1-Si,  4-H ) :   0.8013 B(  2-B ,  5-H ) :   0.9383 B(  2-B ,  6-H ) :   0.9383
B(  7-B , 10-H ) :   0.9383 B(  7-B , 11-H ) :   0.9383

MP2 TOTAL ENERGY:     -632.358688118 Eh
FINAL SINGLE POINT ENERGY      -632.358688117977

DIPOLE MOMENT
-------------
                                X             Y             Z
Electronic contribution:     -0.00000      -0.00000      -0.00002
Nuclear contribution   :      0.00000       0.00000       0.00001
                        -----------------------------------------
Total Dipole Moment    :     -0.00000      -0.00000      -0.00000
                        -----------------------------------------
Magnitude (a.u.)       :      0.00000
Magnitude (Debye)      :      0.00000

Rotational constants in cm-1:     0.276819     0.075296     0.063690
Rotational constants in MHz :  8298.812035  2257.323217  1909.380832

                             ****ORCA TERMINATED NORMALLY****
TOTAL RUN TIME: 0 days 0 hours 28 minutes 55 seconds 373 msec
