                         Program Version 5.0.4 -  RELEASE  -
|  1> ! ri-mp2 aug-cc-pvdz aug-cc-pvdz/c tightscf
|  2> %pal nprocs 16 end
|  3> %maxcore 3800
|  4> %base "DZ_Si-Si_33_A"
|  5> %scf
|  6> STABPerform true
|  7> STABRestartUHFifUnstable true
|  8> end
|  9>
| 10> *xyz 0 2
| 11> Si        -0.000810    0.492740   -0.139860
| 12> O         1.363267   -0.387225    0.130464
| 13> H         1.568602   -1.121835   -0.451972
| 14> O        -1.367072   -0.412920   -0.040416
| 15> H         0.038408    1.527898    0.927378
| 16> H        -1.565225   -0.903271    0.762260
| 17> *
| 18>
| 19> $new_job
| 20> ! ri-mp2 aug-cc-pvtz aug-cc-pvtz/c tightscf
| 21> %pal nprocs 16 end
| 22> %maxcore 3800
| 23> %base "TZ_Si-Si_33_A"
| 24>
| 25> *xyz 0 2
| 26> Si        -0.000810    0.492740   -0.139860
| 27> O         1.363267   -0.387225    0.130464
| 28> H         1.568602   -1.121835   -0.451972
| 29> O        -1.367072   -0.412920   -0.040416
| 30> H         0.038408    1.527898    0.927378
| 31> H        -1.565225   -0.903271    0.762260
| 32> *
| 33>
| 34> $new_job
| 35> ! ri-mp2 aug-cc-pvqz aug-cc-pvqz/c tightscf
| 36> %pal nprocs 16 end
| 37> %maxcore 3800
| 38> %base "QZ_Si-Si_33_A"
| 39>
| 40> *xyz 0 2
| 41> Si        -0.000810    0.492740   -0.139860
| 42> O         1.363267   -0.387225    0.130464
| 43> H         1.568602   -1.121835   -0.451972
| 44> O        -1.367072   -0.412920   -0.040416
| 45> H         0.038408    1.527898    0.927378
| 46> H        -1.565225   -0.903271    0.762260
| 47> *
| 48>
| 49>
| 50>
| 51>
| 52>                          ****END OF INPUT****
 Total Charge           Charge          ....    0
 Multiplicity           Mult            ....    2
 Number of Electrons    NEL             ....   33
MP2 TOTAL ENERGY:     -440.961711925 Eh
FINAL SINGLE POINT ENERGY      -440.961711924886
MP2 TOTAL ENERGY:     -441.138546341 Eh
FINAL SINGLE POINT ENERGY      -441.138546340813

CARTESIAN COORDINATES (ANGSTROEM)
---------------------------------
  Si    -0.000810    0.492740   -0.139860
  O      1.363267   -0.387225    0.130464
  H      1.568602   -1.121835   -0.451972
  O     -1.367072   -0.412920   -0.040416
  H      0.038408    1.527898    0.927378
  H     -1.565225   -0.903271    0.762260

 Multiplicity           Mult            ....    2
 Number of Electrons    NEL             ....   33
 Basis Dimension        Dim             ....  382

ORBITAL ENERGIES
----------------
                 SPIN UP ORBITALS
  NO   OCC          E(Eh)            E(eV)
   0   1.0000     -68.816867     -1872.6021
   1   1.0000     -20.566530      -559.6437
   2   1.0000     -20.563357      -559.5574
   3   1.0000      -6.158962      -167.5939
   4   1.0000      -4.270733      -116.2126
   5   1.0000      -4.262809      -115.9969
   6   1.0000      -4.262005      -115.9750
   7   1.0000      -1.362992       -37.0889
   8   1.0000      -1.340928       -36.4885
   9   1.0000      -0.778655       -21.1883
  10   1.0000      -0.720494       -19.6056
  11   1.0000      -0.601457       -16.3665
  12   1.0000      -0.587479       -15.9861
  13   1.0000      -0.573023       -15.5927
  14   1.0000      -0.514232       -13.9930
  15   1.0000      -0.505873       -13.7655
  16   1.0000      -0.338686        -9.2161
  17   0.0000       0.023969         0.6522
  18   0.0000       0.036927         1.0048
  19   0.0000       0.041120         1.1189
  20   0.0000       0.045924         1.2497
  21   0.0000       0.057542         1.5658

                 SPIN DOWN ORBITALS
  NO   OCC          E(Eh)            E(eV)
   0   1.0000     -68.811225     -1872.4486
   1   1.0000     -20.562735      -559.5405
   2   1.0000     -20.561514      -559.5072
   3   1.0000      -6.149583      -167.3386
   4   1.0000      -4.259172      -115.8980
   5   1.0000      -4.258771      -115.8870
   6   1.0000      -4.250951      -115.6743
   7   1.0000      -1.354418       -36.8556
   8   1.0000      -1.333128       -36.2763
   9   1.0000      -0.759496       -20.6669
  10   1.0000      -0.711360       -19.3571
  11   1.0000      -0.592218       -16.1151
  12   1.0000      -0.575194       -15.6518
  13   1.0000      -0.543610       -14.7924
  14   1.0000      -0.509001       -13.8506
  15   1.0000      -0.488127       -13.2826
  16   0.0000       0.021334         0.5805
  17   0.0000       0.035579         0.9681
  18   0.0000       0.040189         1.0936
  19   0.0000       0.044028         1.1981
  20   0.0000       0.056327         1.5327

MULLIKEN ATOMIC CHARGES AND SPIN POPULATIONS
--------------------------------------------
   0 Si:    1.279866    0.924496
   1 O :   -0.864421    0.050755
   2 H :    0.340685   -0.018689
   3 O :   -0.890618   -0.053435
   4 H :   -0.227559    0.076966
   5 H :    0.362046    0.019907
Sum of atomic charges         :    0.0000000

LOEWDIN ATOMIC CHARGES AND SPIN POPULATIONS
-------------------------------------------
   0 Si:    0.209789    0.579656
   1 O :    0.988813    0.127455
   2 H :   -0.929383    0.024757
   3 O :    0.978556    0.119882
   4 H :   -0.330127    0.134755
   5 H :   -0.917648    0.013496

  Mayer bond orders larger than 0.100000
B(  0-Si,  1-O ) :   0.6767 B(  0-Si,  3-O ) :   0.5460 B(  0-Si,  4-H ) :   0.9023
B(  1-O ,  2-H ) :   0.9185 B(  3-O ,  5-H ) :   0.8923

MP2 TOTAL ENERGY:     -441.195925226 Eh
FINAL SINGLE POINT ENERGY      -441.195925225876

DIPOLE MOMENT
-------------
                                X             Y             Z
Electronic contribution:     -0.03608       0.03061      -1.12748
Nuclear contribution   :      0.04102      -0.53006       1.22520
                        -----------------------------------------
Total Dipole Moment    :      0.00494      -0.49945       0.09773
                        -----------------------------------------
Magnitude (a.u.)       :      0.50894
Magnitude (Debye)      :      1.29363

Rotational constants in cm-1:     0.896154     0.251751     0.207777
Rotational constants in MHz : 26866.017026  7547.313670  6228.982992

                             ****ORCA TERMINATED NORMALLY****
TOTAL RUN TIME: 0 days 0 hours 7 minutes 1 seconds 766 msec
