                         Program Version 5.0.4 -  RELEASE  -
|  1> ! ri-mp2 aug-cc-pvdz aug-cc-pvdz/c tightscf
|  2> %pal nprocs 16 end
|  3> %maxcore 3800
|  4> %base "DZ_S-S_8_AB"
|  5> %scf
|  6> STABPerform true
|  7> STABRestartUHFifUnstable true
|  8> end
|  9>
| 10> *xyz 0 1
| 11> C         3.082112    0.792469    0.050949
| 12> O         2.327376    1.631375   -0.330648
| 13> S         2.785325   -0.977628   -0.147220
| 14> S         0.975174   -0.984967   -1.061244
| 15> C        -0.124434   -0.527014    0.297351
| 16> O         0.253758   -0.346814    1.412964
| 17> C         4.358947    1.065169    0.793314
| 18> H         4.793348    1.990729    0.421934
| 19> H         5.072216    0.247803    0.702752
| 20> H         4.112823    1.194179    1.848348
| 21> C        -1.543498   -0.343720   -0.176959
| 22> C        -2.530429   -1.023673    0.770903
| 23> C        -3.967976   -0.768363    0.335631
| 24> H        -2.366713   -0.631907    1.776906
| 25> H        -2.328477   -2.095706    0.812311
| 26> C        -4.260249    0.722217    0.212065
| 27> H        -4.654811   -1.232384    1.045538
| 28> H        -4.145551   -1.252219   -0.630396
| 29> C        -3.270441    1.404798   -0.724156
| 30> H        -4.195083    1.184412    1.202123
| 31> H        -5.281702    0.878233   -0.139470
| 32> C        -1.831658    1.159774   -0.289830
| 33> H        -3.462963    2.478244   -0.764554
| 34> H        -3.411371    1.024452   -1.741046
| 35> H        -1.130870    1.621414   -0.986921
| 36> H        -1.654121    1.615613    0.687410
| 37> H        -1.638022   -0.787768   -1.173650
| 38> *
| 39>
| 40> $new_job
| 41> ! ri-mp2 aug-cc-pvtz aug-cc-pvtz/c tightscf
| 42> %pal nprocs 16 end
| 43> %maxcore 3800
| 44> %base "TZ_S-S_8_AB"
| 45>
| 46> *xyz 0 1
| 47> C         3.082112    0.792469    0.050949
| 48> O         2.327376    1.631375   -0.330648
| 49> S         2.785325   -0.977628   -0.147220
| 50> S         0.975174   -0.984967   -1.061244
| 51> C        -0.124434   -0.527014    0.297351
| 52> O         0.253758   -0.346814    1.412964
| 53> C         4.358947    1.065169    0.793314
| 54> H         4.793348    1.990729    0.421934
| 55> H         5.072216    0.247803    0.702752
| 56> H         4.112823    1.194179    1.848348
| 57> C        -1.543498   -0.343720   -0.176959
| 58> C        -2.530429   -1.023673    0.770903
| 59> C        -3.967976   -0.768363    0.335631
| 60> H        -2.366713   -0.631907    1.776906
| 61> H        -2.328477   -2.095706    0.812311
| 62> C        -4.260249    0.722217    0.212065
| 63> H        -4.654811   -1.232384    1.045538
| 64> H        -4.145551   -1.252219   -0.630396
| 65> C        -3.270441    1.404798   -0.724156
| 66> H        -4.195083    1.184412    1.202123
| 67> H        -5.281702    0.878233   -0.139470
| 68> C        -1.831658    1.159774   -0.289830
| 69> H        -3.462963    2.478244   -0.764554
| 70> H        -3.411371    1.024452   -1.741046
| 71> H        -1.130870    1.621414   -0.986921
| 72> H        -1.654121    1.615613    0.687410
| 73> H        -1.638022   -0.787768   -1.173650
| 74> *
| 75>
| 76> $new_job
| 77> ! ri-mp2 aug-cc-pvqz aug-cc-pvqz/c tightscf
| 78> %pal nprocs 16 end
| 79> %maxcore 3800
| 80> %base "QZ_S-S_8_AB"
| 81>
| 82> *xyz 0 1
| 83> C         3.082112    0.792469    0.050949
| 84> O         2.327376    1.631375   -0.330648
| 85> S         2.785325   -0.977628   -0.147220
| 86> S         0.975174   -0.984967   -1.061244
| 87> C        -0.124434   -0.527014    0.297351
| 88> O         0.253758   -0.346814    1.412964
| 89> C         4.358947    1.065169    0.793314
| 90> H         4.793348    1.990729    0.421934
| 91> H         5.072216    0.247803    0.702752
| 92> H         4.112823    1.194179    1.848348
| 93> C        -1.543498   -0.343720   -0.176959
| 94> C        -2.530429   -1.023673    0.770903
| 95> C        -3.967976   -0.768363    0.335631
| 96> H        -2.366713   -0.631907    1.776906
| 97> H        -2.328477   -2.095706    0.812311
| 98> C        -4.260249    0.722217    0.212065
| 99> H        -4.654811   -1.232384    1.045538
|100> H        -4.145551   -1.252219   -0.630396
|101> C        -3.270441    1.404798   -0.724156
|102> H        -4.195083    1.184412    1.202123
|103> H        -5.281702    0.878233   -0.139470
|104> C        -1.831658    1.159774   -0.289830
|105> H        -3.462963    2.478244   -0.764554
|106> H        -3.411371    1.024452   -1.741046
|107> H        -1.130870    1.621414   -0.986921
|108> H        -1.654121    1.615613    0.687410
|109> H        -1.638022   -0.787768   -1.173650
|110> *
|111>
|112>
|113>
|114>
|115>                          ****END OF INPUT****
 Total Charge           Charge          ....    0
 Multiplicity           Mult            ....    1
 Number of Electrons    NEL             ....  116
MP2 TOTAL ENERGY:    -1295.806146792 Eh
FINAL SINGLE POINT ENERGY     -1295.806146791604
MP2 TOTAL ENERGY:    -1296.352602300 Eh
FINAL SINGLE POINT ENERGY     -1296.352602299795

CARTESIAN COORDINATES (ANGSTROEM)
---------------------------------
  C      3.082112    0.792469    0.050949
  O      2.327376    1.631375   -0.330648
  S      2.785325   -0.977628   -0.147220
  S      0.975174   -0.984967   -1.061244
  C     -0.124434   -0.527014    0.297351
  O      0.253758   -0.346814    1.412964
  C      4.358947    1.065169    0.793314
  H      4.793348    1.990729    0.421934
  H      5.072216    0.247803    0.702752
  H      4.112823    1.194179    1.848348
  C     -1.543498   -0.343720   -0.176959
  C     -2.530429   -1.023673    0.770903
  C     -3.967976   -0.768363    0.335631
  H     -2.366713   -0.631907    1.776906
  H     -2.328477   -2.095706    0.812311
  C     -4.260249    0.722217    0.212065
  H     -4.654811   -1.232384    1.045538
  H     -4.145551   -1.252219   -0.630396
  C     -3.270441    1.404798   -0.724156
  H     -4.195083    1.184412    1.202123
  H     -5.281702    0.878233   -0.139470
  C     -1.831658    1.159774   -0.289830
  H     -3.462963    2.478244   -0.764554
  H     -3.411371    1.024452   -1.741046
  H     -1.130870    1.621414   -0.986921
  H     -1.654121    1.615613    0.687410
  H     -1.638022   -0.787768   -1.173650

 Multiplicity           Mult            ....    1
 Number of Electrons    NEL             ....  116
 Basis Dimension        Dim             .... 1692

ORBITAL ENERGIES
----------------

  NO   OCC          E(Eh)            E(eV)
   0   2.0000     -91.992849     -2503.2527
   1   2.0000     -91.991664     -2503.2204
   2   2.0000     -20.563260      -559.5548
   3   2.0000     -20.560329      -559.4750
   4   2.0000     -11.368882      -309.3630
   5   2.0000     -11.360834      -309.1440
   6   2.0000     -11.249498      -306.1144
   7   2.0000     -11.247533      -306.0609
   8   2.0000     -11.226901      -305.4995
   9   2.0000     -11.226065      -305.4768
  10   2.0000     -11.221769      -305.3599
  11   2.0000     -11.221421      -305.3504
  12   2.0000     -11.218940      -305.2829
  13   2.0000      -8.994511      -244.7531
  14   2.0000      -8.993326      -244.7209
  15   2.0000      -6.675796      -181.6576
  16   2.0000      -6.674614      -181.6255
  17   2.0000      -6.674364      -181.6187
  18   2.0000      -6.673751      -181.6020
  19   2.0000      -6.673181      -181.5865
  20   2.0000      -6.672546      -181.5692
  21   2.0000      -1.420174       -38.6449
  22   2.0000      -1.415728       -38.5239
  23   2.0000      -1.139077       -30.9959
  24   2.0000      -1.092253       -29.7217
  25   2.0000      -1.046137       -28.4668
  26   2.0000      -1.024791       -27.8860
  27   2.0000      -1.016072       -27.6487
  28   2.0000      -0.934136       -25.4191
  29   2.0000      -0.859627       -23.3917
  30   2.0000      -0.844149       -22.9705
  31   2.0000      -0.776388       -21.1266
  32   2.0000      -0.751319       -20.4444
  33   2.0000      -0.728654       -19.8277
  34   2.0000      -0.672471       -18.2989
  35   2.0000      -0.670503       -18.2453
  36   2.0000      -0.649414       -17.6715
  37   2.0000      -0.642023       -17.4703
  38   2.0000      -0.625617       -17.0239
  39   2.0000      -0.619256       -16.8508
  40   2.0000      -0.611686       -16.6448
  41   2.0000      -0.597524       -16.2595
  42   2.0000      -0.583211       -15.8700
  43   2.0000      -0.567197       -15.4342
  44   2.0000      -0.562256       -15.2998
  45   2.0000      -0.538239       -14.6462
  46   2.0000      -0.528747       -14.3879
  47   2.0000      -0.511775       -13.9261
  48   2.0000      -0.501262       -13.6400
  49   2.0000      -0.493755       -13.4358
  50   2.0000      -0.483844       -13.1661
  51   2.0000      -0.466679       -12.6990
  52   2.0000      -0.456745       -12.4287
  53   2.0000      -0.439641       -11.9632
  54   2.0000      -0.430328       -11.7098
  55   2.0000      -0.418260       -11.3814
  56   2.0000      -0.387580       -10.5466
  57   2.0000      -0.368423       -10.0253
  58   0.0000       0.024369         0.6631
  59   0.0000       0.025620         0.6972
  60   0.0000       0.030686         0.8350
  61   0.0000       0.032435         0.8826
  62   0.0000       0.038896         1.0584

MULLIKEN ATOMIC CHARGES
-----------------------
   0 C :    0.620744
   1 O :   -0.820950
   2 S :   -0.012459
   3 S :   -0.063311
   4 C :    0.824463
   5 O :   -0.927221
   6 C :   -0.807135
   7 H :    0.302431
   8 H :    0.277826
   9 H :    0.317683
  10 C :    0.272410
  11 C :   -0.440870
  12 C :   -0.490010
  13 H :    0.169653
  14 H :    0.297338
  15 C :   -0.452405
  16 H :    0.230842
  17 H :    0.134046
  18 C :   -0.460921
  19 H :    0.119382
  20 H :    0.247254
  21 C :   -0.427898
  22 H :    0.235630
  23 H :    0.142485
  24 H :    0.297841
  25 H :    0.235058
  26 H :    0.178095
Sum of atomic charges:   -0.0000000

LOEWDIN ATOMIC CHARGES
----------------------
   0 C :   -1.172002
   1 O :    0.627868
   2 S :    0.751514
   3 S :    0.787828
   4 C :   -1.155239
   5 O :    0.675709
   6 C :    0.774875
   7 H :   -0.314498
   8 H :   -0.346780
   9 H :   -0.302626
  10 C :   -0.045184
  11 C :    0.513109
  12 C :    0.543005
  13 H :   -0.274694
  14 H :   -0.249953
  15 C :    0.537943
  16 H :   -0.256038
  17 H :   -0.259924
  18 C :    0.545698
  19 H :   -0.260685
  20 H :   -0.257623
  21 C :    0.512610
  22 H :   -0.255148
  23 H :   -0.259180
  24 H :   -0.255243
  25 H :   -0.263746
  26 H :   -0.341594

  Mayer bond orders larger than 0.100000
B(  0-C ,  1-O ) :   1.4314 B(  0-C ,  2-S ) :   0.9219 B(  0-C ,  6-C ) :   0.8024
B(  2-S ,  3-S ) :   1.1003 B(  3-S ,  4-C ) :   0.8325 B(  4-C ,  5-O ) :   0.9309
B(  4-C , 10-C ) :   0.9576 B(  5-O , 10-C ) :   0.1643 B(  5-O , 21-C ) :   0.1000
B(  6-C ,  7-H ) :   0.9669 B(  6-C ,  8-H ) :   0.9757 B(  6-C ,  9-H ) :   0.8625
B( 10-C , 11-C ) :   0.7353 B( 10-C , 21-C ) :   0.7419 B( 10-C , 26-H ) :   0.9008
B( 11-C , 12-C ) :   0.8751 B( 11-C , 13-H ) :   0.9985 B( 11-C , 14-H ) :   0.9360
B( 12-C , 15-C ) :   0.8812 B( 12-C , 16-H ) :   0.9904 B( 12-C , 17-H ) :   1.0378
B( 15-C , 18-C ) :   0.8875 B( 15-C , 19-H ) :   1.0443 B( 15-C , 20-H ) :   0.9562
B( 18-C , 21-C ) :   0.7749 B( 18-C , 22-H ) :   0.9904 B( 18-C , 23-H ) :   1.0373
B( 21-C , 24-H ) :   0.8965 B( 21-C , 25-H ) :   0.9450

MP2 TOTAL ENERGY:    -1296.527323644 Eh
FINAL SINGLE POINT ENERGY     -1296.527323644312

DIPOLE MOMENT
-------------
                                X             Y             Z
Electronic contribution:     20.22181      -6.42228      -3.21560
Nuclear contribution   :    -20.32256       6.30223       3.10889
                        -----------------------------------------
Total Dipole Moment    :     -0.10075      -0.12004      -0.10671
                        -----------------------------------------
Magnitude (a.u.)       :      0.18960
Magnitude (Debye)      :      0.48192

Rotational constants in cm-1:     0.049624     0.009945     0.009322
Rotational constants in MHz :  1487.677105   298.153806   279.454042

                             ****ORCA TERMINATED NORMALLY****
TOTAL RUN TIME: 0 days 11 hours 41 minutes 45 seconds 484 msec
