                         Program Version 5.0.4 -  RELEASE  -
|  1> ! ri-mp2 aug-cc-pvdz aug-cc-pvdz/c tightscf
|  2> %pal nprocs 16 end
|  3> %maxcore 3800
|  4> %base "DZ_B-P_69_AB"
|  5>
|  6> *xyz 0 1
|  7> C        -2.721141    0.344436    0.213641
|  8> C        -1.935017    1.106131   -0.631866
|  9> C        -0.631896    0.720091   -0.904878
| 10> C        -2.195150   -0.802015    0.788156
| 11> C        -0.889023   -1.177202    0.531336
| 12> C        -0.086227   -0.420793   -0.318726
| 13> H        -3.741111    0.638392    0.421203
| 14> H        -2.338633    1.997100   -1.094484
| 15> H        -0.038710    1.303216   -1.600134
| 16> H        -2.804948   -1.405018    1.448074
| 17> H        -0.487408   -2.066439    0.999387
| 18> B         2.560223    0.356231    0.519325
| 19> O         2.000624    1.484043    0.990780
| 20> H         1.070274    1.596147    0.752664
| 21> P         1.652888   -0.831605   -0.694646
| 22> H         3.691869    0.134458    0.823889
| 23> H         1.799967   -2.001157    0.080255
| 24> *
| 25>
| 26> $new_job
| 27> ! ri-mp2 aug-cc-pvtz aug-cc-pvtz/c tightscf
| 28> %pal nprocs 16 end
| 29> %maxcore 3800
| 30> %base "TZ_B-P_69_AB"
| 31>
| 32> *xyz 0 1
| 33> C        -2.721141    0.344436    0.213641
| 34> C        -1.935017    1.106131   -0.631866
| 35> C        -0.631896    0.720091   -0.904878
| 36> C        -2.195150   -0.802015    0.788156
| 37> C        -0.889023   -1.177202    0.531336
| 38> C        -0.086227   -0.420793   -0.318726
| 39> H        -3.741111    0.638392    0.421203
| 40> H        -2.338633    1.997100   -1.094484
| 41> H        -0.038710    1.303216   -1.600134
| 42> H        -2.804948   -1.405018    1.448074
| 43> H        -0.487408   -2.066439    0.999387
| 44> B         2.560223    0.356231    0.519325
| 45> O         2.000624    1.484043    0.990780
| 46> H         1.070274    1.596147    0.752664
| 47> P         1.652888   -0.831605   -0.694646
| 48> H         3.691869    0.134458    0.823889
| 49> H         1.799967   -2.001157    0.080255
| 50> *
| 51>
| 52> $new_job
| 53> ! ri-mp2 aug-cc-pvqz aug-cc-pvqz/c tightscf
| 54> %pal nprocs 16 end
| 55> %maxcore 3800
| 56> %base "QZ_B-P_69_AB"
| 57>
| 58> *xyz 0 1
| 59> C        -2.721141    0.344436    0.213641
| 60> C        -1.935017    1.106131   -0.631866
| 61> C        -0.631896    0.720091   -0.904878
| 62> C        -2.195150   -0.802015    0.788156
| 63> C        -0.889023   -1.177202    0.531336
| 64> C        -0.086227   -0.420793   -0.318726
| 65> H        -3.741111    0.638392    0.421203
| 66> H        -2.338633    1.997100   -1.094484
| 67> H        -0.038710    1.303216   -1.600134
| 68> H        -2.804948   -1.405018    1.448074
| 69> H        -0.487408   -2.066439    0.999387
| 70> B         2.560223    0.356231    0.519325
| 71> O         2.000624    1.484043    0.990780
| 72> H         1.070274    1.596147    0.752664
| 73> P         1.652888   -0.831605   -0.694646
| 74> H         3.691869    0.134458    0.823889
| 75> H         1.799967   -2.001157    0.080255
| 76> *
| 77>
| 78>
| 79>
| 80>
| 81>                          ****END OF INPUT****
 Total Charge           Charge          ....    0
 Multiplicity           Mult            ....    1
 Number of Electrons    NEL             ....   72
MP2 TOTAL ENERGY:     -673.460856325 Eh
FINAL SINGLE POINT ENERGY      -673.460856325231
MP2 TOTAL ENERGY:     -673.794392737 Eh
FINAL SINGLE POINT ENERGY      -673.794392737011

CARTESIAN COORDINATES (ANGSTROEM)
---------------------------------
  C     -2.721141    0.344436    0.213641
  C     -1.935017    1.106131   -0.631866
  C     -0.631896    0.720091   -0.904878
  C     -2.195150   -0.802015    0.788156
  C     -0.889023   -1.177202    0.531336
  C     -0.086227   -0.420793   -0.318726
  H     -3.741111    0.638392    0.421203
  H     -2.338633    1.997100   -1.094484
  H     -0.038710    1.303216   -1.600134
  H     -2.804948   -1.405018    1.448074
  H     -0.487408   -2.066439    0.999387
  B      2.560223    0.356231    0.519325
  O      2.000624    1.484043    0.990780
  H      1.070274    1.596147    0.752664
  P      1.652888   -0.831605   -0.694646
  H      3.691869    0.134458    0.823889
  H      1.799967   -2.001157    0.080255

 Multiplicity           Mult            ....    1
 Number of Electrons    NEL             ....   72
 Basis Dimension        Dim             .... 1092

ORBITAL ENERGIES
----------------

  NO   OCC          E(Eh)            E(eV)
   0   2.0000     -79.927357     -2174.9340
   1   2.0000     -20.578903      -559.9804
   2   2.0000     -11.253545      -306.2245
   3   2.0000     -11.247145      -306.0504
   4   2.0000     -11.245987      -306.0189
   5   2.0000     -11.245780      -306.0132
   6   2.0000     -11.244596      -305.9810
   7   2.0000     -11.242893      -305.9347
   8   2.0000      -7.629580      -207.6114
   9   2.0000      -7.472966      -203.3497
  10   2.0000      -5.367347      -146.0529
  11   2.0000      -5.366768      -146.0372
  12   2.0000      -5.366341      -146.0256
  13   2.0000      -1.375726       -37.4354
  14   2.0000      -1.170516       -31.8514
  15   2.0000      -1.039022       -28.2732
  16   2.0000      -1.031427       -28.0666
  17   2.0000      -0.879130       -23.9223
  18   2.0000      -0.841716       -22.9043
  19   2.0000      -0.802338       -21.8327
  20   2.0000      -0.764407       -20.8006
  21   2.0000      -0.706832       -19.2339
  22   2.0000      -0.645224       -17.5574
  23   2.0000      -0.642385       -17.4802
  24   2.0000      -0.619662       -16.8619
  25   2.0000      -0.601158       -16.3583
  26   2.0000      -0.586376       -15.9561
  27   2.0000      -0.552054       -15.0222
  28   2.0000      -0.548364       -14.9217
  29   2.0000      -0.522293       -14.2123
  30   2.0000      -0.508669       -13.8416
  31   2.0000      -0.491537       -13.3754
  32   2.0000      -0.436735       -11.8842
  33   2.0000      -0.390020       -10.6130
  34   2.0000      -0.354186        -9.6379
  35   2.0000      -0.321633        -8.7521
  36   0.0000       0.020277         0.5518
  37   0.0000       0.026191         0.7127
  38   0.0000       0.027863         0.7582
  39   0.0000       0.036431         0.9913
  40   0.0000       0.039166         1.0658

MULLIKEN ATOMIC CHARGES
-----------------------
   0 C :   -0.392411
   1 C :   -0.257502
   2 C :   -0.212314
   3 C :   -0.303048
   4 C :   -0.522964
   5 C :    0.021487
   6 H :    0.365788
   7 H :    0.238334
   8 H :    0.338210
   9 H :    0.253571
  10 H :    0.333299
  11 B :    0.906297
  12 O :   -1.106506
  13 H :    0.427742
  14 P :    0.362107
  15 H :   -0.342787
  16 H :   -0.109303
Sum of atomic charges:   -0.0000000

LOEWDIN ATOMIC CHARGES
----------------------
   0 C :    0.338831
   1 C :    0.341394
   2 C :    0.225895
   3 C :    0.340335
   4 C :    0.260188
   5 C :   -0.334224
   6 H :   -0.320127
   7 H :   -0.316139
   8 H :   -0.330489
   9 H :   -0.317512
  10 H :   -0.341821
  11 B :   -0.633508
  12 O :    1.305037
  13 H :   -0.859855
  14 P :    1.339581
  15 H :   -0.245839
  16 H :   -0.451746

  Mayer bond orders larger than 0.100000
B(  0-C ,  1-C ) :   1.1554 B(  0-C ,  2-C ) :   0.1516 B(  0-C ,  3-C ) :   1.1246
B(  0-C ,  4-C ) :   0.1672 B(  0-C ,  6-H ) :   0.9494 B(  0-C ,  9-H ) :  -0.1045
B(  1-C ,  2-C ) :   1.3106 B(  1-C ,  3-C ) :  -0.1265 B(  1-C ,  4-C ) :   0.1562
B(  1-C ,  5-C ) :  -0.2763 B(  1-C ,  7-H ) :   1.1408 B(  2-C ,  3-C ) :   0.1512
B(  2-C ,  4-C ) :   0.1092 B(  2-C ,  5-C ) :   0.8308 B(  2-C ,  7-H ) :  -0.1373
B(  2-C ,  8-H ) :   0.9513 B(  2-C , 14-P ) :  -0.2232 B(  3-C ,  4-C ) :   1.3666
B(  3-C ,  5-C ) :  -0.2769 B(  3-C ,  9-H ) :   1.1136 B(  4-C ,  5-C ) :   0.9098
B(  4-C ,  9-H ) :  -0.1397 B(  4-C , 10-H ) :   0.9211 B(  5-C ,  8-H ) :  -0.1330
B(  5-C , 14-P ) :   0.8478 B(  5-C , 16-H ) :  -0.1042 B( 11-B , 12-O ) :   0.5545
B( 11-B , 14-P ) :   1.0772 B( 11-B , 15-H ) :   0.8776 B( 12-O , 13-H ) :   0.8406
B( 14-P , 16-H ) :   0.9648

MP2 TOTAL ENERGY:     -673.901392642 Eh
FINAL SINGLE POINT ENERGY      -673.901392642056

DIPOLE MOMENT
-------------
                                X             Y             Z
Electronic contribution:      5.43517      -0.80075      -1.90596
Nuclear contribution   :     -6.32839       0.71089       2.04878
                        -----------------------------------------
Total Dipole Moment    :     -0.89322      -0.08986       0.14282
                        -----------------------------------------
Magnitude (a.u.)       :      0.90902
Magnitude (Debye)      :      2.31054

Rotational constants in cm-1:     0.086431     0.031247     0.028178
Rotational constants in MHz :  2591.146661   936.753002   844.752759

                             ****ORCA TERMINATED NORMALLY****
TOTAL RUN TIME: 0 days 0 hours 34 minutes 1 seconds 462 msec
