                         Program Version 5.0.4 -  RELEASE  -
|  1> ! ri-mp2 aug-cc-pvdz aug-cc-pvdz/c tightscf
|  2> %pal nprocs 16 end
|  3> %maxcore 3800
|  4> %base "DZ_B-Cl_41_AB"
|  5>
|  6> *xyz 0 1
|  7> Cl        -1.274496    1.702088    0.139321
|  8> Cl        -1.871412   -1.215077   -0.193570
|  9> B        -0.698841    0.070168    0.020687
| 10> C         0.833324   -0.269761    0.081443
| 11> N         1.611003    0.703495   -0.177614
| 12> C         3.037793    0.481347   -0.217592
| 13> H         3.418922    0.241668    0.780132
| 14> H         3.534626    1.384145   -0.564183
| 15> H         3.309548   -0.347606   -0.878112
| 16> C         1.311123   -1.669091    0.370690
| 17> H         0.499667   -2.317673    0.687426
| 18> H         2.075756   -1.658832    1.148910
| 19> H         1.765659   -2.111168   -0.519326
| 20> *
| 21>
| 22> $new_job
| 23> ! ri-mp2 aug-cc-pvtz aug-cc-pvtz/c tightscf
| 24> %pal nprocs 16 end
| 25> %maxcore 3800
| 26> %base "TZ_B-Cl_41_AB"
| 27>
| 28> *xyz 0 1
| 29> Cl        -1.274496    1.702088    0.139321
| 30> Cl        -1.871412   -1.215077   -0.193570
| 31> B        -0.698841    0.070168    0.020687
| 32> C         0.833324   -0.269761    0.081443
| 33> N         1.611003    0.703495   -0.177614
| 34> C         3.037793    0.481347   -0.217592
| 35> H         3.418922    0.241668    0.780132
| 36> H         3.534626    1.384145   -0.564183
| 37> H         3.309548   -0.347606   -0.878112
| 38> C         1.311123   -1.669091    0.370690
| 39> H         0.499667   -2.317673    0.687426
| 40> H         2.075756   -1.658832    1.148910
| 41> H         1.765659   -2.111168   -0.519326
| 42> *
| 43>
| 44> $new_job
| 45> ! ri-mp2 aug-cc-pvqz aug-cc-pvqz/c tightscf
| 46> %pal nprocs 16 end
| 47> %maxcore 3800
| 48> %base "QZ_B-Cl_41_AB"
| 49>
| 50> *xyz 0 1
| 51> Cl        -1.274496    1.702088    0.139321
| 52> Cl        -1.871412   -1.215077   -0.193570
| 53> B        -0.698841    0.070168    0.020687
| 54> C         0.833324   -0.269761    0.081443
| 55> N         1.611003    0.703495   -0.177614
| 56> C         3.037793    0.481347   -0.217592
| 57> H         3.418922    0.241668    0.780132
| 58> H         3.534626    1.384145   -0.564183
| 59> H         3.309548   -0.347606   -0.878112
| 60> C         1.311123   -1.669091    0.370690
| 61> H         0.499667   -2.317673    0.687426
| 62> H         2.075756   -1.658832    1.148910
| 63> H         1.765659   -2.111168   -0.519326
| 64> *
| 65>
| 66>
| 67>
| 68>
| 69>                          ****END OF INPUT****
 Total Charge           Charge          ....    0
 Multiplicity           Mult            ....    1
 Number of Electrons    NEL             ....   70
MP2 TOTAL ENERGY:    -1116.308212937 Eh
FINAL SINGLE POINT ENERGY     -1116.308212937283
MP2 TOTAL ENERGY:    -1116.604087521 Eh
FINAL SINGLE POINT ENERGY     -1116.604087520788

CARTESIAN COORDINATES (ANGSTROEM)
---------------------------------
  Cl    -1.274496    1.702088    0.139321
  Cl    -1.871412   -1.215077   -0.193570
  B     -0.698841    0.070168    0.020687
  C      0.833324   -0.269761    0.081443
  N      1.611003    0.703495   -0.177614
  C      3.037793    0.481347   -0.217592
  H      3.418922    0.241668    0.780132
  H      3.534626    1.384145   -0.564183
  H      3.309548   -0.347606   -0.878112
  C      1.311123   -1.669091    0.370690
  H      0.499667   -2.317673    0.687426
  H      2.075756   -1.658832    1.148910
  H      1.765659   -2.111168   -0.519326

 Multiplicity           Mult            ....    1
 Number of Electrons    NEL             ....   70
 Basis Dimension        Dim             ....  844

ORBITAL ENERGIES
----------------

  NO   OCC          E(Eh)            E(eV)
   0   2.0000    -104.842415     -2852.9071
   1   2.0000    -104.833870     -2852.6746
   2   2.0000     -15.574402      -423.8010
   3   2.0000     -11.273294      -306.7619
   4   2.0000     -11.254045      -306.2381
   5   2.0000     -11.235646      -305.7375
   6   2.0000     -10.570376      -287.6346
   7   2.0000     -10.561749      -287.3998
   8   2.0000      -8.037175      -218.7026
   9   2.0000      -8.036165      -218.6752
  10   2.0000      -8.035894      -218.6678
  11   2.0000      -8.028600      -218.4693
  12   2.0000      -8.027521      -218.4399
  13   2.0000      -8.027218      -218.4317
  14   2.0000      -7.708536      -209.7599
  15   2.0000      -1.246424       -33.9169
  16   2.0000      -1.142502       -31.0891
  17   2.0000      -1.097846       -29.8739
  18   2.0000      -1.012589       -27.5539
  19   2.0000      -0.950499       -25.8644
  20   2.0000      -0.775677       -21.1072
  21   2.0000      -0.682479       -18.5712
  22   2.0000      -0.638964       -17.3871
  23   2.0000      -0.632754       -17.2181
  24   2.0000      -0.623327       -16.9616
  25   2.0000      -0.568163       -15.4605
  26   2.0000      -0.565812       -15.3965
  27   2.0000      -0.555952       -15.1282
  28   2.0000      -0.539567       -14.6824
  29   2.0000      -0.516774       -14.0621
  30   2.0000      -0.470157       -12.7936
  31   2.0000      -0.464353       -12.6357
  32   2.0000      -0.448471       -12.2035
  33   2.0000      -0.415373       -11.3029
  34   2.0000      -0.402575       -10.9546
  35   0.0000       0.020766         0.5651
  36   0.0000       0.031465         0.8562
  37   0.0000       0.033363         0.9078
  38   0.0000       0.038954         1.0600
  39   0.0000       0.048416         1.3175

MULLIKEN ATOMIC CHARGES
-----------------------
   0 Cl:   -0.212594
   1 Cl:   -0.251751
   2 B :    0.761189
   3 C :    0.108579
   4 N :   -0.598614
   5 C :   -0.818140
   6 H :    0.254871
   7 H :    0.427667
   8 H :    0.257066
   9 C :   -0.735183
  10 H :    0.311470
  11 H :    0.236887
  12 H :    0.258551
Sum of atomic charges:    0.0000000

LOEWDIN ATOMIC CHARGES
----------------------
   0 Cl:    1.286987
   1 Cl:    1.291545
   2 B :   -2.378085
   3 C :   -0.388218
   4 N :    0.557781
   5 C :    0.676439
   6 H :   -0.306656
   7 H :   -0.316045
   8 H :   -0.314482
   9 C :    0.829612
  10 H :   -0.355848
  11 H :   -0.299370
  12 H :   -0.283658

  Mayer bond orders larger than 0.100000
B(  0-Cl,  2-B ) :   0.9904 B(  0-Cl,  3-C ) :   0.1409 B(  1-Cl,  2-B ) :   0.9659
B(  1-Cl,  3-C ) :   0.1089 B(  2-B ,  3-C ) :   1.0508 B(  3-C ,  4-N ) :   1.5137
B(  3-C ,  9-C ) :   0.7666 B(  4-N ,  5-C ) :   0.9950 B(  5-C ,  6-H ) :   0.9266
B(  5-C ,  7-H ) :   0.8406 B(  5-C ,  8-H ) :   0.9270 B(  9-C , 10-H ) :   0.9422
B(  9-C , 11-H ) :   0.9915 B(  9-C , 12-H ) :   0.9417

MP2 TOTAL ENERGY:    -1116.700533479 Eh
FINAL SINGLE POINT ENERGY     -1116.700533478551

DIPOLE MOMENT
-------------
                                X             Y             Z
Electronic contribution:    -17.89720       4.53064      -0.51840
Nuclear contribution   :     18.77232      -5.30293       0.68187
                        -----------------------------------------
Total Dipole Moment    :      0.87513      -0.77229       0.16346
                        -----------------------------------------
Magnitude (a.u.)       :      1.17856
Magnitude (Debye)      :      2.99565

Rotational constants in cm-1:     0.075879     0.040897     0.027305
Rotational constants in MHz :  2274.805446  1226.066829   818.594312

                             ****ORCA TERMINATED NORMALLY****
TOTAL RUN TIME: 0 days 0 hours 15 minutes 21 seconds 746 msec
