                         Program Version 5.0.4 -  RELEASE  -
|  1> ! ri-mp2 aug-cc-pvdz aug-cc-pvdz/c tightscf
|  2> %pal nprocs 16 end
|  3> %maxcore 3800
|  4> %base "DZ_Si-Si_57_AB"
|  5> %scf
|  6> STABPerform true
|  7> STABRestartUHFifUnstable true
|  8> end
|  9>
| 10> *xyz 0 1
| 11> Si         0.207976   -0.863755    0.397790
| 12> Si         2.103338    0.322060   -0.270124
| 13> C        -1.331737    0.239543    0.059496
| 14> O        -1.373904    1.357918    0.480988
| 15> H         0.202093   -1.157548    1.845006
| 16> H         0.053346   -2.140139   -0.345494
| 17> O        -2.368029   -0.244634   -0.664383
| 18> H         3.299724   -0.528091   -0.084512
| 19> H         2.234131    1.548154    0.540489
| 20> H        -2.197302   -1.155240   -0.932124
| 21> H         1.975505    0.673074   -1.700510
| 22> *
| 23>
| 24> $new_job
| 25> ! ri-mp2 aug-cc-pvtz aug-cc-pvtz/c tightscf
| 26> %pal nprocs 16 end
| 27> %maxcore 3800
| 28> %base "TZ_Si-Si_57_AB"
| 29>
| 30> *xyz 0 1
| 31> Si         0.207976   -0.863755    0.397790
| 32> Si         2.103338    0.322060   -0.270124
| 33> C        -1.331737    0.239543    0.059496
| 34> O        -1.373904    1.357918    0.480988
| 35> H         0.202093   -1.157548    1.845006
| 36> H         0.053346   -2.140139   -0.345494
| 37> O        -2.368029   -0.244634   -0.664383
| 38> H         3.299724   -0.528091   -0.084512
| 39> H         2.234131    1.548154    0.540489
| 40> H        -2.197302   -1.155240   -0.932124
| 41> H         1.975505    0.673074   -1.700510
| 42> *
| 43>
| 44> $new_job
| 45> ! ri-mp2 aug-cc-pvqz aug-cc-pvqz/c tightscf
| 46> %pal nprocs 16 end
| 47> %maxcore 3800
| 48> %base "QZ_Si-Si_57_AB"
| 49>
| 50> *xyz 0 1
| 51> Si         0.207976   -0.863755    0.397790
| 52> Si         2.103338    0.322060   -0.270124
| 53> C        -1.331737    0.239543    0.059496
| 54> O        -1.373904    1.357918    0.480988
| 55> H         0.202093   -1.157548    1.845006
| 56> H         0.053346   -2.140139   -0.345494
| 57> O        -2.368029   -0.244634   -0.664383
| 58> H         3.299724   -0.528091   -0.084512
| 59> H         2.234131    1.548154    0.540489
| 60> H        -2.197302   -1.155240   -0.932124
| 61> H         1.975505    0.673074   -1.700510
| 62> *
| 63>
| 64>
| 65>
| 66>
| 67>                          ****END OF INPUT****
 Total Charge           Charge          ....    0
 Multiplicity           Mult            ....    1
 Number of Electrons    NEL             ....   56
MP2 TOTAL ENERGY:     -769.712792332 Eh
FINAL SINGLE POINT ENERGY      -769.712792331531
MP2 TOTAL ENERGY:     -769.944184296 Eh
FINAL SINGLE POINT ENERGY      -769.944184296081

CARTESIAN COORDINATES (ANGSTROEM)
---------------------------------
  Si     0.207976   -0.863755    0.397790
  Si     2.103338    0.322060   -0.270124
  C     -1.331737    0.239543    0.059496
  O     -1.373904    1.357918    0.480988
  H      0.202093   -1.157548    1.845006
  H      0.053346   -2.140139   -0.345494
  O     -2.368029   -0.244634   -0.664383
  H      3.299724   -0.528091   -0.084512
  H      2.234131    1.548154    0.540489
  H     -2.197302   -1.155240   -0.932124
  H      1.975505    0.673074   -1.700510

 Multiplicity           Mult            ....    1
 Number of Electrons    NEL             ....   56
 Basis Dimension        Dim             ....  684

ORBITAL ENERGIES
----------------

  NO   OCC          E(Eh)            E(eV)
   0   2.0000     -68.796598     -1872.0506
   1   2.0000     -68.783108     -1871.6835
   2   2.0000     -20.614969      -560.9618
   3   2.0000     -20.553124      -559.2789
   4   2.0000     -11.372892      -309.4721
   5   2.0000      -6.147577      -167.2841
   6   2.0000      -6.133969      -166.9138
   7   2.0000      -4.253704      -115.7492
   8   2.0000      -4.253559      -115.7452
   9   2.0000      -4.253359      -115.7398
  10   2.0000      -4.240225      -115.3824
  11   2.0000      -4.240008      -115.3765
  12   2.0000      -4.239919      -115.3741
  13   2.0000      -1.462872       -39.8068
  14   2.0000      -1.370725       -37.2993
  15   2.0000      -0.852831       -23.2067
  16   2.0000      -0.803537       -21.8654
  17   2.0000      -0.732412       -19.9299
  18   2.0000      -0.667666       -18.1681
  19   2.0000      -0.650542       -17.7021
  20   2.0000      -0.629107       -17.1189
  21   2.0000      -0.571303       -15.5459
  22   2.0000      -0.519137       -14.1264
  23   2.0000      -0.500030       -13.6065
  24   2.0000      -0.493363       -13.4251
  25   2.0000      -0.485297       -13.2056
  26   2.0000      -0.434419       -11.8211
  27   2.0000      -0.415990       -11.3197
  28   0.0000       0.019692         0.5359
  29   0.0000       0.025888         0.7044
  30   0.0000       0.033229         0.9042
  31   0.0000       0.039484         1.0744
  32   0.0000       0.046245         1.2584

MULLIKEN ATOMIC CHARGES
-----------------------
   0 Si:    0.823135
   1 Si:    0.372166
   2 C :    0.767172
   3 O :   -0.769215
   4 H :   -0.165787
   5 H :   -0.217353
   6 O :   -0.775976
   7 H :   -0.152392
   8 H :   -0.118594
   9 H :    0.362505
  10 H :   -0.125660
Sum of atomic charges:   -0.0000000

LOEWDIN ATOMIC CHARGES
----------------------
   0 Si:    0.668095
   1 Si:    1.050960
   2 C :   -1.113925
   3 O :    0.575386
   4 H :   -0.275427
   5 H :   -0.274626
   6 O :    1.167077
   7 H :   -0.318735
   8 H :   -0.305872
   9 H :   -0.863116
  10 H :   -0.309817

  Mayer bond orders larger than 0.100000
B(  0-Si,  1-Si) :   0.7430 B(  0-Si,  2-C ) :   0.6541 B(  0-Si,  4-H ) :   0.8240
B(  0-Si,  5-H ) :   0.8196 B(  1-Si,  7-H ) :   0.7829 B(  1-Si,  8-H ) :   0.7902
B(  1-Si, 10-H ) :   0.7626 B(  2-C ,  3-O ) :   1.6139 B(  2-C ,  6-O ) :   0.8316
B(  6-O ,  9-H ) :   0.8294

MP2 TOTAL ENERGY:     -770.021701482 Eh
FINAL SINGLE POINT ENERGY      -770.021701481997

DIPOLE MOMENT
-------------
                                X             Y             Z
Electronic contribution:     -4.54720       1.24103       0.35976
Nuclear contribution   :      5.31478      -2.68240      -0.68094
                        -----------------------------------------
Total Dipole Moment    :      0.76758      -1.44137      -0.32119
                        -----------------------------------------
Magnitude (a.u.)       :      1.66430
Magnitude (Debye)      :      4.23030

Rotational constants in cm-1:     0.186807     0.053294     0.047262
Rotational constants in MHz :  5600.329427  1597.723630  1416.864257

                             ****ORCA TERMINATED NORMALLY****
TOTAL RUN TIME: 0 days 0 hours 26 minutes 58 seconds 579 msec
