                         Program Version 5.0.4 -  RELEASE  -
|  1> ! ri-mp2 aug-cc-pvdz aug-cc-pvdz/c tightscf
|  2> %pal nprocs 16 end
|  3> %maxcore 3800
|  4> %base "DZ_P-C_49_AB"
|  5>
|  6> *xyz 0 1
|  7> P        -1.171462   -0.526988   -0.415651
|  8> C        -0.014049    0.634717    0.426662
|  9> N        -2.722499    0.469697   -0.135441
| 10> O        -2.662575    1.682670   -0.119493
| 11> O        -3.751145   -0.168998   -0.085200
| 12> C        -1.493661   -1.767660    0.878157
| 13> H        -0.616357   -2.409248    0.932835
| 14> H        -2.353370   -2.363912    0.583576
| 15> H        -1.681308   -1.317888    1.851909
| 16> P         1.541987    0.887487   -0.494411
| 17> H         0.161394    0.352558    1.465119
| 18> H        -0.517555    1.605971    0.410316
| 19> N         2.255018   -0.790517   -0.209216
| 20> O         1.478275   -1.730178   -0.202825
| 21> O         3.456186   -0.890740   -0.125603
| 22> C         2.553766    1.779939    0.728917
| 23> H         2.187575    2.806709    0.768569
| 24> H         3.586829    1.798393    0.389425
| 25> H         2.505010    1.341666    1.724327
| 26> *
| 27>
| 28> $new_job
| 29> ! ri-mp2 aug-cc-pvtz aug-cc-pvtz/c tightscf
| 30> %pal nprocs 16 end
| 31> %maxcore 3800
| 32> %base "TZ_P-C_49_AB"
| 33>
| 34> *xyz 0 1
| 35> P        -1.171462   -0.526988   -0.415651
| 36> C        -0.014049    0.634717    0.426662
| 37> N        -2.722499    0.469697   -0.135441
| 38> O        -2.662575    1.682670   -0.119493
| 39> O        -3.751145   -0.168998   -0.085200
| 40> C        -1.493661   -1.767660    0.878157
| 41> H        -0.616357   -2.409248    0.932835
| 42> H        -2.353370   -2.363912    0.583576
| 43> H        -1.681308   -1.317888    1.851909
| 44> P         1.541987    0.887487   -0.494411
| 45> H         0.161394    0.352558    1.465119
| 46> H        -0.517555    1.605971    0.410316
| 47> N         2.255018   -0.790517   -0.209216
| 48> O         1.478275   -1.730178   -0.202825
| 49> O         3.456186   -0.890740   -0.125603
| 50> C         2.553766    1.779939    0.728917
| 51> H         2.187575    2.806709    0.768569
| 52> H         3.586829    1.798393    0.389425
| 53> H         2.505010    1.341666    1.724327
| 54> *
| 55>
| 56> $new_job
| 57> ! ri-mp2 aug-cc-pvqz aug-cc-pvqz/c tightscf
| 58> %pal nprocs 16 end
| 59> %maxcore 3800
| 60> %base "QZ_P-C_49_AB"
| 61>
| 62> *xyz 0 1
| 63> P        -1.171462   -0.526988   -0.415651
| 64> C        -0.014049    0.634717    0.426662
| 65> N        -2.722499    0.469697   -0.135441
| 66> O        -2.662575    1.682670   -0.119493
| 67> O        -3.751145   -0.168998   -0.085200
| 68> C        -1.493661   -1.767660    0.878157
| 69> H        -0.616357   -2.409248    0.932835
| 70> H        -2.353370   -2.363912    0.583576
| 71> H        -1.681308   -1.317888    1.851909
| 72> P         1.541987    0.887487   -0.494411
| 73> H         0.161394    0.352558    1.465119
| 74> H        -0.517555    1.605971    0.410316
| 75> N         2.255018   -0.790517   -0.209216
| 76> O         1.478275   -1.730178   -0.202825
| 77> O         3.456186   -0.890740   -0.125603
| 78> C         2.553766    1.779939    0.728917
| 79> H         2.187575    2.806709    0.768569
| 80> H         3.586829    1.798393    0.389425
| 81> H         2.505010    1.341666    1.724327
| 82> *
| 83>
| 84>
| 85>
| 86>
| 87>                          ****END OF INPUT****
 Total Charge           Charge          ....    0
 Multiplicity           Mult            ....    1
 Number of Electrons    NEL             ....  102
MP2 TOTAL ENERGY:    -1209.802464605 Eh
FINAL SINGLE POINT ENERGY     -1209.802464605425
MP2 TOTAL ENERGY:    -1210.336879479 Eh
FINAL SINGLE POINT ENERGY     -1210.336879479094

CARTESIAN COORDINATES (ANGSTROEM)
---------------------------------
  P     -1.171462   -0.526988   -0.415651
  C     -0.014049    0.634717    0.426662
  N     -2.722499    0.469697   -0.135441
  O     -2.662575    1.682670   -0.119493
  O     -3.751145   -0.168998   -0.085200
  C     -1.493661   -1.767660    0.878157
  H     -0.616357   -2.409248    0.932835
  H     -2.353370   -2.363912    0.583576
  H     -1.681308   -1.317888    1.851909
  P      1.541987    0.887487   -0.494411
  H      0.161394    0.352558    1.465119
  H     -0.517555    1.605971    0.410316
  N      2.255018   -0.790517   -0.209216
  O      1.478275   -1.730178   -0.202825
  O      3.456186   -0.890740   -0.125603
  C      2.553766    1.779939    0.728917
  H      2.187575    2.806709    0.768569
  H      3.586829    1.798393    0.389425
  H      2.505010    1.341666    1.724327

 Multiplicity           Mult            ....    1
 Number of Electrons    NEL             ....  102
 Basis Dimension        Dim             .... 1256

ORBITAL ENERGIES
----------------

  NO   OCC          E(Eh)            E(eV)
   0   2.0000     -80.024939     -2177.5893
   1   2.0000     -80.015842     -2177.3417
   2   2.0000     -20.621782      -561.1472
   3   2.0000     -20.616950      -561.0157
   4   2.0000     -20.602111      -560.6119
   5   2.0000     -20.601972      -560.6082
   6   2.0000     -15.846303      -431.1998
   7   2.0000     -15.828918      -430.7268
   8   2.0000     -11.277865      -306.8863
   9   2.0000     -11.267599      -306.6070
  10   2.0000     -11.251471      -306.1681
  11   2.0000      -7.564198      -205.8323
  12   2.0000      -7.554332      -205.5638
  13   2.0000      -5.458182      -148.5247
  14   2.0000      -5.456905      -148.4899
  15   2.0000      -5.455944      -148.4638
  16   2.0000      -5.448153      -148.2518
  17   2.0000      -5.446902      -148.2177
  18   2.0000      -5.445867      -148.1896
  19   2.0000      -1.623966       -44.1903
  20   2.0000      -1.606715       -43.7209
  21   2.0000      -1.421494       -38.6808
  22   2.0000      -1.404030       -38.2056
  23   2.0000      -1.097041       -29.8520
  24   2.0000      -1.048445       -28.5296
  25   2.0000      -0.982302       -26.7298
  26   2.0000      -0.964208       -26.2374
  27   2.0000      -0.947125       -25.7726
  28   2.0000      -0.825076       -22.4515
  29   2.0000      -0.803698       -21.8697
  30   2.0000      -0.745773       -20.2935
  31   2.0000      -0.735132       -20.0040
  32   2.0000      -0.729047       -19.8384
  33   2.0000      -0.724025       -19.7017
  34   2.0000      -0.717798       -19.5323
  35   2.0000      -0.693007       -18.8577
  36   2.0000      -0.636904       -17.3311
  37   2.0000      -0.620232       -16.8774
  38   2.0000      -0.609725       -16.5915
  39   2.0000      -0.600787       -16.3482
  40   2.0000      -0.593062       -16.1380
  41   2.0000      -0.568197       -15.4614
  42   2.0000      -0.514572       -14.0022
  43   2.0000      -0.508813       -13.8455
  44   2.0000      -0.489917       -13.3313
  45   2.0000      -0.485942       -13.2231
  46   2.0000      -0.476149       -12.9567
  47   2.0000      -0.469753       -12.7826
  48   2.0000      -0.458769       -12.4837
  49   2.0000      -0.411527       -11.1982
  50   2.0000      -0.397487       -10.8162
  51   0.0000       0.016825         0.4578
  52   0.0000       0.025975         0.7068
  53   0.0000       0.033585         0.9139
  54   0.0000       0.034749         0.9456
  55   0.0000       0.044532         1.2118

MULLIKEN ATOMIC CHARGES
-----------------------
   0 P :    0.943746
   1 C :   -0.978687
   2 N :    0.652133
   3 O :   -0.670924
   4 O :   -0.612169
   5 C :   -1.245603
   6 H :    0.386998
   7 H :    0.384724
   8 H :    0.310089
   9 P :    0.859754
  10 H :    0.337952
  11 H :    0.389733
  12 N :    0.736366
  13 O :   -0.700757
  14 O :   -0.620274
  15 C :   -1.202811
  16 H :    0.346719
  17 H :    0.381772
  18 H :    0.301241
Sum of atomic charges:    0.0000000

LOEWDIN ATOMIC CHARGES
----------------------
   0 P :    0.733331
   1 C :    0.189875
   2 N :   -1.006692
   3 O :    0.462907
   4 O :    0.445757
   5 C :    0.771952
   6 H :   -0.397087
   7 H :   -0.367313
   8 H :   -0.337127
   9 P :    0.781645
  10 H :   -0.393362
  11 H :   -0.522947
  12 N :   -1.007070
  13 O :    0.460372
  14 O :    0.463854
  15 C :    0.779383
  16 H :   -0.350744
  17 H :   -0.366803
  18 H :   -0.339931

  Mayer bond orders larger than 0.100000
B(  0-P ,  1-C ) :   0.7330 B(  0-P ,  2-N ) :   0.6112 B(  0-P ,  5-C ) :   0.9994
B(  1-C ,  9-P ) :   0.8377 B(  1-C , 10-H ) :   0.8706 B(  1-C , 11-H ) :   0.8441
B(  2-N ,  3-O ) :   1.1716 B(  2-N ,  4-O ) :   1.2562 B(  3-O ,  4-O ) :   0.1181
B(  5-C ,  6-H ) :   0.8649 B(  5-C ,  7-H ) :   0.8494 B(  5-C ,  8-H ) :   0.8820
B(  9-P , 12-N ) :   0.5891 B(  9-P , 15-C ) :   0.9544 B( 12-N , 13-O ) :   1.0948
B( 12-N , 14-O ) :   1.2935 B( 13-O , 14-O ) :   0.1174 B( 15-C , 16-H ) :   0.8837
B( 15-C , 17-H ) :   0.8684 B( 15-C , 18-H ) :   0.8873

MP2 TOTAL ENERGY:    -1210.511974513 Eh
FINAL SINGLE POINT ENERGY     -1210.511974513193

DIPOLE MOMENT
-------------
                                X             Y             Z
Electronic contribution:     -1.73513      -0.74034      -7.69199
Nuclear contribution   :      2.79845       1.40400       8.68796
                        -----------------------------------------
Total Dipole Moment    :      1.06331       0.66366       0.99597
                        -----------------------------------------
Magnitude (a.u.)       :      1.60095
Magnitude (Debye)      :      4.06929

Rotational constants in cm-1:     0.055614     0.016240     0.013435
Rotational constants in MHz :  1667.258511   486.857372   402.783005

                             ****ORCA TERMINATED NORMALLY****
TOTAL RUN TIME: 0 days 0 hours 39 minutes 18 seconds 642 msec
