                         Program Version 5.0.4 -  RELEASE  -
|  1> ! ri-mp2 aug-cc-pvdz aug-cc-pvdz/c tightscf
|  2> %pal nprocs 16 end
|  3> %maxcore 3800
|  4> %base "DZ_P-S_22_AB"
|  5> %scf
|  6> STABPerform true
|  7> STABRestartUHFifUnstable true
|  8> end
|  9>
| 10> *xyz 0 1
| 11> C         2.511184   -0.296828   -0.318029
| 12> C         1.123546    0.223983   -0.026812
| 13> S        -0.152765   -0.724047   -0.812483
| 14> O         0.930969    1.179692    0.690708
| 15> P        -1.916043   -0.012742    0.159862
| 16> O        -2.313706   -0.878918    1.260356
| 17> C         2.949332   -1.157317    0.870252
| 18> H         3.005171   -0.552887    1.775423
| 19> H         3.935834   -1.575842    0.674068
| 20> H         2.257456   -1.980317    1.046597
| 21> C         3.472327    0.856184   -0.572485
| 22> H         2.452416   -0.932036   -1.204073
| 23> H         3.525430    1.509373    0.296869
| 24> H         3.161005    1.454329   -1.428696
| 25> H         4.469496    0.466082   -0.774235
| 26> O        -2.953723    0.033176   -1.034835
| 27> H        -3.674501   -0.592823   -0.892396
| 28> O        -1.615920    1.491551    0.421410
| 29> H        -0.666712    1.619870    0.689559
| 30> *
| 31>
| 32> $new_job
| 33> ! ri-mp2 aug-cc-pvtz aug-cc-pvtz/c tightscf
| 34> %pal nprocs 16 end
| 35> %maxcore 3800
| 36> %base "TZ_P-S_22_AB"
| 37>
| 38> *xyz 0 1
| 39> C         2.511184   -0.296828   -0.318029
| 40> C         1.123546    0.223983   -0.026812
| 41> S        -0.152765   -0.724047   -0.812483
| 42> O         0.930969    1.179692    0.690708
| 43> P        -1.916043   -0.012742    0.159862
| 44> O        -2.313706   -0.878918    1.260356
| 45> C         2.949332   -1.157317    0.870252
| 46> H         3.005171   -0.552887    1.775423
| 47> H         3.935834   -1.575842    0.674068
| 48> H         2.257456   -1.980317    1.046597
| 49> C         3.472327    0.856184   -0.572485
| 50> H         2.452416   -0.932036   -1.204073
| 51> H         3.525430    1.509373    0.296869
| 52> H         3.161005    1.454329   -1.428696
| 53> H         4.469496    0.466082   -0.774235
| 54> O        -2.953723    0.033176   -1.034835
| 55> H        -3.674501   -0.592823   -0.892396
| 56> O        -1.615920    1.491551    0.421410
| 57> H        -0.666712    1.619870    0.689559
| 58> *
| 59>
| 60> $new_job
| 61> ! ri-mp2 aug-cc-pvqz aug-cc-pvqz/c tightscf
| 62> %pal nprocs 16 end
| 63> %maxcore 3800
| 64> %base "QZ_P-S_22_AB"
| 65>
| 66> *xyz 0 1
| 67> C         2.511184   -0.296828   -0.318029
| 68> C         1.123546    0.223983   -0.026812
| 69> S        -0.152765   -0.724047   -0.812483
| 70> O         0.930969    1.179692    0.690708
| 71> P        -1.916043   -0.012742    0.159862
| 72> O        -2.313706   -0.878918    1.260356
| 73> C         2.949332   -1.157317    0.870252
| 74> H         3.005171   -0.552887    1.775423
| 75> H         3.935834   -1.575842    0.674068
| 76> H         2.257456   -1.980317    1.046597
| 77> C         3.472327    0.856184   -0.572485
| 78> H         2.452416   -0.932036   -1.204073
| 79> H         3.525430    1.509373    0.296869
| 80> H         3.161005    1.454329   -1.428696
| 81> H         4.469496    0.466082   -0.774235
| 82> O        -2.953723    0.033176   -1.034835
| 83> H        -3.674501   -0.592823   -0.892396
| 84> O        -1.615920    1.491551    0.421410
| 85> H        -0.666712    1.619870    0.689559
| 86> *
| 87>
| 88>
| 89>
| 90>
| 91>                          ****END OF INPUT****
 Total Charge           Charge          ....    0
 Multiplicity           Mult            ....    1
 Number of Electrons    NEL             ....   96
MP2 TOTAL ENERGY:    -1196.232948061 Eh
FINAL SINGLE POINT ENERGY     -1196.232948061354
MP2 TOTAL ENERGY:    -1196.761501154 Eh
FINAL SINGLE POINT ENERGY     -1196.761501154044

CARTESIAN COORDINATES (ANGSTROEM)
---------------------------------
  C      2.511184   -0.296828   -0.318029
  C      1.123546    0.223983   -0.026812
  S     -0.152765   -0.724047   -0.812483
  O      0.930969    1.179692    0.690708
  P     -1.916043   -0.012742    0.159862
  O     -2.313706   -0.878918    1.260356
  C      2.949332   -1.157317    0.870252
  H      3.005171   -0.552887    1.775423
  H      3.935834   -1.575842    0.674068
  H      2.257456   -1.980317    1.046597
  C      3.472327    0.856184   -0.572485
  H      2.452416   -0.932036   -1.204073
  H      3.525430    1.509373    0.296869
  H      3.161005    1.454329   -1.428696
  H      4.469496    0.466082   -0.774235
  O     -2.953723    0.033176   -1.034835
  H     -3.674501   -0.592823   -0.892396
  O     -1.615920    1.491551    0.421410
  H     -0.666712    1.619870    0.689559

 Multiplicity           Mult            ....    1
 Number of Electrons    NEL             ....   96
 Basis Dimension        Dim             .... 1222

ORBITAL ENERGIES
----------------

  NO   OCC          E(Eh)            E(eV)
   0   2.0000     -91.992268     -2503.2369
   1   2.0000     -80.096710     -2179.5423
   2   2.0000     -20.613835      -560.9310
   3   2.0000     -20.593677      -560.3824
   4   2.0000     -20.592935      -560.3623
   5   2.0000     -20.516550      -558.2837
   6   2.0000     -11.397903      -310.1527
   7   2.0000     -11.270952      -306.6982
   8   2.0000     -11.242442      -305.9224
   9   2.0000     -11.237545      -305.7892
  10   2.0000      -8.997021      -244.8214
  11   2.0000      -7.616865      -207.2654
  12   2.0000      -6.678265      -181.7248
  13   2.0000      -6.677274      -181.6979
  14   2.0000      -6.676657      -181.6811
  15   2.0000      -5.515408      -150.0819
  16   2.0000      -5.515066      -150.0726
  17   2.0000      -5.513489      -150.0297
  18   2.0000      -1.456706       -39.6390
  19   2.0000      -1.442218       -39.2447
  20   2.0000      -1.392189       -37.8834
  21   2.0000      -1.311014       -35.6745
  22   2.0000      -1.124650       -30.6033
  23   2.0000      -1.044027       -28.4094
  24   2.0000      -0.961083       -26.1524
  25   2.0000      -0.893723       -24.3194
  26   2.0000      -0.854194       -23.2438
  27   2.0000      -0.778491       -21.1838
  28   2.0000      -0.728329       -19.8188
  29   2.0000      -0.702979       -19.1290
  30   2.0000      -0.692255       -18.8372
  31   2.0000      -0.670858       -18.2550
  32   2.0000      -0.657334       -17.8870
  33   2.0000      -0.635073       -17.2812
  34   2.0000      -0.621318       -16.9069
  35   2.0000      -0.599133       -16.3032
  36   2.0000      -0.574988       -15.6462
  37   2.0000      -0.573205       -15.5977
  38   2.0000      -0.566219       -15.4076
  39   2.0000      -0.558636       -15.2013
  40   2.0000      -0.553814       -15.0700
  41   2.0000      -0.515910       -14.0386
  42   2.0000      -0.509774       -13.8717
  43   2.0000      -0.507110       -13.7992
  44   2.0000      -0.476816       -12.9748
  45   2.0000      -0.452746       -12.3198
  46   2.0000      -0.442700       -12.0465
  47   2.0000      -0.409611       -11.1461
  48   0.0000       0.019882         0.5410
  49   0.0000       0.028735         0.7819
  50   0.0000       0.030857         0.8396
  51   0.0000       0.032792         0.8923
  52   0.0000       0.041257         1.1227

MULLIKEN ATOMIC CHARGES
-----------------------
   0 C :    0.240710
   1 C :    0.558398
   2 S :   -0.157254
   3 O :   -0.756289
   4 P :    2.386113
   5 O :   -1.134105
   6 C :   -0.943535
   7 H :    0.223445
   8 H :    0.328163
   9 H :    0.305492
  10 C :   -0.930682
  11 H :    0.300104
  12 H :    0.230969
  13 H :    0.257639
  14 H :    0.295588
  15 O :   -0.986049
  16 H :    0.394208
  17 O :   -0.905988
  18 H :    0.293073
Sum of atomic charges:   -0.0000000

LOEWDIN ATOMIC CHARGES
----------------------
   0 C :   -0.058620
   1 C :   -1.057374
   2 S :    1.252932
   3 O :    0.835718
   4 P :   -1.015800
   5 O :    0.246886
   6 C :    0.910838
   7 H :   -0.275803
   8 H :   -0.270401
   9 H :   -0.275423
  10 C :    0.907883
  11 H :   -0.348115
  12 H :   -0.290068
  13 H :   -0.268390
  14 H :   -0.273426
  15 O :    1.046751
  16 H :   -0.880094
  17 O :    1.053588
  18 H :   -1.241082

  Mayer bond orders larger than 0.100000
B(  0-C ,  1-C ) :   0.7861 B(  0-C ,  2-S ) :  -0.1112 B(  0-C ,  6-C ) :   0.7650
B(  0-C , 10-C ) :   0.7550 B(  0-C , 11-H ) :   0.8533 B(  1-C ,  2-S ) :   0.9024
B(  1-C ,  3-O ) :   1.2659 B(  2-S ,  4-P ) :   0.9178 B(  2-S , 15-O ) :  -0.1213
B(  3-O , 18-H ) :   0.1772 B(  4-P ,  5-O ) :   1.3090 B(  4-P , 15-O ) :   0.6524
B(  4-P , 17-O ) :   0.7208 B(  6-C ,  7-H ) :   0.9693 B(  6-C ,  8-H ) :   0.9332
B(  6-C ,  9-H ) :   0.9432 B( 10-C , 12-H ) :   0.9598 B( 10-C , 13-H ) :   0.9973
B( 10-C , 14-H ) :   0.9840 B( 15-O , 16-H ) :   0.9109 B( 17-O , 18-H ) :   0.8261

MP2 TOTAL ENERGY:    -1196.932081512 Eh
FINAL SINGLE POINT ENERGY     -1196.932081511645

DIPOLE MOMENT
-------------
                                X             Y             Z
Electronic contribution:    -18.45055       0.14518      -1.13175
Nuclear contribution   :     19.77880      -0.51010       0.07542
                        -----------------------------------------
Total Dipole Moment    :      1.32825      -0.36492      -1.05634
                        -----------------------------------------
Magnitude (a.u.)       :      1.73587
Magnitude (Debye)      :      4.41224

Rotational constants in cm-1:     0.073830     0.018221     0.017646
Rotational constants in MHz :  2213.361346   546.266671   529.009136

                             ****ORCA TERMINATED NORMALLY****
TOTAL RUN TIME: 0 days 3 hours 43 minutes 52 seconds 61 msec
