                         Program Version 5.0.4 -  RELEASE  -
|  1> ! ri-mp2 aug-cc-pvdz aug-cc-pvdz/c tightscf
|  2> %pal nprocs 16 end
|  3> %maxcore 3800
|  4> %base "DZ_B-F_70_AB"
|  5>
|  6> *xyz 0 1
|  7> F        -3.560764   -1.125599   -0.000009
|  8> F        -3.560764    1.125599   -0.000012
|  9> B        -2.871953    0.000000    0.000003
| 10> C        -1.323538    0.000000    0.000008
| 11> C        -0.616387    1.201642    0.000007
| 12> C         0.764864    1.211394    0.000007
| 13> C         1.426816    0.000000    0.000008
| 14> C        -0.616387   -1.201642    0.000010
| 15> H        -1.155561   -2.139364    0.000010
| 16> C         0.764864   -1.211394    0.000010
| 17> H         1.330726   -2.129978    0.000010
| 18> N         2.902242    0.000000    0.000004
| 19> O         3.461632    1.074176   -0.000011
| 20> O         3.461632   -1.074176   -0.000011
| 21> H        -1.155561    2.139364    0.000005
| 22> H         1.330726    2.129977    0.000005
| 23> *
| 24>
| 25> $new_job
| 26> ! ri-mp2 aug-cc-pvtz aug-cc-pvtz/c tightscf
| 27> %pal nprocs 16 end
| 28> %maxcore 3800
| 29> %base "TZ_B-F_70_AB"
| 30>
| 31> *xyz 0 1
| 32> F        -3.560764   -1.125599   -0.000009
| 33> F        -3.560764    1.125599   -0.000012
| 34> B        -2.871953    0.000000    0.000003
| 35> C        -1.323538    0.000000    0.000008
| 36> C        -0.616387    1.201642    0.000007
| 37> C         0.764864    1.211394    0.000007
| 38> C         1.426816    0.000000    0.000008
| 39> C        -0.616387   -1.201642    0.000010
| 40> H        -1.155561   -2.139364    0.000010
| 41> C         0.764864   -1.211394    0.000010
| 42> H         1.330726   -2.129978    0.000010
| 43> N         2.902242    0.000000    0.000004
| 44> O         3.461632    1.074176   -0.000011
| 45> O         3.461632   -1.074176   -0.000011
| 46> H        -1.155561    2.139364    0.000005
| 47> H         1.330726    2.129977    0.000005
| 48> *
| 49>
| 50> $new_job
| 51> ! ri-mp2 aug-cc-pvqz aug-cc-pvqz/c tightscf
| 52> %pal nprocs 16 end
| 53> %maxcore 3800
| 54> %base "QZ_B-F_70_AB"
| 55>
| 56> *xyz 0 1
| 57> F        -3.560764   -1.125599   -0.000009
| 58> F        -3.560764    1.125599   -0.000012
| 59> B        -2.871953    0.000000    0.000003
| 60> C        -1.323538    0.000000    0.000008
| 61> C        -0.616387    1.201642    0.000007
| 62> C         0.764864    1.211394    0.000007
| 63> C         1.426816    0.000000    0.000008
| 64> C        -0.616387   -1.201642    0.000010
| 65> H        -1.155561   -2.139364    0.000010
| 66> C         0.764864   -1.211394    0.000010
| 67> H         1.330726   -2.129978    0.000010
| 68> N         2.902242    0.000000    0.000004
| 69> O         3.461632    1.074176   -0.000011
| 70> O         3.461632   -1.074176   -0.000011
| 71> H        -1.155561    2.139364    0.000005
| 72> H         1.330726    2.129977    0.000005
| 73> *
| 74>
| 75>
| 76>
| 77>
| 78>                          ****END OF INPUT****
 Total Charge           Charge          ....    0
 Multiplicity           Mult            ....    1
 Number of Electrons    NEL             ....   86
MP2 TOTAL ENERGY:     -659.230863586 Eh
FINAL SINGLE POINT ENERGY      -659.230863585710
MP2 TOTAL ENERGY:     -659.786938798 Eh
FINAL SINGLE POINT ENERGY      -659.786938797547

CARTESIAN COORDINATES (ANGSTROEM)
---------------------------------
  F     -3.560764   -1.125599   -0.000009
  F     -3.560764    1.125599   -0.000012
  B     -2.871953    0.000000    0.000003
  C     -1.323538    0.000000    0.000008
  C     -0.616387    1.201642    0.000007
  C      0.764864    1.211394    0.000007
  C      1.426816    0.000000    0.000008
  C     -0.616387   -1.201642    0.000010
  H     -1.155561   -2.139364    0.000010
  C      0.764864   -1.211394    0.000010
  H      1.330726   -2.129978    0.000010
  N      2.902242    0.000000    0.000004
  O      3.461632    1.074176   -0.000011
  O      3.461632   -1.074176   -0.000011
  H     -1.155561    2.139364    0.000005
  H      1.330726    2.129977    0.000005

 Multiplicity           Mult            ....    1
 Number of Electrons    NEL             ....   86
 Basis Dimension        Dim             .... 1144

ORBITAL ENERGIES
----------------

  NO   OCC          E(Eh)            E(eV)
   0   2.0000     -26.325634      -716.3569
   1   2.0000     -26.325617      -716.3565
   2   2.0000     -20.610127      -560.8301
   3   2.0000     -20.610073      -560.8286
   4   2.0000     -15.862784      -431.6483
   5   2.0000     -11.325523      -308.1831
   6   2.0000     -11.280257      -306.9514
   7   2.0000     -11.280220      -306.9504
   8   2.0000     -11.278690      -306.9088
   9   2.0000     -11.278655      -306.9078
  10   2.0000     -11.262432      -306.4664
  11   2.0000      -7.724841      -210.2036
  12   2.0000      -1.659974       -45.1702
  13   2.0000      -1.628685       -44.3188
  14   2.0000      -1.627903       -44.2975
  15   2.0000      -1.419234       -38.6193
  16   2.0000      -1.216493       -33.1025
  17   2.0000      -1.107387       -30.1335
  18   2.0000      -1.067589       -29.0506
  19   2.0000      -0.976424       -26.5699
  20   2.0000      -0.881093       -23.9758
  21   2.0000      -0.853146       -23.2153
  22   2.0000      -0.826903       -22.5012
  23   2.0000      -0.797597       -21.7037
  24   2.0000      -0.776355       -21.1257
  25   2.0000      -0.761229       -20.7141
  26   2.0000      -0.742176       -20.1956
  27   2.0000      -0.738214       -20.0878
  28   2.0000      -0.728935       -19.8353
  29   2.0000      -0.678864       -18.4728
  30   2.0000      -0.678828       -18.4719
  31   2.0000      -0.674514       -18.3545
  32   2.0000      -0.659608       -17.9488
  33   2.0000      -0.654018       -17.7967
  34   2.0000      -0.635429       -17.2909
  35   2.0000      -0.553428       -15.0595
  36   2.0000      -0.540600       -14.7105
  37   2.0000      -0.540486       -14.7074
  38   2.0000      -0.506697       -13.7879
  39   2.0000      -0.505626       -13.7588
  40   2.0000      -0.467292       -12.7157
  41   2.0000      -0.397419       -10.8143
  42   2.0000      -0.381495       -10.3810
  43   0.0000       0.013545         0.3686
  44   0.0000       0.017653         0.4804
  45   0.0000       0.025726         0.7000
  46   0.0000       0.031841         0.8664
  47   0.0000       0.033108         0.9009

MULLIKEN ATOMIC CHARGES
-----------------------
   0 F :   -0.878281
   1 F :   -0.878281
   2 B :    1.924999
   3 C :    0.080650
   4 C :   -0.231150
   5 C :   -0.148227
   6 C :   -0.167344
   7 C :   -0.231147
   8 H :    0.218308
   9 C :   -0.148226
  10 H :    0.323922
  11 N :    0.807756
  12 O :   -0.607605
  13 O :   -0.607605
  14 H :    0.218308
  15 H :    0.323924
Sum of atomic charges:   -0.0000000

LOEWDIN ATOMIC CHARGES
----------------------
   0 F :    0.842495
   1 F :    0.842495
   2 B :   -1.725069
   3 C :    0.022859
   4 C :    0.338534
   5 C :    0.340613
   6 C :   -0.292306
   7 C :    0.338534
   8 H :   -0.316279
   9 C :    0.340612
  10 H :   -0.346569
  11 N :   -0.839168
  12 O :    0.558050
  13 O :    0.558050
  14 H :   -0.316279
  15 H :   -0.346570

  Mayer bond orders larger than 0.100000
B(  0-F ,  2-B ) :   0.1632 B(  1-F ,  2-B ) :   0.1632 B(  2-B ,  3-C ) :   0.9184
B(  3-C ,  4-C ) :   0.9630 B(  3-C ,  5-C ) :  -0.2711 B(  3-C ,  7-C ) :   0.9630
B(  3-C ,  8-H ) :  -0.1245 B(  3-C ,  9-C ) :  -0.2711 B(  3-C , 14-H ) :  -0.1245
B(  4-C ,  5-C ) :   1.2894 B(  4-C ,  6-C ) :  -0.2117 B(  4-C ,  9-C ) :   0.1342
B(  4-C , 14-H ) :   1.0269 B(  4-C , 15-H ) :  -0.1434 B(  5-C ,  6-C ) :   1.2820
B(  5-C ,  7-C ) :   0.1342 B(  5-C , 11-N ) :  -0.1067 B(  5-C , 14-H ) :  -0.1053
B(  5-C , 15-H ) :   0.9066 B(  6-C ,  7-C ) :  -0.2117 B(  6-C ,  9-C ) :   1.2820
B(  6-C , 11-N ) :   0.7804 B(  6-C , 12-O ) :   0.3052 B(  6-C , 13-O ) :   0.3052
B(  7-C ,  8-H ) :   1.0269 B(  7-C ,  9-C ) :   1.2894 B(  7-C , 10-H ) :  -0.1434
B(  8-H ,  9-C ) :  -0.1053 B(  9-C , 10-H ) :   0.9066 B(  9-C , 11-N ) :  -0.1067
B( 11-N , 12-O ) :   1.1578 B( 11-N , 13-O ) :   1.1578

MP2 TOTAL ENERGY:     -659.968656490 Eh
FINAL SINGLE POINT ENERGY      -659.968656489731

DIPOLE MOMENT
-------------
                                X             Y             Z
Electronic contribution:    -10.29435       0.00000      -0.00001
Nuclear contribution   :      9.28387      -0.00000       0.00005
                        -----------------------------------------
Total Dipole Moment    :     -1.01048      -0.00000       0.00003
                        -----------------------------------------
Magnitude (a.u.)       :      1.01048
Magnitude (Debye)      :      2.56844

Rotational constants in cm-1:     0.097234     0.014701     0.012770
Rotational constants in MHz :  2914.996839   440.724584   382.841901

                             ****ORCA TERMINATED NORMALLY****
TOTAL RUN TIME: 0 days 0 hours 37 minutes 8 seconds 769 msec
