                         Program Version 5.0.4 -  RELEASE  -
|  1> ! ri-mp2 aug-cc-pvdz aug-cc-pvdz/c tightscf
|  2> %pal nprocs 16 end
|  3> %maxcore 3800
|  4> %base "DZ_B-Si_36_A"
|  5> %scf
|  6> STABPerform true
|  7> STABRestartUHFifUnstable true
|  8> end
|  9>
| 10> *xyz 0 2
| 11> C         0.262687    0.000000    0.528859
| 12> C         1.376994    0.744641   -0.162790
| 13> C         1.376994   -0.744641   -0.162790
| 14> H         1.153489   -1.254359   -1.090376
| 15> H         2.098199   -1.254850    0.459871
| 16> H         2.098199    1.254850    0.459870
| 17> H         1.153489    1.254358   -1.090377
| 18> Si        -1.463341    0.000000   -0.148178
| 19> H         0.324509    0.000000    1.612809
| 20> H        -2.220579    1.212030    0.251512
| 21> H        -2.220578   -1.212030    0.251511
| 22> *
| 23>
| 24> $new_job
| 25> ! ri-mp2 aug-cc-pvtz aug-cc-pvtz/c tightscf
| 26> %pal nprocs 16 end
| 27> %maxcore 3800
| 28> %base "TZ_B-Si_36_A"
| 29>
| 30> *xyz 0 2
| 31> C         0.262687    0.000000    0.528859
| 32> C         1.376994    0.744641   -0.162790
| 33> C         1.376994   -0.744641   -0.162790
| 34> H         1.153489   -1.254359   -1.090376
| 35> H         2.098199   -1.254850    0.459871
| 36> H         2.098199    1.254850    0.459870
| 37> H         1.153489    1.254358   -1.090377
| 38> Si        -1.463341    0.000000   -0.148178
| 39> H         0.324509    0.000000    1.612809
| 40> H        -2.220579    1.212030    0.251512
| 41> H        -2.220578   -1.212030    0.251511
| 42> *
| 43>
| 44> $new_job
| 45> ! ri-mp2 aug-cc-pvqz aug-cc-pvqz/c tightscf
| 46> %pal nprocs 16 end
| 47> %maxcore 3800
| 48> %base "QZ_B-Si_36_A"
| 49>
| 50> *xyz 0 2
| 51> C         0.262687    0.000000    0.528859
| 52> C         1.376994    0.744641   -0.162790
| 53> C         1.376994   -0.744641   -0.162790
| 54> H         1.153489   -1.254359   -1.090376
| 55> H         2.098199   -1.254850    0.459871
| 56> H         2.098199    1.254850    0.459870
| 57> H         1.153489    1.254358   -1.090377
| 58> Si        -1.463341    0.000000   -0.148178
| 59> H         0.324509    0.000000    1.612809
| 60> H        -2.220579    1.212030    0.251512
| 61> H        -2.220578   -1.212030    0.251511
| 62> *
| 63>
| 64>
| 65>
| 66>
| 67>                          ****END OF INPUT****
 Total Charge           Charge          ....    0
 Multiplicity           Mult            ....    2
 Number of Electrons    NEL             ....   39
MP2 TOTAL ENERGY:     -407.067520980 Eh
FINAL SINGLE POINT ENERGY      -407.067520980018
MP2 TOTAL ENERGY:     -407.213064458 Eh
FINAL SINGLE POINT ENERGY      -407.213064458077

CARTESIAN COORDINATES (ANGSTROEM)
---------------------------------
  C      0.262687    0.000000    0.528859
  C      1.376994    0.744641   -0.162790
  C      1.376994   -0.744641   -0.162790
  H      1.153489   -1.254359   -1.090376
  H      2.098199   -1.254850    0.459871
  H      2.098199    1.254850    0.459870
  H      1.153489    1.254358   -1.090377
  Si    -1.463341    0.000000   -0.148178
  H      0.324509    0.000000    1.612809
  H     -2.220579    1.212030    0.251512
  H     -2.220578   -1.212030    0.251511

 Multiplicity           Mult            ....    2
 Number of Electrons    NEL             ....   39
 Basis Dimension        Dim             ....  646

ORBITAL ENERGIES
----------------
                 SPIN UP ORBITALS
  NO   OCC          E(Eh)            E(eV)
   0   1.0000     -68.770980     -1871.3535
   1   1.0000     -11.232624      -305.6553
   2   1.0000     -11.231869      -305.6347
   3   1.0000     -11.222261      -305.3733
   4   1.0000      -6.121423      -166.5724
   5   1.0000      -4.234356      -115.2227
   6   1.0000      -4.224319      -114.9496
   7   1.0000      -4.224046      -114.9421
   8   1.0000      -1.142832       -31.0980
   9   1.0000      -0.830554       -22.6005
  10   1.0000      -0.827160       -22.5082
  11   1.0000      -0.709781       -19.3141
  12   1.0000      -0.660908       -17.9842
  13   1.0000      -0.604685       -16.4543
  14   1.0000      -0.521128       -14.1806
  15   1.0000      -0.491895       -13.3852
  16   1.0000      -0.479272       -13.0416
  17   1.0000      -0.418992       -11.4013
  18   1.0000      -0.416415       -11.3312
  19   1.0000      -0.321988        -8.7617
  20   0.0000       0.024410         0.6642
  21   0.0000       0.033209         0.9037
  22   0.0000       0.034807         0.9472
  23   0.0000       0.035727         0.9722
  24   0.0000       0.049183         1.3383

                 SPIN DOWN ORBITALS
  NO   OCC          E(Eh)            E(eV)
   0   1.0000     -68.765330     -1871.1998
   1   1.0000     -11.232561      -305.6535
   2   1.0000     -11.231807      -305.6330
   3   1.0000     -11.221971      -305.3654
   4   1.0000      -6.112775      -166.3371
   5   1.0000      -4.220534      -114.8466
   6   1.0000      -4.220251      -114.8389
   7   1.0000      -4.212151      -114.6185
   8   1.0000      -1.141747       -31.0685
   9   1.0000      -0.826817       -22.4988
  10   1.0000      -0.822795       -22.3894
  11   1.0000      -0.685468       -18.6525
  12   1.0000      -0.653761       -17.7897
  13   1.0000      -0.593344       -16.1457
  14   1.0000      -0.520960       -14.1760
  15   1.0000      -0.484616       -13.1871
  16   1.0000      -0.472173       -12.8485
  17   1.0000      -0.417665       -11.3652
  18   1.0000      -0.413591       -11.2544
  19   0.0000       0.023768         0.6468
  20   0.0000       0.028529         0.7763
  21   0.0000       0.034930         0.9505
  22   0.0000       0.035369         0.9624
  23   0.0000       0.047492         1.2923

MULLIKEN ATOMIC CHARGES AND SPIN POPULATIONS
--------------------------------------------
   0 C :   -0.653779   -0.011874
   1 C :   -0.704299    0.011916
   2 C :   -0.704298    0.011917
   3 H :    0.360391   -0.003932
   4 H :    0.361387   -0.002140
   5 H :    0.361393   -0.002140
   6 H :    0.360382   -0.003931
   7 Si:    0.732706    0.976557
   8 H :    0.414082    0.014760
   9 H :   -0.263983    0.004434
  10 H :   -0.263982    0.004434
Sum of atomic charges         :    0.0000000

LOEWDIN ATOMIC CHARGES AND SPIN POPULATIONS
-------------------------------------------
   0 C :    0.046169    0.143614
   1 C :    0.499774    0.025007
   2 C :    0.499774    0.025007
   3 H :   -0.292862    0.011633
   4 H :   -0.275492    0.000771
   5 H :   -0.275493    0.000771
   6 H :   -0.292862    0.011633
   7 Si:    1.112312    0.514357
   8 H :   -0.349018    0.017415
   9 H :   -0.336150    0.124895
  10 H :   -0.336151    0.124895

  Mayer bond orders larger than 0.100000
B(  0-C ,  1-C ) :   0.9451 B(  0-C ,  2-C ) :   0.9451 B(  0-C ,  7-Si) :   0.7402
B(  0-C ,  8-H ) :   0.8262 B(  1-C ,  2-C ) :   1.0617 B(  1-C ,  5-H ) :   0.8502
B(  1-C ,  6-H ) :   0.8503 B(  2-C ,  3-H ) :   0.8503 B(  2-C ,  4-H ) :   0.8502
B(  7-Si,  9-H ) :   0.8885 B(  7-Si, 10-H ) :   0.8885

MP2 TOTAL ENERGY:     -407.257933960 Eh
FINAL SINGLE POINT ENERGY      -407.257933960228

DIPOLE MOMENT
-------------
                                X             Y             Z
Electronic contribution:     -2.17578       0.00000      -0.74431
Nuclear contribution   :      2.54756      -0.00000       0.88894
                        -----------------------------------------
Total Dipole Moment    :      0.37178      -0.00000       0.14463
                        -----------------------------------------
Magnitude (a.u.)       :      0.39892
Magnitude (Debye)      :      1.01397

Rotational constants in cm-1:     0.514083     0.121967     0.111878
Rotational constants in MHz : 15411.824897  3656.492737  3354.022980

                             ****ORCA TERMINATED NORMALLY****
TOTAL RUN TIME: 0 days 0 hours 54 minutes 38 seconds 802 msec
