                         Program Version 5.0.4 -  RELEASE  -
|  1> ! ri-mp2 aug-cc-pvdz aug-cc-pvdz/c tightscf
|  2> %pal nprocs 16 end
|  3> %maxcore 3800
|  4> %base "DZ_B-Cl_11_A"
|  5> %scf
|  6> STABPerform true
|  7> STABRestartUHFifUnstable true
|  8> end
|  9>
| 10> *xyz 0 2
| 11> Cl        -2.298655   -0.399962    0.000006
| 12> B        -1.150452    0.847824   -0.000017
| 13> Si         0.823858    0.969488    0.000002
| 14> Cl         1.813100   -0.848476   -0.000002
| 15> H         1.236338    1.705749   -1.209363
| 16> H         1.236345    1.705742    1.209367
| 17> *
| 18>
| 19> $new_job
| 20> ! ri-mp2 aug-cc-pvtz aug-cc-pvtz/c tightscf
| 21> %pal nprocs 16 end
| 22> %maxcore 3800
| 23> %base "TZ_B-Cl_11_A"
| 24>
| 25> *xyz 0 2
| 26> Cl        -2.298655   -0.399962    0.000006
| 27> B        -1.150452    0.847824   -0.000017
| 28> Si         0.823858    0.969488    0.000002
| 29> Cl         1.813100   -0.848476   -0.000002
| 30> H         1.236338    1.705749   -1.209363
| 31> H         1.236345    1.705742    1.209367
| 32> *
| 33>
| 34> $new_job
| 35> ! ri-mp2 aug-cc-pvqz aug-cc-pvqz/c tightscf
| 36> %pal nprocs 16 end
| 37> %maxcore 3800
| 38> %base "QZ_B-Cl_11_A"
| 39>
| 40> *xyz 0 2
| 41> Cl        -2.298655   -0.399962    0.000006
| 42> B        -1.150452    0.847824   -0.000017
| 43> Si         0.823858    0.969488    0.000002
| 44> Cl         1.813100   -0.848476   -0.000002
| 45> H         1.236338    1.705749   -1.209363
| 46> H         1.236345    1.705742    1.209367
| 47> *
| 48>
| 49>
| 50>
| 51>
| 52>                          ****END OF INPUT****
 Total Charge           Charge          ....    0
 Multiplicity           Mult            ....    2
 Number of Electrons    NEL             ....   55
MP2 TOTAL ENERGY:    -1234.265067496 Eh
FINAL SINGLE POINT ENERGY     -1234.265067495944
MP2 TOTAL ENERGY:    -1234.440562974 Eh
FINAL SINGLE POINT ENERGY     -1234.440562973818

CARTESIAN COORDINATES (ANGSTROEM)
---------------------------------
  Cl    -2.298655   -0.399962    0.000006
  B     -1.150452    0.847824   -0.000017
  Si     0.823858    0.969488    0.000002
  Cl     1.813100   -0.848476   -0.000002
  H      1.236338    1.705749   -1.209363
  H      1.236345    1.705742    1.209367

 Multiplicity           Mult            ....    2
 Number of Electrons    NEL             ....   55
 Basis Dimension        Dim             ....  424

ORBITAL ENERGIES
----------------
                 SPIN UP ORBITALS
  NO   OCC          E(Eh)            E(eV)
   0   1.0000    -104.865473     -2853.5346
   1   1.0000    -104.828569     -2852.5304
   2   1.0000     -68.819467     -1872.6729
   3   1.0000     -10.592870      -288.2467
   4   1.0000     -10.555853      -287.2394
   5   1.0000      -8.060245      -219.3304
   6   1.0000      -8.058690      -219.2881
   7   1.0000      -8.058154      -219.2735
   8   1.0000      -8.023263      -218.3241
   9   1.0000      -8.021487      -218.2757
  10   1.0000      -8.021388      -218.2731
  11   1.0000      -7.690035      -209.2565
  12   1.0000      -6.165841      -167.7811
  13   1.0000      -4.272478      -116.2600
  14   1.0000      -4.271655      -116.2376
  15   1.0000      -4.271533      -116.2343
  16   1.0000      -1.148812       -31.2608
  17   1.0000      -1.098434       -29.8899
  18   1.0000      -0.760073       -20.6826
  19   1.0000      -0.662807       -18.0359
  20   1.0000      -0.551148       -14.9975
  21   1.0000      -0.537850       -14.6356
  22   1.0000      -0.535836       -14.5808
  23   1.0000      -0.509502       -13.8642
  24   1.0000      -0.508915       -13.8483
  25   1.0000      -0.459749       -12.5104
  26   1.0000      -0.453647       -12.3444
  27   1.0000      -0.330751        -9.0002
  28   0.0000       0.026326         0.7164
  29   0.0000       0.027572         0.7503
  30   0.0000       0.031941         0.8692
  31   0.0000       0.038525         1.0483
  32   0.0000       0.043762         1.1908

                 SPIN DOWN ORBITALS
  NO   OCC          E(Eh)            E(eV)
   0   1.0000    -104.864840     -2853.5174
   1   1.0000    -104.828030     -2852.5157
   2   1.0000     -68.818922     -1872.6581
   3   1.0000     -10.592151      -288.2271
   4   1.0000     -10.555256      -287.2231
   5   1.0000      -8.059442      -219.3086
   6   1.0000      -8.058509      -219.2832
   7   1.0000      -8.055903      -219.2123
   8   1.0000      -8.021681      -218.2810
   9   1.0000      -8.021056      -218.2640
  10   1.0000      -8.020695      -218.2542
  11   1.0000      -7.672762      -208.7865
  12   1.0000      -6.164816      -167.7532
  13   1.0000      -4.272319      -116.2557
  14   1.0000      -4.270977      -116.2192
  15   1.0000      -4.270205      -116.1982
  16   1.0000      -1.141137       -31.0519
  17   1.0000      -1.094153       -29.7734
  18   1.0000      -0.740820       -20.1587
  19   1.0000      -0.639478       -17.4011
  20   1.0000      -0.535621       -14.5750
  21   1.0000      -0.528953       -14.3935
  22   1.0000      -0.525284       -14.2937
  23   1.0000      -0.510124       -13.8812
  24   1.0000      -0.485952       -13.2234
  25   1.0000      -0.453495       -12.3402
  26   1.0000      -0.443979       -12.0813
  27   0.0000       0.022591         0.6147
  28   0.0000       0.032031         0.8716
  29   0.0000       0.035222         0.9584
  30   0.0000       0.035627         0.9695
  31   0.0000       0.051489         1.4011

MULLIKEN ATOMIC CHARGES AND SPIN POPULATIONS
--------------------------------------------
   0 Cl:   -0.200137    0.025594
   1 B :    0.087199    0.956632
   2 Si:    1.048760    0.003491
   3 Cl:   -0.571638    0.023184
   4 H :   -0.182093   -0.004450
   5 H :   -0.182092   -0.004450
Sum of atomic charges         :    0.0000000

LOEWDIN ATOMIC CHARGES AND SPIN POPULATIONS
-------------------------------------------
   0 Cl:    1.145735    0.193171
   1 B :   -1.194115    0.583363
   2 Si:   -0.109632    0.176848
   3 Cl:    0.826246    0.039733
   4 H :   -0.334118    0.003443
   5 H :   -0.334117    0.003443

  Mayer bond orders larger than 0.100000
B(  0-Cl,  1-B ) :   1.2044 B(  1-B ,  2-Si) :   0.7768 B(  2-Si,  3-Cl) :   0.5277
B(  2-Si,  4-H ) :   0.9003 B(  2-Si,  5-H ) :   0.9003

MP2 TOTAL ENERGY:    -1234.500536081 Eh
FINAL SINGLE POINT ENERGY     -1234.500536080536

DIPOLE MOMENT
-------------
                                X             Y             Z
Electronic contribution:     -3.95934      -3.70016      -0.00000
Nuclear contribution   :      3.73606       4.11589       0.00001
                        -----------------------------------------
Total Dipole Moment    :     -0.22328       0.41573       0.00001
                        -----------------------------------------
Magnitude (a.u.)       :      0.47189
Magnitude (Debye)      :      1.19946

Rotational constants in cm-1:     0.228208     0.049110     0.040993
Rotational constants in MHz :  6841.498677  1472.288608  1228.934695

                             ****ORCA TERMINATED NORMALLY****
TOTAL RUN TIME: 0 days 0 hours 16 minutes 18 seconds 720 msec
