                         Program Version 5.0.4 -  RELEASE  -
|  1> ! ri-mp2 aug-cc-pvdz aug-cc-pvdz/c tightscf
|  2> %pal nprocs 16 end
|  3> %maxcore 3800
|  4> %base "DZ_Si-Cl_56_AB"
|  5> %scf
|  6> STABPerform true
|  7> STABRestartUHFifUnstable true
|  8> end
|  9>
| 10> *xyz 0 1
| 11> Si        -1.147167   -0.925924    0.000003
| 12> C         0.726497   -0.658349   -0.000002
| 13> Cl        -2.434710    0.704736    0.000008
| 14> N         1.501344    0.436471   -0.000003
| 15> C         0.991173    1.787423   -0.000006
| 16> O         1.166558   -1.806910   -0.000003
| 17> H        -0.092797    1.786767   -0.000006
| 18> H         1.340203    2.324551   -0.884821
| 19> H         1.340204    2.324555    0.884805
| 20> C         2.943048    0.293384   -0.000007
| 21> H         3.368369    0.768351   -0.886439
| 22> H         3.191336   -0.762902    0.000007
| 23> H         3.368374    0.768376    0.886409
| 24> H        -1.435721   -1.681025    1.224226
| 25> H        -1.435728   -1.681024   -1.224218
| 26> *
| 27>
| 28> $new_job
| 29> ! ri-mp2 aug-cc-pvtz aug-cc-pvtz/c tightscf
| 30> %pal nprocs 16 end
| 31> %maxcore 3800
| 32> %base "TZ_Si-Cl_56_AB"
| 33>
| 34> *xyz 0 1
| 35> Si        -1.147167   -0.925924    0.000003
| 36> C         0.726497   -0.658349   -0.000002
| 37> Cl        -2.434710    0.704736    0.000008
| 38> N         1.501344    0.436471   -0.000003
| 39> C         0.991173    1.787423   -0.000006
| 40> O         1.166558   -1.806910   -0.000003
| 41> H        -0.092797    1.786767   -0.000006
| 42> H         1.340203    2.324551   -0.884821
| 43> H         1.340204    2.324555    0.884805
| 44> C         2.943048    0.293384   -0.000007
| 45> H         3.368369    0.768351   -0.886439
| 46> H         3.191336   -0.762902    0.000007
| 47> H         3.368374    0.768376    0.886409
| 48> H        -1.435721   -1.681025    1.224226
| 49> H        -1.435728   -1.681024   -1.224218
| 50> *
| 51>
| 52> $new_job
| 53> ! ri-mp2 aug-cc-pvqz aug-cc-pvqz/c tightscf
| 54> %pal nprocs 16 end
| 55> %maxcore 3800
| 56> %base "QZ_Si-Cl_56_AB"
| 57>
| 58> *xyz 0 1
| 59> Si        -1.147167   -0.925924    0.000003
| 60> C         0.726497   -0.658349   -0.000002
| 61> Cl        -2.434710    0.704736    0.000008
| 62> N         1.501344    0.436471   -0.000003
| 63> C         0.991173    1.787423   -0.000006
| 64> O         1.166558   -1.806910   -0.000003
| 65> H        -0.092797    1.786767   -0.000006
| 66> H         1.340203    2.324551   -0.884821
| 67> H         1.340204    2.324555    0.884805
| 68> C         2.943048    0.293384   -0.000007
| 69> H         3.368369    0.768351   -0.886439
| 70> H         3.191336   -0.762902    0.000007
| 71> H         3.368374    0.768376    0.886409
| 72> H        -1.435721   -1.681025    1.224226
| 73> H        -1.435728   -1.681024   -1.224218
| 74> *
| 75>
| 76>
| 77>
| 78>
| 79>                          ****END OF INPUT****
 Total Charge           Charge          ....    0
 Multiplicity           Mult            ....    1
 Number of Electrons    NEL             ....   72
MP2 TOTAL ENERGY:     -997.143908889 Eh
FINAL SINGLE POINT ENERGY      -997.143908889187
MP2 TOTAL ENERGY:     -997.463929407 Eh
FINAL SINGLE POINT ENERGY      -997.463929406682

CARTESIAN COORDINATES (ANGSTROEM)
---------------------------------
  Si    -1.147167   -0.925924    0.000003
  C      0.726497   -0.658349   -0.000002
  Cl    -2.434710    0.704736    0.000008
  N      1.501344    0.436471   -0.000003
  C      0.991173    1.787423   -0.000006
  O      1.166558   -1.806910   -0.000003
  H     -0.092797    1.786767   -0.000006
  H      1.340203    2.324551   -0.884821
  H      1.340204    2.324555    0.884805
  C      2.943048    0.293384   -0.000007
  H      3.368369    0.768351   -0.886439
  H      3.191336   -0.762902    0.000007
  H      3.368374    0.768376    0.886409
  H     -1.435721   -1.681025    1.224226
  H     -1.435728   -1.681024   -1.224218

 Multiplicity           Mult            ....    1
 Number of Electrons    NEL             ....   72
 Basis Dimension        Dim             ....  936

ORBITAL ENERGIES
----------------

  NO   OCC          E(Eh)            E(eV)
   0   2.0000    -104.830378     -2852.5796
   1   2.0000     -68.824609     -1872.8128
   2   2.0000     -20.530569      -558.6652
   3   2.0000     -15.603306      -424.5875
   4   2.0000     -11.343147      -308.6627
   5   2.0000     -11.273315      -306.7625
   6   2.0000     -11.262571      -306.4701
   7   2.0000     -10.557952      -287.2965
   8   2.0000      -8.024705      -218.3633
   9   2.0000      -8.023689      -218.3357
  10   2.0000      -8.023634      -218.3342
  11   2.0000      -6.169416      -167.8783
  12   2.0000      -4.276570      -116.3714
  13   2.0000      -4.275180      -116.3336
  14   2.0000      -4.274987      -116.3283
  15   2.0000      -1.392546       -37.8931
  16   2.0000      -1.264909       -34.4199
  17   2.0000      -1.100299       -29.9407
  18   2.0000      -0.989816       -26.9343
  19   2.0000      -0.956008       -26.0143
  20   2.0000      -0.791704       -21.5434
  21   2.0000      -0.737898       -20.0792
  22   2.0000      -0.668799       -18.1990
  23   2.0000      -0.666089       -18.1252
  24   2.0000      -0.652730       -17.7617
  25   2.0000      -0.577462       -15.7135
  26   2.0000      -0.571711       -15.5571
  27   2.0000      -0.560917       -15.2633
  28   2.0000      -0.560507       -15.2522
  29   2.0000      -0.549405       -14.9501
  30   2.0000      -0.522068       -14.2062
  31   2.0000      -0.518668       -14.1137
  32   2.0000      -0.473791       -12.8925
  33   2.0000      -0.452252       -12.3064
  34   2.0000      -0.404159       -10.9977
  35   2.0000      -0.387370       -10.5409
  36   0.0000       0.021125         0.5748
  37   0.0000       0.032173         0.8755
  38   0.0000       0.032515         0.8848
  39   0.0000       0.035688         0.9711
  40   0.0000       0.048305         1.3145

MULLIKEN ATOMIC CHARGES
-----------------------
   0 Si:    1.143651
   1 C :    0.944569
   2 Cl:   -0.680226
   3 N :   -0.485785
   4 C :   -0.885453
   5 O :   -0.935512
   6 H :    0.428653
   7 H :    0.309799
   8 H :    0.309802
   9 C :   -0.773521
  10 H :    0.278785
  11 H :    0.316626
  12 H :    0.278781
  13 H :   -0.125084
  14 H :   -0.125084
Sum of atomic charges:    0.0000000

LOEWDIN ATOMIC CHARGES
----------------------
   0 Si:   -0.030518
   1 C :   -0.886858
   2 Cl:    0.915328
   3 N :    0.346169
   4 C :    0.733111
   5 O :    0.641132
   6 H :   -0.449898
   7 H :   -0.273743
   8 H :   -0.273744
   9 C :    0.759625
  10 H :   -0.274462
  11 H :   -0.358532
  12 H :   -0.274463
  13 H :   -0.286573
  14 H :   -0.286574

  Mayer bond orders larger than 0.100000
B(  0-Si,  1-C ) :   0.6873 B(  0-Si,  2-Cl) :   0.3664 B(  0-Si, 13-H ) :   0.8654
B(  0-Si, 14-H ) :   0.8654 B(  1-C ,  3-N ) :   1.3147 B(  1-C ,  5-O ) :   1.2246
B(  3-N ,  4-C ) :   0.8123 B(  3-N ,  5-O ) :   0.2329 B(  3-N ,  9-C ) :   0.7979
B(  4-C ,  6-H ) :   0.8404 B(  4-C ,  7-H ) :   0.9472 B(  4-C ,  8-H ) :   0.9472
B(  9-C , 10-H ) :   0.9685 B(  9-C , 11-H ) :   0.8981 B(  9-C , 12-H ) :   0.9685

MP2 TOTAL ENERGY:     -997.567955490 Eh
FINAL SINGLE POINT ENERGY      -997.567955489837

DIPOLE MOMENT
-------------
                                X             Y             Z
Electronic contribution:    -12.51002      -1.67780       0.00004
Nuclear contribution   :     12.99173       2.81923      -0.00005
                        -----------------------------------------
Total Dipole Moment    :      0.48172       1.14144      -0.00000
                        -----------------------------------------
Magnitude (a.u.)       :      1.23892
Magnitude (Debye)      :      3.14909

Rotational constants in cm-1:     0.100317     0.035916     0.026971
Rotational constants in MHz :  3007.417156  1076.739494   808.558377

                             ****ORCA TERMINATED NORMALLY****
TOTAL RUN TIME: 0 days 1 hours 36 minutes 15 seconds 803 msec
