                         Program Version 5.0.4 -  RELEASE  -
|  1> ! ri-mp2 aug-cc-pvdz aug-cc-pvdz/c tightscf
|  2> %pal nprocs 16 end
|  3> %maxcore 3800
|  4> %base "DZ_B-Cl_59_AB"
|  5>
|  6> *xyz 0 1
|  7> Cl         2.055788    1.489684    0.000025
|  8> B         1.147446   -0.011147    0.000001
|  9> Cl         2.030201   -1.505632    0.000001
| 10> C        -0.411368    0.009714   -0.000004
| 11> C        -1.127655    1.203086   -0.000004
| 12> N        -1.033597   -1.180445   -0.000011
| 13> C        -2.352354   -1.205789   -0.000019
| 14> C        -2.510979    1.167685   -0.000010
| 15> C        -3.138461   -0.060214   -0.000018
| 16> H        -0.601256    2.146506    0.000002
| 17> H        -3.085556    2.084382   -0.000008
| 18> H        -4.216866   -0.141198   -0.000022
| 19> H        -2.815278   -2.186624   -0.000024
| 20> *
| 21>
| 22> $new_job
| 23> ! ri-mp2 aug-cc-pvtz aug-cc-pvtz/c tightscf
| 24> %pal nprocs 16 end
| 25> %maxcore 3800
| 26> %base "TZ_B-Cl_59_AB"
| 27>
| 28> *xyz 0 1
| 29> Cl         2.055788    1.489684    0.000025
| 30> B         1.147446   -0.011147    0.000001
| 31> Cl         2.030201   -1.505632    0.000001
| 32> C        -0.411368    0.009714   -0.000004
| 33> C        -1.127655    1.203086   -0.000004
| 34> N        -1.033597   -1.180445   -0.000011
| 35> C        -2.352354   -1.205789   -0.000019
| 36> C        -2.510979    1.167685   -0.000010
| 37> C        -3.138461   -0.060214   -0.000018
| 38> H        -0.601256    2.146506    0.000002
| 39> H        -3.085556    2.084382   -0.000008
| 40> H        -4.216866   -0.141198   -0.000022
| 41> H        -2.815278   -2.186624   -0.000024
| 42> *
| 43>
| 44> $new_job
| 45> ! ri-mp2 aug-cc-pvqz aug-cc-pvqz/c tightscf
| 46> %pal nprocs 16 end
| 47> %maxcore 3800
| 48> %base "QZ_B-Cl_59_AB"
| 49>
| 50> *xyz 0 1
| 51> Cl         2.055788    1.489684    0.000025
| 52> B         1.147446   -0.011147    0.000001
| 53> Cl         2.030201   -1.505632    0.000001
| 54> C        -0.411368    0.009714   -0.000004
| 55> C        -1.127655    1.203086   -0.000004
| 56> N        -1.033597   -1.180445   -0.000011
| 57> C        -2.352354   -1.205789   -0.000019
| 58> C        -2.510979    1.167685   -0.000010
| 59> C        -3.138461   -0.060214   -0.000018
| 60> H        -0.601256    2.146506    0.000002
| 61> H        -3.085556    2.084382   -0.000008
| 62> H        -4.216866   -0.141198   -0.000022
| 63> H        -2.815278   -2.186624   -0.000024
| 64> *
| 65>
| 66>
| 67>
| 68>
| 69>                          ****END OF INPUT****
 Total Charge           Charge          ....    0
 Multiplicity           Mult            ....    1
 Number of Electrons    NEL             ....   80
MP2 TOTAL ENERGY:    -1191.141749988 Eh
FINAL SINGLE POINT ENERGY     -1191.141749988466
MP2 TOTAL ENERGY:    -1191.491420474 Eh
FINAL SINGLE POINT ENERGY     -1191.491420473980

CARTESIAN COORDINATES (ANGSTROEM)
---------------------------------
  Cl     2.055788    1.489684    0.000025
  B      1.147446   -0.011147    0.000001
  Cl     2.030201   -1.505632    0.000001
  C     -0.411368    0.009714   -0.000004
  C     -1.127655    1.203086   -0.000004
  N     -1.033597   -1.180445   -0.000011
  C     -2.352354   -1.205789   -0.000019
  C     -2.510979    1.167685   -0.000010
  C     -3.138461   -0.060214   -0.000018
  H     -0.601256    2.146506    0.000002
  H     -3.085556    2.084382   -0.000008
  H     -4.216866   -0.141198   -0.000022
  H     -2.815278   -2.186624   -0.000024

 Multiplicity           Mult            ....    1
 Number of Electrons    NEL             ....   80
 Basis Dimension        Dim             ....  912

ORBITAL ENERGIES
----------------

  NO   OCC          E(Eh)            E(eV)
   0   2.0000    -104.839521     -2852.8284
   1   2.0000    -104.832540     -2852.6384
   2   2.0000     -15.577367      -423.8817
   3   2.0000     -11.281475      -306.9845
   4   2.0000     -11.270006      -306.6725
   5   2.0000     -11.265877      -306.5601
   6   2.0000     -11.258441      -306.3577
   7   2.0000     -11.256393      -306.3020
   8   2.0000     -10.567481      -287.5558
   9   2.0000     -10.560437      -287.3641
  10   2.0000      -8.034306      -218.6246
  11   2.0000      -8.033264      -218.5962
  12   2.0000      -8.033030      -218.5899
  13   2.0000      -8.027284      -218.4335
  14   2.0000      -8.026216      -218.4044
  15   2.0000      -8.025909      -218.3961
  16   2.0000      -7.706690      -209.7097
  17   2.0000      -1.275737       -34.7146
  18   2.0000      -1.142154       -31.0796
  19   2.0000      -1.107948       -30.1488
  20   2.0000      -1.093830       -29.7646
  21   2.0000      -1.048402       -28.5285
  22   2.0000      -0.876084       -23.8394
  23   2.0000      -0.871501       -23.7148
  24   2.0000      -0.744161       -20.2496
  25   2.0000      -0.686461       -18.6795
  26   2.0000      -0.680717       -18.5232
  27   2.0000      -0.641343       -17.4518
  28   2.0000      -0.604580       -16.4515
  29   2.0000      -0.592331       -16.1182
  30   2.0000      -0.563865       -15.3435
  31   2.0000      -0.558678       -15.2024
  32   2.0000      -0.532602       -14.4928
  33   2.0000      -0.511090       -13.9075
  34   2.0000      -0.468536       -12.7495
  35   2.0000      -0.462649       -12.5893
  36   2.0000      -0.448789       -12.2122
  37   2.0000      -0.422544       -11.4980
  38   2.0000      -0.397640       -10.8203
  39   2.0000      -0.363891        -9.9020
  40   0.0000       0.018080         0.4920
  41   0.0000       0.027422         0.7462
  42   0.0000       0.032575         0.8864
  43   0.0000       0.039286         1.0690
  44   0.0000       0.040487         1.1017

MULLIKEN ATOMIC CHARGES
-----------------------
   0 Cl:   -0.237705
   1 B :    0.798731
   2 Cl:   -0.211844
   3 C :    0.004143
   4 C :   -0.332946
   5 N :   -0.587594
   6 C :   -0.387056
   7 C :   -0.164164
   8 C :   -0.320451
   9 H :    0.338302
  10 H :    0.269621
  11 H :    0.378056
  12 H :    0.452907
Sum of atomic charges:    0.0000000

LOEWDIN ATOMIC CHARGES
----------------------
   0 Cl:    1.289814
   1 B :   -2.367528
   2 Cl:    1.291787
   3 C :   -0.431471
   4 C :    0.255744
   5 N :    0.530966
   6 C :    0.088351
   7 C :    0.349266
   8 C :    0.344365
   9 H :   -0.379355
  10 H :   -0.308379
  11 H :   -0.317796
  12 H :   -0.345765

  Mayer bond orders larger than 0.100000
B(  0-Cl,  1-B ) :   0.9848 B(  0-Cl,  3-C ) :   0.2089 B(  0-Cl,  9-H ) :  -0.1365
B(  1-B ,  2-Cl) :   0.9469 B(  1-B ,  3-C ) :   1.1939 B(  2-Cl,  3-C ) :   0.1944
B(  3-C ,  4-C ) :   0.9787 B(  3-C ,  5-N ) :   1.0106 B(  3-C ,  7-C ) :  -0.3446
B(  4-C ,  6-C ) :   0.1899 B(  4-C ,  7-C ) :   1.1625 B(  4-C ,  9-H ) :   0.9826
B(  4-C , 10-H ) :  -0.1564 B(  5-N ,  6-C ) :   1.3402 B(  6-C ,  8-C ) :   1.2349
B(  6-C , 11-H ) :  -0.1093 B(  6-C , 12-H ) :   0.8925 B(  7-C ,  8-C ) :   1.1946
B(  7-C , 10-H ) :   1.1103 B(  8-C , 10-H ) :  -0.1070 B(  8-C , 11-H ) :   0.9341

MP2 TOTAL ENERGY:    -1191.606760380 Eh
FINAL SINGLE POINT ENERGY     -1191.606760379637

DIPOLE MOMENT
-------------
                                X             Y             Z
Electronic contribution:     15.09408      -1.14901       0.00008
Nuclear contribution   :    -16.44824       1.81255      -0.00008
                        -----------------------------------------
Total Dipole Moment    :     -1.35416       0.66355      -0.00001
                        -----------------------------------------
Magnitude (a.u.)       :      1.50800
Magnitude (Debye)      :      3.83302

Rotational constants in cm-1:     0.069182     0.026466     0.019143
Rotational constants in MHz :  2074.022270   793.435780   573.889295

                             ****ORCA TERMINATED NORMALLY****
TOTAL RUN TIME: 0 days 0 hours 21 minutes 23 seconds 878 msec
