                         Program Version 5.0.4 -  RELEASE  -
|  1> ! ri-mp2 aug-cc-pvdz aug-cc-pvdz/c tightscf
|  2> %pal nprocs 16 end
|  3> %maxcore 3800
|  4> %base "DZ_P-Cl_28_AB"
|  5> %scf
|  6> STABPerform true
|  7> STABRestartUHFifUnstable true
|  8> end
|  9>
| 10> *xyz 0 1
| 11> Cl         2.805408   -0.663647   -0.170761
| 12> Cl        -2.639145   -0.407515   -0.895996
| 13> O         0.071369   -1.978152    1.144301
| 14> O         1.497435    2.260886    0.220513
| 15> P        -1.681898    0.112656    0.867854
| 16> P         0.929908   -0.215342   -0.789737
| 17> C        -0.136773   -0.968900    0.553598
| 18> C        -0.821390    1.676106    0.345766
| 19> H        -1.332405    2.089483   -0.525528
| 20> H        -0.874397    2.416238    1.144495
| 21> C         0.643122    1.456538    0.004906
| 22> *
| 23>
| 24> $new_job
| 25> ! ri-mp2 aug-cc-pvtz aug-cc-pvtz/c tightscf
| 26> %pal nprocs 16 end
| 27> %maxcore 3800
| 28> %base "TZ_P-Cl_28_AB"
| 29>
| 30> *xyz 0 1
| 31> Cl         2.805408   -0.663647   -0.170761
| 32> Cl        -2.639145   -0.407515   -0.895996
| 33> O         0.071369   -1.978152    1.144301
| 34> O         1.497435    2.260886    0.220513
| 35> P        -1.681898    0.112656    0.867854
| 36> P         0.929908   -0.215342   -0.789737
| 37> C        -0.136773   -0.968900    0.553598
| 38> C        -0.821390    1.676106    0.345766
| 39> H        -1.332405    2.089483   -0.525528
| 40> H        -0.874397    2.416238    1.144495
| 41> C         0.643122    1.456538    0.004906
| 42> *
| 43>
| 44> $new_job
| 45> ! ri-mp2 aug-cc-pvqz aug-cc-pvqz/c tightscf
| 46> %pal nprocs 16 end
| 47> %maxcore 3800
| 48> %base "QZ_P-Cl_28_AB"
| 49>
| 50> *xyz 0 1
| 51> Cl         2.805408   -0.663647   -0.170761
| 52> Cl        -2.639145   -0.407515   -0.895996
| 53> O         0.071369   -1.978152    1.144301
| 54> O         1.497435    2.260886    0.220513
| 55> P        -1.681898    0.112656    0.867854
| 56> P         0.929908   -0.215342   -0.789737
| 57> C        -0.136773   -0.968900    0.553598
| 58> C        -0.821390    1.676106    0.345766
| 59> H        -1.332405    2.089483   -0.525528
| 60> H        -0.874397    2.416238    1.144495
| 61> C         0.643122    1.456538    0.004906
| 62> *
| 63>
| 64>
| 65>
| 66>
| 67>                          ****END OF INPUT****
 Total Charge           Charge          ....    0
 Multiplicity           Mult            ....    1
 Number of Electrons    NEL             ....  100
MP2 TOTAL ENERGY:    -1866.347737155 Eh
FINAL SINGLE POINT ENERGY     -1866.347737154993
MP2 TOTAL ENERGY:    -1866.773348780 Eh
FINAL SINGLE POINT ENERGY     -1866.773348780271

CARTESIAN COORDINATES (ANGSTROEM)
---------------------------------
  Cl     2.805408   -0.663647   -0.170761
  Cl    -2.639145   -0.407515   -0.895996
  O      0.071369   -1.978152    1.144301
  O      1.497435    2.260886    0.220513
  P     -1.681898    0.112656    0.867854
  P      0.929908   -0.215342   -0.789737
  C     -0.136773   -0.968900    0.553598
  C     -0.821390    1.676106    0.345766
  H     -1.332405    2.089483   -0.525528
  H     -0.874397    2.416238    1.144495
  C      0.643122    1.456538    0.004906

 Multiplicity           Mult            ....    1
 Number of Electrons    NEL             ....  100
 Basis Dimension        Dim             ....  828

ORBITAL ENERGIES
----------------

  NO   OCC          E(Eh)            E(eV)
   0   2.0000    -104.864288     -2853.5023
   1   2.0000    -104.860791     -2853.4072
   2   2.0000     -80.037006     -2177.9176
   3   2.0000     -80.028714     -2177.6920
   4   2.0000     -20.611209      -560.8595
   5   2.0000     -20.595414      -560.4297
   6   2.0000     -11.379368      -309.6483
   7   2.0000     -11.377674      -309.6022
   8   2.0000     -11.286715      -307.1271
   9   2.0000     -10.590487      -288.1818
  10   2.0000     -10.586793      -288.0813
  11   2.0000      -8.057306      -219.2504
  12   2.0000      -8.055823      -219.2101
  13   2.0000      -8.055739      -219.2078
  14   2.0000      -8.053694      -219.1522
  15   2.0000      -8.052055      -219.1075
  16   2.0000      -8.051948      -219.1047
  17   2.0000      -7.574263      -206.1062
  18   2.0000      -7.567788      -205.9300
  19   2.0000      -5.467410      -148.7758
  20   2.0000      -5.466544      -148.7522
  21   2.0000      -5.465705      -148.7294
  22   2.0000      -5.461399      -148.6122
  23   2.0000      -5.460351      -148.5837
  24   2.0000      -5.459896      -148.5713
  25   2.0000      -1.453980       -39.5648
  26   2.0000      -1.442668       -39.2570
  27   2.0000      -1.153621       -31.3916
  28   2.0000      -1.141306       -31.0565
  29   2.0000      -1.075292       -29.2602
  30   2.0000      -0.944044       -25.6887
  31   2.0000      -0.878124       -23.8950
  32   2.0000      -0.768059       -20.8999
  33   2.0000      -0.749854       -20.4046
  34   2.0000      -0.688573       -18.7370
  35   2.0000      -0.677144       -18.4260
  36   2.0000      -0.653430       -17.7807
  37   2.0000      -0.641183       -17.4475
  38   2.0000      -0.621181       -16.9032
  39   2.0000      -0.592982       -16.1359
  40   2.0000      -0.565453       -15.3868
  41   2.0000      -0.556671       -15.1478
  42   2.0000      -0.515963       -14.0401
  43   2.0000      -0.512304       -13.9405
  44   2.0000      -0.504335       -13.7237
  45   2.0000      -0.495944       -13.4953
  46   2.0000      -0.473785       -12.8924
  47   2.0000      -0.437123       -11.8947
  48   2.0000      -0.396719       -10.7953
  49   2.0000      -0.368658       -10.0317
  50   0.0000       0.018601         0.5062
  51   0.0000       0.022221         0.6047
  52   0.0000       0.032624         0.8877
  53   0.0000       0.043548         1.1850
  54   0.0000       0.047285         1.2867

MULLIKEN ATOMIC CHARGES
-----------------------
   0 Cl:   -0.435307
   1 Cl:   -0.492178
   2 O :   -0.750664
   3 O :   -0.788349
   4 P :    0.841237
   5 P :    0.923594
   6 C :    0.279026
   7 C :   -0.796450
   8 H :    0.309332
   9 H :    0.310238
  10 C :    0.599520
Sum of atomic charges:    0.0000000

LOEWDIN ATOMIC CHARGES
----------------------
   0 Cl:    0.788050
   1 Cl:    0.764833
   2 O :    0.528163
   3 O :    0.639472
   4 P :    0.139203
   5 P :   -0.016187
   6 C :   -1.192765
   7 C :    0.159798
   8 H :   -0.406079
   9 H :   -0.392001
  10 C :   -1.012488

  Mayer bond orders larger than 0.100000
B(  0-Cl,  5-P ) :   0.9239 B(  1-Cl,  4-P ) :   0.7628 B(  2-O ,  6-C ) :   1.4258
B(  3-O ,  7-C ) :   0.1525 B(  3-O , 10-C ) :   1.2577 B(  4-P ,  6-C ) :   0.9010
B(  4-P ,  7-C ) :   0.8885 B(  5-P ,  6-C ) :   0.8634 B(  5-P , 10-C ) :   0.8345
B(  7-C ,  8-H ) :   0.8621 B(  7-C ,  9-H ) :   0.8898 B(  7-C , 10-C ) :   1.0147

MP2 TOTAL ENERGY:    -1866.915815146 Eh
FINAL SINGLE POINT ENERGY     -1866.915815146482

DIPOLE MOMENT
-------------
                                X             Y             Z
Electronic contribution:      0.70745      -5.00577      -2.16685
Nuclear contribution   :     -1.57702       5.68365       1.93661
                        -----------------------------------------
Total Dipole Moment    :     -0.86957       0.67789      -0.23025
                        -----------------------------------------
Magnitude (a.u.)       :      1.12636
Magnitude (Debye)      :      2.86299

Rotational constants in cm-1:     0.048322     0.021265     0.017924
Rotational constants in MHz :  1448.671986   637.504097   537.360170

                             ****ORCA TERMINATED NORMALLY****
TOTAL RUN TIME: 0 days 1 hours 23 minutes 9 seconds 79 msec
