                         Program Version 5.0.4 -  RELEASE  -
|  1> ! ri-mp2 aug-cc-pvdz aug-cc-pvdz/c tightscf
|  2> %pal nprocs 16 end
|  3> %maxcore 3800
|  4> %base "DZ_Si-Si_98_AB"
|  5>
|  6> *xyz 0 1
|  7> Si         0.501823    1.043891    0.057656
|  8> Si        -0.501819   -1.043885    0.057660
|  9> O        -2.123398   -0.899864   -0.536418
| 10> H        -0.584631   -1.602725    1.415471
| 11> H         0.025334   -2.011882   -0.915500
| 12> N        -2.860920    0.115644   -0.015617
| 13> O        -2.276669    0.858379    0.752963
| 14> O        -3.991508    0.173995   -0.366279
| 15> O         2.123403    0.899866   -0.536416
| 16> H         0.584630    1.602738    1.415464
| 17> H        -0.025327    2.011883   -0.915511
| 18> N         2.860920   -0.115643   -0.015610
| 19> O         2.276658   -0.858386    0.752953
| 20> O         3.991507   -0.174003   -0.366274
| 21> *
| 22>
| 23> $new_job
| 24> ! ri-mp2 aug-cc-pvtz aug-cc-pvtz/c tightscf
| 25> %pal nprocs 16 end
| 26> %maxcore 3800
| 27> %base "TZ_Si-Si_98_AB"
| 28>
| 29> *xyz 0 1
| 30> Si         0.501823    1.043891    0.057656
| 31> Si        -0.501819   -1.043885    0.057660
| 32> O        -2.123398   -0.899864   -0.536418
| 33> H        -0.584631   -1.602725    1.415471
| 34> H         0.025334   -2.011882   -0.915500
| 35> N        -2.860920    0.115644   -0.015617
| 36> O        -2.276669    0.858379    0.752963
| 37> O        -3.991508    0.173995   -0.366279
| 38> O         2.123403    0.899866   -0.536416
| 39> H         0.584630    1.602738    1.415464
| 40> H        -0.025327    2.011883   -0.915511
| 41> N         2.860920   -0.115643   -0.015610
| 42> O         2.276658   -0.858386    0.752953
| 43> O         3.991507   -0.174003   -0.366274
| 44> *
| 45>
| 46> $new_job
| 47> ! ri-mp2 aug-cc-pvqz aug-cc-pvqz/c tightscf
| 48> %pal nprocs 16 end
| 49> %maxcore 3800
| 50> %base "QZ_Si-Si_98_AB"
| 51>
| 52> *xyz 0 1
| 53> Si         0.501823    1.043891    0.057656
| 54> Si        -0.501819   -1.043885    0.057660
| 55> O        -2.123398   -0.899864   -0.536418
| 56> H        -0.584631   -1.602725    1.415471
| 57> H         0.025334   -2.011882   -0.915500
| 58> N        -2.860920    0.115644   -0.015617
| 59> O        -2.276669    0.858379    0.752963
| 60> O        -3.991508    0.173995   -0.366279
| 61> O         2.123403    0.899866   -0.536416
| 62> H         0.584630    1.602738    1.415464
| 63> H        -0.025327    2.011883   -0.915511
| 64> N         2.860920   -0.115643   -0.015610
| 65> O         2.276658   -0.858386    0.752953
| 66> O         3.991507   -0.174003   -0.366274
| 67> *
| 68>
| 69>
| 70>
| 71>
| 72>                          ****END OF INPUT****
 Total Charge           Charge          ....    0
 Multiplicity           Mult            ....    1
 Number of Electrons    NEL             ....   94
MP2 TOTAL ENERGY:    -1139.852665825 Eh
FINAL SINGLE POINT ENERGY     -1139.852665824658
MP2 TOTAL ENERGY:    -1140.386542525 Eh
FINAL SINGLE POINT ENERGY     -1140.386542525105

CARTESIAN COORDINATES (ANGSTROEM)
---------------------------------
  Si     0.501823    1.043891    0.057656
  Si    -0.501819   -1.043885    0.057660
  O     -2.123398   -0.899864   -0.536418
  H     -0.584631   -1.602725    1.415471
  H      0.025334   -2.011882   -0.915500
  N     -2.860920    0.115644   -0.015617
  O     -2.276669    0.858379    0.752963
  O     -3.991508    0.173995   -0.366279
  O      2.123403    0.899866   -0.536416
  H      0.584630    1.602738    1.415464
  H     -0.025327    2.011883   -0.915511
  N      2.860920   -0.115643   -0.015610
  O      2.276658   -0.858386    0.752953
  O      3.991507   -0.174003   -0.366274

 Multiplicity           Mult            ....    1
 Number of Electrons    NEL             ....   94
 Basis Dimension        Dim             ....  992

ORBITAL ENERGIES
----------------

  NO   OCC          E(Eh)            E(eV)
   0   2.0000     -68.837125     -1873.1534
   1   2.0000     -68.837123     -1873.1534
   2   2.0000     -20.667177      -562.3825
   3   2.0000     -20.667176      -562.3825
   4   2.0000     -20.651239      -561.9488
   5   2.0000     -20.651238      -561.9488
   6   2.0000     -20.640869      -561.6666
   7   2.0000     -20.640868      -561.6666
   8   2.0000     -15.945162      -433.8899
   9   2.0000     -15.945161      -433.8899
  10   2.0000      -6.183203      -168.2535
  11   2.0000      -6.183042      -168.2491
  12   2.0000      -4.290045      -116.7381
  13   2.0000      -4.290037      -116.7378
  14   2.0000      -4.289154      -116.7138
  15   2.0000      -4.288749      -116.7028
  16   2.0000      -4.288676      -116.7008
  17   2.0000      -4.288251      -116.6893
  18   2.0000      -1.703239       -46.3475
  19   2.0000      -1.703178       -46.3458
  20   2.0000      -1.474006       -40.1097
  21   2.0000      -1.473800       -40.1041
  22   2.0000      -1.434226       -39.0273
  23   2.0000      -1.434116       -39.0243
  24   2.0000      -0.965795       -26.2806
  25   2.0000      -0.959699       -26.1147
  26   2.0000      -0.842990       -22.9389
  27   2.0000      -0.838988       -22.8300
  28   2.0000      -0.809869       -22.0377
  29   2.0000      -0.809060       -22.0156
  30   2.0000      -0.799066       -21.7437
  31   2.0000      -0.796888       -21.6844
  32   2.0000      -0.769297       -20.9336
  33   2.0000      -0.693890       -18.8817
  34   2.0000      -0.631707       -17.1896
  35   2.0000      -0.616469       -16.7750
  36   2.0000      -0.600096       -16.3295
  37   2.0000      -0.590422       -16.0662
  38   2.0000      -0.562029       -15.2936
  39   2.0000      -0.559964       -15.2374
  40   2.0000      -0.541229       -14.7276
  41   2.0000      -0.531887       -14.4734
  42   2.0000      -0.525909       -14.3107
  43   2.0000      -0.509833       -13.8733
  44   2.0000      -0.506864       -13.7925
  45   2.0000      -0.504416       -13.7259
  46   2.0000      -0.442110       -12.0304
  47   0.0000       0.025294         0.6883
  48   0.0000       0.026562         0.7228
  49   0.0000       0.036204         0.9852
  50   0.0000       0.040327         1.0973
  51   0.0000       0.047038         1.2800

MULLIKEN ATOMIC CHARGES
-----------------------
   0 Si:    1.189338
   1 Si:    1.189347
   2 O :   -0.821632
   3 H :   -0.187423
   4 H :   -0.230348
   5 N :    1.172551
   6 O :   -0.600770
   7 O :   -0.521722
   8 O :   -0.821630
   9 H :   -0.187423
  10 H :   -0.230347
  11 N :    1.172551
  12 O :   -0.600770
  13 O :   -0.521721
Sum of atomic charges:    0.0000000

LOEWDIN ATOMIC CHARGES
----------------------
   0 Si:    0.354441
   1 Si:    0.354437
   2 O :    0.460719
   3 H :   -0.249566
   4 H :   -0.264731
   5 N :   -1.311575
   6 O :    0.486350
   7 O :    0.524364
   8 O :    0.460720
   9 H :   -0.249567
  10 H :   -0.264731
  11 N :   -1.311574
  12 O :    0.486350
  13 O :    0.524364

  Mayer bond orders larger than 0.100000
B(  0-Si,  1-Si) :   0.8925 B(  0-Si,  9-H ) :   0.8601 B(  0-Si, 10-H ) :   0.8566
B(  1-Si,  3-H ) :   0.8601 B(  1-Si,  4-H ) :   0.8566 B(  2-O ,  5-N ) :   0.9521
B(  5-N ,  6-O ) :   1.3149 B(  5-N ,  7-O ) :   1.4527 B(  6-O ,  7-O ) :   0.1206
B(  8-O , 11-N ) :   0.9520 B( 11-N , 12-O ) :   1.3149 B( 11-N , 13-O ) :   1.4527
B( 12-O , 13-O ) :   0.1206

MP2 TOTAL ENERGY:    -1140.567382492 Eh
FINAL SINGLE POINT ENERGY     -1140.567382491673

DIPOLE MOMENT
-------------
                                X             Y             Z
Electronic contribution:      0.00001      -0.00000      -0.98993
Nuclear contribution   :      0.00001       0.00001       0.94686
                        -----------------------------------------
Total Dipole Moment    :      0.00002       0.00001      -0.04306
                        -----------------------------------------
Magnitude (a.u.)       :      0.04306
Magnitude (Debye)      :      0.10945

Rotational constants in cm-1:     0.103462     0.015303     0.014173
Rotational constants in MHz :  3101.712920   458.764543   424.892641

                             ****ORCA TERMINATED NORMALLY****
TOTAL RUN TIME: 0 days 0 hours 21 minutes 16 seconds 631 msec
