                         Program Version 5.0.4 -  RELEASE  -
|  1> ! ri-mp2 aug-cc-pvdz aug-cc-pvdz/c tightscf
|  2> %pal nprocs 16 end
|  3> %maxcore 3800
|  4> %base "DZ_B-Cl_63_AB"
|  5>
|  6> *xyz 0 1
|  7> Cl         3.029955   -1.352979    0.000003
|  8> Cl         2.782041    1.628538   -0.000013
|  9> B         1.984920    0.060723   -0.000003
| 10> C         0.461138   -0.067145   -0.000002
| 11> C        -0.170544   -1.321030    0.000006
| 12> C        -1.537261   -1.438974    0.000010
| 13> C        -2.334541   -0.294685    0.000005
| 14> C        -0.362271    1.059811   -0.000007
| 15> H         0.088090    2.043047   -0.000013
| 16> C        -1.740160    0.962803   -0.000004
| 17> H        -2.337843    1.861161   -0.000008
| 18> H         0.434010   -2.217603    0.000010
| 19> O        -3.663709   -0.503209    0.000008
| 20> C        -4.529100    0.614054    0.000008
| 21> H        -4.383173    1.227457    0.891749
| 22> H        -5.538016    0.212211    0.000015
| 23> H        -4.383183    1.227450   -0.891740
| 24> H        -2.022304   -2.405166    0.000016
| 25> *
| 26>
| 27> $new_job
| 28> ! ri-mp2 aug-cc-pvtz aug-cc-pvtz/c tightscf
| 29> %pal nprocs 16 end
| 30> %maxcore 3800
| 31> %base "TZ_B-Cl_63_AB"
| 32>
| 33> *xyz 0 1
| 34> Cl         3.029955   -1.352979    0.000003
| 35> Cl         2.782041    1.628538   -0.000013
| 36> B         1.984920    0.060723   -0.000003
| 37> C         0.461138   -0.067145   -0.000002
| 38> C        -0.170544   -1.321030    0.000006
| 39> C        -1.537261   -1.438974    0.000010
| 40> C        -2.334541   -0.294685    0.000005
| 41> C        -0.362271    1.059811   -0.000007
| 42> H         0.088090    2.043047   -0.000013
| 43> C        -1.740160    0.962803   -0.000004
| 44> H        -2.337843    1.861161   -0.000008
| 45> H         0.434010   -2.217603    0.000010
| 46> O        -3.663709   -0.503209    0.000008
| 47> C        -4.529100    0.614054    0.000008
| 48> H        -4.383173    1.227457    0.891749
| 49> H        -5.538016    0.212211    0.000015
| 50> H        -4.383183    1.227450   -0.891740
| 51> H        -2.022304   -2.405166    0.000016
| 52> *
| 53>
| 54> $new_job
| 55> ! ri-mp2 aug-cc-pvqz aug-cc-pvqz/c tightscf
| 56> %pal nprocs 16 end
| 57> %maxcore 3800
| 58> %base "QZ_B-Cl_63_AB"
| 59>
| 60> *xyz 0 1
| 61> Cl         3.029955   -1.352979    0.000003
| 62> Cl         2.782041    1.628538   -0.000013
| 63> B         1.984920    0.060723   -0.000003
| 64> C         0.461138   -0.067145   -0.000002
| 65> C        -0.170544   -1.321030    0.000006
| 66> C        -1.537261   -1.438974    0.000010
| 67> C        -2.334541   -0.294685    0.000005
| 68> C        -0.362271    1.059811   -0.000007
| 69> H         0.088090    2.043047   -0.000013
| 70> C        -1.740160    0.962803   -0.000004
| 71> H        -2.337843    1.861161   -0.000008
| 72> H         0.434010   -2.217603    0.000010
| 73> O        -3.663709   -0.503209    0.000008
| 74> C        -4.529100    0.614054    0.000008
| 75> H        -4.383173    1.227457    0.891749
| 76> H        -5.538016    0.212211    0.000015
| 77> H        -4.383183    1.227450   -0.891740
| 78> H        -2.022304   -2.405166    0.000016
| 79> *
| 80>
| 81>
| 82>
| 83>
| 84>                          ****END OF INPUT****
 Total Charge           Charge          ....    0
 Multiplicity           Mult            ....    1
 Number of Electrons    NEL             ....   96
MP2 TOTAL ENERGY:    -1289.366188786 Eh
FINAL SINGLE POINT ENERGY     -1289.366188786299
MP2 TOTAL ENERGY:    -1289.807267210 Eh
FINAL SINGLE POINT ENERGY     -1289.807267209561

CARTESIAN COORDINATES (ANGSTROEM)
---------------------------------
  Cl     3.029955   -1.352979    0.000003
  Cl     2.782041    1.628538   -0.000013
  B      1.984920    0.060723   -0.000003
  C      0.461138   -0.067145   -0.000002
  C     -0.170544   -1.321030    0.000006
  C     -1.537261   -1.438974    0.000010
  C     -2.334541   -0.294685    0.000005
  C     -0.362271    1.059811   -0.000007
  H      0.088090    2.043047   -0.000013
  C     -1.740160    0.962803   -0.000004
  H     -2.337843    1.861161   -0.000008
  H      0.434010   -2.217603    0.000010
  O     -3.663709   -0.503209    0.000008
  C     -4.529100    0.614054    0.000008
  H     -4.383173    1.227457    0.891749
  H     -5.538016    0.212211    0.000015
  H     -4.383183    1.227450   -0.891740
  H     -2.022304   -2.405166    0.000016

 Multiplicity           Mult            ....    1
 Number of Electrons    NEL             ....   96
 Basis Dimension        Dim             .... 1210

ORBITAL ENERGIES
----------------

  NO   OCC          E(Eh)            E(eV)
   0   2.0000    -104.830806     -2852.5912
   1   2.0000    -104.830605     -2852.5858
   2   2.0000     -20.601887      -560.6058
   3   2.0000     -11.322717      -308.1068
   4   2.0000     -11.296188      -307.3849
   5   2.0000     -11.257720      -306.3381
   6   2.0000     -11.253926      -306.2349
   7   2.0000     -11.238325      -305.8104
   8   2.0000     -11.233322      -305.6742
   9   2.0000     -11.220808      -305.3337
  10   2.0000     -10.558762      -287.3185
  11   2.0000     -10.558561      -287.3130
  12   2.0000      -8.025602      -218.3877
  13   2.0000      -8.025399      -218.3822
  14   2.0000      -8.024549      -218.3591
  15   2.0000      -8.024348      -218.3536
  16   2.0000      -8.024345      -218.3535
  17   2.0000      -8.024139      -218.3479
  18   2.0000      -7.696755      -209.4394
  19   2.0000      -1.436103       -39.0783
  20   2.0000      -1.169199       -31.8155
  21   2.0000      -1.133127       -30.8340
  22   2.0000      -1.090299       -29.6685
  23   2.0000      -1.040930       -28.3251
  24   2.0000      -1.031770       -28.0759
  25   2.0000      -0.959677       -26.1141
  26   2.0000      -0.850633       -23.1469
  27   2.0000      -0.828342       -22.5403
  28   2.0000      -0.743327       -20.2270
  29   2.0000      -0.703691       -19.1484
  30   2.0000      -0.685973       -18.6663
  31   2.0000      -0.674361       -18.3503
  32   2.0000      -0.637222       -17.3397
  33   2.0000      -0.627928       -17.0868
  34   2.0000      -0.604809       -16.4577
  35   2.0000      -0.599812       -16.3217
  36   2.0000      -0.553765       -15.0687
  37   2.0000      -0.546723       -14.8771
  38   2.0000      -0.537477       -14.6255
  39   2.0000      -0.528142       -14.3715
  40   2.0000      -0.516105       -14.0439
  41   2.0000      -0.493806       -13.4371
  42   2.0000      -0.477637       -12.9972
  43   2.0000      -0.459436       -12.5019
  44   2.0000      -0.458875       -12.4866
  45   2.0000      -0.443345       -12.0640
  46   2.0000      -0.357800        -9.7362
  47   2.0000      -0.331572        -9.0225
  48   0.0000       0.018449         0.5020
  49   0.0000       0.027746         0.7550
  50   0.0000       0.028917         0.7869
  51   0.0000       0.034692         0.9440
  52   0.0000       0.041544         1.1305

MULLIKEN ATOMIC CHARGES
-----------------------
   0 Cl:   -0.261904
   1 Cl:   -0.268601
   2 B :    0.875473
   3 C :   -0.487896
   4 C :   -0.298292
   5 C :   -0.485053
   6 C :    1.232286
   7 C :   -0.282583
   8 H :    0.263155
   9 C :   -0.470324
  10 H :    0.152083
  11 H :    0.271715
  12 O :   -0.807461
  13 C :   -0.682579
  14 H :    0.253091
  15 H :    0.509506
  16 H :    0.253090
  17 H :    0.234294
Sum of atomic charges:    0.0000000

LOEWDIN ATOMIC CHARGES
----------------------
   0 Cl:    1.289054
   1 Cl:    1.287658
   2 B :   -2.314743
   3 C :   -0.164019
   4 C :    0.261984
   5 C :    0.343371
   6 C :   -0.456368
   7 C :    0.268945
   8 H :   -0.371183
   9 C :    0.350933
  10 H :   -0.356988
  11 H :   -0.371319
  12 O :    0.892277
  13 C :    0.586348
  14 H :   -0.304097
  15 H :   -0.314165
  16 H :   -0.304096
  17 H :   -0.323593

  Mayer bond orders larger than 0.100000
B(  0-Cl,  2-B ) :   0.8584 B(  0-Cl,  3-C ) :   0.2569 B(  0-Cl, 11-H ) :  -0.1499
B(  1-Cl,  2-B ) :   0.8828 B(  1-Cl,  3-C ) :   0.1769 B(  1-Cl,  8-H ) :  -0.1336
B(  2-B ,  3-C ) :   1.3005 B(  3-C ,  4-C ) :   1.2014 B(  3-C ,  5-C ) :  -0.2274
B(  3-C ,  7-C ) :   1.1982 B(  3-C ,  8-H ) :  -0.1010 B(  3-C ,  9-C ) :  -0.3717
B(  3-C , 11-H ) :  -0.1031 B(  4-C ,  5-C ) :   1.2141 B(  4-C ,  6-C ) :  -0.2758
B(  4-C , 11-H ) :   1.1302 B(  4-C , 17-H ) :  -0.1239 B(  5-C ,  6-C ) :   1.1171
B(  5-C ,  7-C ) :   0.1708 B(  5-C , 11-H ) :  -0.1711 B(  5-C , 12-O ) :   0.2301
B(  5-C , 17-H ) :   1.0292 B(  6-C ,  7-C ) :  -0.1445 B(  6-C ,  9-C ) :   1.3160
B(  6-C , 10-H ) :  -0.1191 B(  6-C , 13-C ) :  -0.1604 B(  6-C , 17-H ) :  -0.1006
B(  7-C ,  8-H ) :   1.0726 B(  7-C ,  9-C ) :   0.8447 B(  7-C , 10-H ) :  -0.2116
B(  8-H ,  9-C ) :  -0.1839 B(  9-C , 10-H ) :   1.2078 B(  9-C , 12-O ) :   0.2025
B(  9-C , 13-C ) :   0.1536 B( 12-O , 13-C ) :   0.9199 B( 13-C , 14-H ) :   0.9197
B( 13-C , 15-H ) :   0.7358 B( 13-C , 16-H ) :   0.9197

MP2 TOTAL ENERGY:    -1289.950843009 Eh
FINAL SINGLE POINT ENERGY     -1289.950843008706

DIPOLE MOMENT
-------------
                                X             Y             Z
Electronic contribution:     25.34194      -1.01473      -0.00004
Nuclear contribution   :    -26.84127       1.42964       0.00004
                        -----------------------------------------
Total Dipole Moment    :     -1.49933       0.41492       0.00000
                        -----------------------------------------
Magnitude (a.u.)       :      1.55568
Magnitude (Debye)      :      3.95422

Rotational constants in cm-1:     0.064318     0.012816     0.010708
Rotational constants in MHz :  1928.206910   384.201983   321.020090

                             ****ORCA TERMINATED NORMALLY****
TOTAL RUN TIME: 0 days 0 hours 37 minutes 22 seconds 962 msec
