                         Program Version 5.0.4 -  RELEASE  -
|  1> ! ri-mp2 aug-cc-pvdz aug-cc-pvdz/c tightscf
|  2> %pal nprocs 16 end
|  3> %maxcore 3800
|  4> %base "DZ_Si-S_10_AB"
|  5> %scf
|  6> STABPerform true
|  7> STABRestartUHFifUnstable true
|  8> end
|  9>
| 10> *xyz 0 1
| 11> Si         0.524979    0.941753   -0.000060
| 12> C        -1.040543   -0.106517   -0.000013
| 13> C        -2.235890    0.852128   -0.000205
| 14> H        -2.242828    1.493811    0.882877
| 15> H        -3.169763    0.283060   -0.000175
| 16> H        -2.242737    1.493571   -0.883461
| 17> C        -1.091923   -0.984997   -1.251914
| 18> H        -2.021470   -1.561137   -1.265022
| 19> H        -0.263734   -1.693834   -1.287125
| 20> H        -1.059685   -0.389514   -2.166045
| 21> C        -1.092067   -0.984674    1.252109
| 22> H        -1.059957   -0.388951    2.166088
| 23> H        -0.263866   -1.693483    1.287610
| 24> H        -2.021605   -1.560827    1.265247
| 25> S         2.218913   -0.377765    0.000059
| 26> H         3.132582    0.602118    0.000288
| 27> H         0.561635    1.809706    1.199368
| 28> H         0.561646    1.809547   -1.199604
| 29> *
| 30>
| 31> $new_job
| 32> ! ri-mp2 aug-cc-pvtz aug-cc-pvtz/c tightscf
| 33> %pal nprocs 16 end
| 34> %maxcore 3800
| 35> %base "TZ_Si-S_10_AB"
| 36>
| 37> *xyz 0 1
| 38> Si         0.524979    0.941753   -0.000060
| 39> C        -1.040543   -0.106517   -0.000013
| 40> C        -2.235890    0.852128   -0.000205
| 41> H        -2.242828    1.493811    0.882877
| 42> H        -3.169763    0.283060   -0.000175
| 43> H        -2.242737    1.493571   -0.883461
| 44> C        -1.091923   -0.984997   -1.251914
| 45> H        -2.021470   -1.561137   -1.265022
| 46> H        -0.263734   -1.693834   -1.287125
| 47> H        -1.059685   -0.389514   -2.166045
| 48> C        -1.092067   -0.984674    1.252109
| 49> H        -1.059957   -0.388951    2.166088
| 50> H        -0.263866   -1.693483    1.287610
| 51> H        -2.021605   -1.560827    1.265247
| 52> S         2.218913   -0.377765    0.000059
| 53> H         3.132582    0.602118    0.000288
| 54> H         0.561635    1.809706    1.199368
| 55> H         0.561646    1.809547   -1.199604
| 56> *
| 57>
| 58> $new_job
| 59> ! ri-mp2 aug-cc-pvqz aug-cc-pvqz/c tightscf
| 60> %pal nprocs 16 end
| 61> %maxcore 3800
| 62> %base "QZ_Si-S_10_AB"
| 63>
| 64> *xyz 0 1
| 65> Si         0.524979    0.941753   -0.000060
| 66> C        -1.040543   -0.106517   -0.000013
| 67> C        -2.235890    0.852128   -0.000205
| 68> H        -2.242828    1.493811    0.882877
| 69> H        -3.169763    0.283060   -0.000175
| 70> H        -2.242737    1.493571   -0.883461
| 71> C        -1.091923   -0.984997   -1.251914
| 72> H        -2.021470   -1.561137   -1.265022
| 73> H        -0.263734   -1.693834   -1.287125
| 74> H        -1.059685   -0.389514   -2.166045
| 75> C        -1.092067   -0.984674    1.252109
| 76> H        -1.059957   -0.388951    2.166088
| 77> H        -0.263866   -1.693483    1.287610
| 78> H        -2.021605   -1.560827    1.265247
| 79> S         2.218913   -0.377765    0.000059
| 80> H         3.132582    0.602118    0.000288
| 81> H         0.561635    1.809706    1.199368
| 82> H         0.561646    1.809547   -1.199604
| 83> *
| 84>
| 85>
| 86>
| 87>
| 88>                          ****END OF INPUT****
 Total Charge           Charge          ....    0
 Multiplicity           Mult            ....    1
 Number of Electrons    NEL             ....   66
MP2 TOTAL ENERGY:     -845.836943530 Eh
FINAL SINGLE POINT ENERGY      -845.836943529989
MP2 TOTAL ENERGY:     -846.082681886 Eh
FINAL SINGLE POINT ENERGY      -846.082681886375

CARTESIAN COORDINATES (ANGSTROEM)
---------------------------------
  Si     0.524979    0.941753   -0.000060
  C     -1.040543   -0.106517   -0.000013
  C     -2.235890    0.852128   -0.000205
  H     -2.242828    1.493811    0.882877
  H     -3.169763    0.283060   -0.000175
  H     -2.242737    1.493571   -0.883461
  C     -1.091923   -0.984997   -1.251914
  H     -2.021470   -1.561137   -1.265022
  H     -0.263734   -1.693834   -1.287125
  H     -1.059685   -0.389514   -2.166045
  C     -1.092067   -0.984674    1.252109
  H     -1.059957   -0.388951    2.166088
  H     -0.263866   -1.693483    1.287610
  H     -2.021605   -1.560827    1.265247
  S      2.218913   -0.377765    0.000059
  H      3.132582    0.602118    0.000288
  H      0.561635    1.809706    1.199368
  H      0.561646    1.809547   -1.199604

 Multiplicity           Mult            ....    1
 Number of Electrons    NEL             ....   66
 Basis Dimension        Dim             .... 1040

ORBITAL ENERGIES
----------------

  NO   OCC          E(Eh)            E(eV)
   0   2.0000     -91.942524     -2501.8833
   1   2.0000     -68.783607     -1871.6971
   2   2.0000     -11.226489      -305.4883
   3   2.0000     -11.220731      -305.3316
   4   2.0000     -11.217724      -305.2498
   5   2.0000     -11.217692      -305.2489
   6   2.0000      -8.947342      -243.4695
   7   2.0000      -6.628897      -180.3814
   8   2.0000      -6.628113      -180.3601
   9   2.0000      -6.627282      -180.3375
  10   2.0000      -6.131706      -166.8522
  11   2.0000      -4.238292      -115.3298
  12   2.0000      -4.237594      -115.3108
  13   2.0000      -4.237276      -115.3021
  14   2.0000      -1.093301       -29.7502
  15   2.0000      -0.964846       -26.2548
  16   2.0000      -0.938138       -25.5280
  17   2.0000      -0.937395       -25.5078
  18   2.0000      -0.777555       -21.1584
  19   2.0000      -0.686230       -18.6733
  20   2.0000      -0.609103       -16.5745
  21   2.0000      -0.605966       -16.4892
  22   2.0000      -0.600960       -16.3530
  23   2.0000      -0.554045       -15.0763
  24   2.0000      -0.547995       -14.9117
  25   2.0000      -0.534653       -14.5486
  26   2.0000      -0.521091       -14.1796
  27   2.0000      -0.490027       -13.3343
  28   2.0000      -0.475613       -12.9421
  29   2.0000      -0.471235       -12.8230
  30   2.0000      -0.438871       -11.9423
  31   2.0000      -0.404953       -11.0193
  32   2.0000      -0.372034       -10.1236
  33   0.0000       0.023233         0.6322
  34   0.0000       0.031611         0.8602
  35   0.0000       0.033092         0.9005
  36   0.0000       0.033308         0.9064
  37   0.0000       0.046681         1.2703

MULLIKEN ATOMIC CHARGES
-----------------------
   0 Si:    1.204774
   1 C :    1.169131
   2 C :   -1.149944
   3 H :    0.239395
   4 H :    0.261847
   5 H :    0.239392
   6 C :   -1.137196
   7 H :    0.263612
   8 H :    0.238889
   9 H :    0.238012
  10 C :   -1.137189
  11 H :    0.238020
  12 H :    0.238891
  13 H :    0.263602
  14 S :   -0.517022
  15 H :    0.008240
  16 H :   -0.331222
  17 H :   -0.331233
Sum of atomic charges:    0.0000000

LOEWDIN ATOMIC CHARGES
----------------------
   0 Si:    0.235355
   1 C :   -0.358717
   2 C :    0.833867
   3 H :   -0.281072
   4 H :   -0.271253
   5 H :   -0.281076
   6 C :    0.828766
   7 H :   -0.271195
   8 H :   -0.298550
   9 H :   -0.280144
  10 C :    0.828768
  11 H :   -0.280147
  12 H :   -0.298546
  13 H :   -0.271196
  14 S :    1.488294
  15 H :   -0.878849
  16 H :   -0.222151
  17 H :   -0.222153

  Mayer bond orders larger than 0.100000
B(  0-Si,  1-C ) :   0.6367 B(  0-Si,  2-C ) :   0.1174 B(  0-Si, 14-S ) :   0.6097
B(  0-Si, 16-H ) :   0.7106 B(  0-Si, 17-H ) :   0.7106 B(  1-C ,  2-C ) :   0.4072
B(  1-C ,  3-H ) :  -0.1161 B(  1-C ,  4-H ) :  -0.1074 B(  1-C ,  5-H ) :  -0.1161
B(  1-C ,  6-C ) :   0.4407 B(  1-C ,  7-H ) :  -0.1057 B(  1-C ,  8-H ) :  -0.1048
B(  1-C , 10-C ) :   0.4407 B(  1-C , 12-H ) :  -0.1048 B(  1-C , 13-H ) :  -0.1057
B(  1-C , 14-S ) :  -0.2301 B(  2-C ,  3-H ) :   1.0397 B(  2-C ,  4-H ) :   0.9936
B(  2-C ,  5-H ) :   1.0397 B(  2-C ,  6-C ) :   0.1385 B(  2-C , 10-C ) :   0.1385
B(  6-C ,  7-H ) :   0.9883 B(  6-C ,  8-H ) :   1.0299 B(  6-C ,  9-H ) :   1.0267
B(  6-C , 10-C ) :   0.1310 B( 10-C , 11-H ) :   1.0267 B( 10-C , 12-H ) :   1.0299
B( 10-C , 13-H ) :   0.9883 B( 14-S , 15-H ) :   1.0907

MP2 TOTAL ENERGY:     -846.157994859 Eh
FINAL SINGLE POINT ENERGY      -846.157994859331

DIPOLE MOMENT
-------------
                                X             Y             Z
Electronic contribution:     10.12089       0.11757      -0.00001
Nuclear contribution   :    -10.50076       0.16338       0.00005
                        -----------------------------------------
Total Dipole Moment    :     -0.37987       0.28096       0.00004
                        -----------------------------------------
Magnitude (a.u.)       :      0.47248
Magnitude (Debye)      :      1.20095

Rotational constants in cm-1:     0.118499     0.046045     0.042998
Rotational constants in MHz :  3552.512488  1380.403291  1289.036387

                             ****ORCA TERMINATED NORMALLY****
TOTAL RUN TIME: 0 days 2 hours 25 minutes 43 seconds 139 msec
