                         Program Version 5.0.4 -  RELEASE  -
|  1> ! ri-mp2 aug-cc-pvdz aug-cc-pvdz/c tightscf
|  2> %pal nprocs 16 end
|  3> %maxcore 3800
|  4> %base "DZ_B-Cl_58_AB"
|  5>
|  6> *xyz 0 1
|  7> Cl         2.054738    1.499252    0.000000
|  8> B         1.141911    0.002566    0.000003
|  9> Cl         2.050849   -1.493152    0.000010
| 10> C        -0.397907    0.012143    0.000000
| 11> C        -1.130103    1.200485   -0.000006
| 12> C        -1.134542   -1.175988    0.000002
| 13> N        -2.457360   -1.235763   -0.000003
| 14> C        -2.507694    1.153455   -0.000011
| 15> C        -3.123509   -0.087391   -0.000008
| 16> H        -0.615201    2.151742   -0.000008
| 17> H        -3.101156    2.056958   -0.000016
| 18> H        -0.618671   -2.128629    0.000005
| 19> H        -4.205455   -0.162495   -0.000013
| 20> *
| 21>
| 22> $new_job
| 23> ! ri-mp2 aug-cc-pvtz aug-cc-pvtz/c tightscf
| 24> %pal nprocs 16 end
| 25> %maxcore 3800
| 26> %base "TZ_B-Cl_58_AB"
| 27>
| 28> *xyz 0 1
| 29> Cl         2.054738    1.499252    0.000000
| 30> B         1.141911    0.002566    0.000003
| 31> Cl         2.050849   -1.493152    0.000010
| 32> C        -0.397907    0.012143    0.000000
| 33> C        -1.130103    1.200485   -0.000006
| 34> C        -1.134542   -1.175988    0.000002
| 35> N        -2.457360   -1.235763   -0.000003
| 36> C        -2.507694    1.153455   -0.000011
| 37> C        -3.123509   -0.087391   -0.000008
| 38> H        -0.615201    2.151742   -0.000008
| 39> H        -3.101156    2.056958   -0.000016
| 40> H        -0.618671   -2.128629    0.000005
| 41> H        -4.205455   -0.162495   -0.000013
| 42> *
| 43>
| 44> $new_job
| 45> ! ri-mp2 aug-cc-pvqz aug-cc-pvqz/c tightscf
| 46> %pal nprocs 16 end
| 47> %maxcore 3800
| 48> %base "QZ_B-Cl_58_AB"
| 49>
| 50> *xyz 0 1
| 51> Cl         2.054738    1.499252    0.000000
| 52> B         1.141911    0.002566    0.000003
| 53> Cl         2.050849   -1.493152    0.000010
| 54> C        -0.397907    0.012143    0.000000
| 55> C        -1.130103    1.200485   -0.000006
| 56> C        -1.134542   -1.175988    0.000002
| 57> N        -2.457360   -1.235763   -0.000003
| 58> C        -2.507694    1.153455   -0.000011
| 59> C        -3.123509   -0.087391   -0.000008
| 60> H        -0.615201    2.151742   -0.000008
| 61> H        -3.101156    2.056958   -0.000016
| 62> H        -0.618671   -2.128629    0.000005
| 63> H        -4.205455   -0.162495   -0.000013
| 64> *
| 65>
| 66>
| 67>
| 68>
| 69>                          ****END OF INPUT****
 Total Charge           Charge          ....    0
 Multiplicity           Mult            ....    1
 Number of Electrons    NEL             ....   80
MP2 TOTAL ENERGY:    -1191.146202499 Eh
FINAL SINGLE POINT ENERGY     -1191.146202498856
MP2 TOTAL ENERGY:    -1191.495434354 Eh
FINAL SINGLE POINT ENERGY     -1191.495434354224

CARTESIAN COORDINATES (ANGSTROEM)
---------------------------------
  Cl     2.054738    1.499252    0.000000
  B      1.141911    0.002566    0.000003
  Cl     2.050849   -1.493152    0.000010
  C     -0.397907    0.012143    0.000000
  C     -1.130103    1.200485   -0.000006
  C     -1.134542   -1.175988    0.000002
  N     -2.457360   -1.235763   -0.000003
  C     -2.507694    1.153455   -0.000011
  C     -3.123509   -0.087391   -0.000008
  H     -0.615201    2.151742   -0.000008
  H     -3.101156    2.056958   -0.000016
  H     -0.618671   -2.128629    0.000005
  H     -4.205455   -0.162495   -0.000013

 Multiplicity           Mult            ....    1
 Number of Electrons    NEL             ....   80
 Basis Dimension        Dim             ....  912

ORBITAL ENERGIES
----------------

  NO   OCC          E(Eh)            E(eV)
   0   2.0000    -104.843709     -2852.9424
   1   2.0000    -104.842949     -2852.9217
   2   2.0000     -15.573372      -423.7730
   3   2.0000     -11.294619      -307.3422
   4   2.0000     -11.292794      -307.2925
   5   2.0000     -11.275751      -306.8288
   6   2.0000     -11.249791      -306.1224
   7   2.0000     -11.239042      -305.8299
   8   2.0000     -10.571682      -287.6701
   9   2.0000     -10.570925      -287.6495
  10   2.0000      -8.038514      -218.7391
  11   2.0000      -8.037760      -218.7186
  12   2.0000      -8.037453      -218.7102
  13   2.0000      -8.037231      -218.7042
  14   2.0000      -8.036688      -218.6894
  15   2.0000      -8.036462      -218.6833
  16   2.0000      -7.712526      -209.8685
  17   2.0000      -1.280669       -34.8488
  18   2.0000      -1.151933       -31.3457
  19   2.0000      -1.107295       -30.1310
  20   2.0000      -1.100764       -29.9533
  21   2.0000      -1.051179       -28.6040
  22   2.0000      -0.878959       -23.9177
  23   2.0000      -0.874684       -23.8014
  24   2.0000      -0.744891       -20.2695
  25   2.0000      -0.698870       -19.0172
  26   2.0000      -0.684961       -18.6387
  27   2.0000      -0.638600       -17.3772
  28   2.0000      -0.607321       -16.5260
  29   2.0000      -0.589065       -16.0293
  30   2.0000      -0.567667       -15.4470
  31   2.0000      -0.565283       -15.3821
  32   2.0000      -0.533969       -14.5300
  33   2.0000      -0.520334       -14.1590
  34   2.0000      -0.476501       -12.9662
  35   2.0000      -0.471150       -12.8206
  36   2.0000      -0.457178       -12.4405
  37   2.0000      -0.426378       -11.6023
  38   2.0000      -0.401852       -10.9349
  39   2.0000      -0.367134        -9.9902
  40   0.0000       0.019545         0.5318
  41   0.0000       0.029750         0.8095
  42   0.0000       0.031040         0.8447
  43   0.0000       0.036916         1.0045
  44   0.0000       0.041232         1.1220

MULLIKEN ATOMIC CHARGES
-----------------------
   0 Cl:   -0.250665
   1 B :    0.850805
   2 Cl:   -0.230050
   3 C :   -0.246465
   4 C :   -0.325736
   5 C :   -0.165362
   6 N :   -0.645039
   7 C :   -0.298178
   8 C :   -0.354587
   9 H :    0.350026
  10 H :    0.297208
  11 H :    0.492362
  12 H :    0.525682
Sum of atomic charges:    0.0000000

LOEWDIN ATOMIC CHARGES
----------------------
   0 Cl:    1.300316
   1 B :   -2.322502
   2 Cl:    1.304773
   3 C :   -0.172087
   4 C :    0.255375
   5 C :    0.004169
   6 N :    0.615961
   7 C :    0.353616
   8 C :    0.085840
   9 H :   -0.361513
  10 H :   -0.322732
  11 H :   -0.400619
  12 H :   -0.340597

  Mayer bond orders larger than 0.100000
B(  0-Cl,  1-B ) :   0.9119 B(  0-Cl,  3-C ) :   0.1760 B(  1-B ,  2-Cl) :   0.9213
B(  1-B ,  3-C ) :   1.2325 B(  2-Cl,  3-C ) :   0.1697 B(  3-C ,  4-C ) :   0.9528
B(  3-C ,  5-C ) :   1.1821 B(  3-C ,  7-C ) :  -0.3141 B(  4-C ,  7-C ) :   1.2378
B(  4-C ,  9-H ) :   0.9662 B(  4-C , 10-H ) :  -0.1187 B(  5-C ,  6-N ) :   1.1404
B(  5-C ,  7-C ) :   0.1171 B(  5-C , 11-H ) :   0.8503 B(  6-N ,  8-C ) :   1.3550
B(  7-C ,  8-C ) :   1.2163 B(  7-C , 10-H ) :   1.0403 B(  7-C , 12-H ) :  -0.1056
B(  8-C , 12-H ) :   0.7941

MP2 TOTAL ENERGY:    -1191.610765018 Eh
FINAL SINGLE POINT ENERGY     -1191.610765017664

DIPOLE MOMENT
-------------
                                X             Y             Z
Electronic contribution:     13.88838      -1.03093       0.00004
Nuclear contribution   :    -14.43016       1.78585      -0.00005
                        -----------------------------------------
Total Dipole Moment    :     -0.54179       0.75491      -0.00000
                        -----------------------------------------
Magnitude (a.u.)       :      0.92921
Magnitude (Debye)      :      2.36186

Rotational constants in cm-1:     0.069220     0.025943     0.018870
Rotational constants in MHz :  2075.175941   777.737061   565.716948

                             ****ORCA TERMINATED NORMALLY****
TOTAL RUN TIME: 0 days 0 hours 17 minutes 32 seconds 103 msec
