                         Program Version 5.0.4 -  RELEASE  -
|  1> ! ri-mp2 aug-cc-pvdz aug-cc-pvdz/c tightscf
|  2> %pal nprocs 16 end
|  3> %maxcore 3800
|  4> %base "DZ_B-S_11_B"
|  5> %scf
|  6> STABPerform true
|  7> STABRestartUHFifUnstable true
|  8> end
|  9>
| 10> *xyz 0 2
| 11> B         0.000000   -0.000000    0.594856
| 12> S        -0.000000    1.640785   -0.009103
| 13> S        -0.000000   -1.640785   -0.009103
| 14> H        -0.000007   -1.408782   -1.341498
| 15> H         0.000007    1.408782   -1.341498
| 16> *
| 17>
| 18> $new_job
| 19> ! ri-mp2 aug-cc-pvtz aug-cc-pvtz/c tightscf
| 20> %pal nprocs 16 end
| 21> %maxcore 3800
| 22> %base "TZ_B-S_11_B"
| 23>
| 24> *xyz 0 2
| 25> B         0.000000   -0.000000    0.594856
| 26> S        -0.000000    1.640785   -0.009103
| 27> S        -0.000000   -1.640785   -0.009103
| 28> H        -0.000007   -1.408782   -1.341498
| 29> H         0.000007    1.408782   -1.341498
| 30> *
| 31>
| 32> $new_job
| 33> ! ri-mp2 aug-cc-pvqz aug-cc-pvqz/c tightscf
| 34> %pal nprocs 16 end
| 35> %maxcore 3800
| 36> %base "QZ_B-S_11_B"
| 37>
| 38> *xyz 0 2
| 39> B         0.000000   -0.000000    0.594856
| 40> S        -0.000000    1.640785   -0.009103
| 41> S        -0.000000   -1.640785   -0.009103
| 42> H        -0.000007   -1.408782   -1.341498
| 43> H         0.000007    1.408782   -1.341498
| 44> *
| 45>
| 46>
| 47>
| 48>
| 49>                          ****END OF INPUT****
 Total Charge           Charge          ....    0
 Multiplicity           Mult            ....    2
 Number of Electrons    NEL             ....   39
MP2 TOTAL ENERGY:     -821.266022049 Eh
FINAL SINGLE POINT ENERGY      -821.266022049361
MP2 TOTAL ENERGY:     -821.387662165 Eh
FINAL SINGLE POINT ENERGY      -821.387662165195

CARTESIAN COORDINATES (ANGSTROEM)
---------------------------------
  B      0.000000   -0.000000    0.594856
  S     -0.000000    1.640785   -0.009103
  S     -0.000000   -1.640785   -0.009103
  H     -0.000007   -1.408782   -1.341498
  H      0.000007    1.408782   -1.341498

 Multiplicity           Mult            ....    2
 Number of Electrons    NEL             ....   39
 Basis Dimension        Dim             ....  340

ORBITAL ENERGIES
----------------
                 SPIN UP ORBITALS
  NO   OCC          E(Eh)            E(eV)
   0   1.0000     -91.973142     -2502.7164
   1   1.0000     -91.973142     -2502.7164
   2   1.0000      -8.977677      -244.2950
   3   1.0000      -8.977668      -244.2948
   4   1.0000      -7.671342      -208.7478
   5   1.0000      -6.658443      -181.1854
   6   1.0000      -6.658440      -181.1854
   7   1.0000      -6.657809      -181.1682
   8   1.0000      -6.657803      -181.1680
   9   1.0000      -6.657353      -181.1558
  10   1.0000      -6.657353      -181.1558
  11   1.0000      -1.027101       -27.9488
  12   1.0000      -0.981785       -26.7157
  13   1.0000      -0.672933       -18.3114
  14   1.0000      -0.599538       -16.3143
  15   1.0000      -0.541747       -14.7417
  16   1.0000      -0.458510       -12.4767
  17   1.0000      -0.446611       -12.1529
  18   1.0000      -0.381889       -10.3917
  19   1.0000      -0.346623        -9.4321
  20   0.0000       0.024785         0.6744
  21   0.0000       0.038357         1.0437
  22   0.0000       0.040415         1.0997
  23   0.0000       0.042748         1.1632
  24   0.0000       0.052880         1.4389

                 SPIN DOWN ORBITALS
  NO   OCC          E(Eh)            E(eV)
   0   1.0000     -91.973558     -2502.7278
   1   1.0000     -91.973558     -2502.7278
   2   1.0000      -8.977776      -244.2977
   3   1.0000      -8.977768      -244.2975
   4   1.0000      -7.651821      -208.2166
   5   1.0000      -6.660084      -181.2301
   6   1.0000      -6.660081      -181.2300
   7   1.0000      -6.658498      -181.1870
   8   1.0000      -6.658497      -181.1869
   9   1.0000      -6.658254      -181.1803
  10   1.0000      -6.658253      -181.1803
  11   1.0000      -1.013933       -27.5905
  12   1.0000      -0.979555       -26.6550
  13   1.0000      -0.625763       -17.0279
  14   1.0000      -0.585972       -15.9451
  15   1.0000      -0.529077       -14.3969
  16   1.0000      -0.454060       -12.3556
  17   1.0000      -0.441709       -12.0195
  18   1.0000      -0.386720       -10.5232
  19   0.0000       0.019381         0.5274
  20   0.0000       0.038105         1.0369
  21   0.0000       0.038838         1.0568
  22   0.0000       0.042941         1.1685
  23   0.0000       0.053007         1.4424

MULLIKEN ATOMIC CHARGES AND SPIN POPULATIONS
--------------------------------------------
   0 B :    0.034484    1.071433
   1 S :   -0.110725   -0.113196
   2 S :   -0.110725   -0.113196
   3 H :    0.093483    0.077480
   4 H :    0.093483    0.077480
Sum of atomic charges         :   -0.0000000

LOEWDIN ATOMIC CHARGES AND SPIN POPULATIONS
-------------------------------------------
   0 B :   -1.401557    0.580129
   1 S :    1.510736    0.175178
   2 S :    1.510736    0.175178
   3 H :   -0.809957    0.034757
   4 H :   -0.809957    0.034757

  Mayer bond orders larger than 0.100000
B(  0-B ,  1-S ) :   1.3032 B(  0-B ,  2-S ) :   1.3032 B(  1-S ,  4-H ) :   0.9689
B(  2-S ,  3-H ) :   0.9689

MP2 TOTAL ENERGY:     -821.428042638 Eh
FINAL SINGLE POINT ENERGY      -821.428042638351

DIPOLE MOMENT
-------------
                                X             Y             Z
Electronic contribution:     -0.00000       0.00000       2.27828
Nuclear contribution   :      0.00000       0.00000      -3.00969
                        -----------------------------------------
Total Dipole Moment    :     -0.00000       0.00000      -0.73140
                        -----------------------------------------
Magnitude (a.u.)       :      0.73140
Magnitude (Debye)      :      1.85908

Rotational constants in cm-1:     2.299759     0.095444     0.091641
Rotational constants in MHz : 68945.041693  2861.339714  2747.321088

                             ****ORCA TERMINATED NORMALLY****
TOTAL RUN TIME: 0 days 0 hours 9 minutes 19 seconds 829 msec
