                         Program Version 5.0.4 -  RELEASE  -
|  1> ! ri-mp2 aug-cc-pvdz aug-cc-pvdz/c tightscf
|  2> %pal nprocs 16 end
|  3> %maxcore 3800
|  4> %base "DZ_B-Cl_19_A"
|  5> %scf
|  6> STABPerform true
|  7> STABRestartUHFifUnstable true
|  8> end
|  9>
| 10> *xyz 0 2
| 11> Cl         2.051065   -0.819873    0.081053
| 12> B         1.568527    0.746720   -0.470376
| 13> C         0.310279    1.535555   -0.037518
| 14> C        -0.866145    0.742720    0.538693
| 15> H         0.702757    2.234598    0.716421
| 16> C        -1.584136   -0.098456   -0.506712
| 17> H        -1.581184    1.434987    0.991601
| 18> H        -0.511661    0.094388    1.343777
| 19> C        -2.748962   -0.886424    0.070007
| 20> H        -0.872612   -0.787445   -0.969966
| 21> H        -1.941672    0.555447   -1.307600
| 22> H        -2.409403   -1.573291    0.847361
| 23> H        -3.251800   -1.475415   -0.697347
| 24> H        -3.489935   -0.221379    0.517776
| 25> H        -0.021437    2.181981   -0.854868
| 26> *
| 27>
| 28> $new_job
| 29> ! ri-mp2 aug-cc-pvtz aug-cc-pvtz/c tightscf
| 30> %pal nprocs 16 end
| 31> %maxcore 3800
| 32> %base "TZ_B-Cl_19_A"
| 33>
| 34> *xyz 0 2
| 35> Cl         2.051065   -0.819873    0.081053
| 36> B         1.568527    0.746720   -0.470376
| 37> C         0.310279    1.535555   -0.037518
| 38> C        -0.866145    0.742720    0.538693
| 39> H         0.702757    2.234598    0.716421
| 40> C        -1.584136   -0.098456   -0.506712
| 41> H        -1.581184    1.434987    0.991601
| 42> H        -0.511661    0.094388    1.343777
| 43> C        -2.748962   -0.886424    0.070007
| 44> H        -0.872612   -0.787445   -0.969966
| 45> H        -1.941672    0.555447   -1.307600
| 46> H        -2.409403   -1.573291    0.847361
| 47> H        -3.251800   -1.475415   -0.697347
| 48> H        -3.489935   -0.221379    0.517776
| 49> H        -0.021437    2.181981   -0.854868
| 50> *
| 51>
| 52> $new_job
| 53> ! ri-mp2 aug-cc-pvqz aug-cc-pvqz/c tightscf
| 54> %pal nprocs 16 end
| 55> %maxcore 3800
| 56> %base "QZ_B-Cl_19_A"
| 57>
| 58> *xyz 0 2
| 59> Cl         2.051065   -0.819873    0.081053
| 60> B         1.568527    0.746720   -0.470376
| 61> C         0.310279    1.535555   -0.037518
| 62> C        -0.866145    0.742720    0.538693
| 63> H         0.702757    2.234598    0.716421
| 64> C        -1.584136   -0.098456   -0.506712
| 65> H        -1.581184    1.434987    0.991601
| 66> H        -0.511661    0.094388    1.343777
| 67> C        -2.748962   -0.886424    0.070007
| 68> H        -0.872612   -0.787445   -0.969966
| 69> H        -1.941672    0.555447   -1.307600
| 70> H        -2.409403   -1.573291    0.847361
| 71> H        -3.251800   -1.475415   -0.697347
| 72> H        -3.489935   -0.221379    0.517776
| 73> H        -0.021437    2.181981   -0.854868
| 74> *
| 75>
| 76>
| 77>
| 78>
| 79>                          ****END OF INPUT****
 Total Charge           Charge          ....    0
 Multiplicity           Mult            ....    2
 Number of Electrons    NEL             ....   55
MP2 TOTAL ENERGY:     -641.715227494 Eh
FINAL SINGLE POINT ENERGY      -641.715227494190
MP2 TOTAL ENERGY:     -641.946383532 Eh
FINAL SINGLE POINT ENERGY      -641.946383531792

CARTESIAN COORDINATES (ANGSTROEM)
---------------------------------
  Cl     2.051065   -0.819873    0.081053
  B      1.568527    0.746720   -0.470376
  C      0.310279    1.535555   -0.037518
  C     -0.866145    0.742720    0.538693
  H      0.702757    2.234598    0.716421
  C     -1.584136   -0.098456   -0.506712
  H     -1.581184    1.434987    0.991601
  H     -0.511661    0.094388    1.343777
  C     -2.748962   -0.886424    0.070007
  H     -0.872612   -0.787445   -0.969966
  H     -1.941672    0.555447   -1.307600
  H     -2.409403   -1.573291    0.847361
  H     -3.251800   -1.475415   -0.697347
  H     -3.489935   -0.221379    0.517776
  H     -0.021437    2.181981   -0.854868

 Multiplicity           Mult            ....    2
 Number of Electrons    NEL             ....   55
 Basis Dimension        Dim             ....  898

ORBITAL ENERGIES
----------------
                 SPIN UP ORBITALS
  NO   OCC          E(Eh)            E(eV)
   0   1.0000    -104.837747     -2852.7801
   1   1.0000     -11.224507      -305.4344
   2   1.0000     -11.219416      -305.2958
   3   1.0000     -11.216934      -305.2283
   4   1.0000     -11.211660      -305.0848
   5   1.0000     -10.565510      -287.5021
   6   1.0000      -8.033254      -218.5960
   7   1.0000      -8.031082      -218.5369
   8   1.0000      -8.030810      -218.5295
   9   1.0000      -7.668459      -208.6694
  10   1.0000      -1.124342       -30.5949
  11   1.0000      -1.080506       -29.4021
  12   1.0000      -0.994906       -27.0728
  13   1.0000      -0.879185       -23.9238
  14   1.0000      -0.800335       -21.7782
  15   1.0000      -0.671534       -18.2734
  16   1.0000      -0.632006       -17.1978
  17   1.0000      -0.597135       -16.2489
  18   1.0000      -0.592932       -16.1345
  19   1.0000      -0.569018       -15.4838
  20   1.0000      -0.530243       -14.4286
  21   1.0000      -0.506600       -13.7853
  22   1.0000      -0.495459       -13.4821
  23   1.0000      -0.488008       -13.2794
  24   1.0000      -0.479597       -13.0505
  25   1.0000      -0.470272       -12.7968
  26   1.0000      -0.459003       -12.4901
  27   1.0000      -0.328019        -8.9259
  28   0.0000       0.024359         0.6628
  29   0.0000       0.029668         0.8073
  30   0.0000       0.032028         0.8715
  31   0.0000       0.033869         0.9216
  32   0.0000       0.045646         1.2421

                 SPIN DOWN ORBITALS
  NO   OCC          E(Eh)            E(eV)
   0   1.0000    -104.836937     -2852.7581
   1   1.0000     -11.223418      -305.4047
   2   1.0000     -11.219495      -305.2980
   3   1.0000     -11.215725      -305.1954
   4   1.0000     -11.211632      -305.0840
   5   1.0000     -10.564549      -287.4760
   6   1.0000      -8.031528      -218.5490
   7   1.0000      -8.030928      -218.5327
   8   1.0000      -8.028779      -218.4742
   9   1.0000      -7.648648      -208.1303
  10   1.0000      -1.115161       -30.3451
  11   1.0000      -1.078267       -29.3411
  12   1.0000      -0.991326       -26.9753
  13   1.0000      -0.874678       -23.8012
  14   1.0000      -0.797426       -21.6991
  15   1.0000      -0.658930       -17.9304
  16   1.0000      -0.614833       -16.7304
  17   1.0000      -0.596032       -16.2189
  18   1.0000      -0.588469       -16.0130
  19   1.0000      -0.557991       -15.1837
  20   1.0000      -0.523628       -14.2487
  21   1.0000      -0.498027       -13.5520
  22   1.0000      -0.486552       -13.2397
  23   1.0000      -0.480422       -13.0730
  24   1.0000      -0.471852       -12.8397
  25   1.0000      -0.469197       -12.7675
  26   1.0000      -0.453005       -12.3269
  27   0.0000       0.023073         0.6278
  28   0.0000       0.029323         0.7979
  29   0.0000       0.031669         0.8618
  30   0.0000       0.033392         0.9086
  31   0.0000       0.046073         1.2537

MULLIKEN ATOMIC CHARGES AND SPIN POPULATIONS
--------------------------------------------
   0 Cl:   -0.311277    0.009125
   1 B :    0.272130    1.044235
   2 C :   -0.505612   -0.071043
   3 C :   -0.495972    0.034111
   4 H :    0.235691   -0.013265
   5 C :   -0.364689   -0.002434
   6 H :    0.277649    0.003641
   7 H :    0.285340   -0.001727
   8 C :   -0.842119    0.001142
   9 H :    0.261850   -0.000775
  10 H :    0.227661   -0.000627
  11 H :    0.226336   -0.000084
  12 H :    0.258725    0.000060
  13 H :    0.226069   -0.000187
  14 H :    0.248217   -0.002171
Sum of atomic charges         :   -0.0000000

LOEWDIN ATOMIC CHARGES AND SPIN POPULATIONS
-------------------------------------------
   0 Cl:    1.257910    0.173485
   1 B :   -0.953592    0.571190
   2 C :    0.488226    0.161472
   3 C :    0.434463    0.023785
   4 H :   -0.325311    0.023726
   5 C :    0.476942    0.004859
   6 H :   -0.266513    0.004738
   7 H :   -0.300488    0.004429
   8 C :    0.929258    0.000655
   9 H :   -0.297769    0.001315
  10 H :   -0.268794    0.000193
  11 H :   -0.281482    0.000121
  12 H :   -0.280911    0.000075
  13 H :   -0.282803    0.000385
  14 H :   -0.329137    0.029571

  Mayer bond orders larger than 0.100000
B(  0-Cl,  1-B ) :   1.0304 B(  1-B ,  2-C ) :   0.8892 B(  2-C ,  3-C ) :   0.9622
B(  2-C ,  4-H ) :   0.9514 B(  2-C , 14-H ) :   0.9095 B(  3-C ,  5-C ) :   0.8567
B(  3-C ,  6-H ) :   0.8761 B(  3-C ,  7-H ) :   0.8991 B(  5-C ,  8-C ) :   0.9403
B(  5-C ,  9-H ) :   0.8833 B(  5-C , 10-H ) :   0.8941 B(  8-C , 11-H ) :   0.9526
B(  8-C , 12-H ) :   1.0101 B(  8-C , 13-H ) :   0.9615

MP2 TOTAL ENERGY:     -642.018674962 Eh
FINAL SINGLE POINT ENERGY      -642.018674961559

DIPOLE MOMENT
-------------
                                X             Y             Z
Electronic contribution:     17.07565      -2.67377      -0.74943
Nuclear contribution   :    -17.56079       3.01264       0.84953
                        -----------------------------------------
Total Dipole Moment    :     -0.48514       0.33887       0.10010
                        -----------------------------------------
Magnitude (a.u.)       :      0.60018
Magnitude (Debye)      :      1.52553

Rotational constants in cm-1:     0.154632     0.047050     0.038987
Rotational constants in MHz :  4635.738786  1410.519877  1168.807070

                             ****ORCA TERMINATED NORMALLY****
TOTAL RUN TIME: 0 days 3 hours 40 minutes 2 seconds 773 msec
