                         Program Version 5.0.4 -  RELEASE  -
|  1> ! ri-mp2 aug-cc-pvdz aug-cc-pvdz/c tightscf
|  2> %pal nprocs 16 end
|  3> %maxcore 3800
|  4> %base "DZ_B-S_37_AB"
|  5> %scf
|  6> STABPerform true
|  7> STABRestartUHFifUnstable true
|  8> end
|  9>
| 10> *xyz 0 1
| 11> C         2.808018   -0.799868   -0.000004
| 12> C         1.539152    0.016132    0.000003
| 13> S         0.086463   -1.044505    0.000001
| 14> O         1.526225    1.213975    0.000011
| 15> B        -1.421151   -0.015069    0.000001
| 16> S        -1.564740    1.762724   -0.000005
| 17> C         4.062003    0.052282   -0.000016
| 18> H         2.770680   -1.460430   -0.869917
| 19> H         2.770693   -1.460424    0.869915
| 20> H         4.099306    0.694678   -0.878194
| 21> H         4.946737   -0.582996   -0.000021
| 22> H         4.099320    0.694683    0.878159
| 23> S        -2.909272   -1.038824    0.000008
| 24> H        -0.248353    2.030637   -0.000004
| 25> H        -3.796680   -0.034209    0.000000
| 26> *
| 27>
| 28> $new_job
| 29> ! ri-mp2 aug-cc-pvtz aug-cc-pvtz/c tightscf
| 30> %pal nprocs 16 end
| 31> %maxcore 3800
| 32> %base "TZ_B-S_37_AB"
| 33>
| 34> *xyz 0 1
| 35> C         2.808018   -0.799868   -0.000004
| 36> C         1.539152    0.016132    0.000003
| 37> S         0.086463   -1.044505    0.000001
| 38> O         1.526225    1.213975    0.000011
| 39> B        -1.421151   -0.015069    0.000001
| 40> S        -1.564740    1.762724   -0.000005
| 41> C         4.062003    0.052282   -0.000016
| 42> H         2.770680   -1.460430   -0.869917
| 43> H         2.770693   -1.460424    0.869915
| 44> H         4.099306    0.694678   -0.878194
| 45> H         4.946737   -0.582996   -0.000021
| 46> H         4.099320    0.694683    0.878159
| 47> S        -2.909272   -1.038824    0.000008
| 48> H        -0.248353    2.030637   -0.000004
| 49> H        -3.796680   -0.034209    0.000000
| 50> *
| 51>
| 52> $new_job
| 53> ! ri-mp2 aug-cc-pvqz aug-cc-pvqz/c tightscf
| 54> %pal nprocs 16 end
| 55> %maxcore 3800
| 56> %base "QZ_B-S_37_AB"
| 57>
| 58> *xyz 0 1
| 59> C         2.808018   -0.799868   -0.000004
| 60> C         1.539152    0.016132    0.000003
| 61> S         0.086463   -1.044505    0.000001
| 62> O         1.526225    1.213975    0.000011
| 63> B        -1.421151   -0.015069    0.000001
| 64> S        -1.564740    1.762724   -0.000005
| 65> C         4.062003    0.052282   -0.000016
| 66> H         2.770680   -1.460430   -0.869917
| 67> H         2.770693   -1.460424    0.869915
| 68> H         4.099306    0.694678   -0.878194
| 69> H         4.946737   -0.582996   -0.000021
| 70> H         4.099320    0.694683    0.878159
| 71> S        -2.909272   -1.038824    0.000008
| 72> H        -0.248353    2.030637   -0.000004
| 73> H        -3.796680   -0.034209    0.000000
| 74> *
| 75>
| 76>
| 77>
| 78>
| 79>                          ****END OF INPUT****
 Total Charge           Charge          ....    0
 Multiplicity           Mult            ....    1
 Number of Electrons    NEL             ....   86
MP2 TOTAL ENERGY:    -1411.088795265 Eh
FINAL SINGLE POINT ENERGY     -1411.088795264802
MP2 TOTAL ENERGY:    -1411.431397840 Eh
FINAL SINGLE POINT ENERGY     -1411.431397839777

CARTESIAN COORDINATES (ANGSTROEM)
---------------------------------
  C      2.808018   -0.799868   -0.000004
  C      1.539152    0.016132    0.000003
  S      0.086463   -1.044505    0.000001
  O      1.526225    1.213975    0.000011
  B     -1.421151   -0.015069    0.000001
  S     -1.564740    1.762724   -0.000005
  C      4.062003    0.052282   -0.000016
  H      2.770680   -1.460430   -0.869917
  H      2.770693   -1.460424    0.869915
  H      4.099306    0.694678   -0.878194
  H      4.946737   -0.582996   -0.000021
  H      4.099320    0.694683    0.878159
  S     -2.909272   -1.038824    0.000008
  H     -0.248353    2.030637   -0.000004
  H     -3.796680   -0.034209    0.000000

 Multiplicity           Mult            ....    1
 Number of Electrons    NEL             ....   86
 Basis Dimension        Dim             ....  974

ORBITAL ENERGIES
----------------

  NO   OCC          E(Eh)            E(eV)
   0   2.0000     -91.973142     -2502.7164
   1   2.0000     -91.961564     -2502.4014
   2   2.0000     -91.952875     -2502.1649
   3   2.0000     -20.577941      -559.9543
   4   2.0000     -11.381798      -309.7145
   5   2.0000     -11.258416      -306.3571
   6   2.0000     -11.230731      -305.6037
   7   2.0000      -8.978582      -244.3196
   8   2.0000      -8.966613      -243.9939
   9   2.0000      -8.958560      -243.7748
  10   2.0000      -7.684748      -209.1126
  11   2.0000      -6.660136      -181.2315
  12   2.0000      -6.658914      -181.1983
  13   2.0000      -6.658670      -181.1916
  14   2.0000      -6.648160      -180.9056
  15   2.0000      -6.647229      -180.8803
  16   2.0000      -6.646681      -180.8654
  17   2.0000      -6.640066      -180.6854
  18   2.0000      -6.639300      -180.6646
  19   2.0000      -6.638827      -180.6517
  20   2.0000      -1.433269       -39.0012
  21   2.0000      -1.090030       -29.6612
  22   2.0000      -1.041720       -28.3466
  23   2.0000      -0.995701       -27.0944
  24   2.0000      -0.966044       -26.2874
  25   2.0000      -0.898902       -24.4604
  26   2.0000      -0.763336       -20.7714
  27   2.0000      -0.700211       -19.0537
  28   2.0000      -0.670048       -18.2329
  29   2.0000      -0.656122       -17.8540
  30   2.0000      -0.603291       -16.4164
  31   2.0000      -0.582579       -15.8528
  32   2.0000      -0.566105       -15.4045
  33   2.0000      -0.564190       -15.3524
  34   2.0000      -0.534571       -14.5464
  35   2.0000      -0.519470       -14.1355
  36   2.0000      -0.513054       -13.9609
  37   2.0000      -0.468177       -12.7397
  38   2.0000      -0.458493       -12.4762
  39   2.0000      -0.441922       -12.0253
  40   2.0000      -0.417986       -11.3740
  41   2.0000      -0.384905       -10.4738
  42   2.0000      -0.371278       -10.1030
  43   0.0000       0.021033         0.5723
  44   0.0000       0.031863         0.8670
  45   0.0000       0.033262         0.9051
  46   0.0000       0.034080         0.9274
  47   0.0000       0.041242         1.1222

MULLIKEN ATOMIC CHARGES
-----------------------
   0 C :   -0.284830
   1 C :    0.336382
   2 S :    0.189099
   3 O :   -0.741626
   4 B :    0.087316
   5 S :   -0.040895
   6 C :   -0.818503
   7 H :    0.283917
   8 H :    0.283918
   9 H :    0.222779
  10 H :    0.332184
  11 H :    0.222779
  12 S :   -0.041733
  13 H :   -0.051524
  14 H :    0.020737
Sum of atomic charges:    0.0000000

LOEWDIN ATOMIC CHARGES
----------------------
   0 C :    0.356062
   1 C :   -1.034542
   2 S :    1.300824
   3 O :    0.729093
   4 B :   -2.154405
   5 S :    1.648666
   6 C :    0.898192
   7 H :   -0.310665
   8 H :   -0.310663
   9 H :   -0.288651
  10 H :   -0.281434
  11 H :   -0.288650
  12 S :    1.537551
  13 H :   -0.980757
  14 H :   -0.820621

  Mayer bond orders larger than 0.100000
B(  0-C ,  1-C ) :   0.7575 B(  0-C ,  2-S ) :  -0.1013 B(  0-C ,  3-O ) :   0.1015
B(  0-C ,  6-C ) :   0.9546 B(  0-C ,  7-H ) :   0.8810 B(  0-C ,  8-H ) :   0.8810
B(  1-C ,  2-S ) :   0.9789 B(  1-C ,  3-O ) :   1.4011 B(  2-S ,  4-B ) :   1.1739
B(  3-O , 13-H ) :   0.1073 B(  4-B ,  5-S ) :   1.1766 B(  4-B , 12-S ) :   1.1873
B(  4-B , 14-H ) :  -0.1158 B(  5-S , 13-H ) :   1.0346 B(  6-C ,  9-H ) :   0.9579
B(  6-C , 10-H ) :   0.9529 B(  6-C , 11-H ) :   0.9579 B( 12-S , 14-H ) :   1.0902

MP2 TOTAL ENERGY:    -1411.543396226 Eh
FINAL SINGLE POINT ENERGY     -1411.543396226156

DIPOLE MOMENT
-------------
                                X             Y             Z
Electronic contribution:    -14.71229      -0.33023       0.00005
Nuclear contribution   :     15.50812      -0.07477      -0.00006
                        -----------------------------------------
Total Dipole Moment    :      0.79583      -0.40501      -0.00001
                        -----------------------------------------
Magnitude (a.u.)       :      0.89296
Magnitude (Debye)      :      2.26972

Rotational constants in cm-1:     0.079035     0.020539     0.016400
Rotational constants in MHz :  2369.402853   615.746024   491.665467

                             ****ORCA TERMINATED NORMALLY****
TOTAL RUN TIME: 0 days 1 hours 51 minutes 13 seconds 622 msec
