                         Program Version 5.0.4 -  RELEASE  -
|  1> ! ri-mp2 aug-cc-pvdz aug-cc-pvdz/c tightscf
|  2> %pal nprocs 16 end
|  3> %maxcore 3800
|  4> %base "DZ_Si-Si_133_AB"
|  5> %scf
|  6> STABPerform true
|  7> STABRestartUHFifUnstable true
|  8> end
|  9>
| 10> *xyz 0 1
| 11> Si        -1.106567    2.026134    0.376163
| 12> Si         1.106564    2.026135   -0.376164
| 13> C         1.790231    0.356236    0.278889
| 14> H         1.921382    3.110115    0.205733
| 15> H         1.159403    2.057296   -1.852154
| 16> O         2.092870    0.221636    1.438547
| 17> S         1.818854   -0.979658   -0.876481
| 18> C         2.251450   -2.328127    0.231040
| 19> H         2.283278   -3.235452   -0.367097
| 20> H         1.499585   -2.417862    1.011107
| 21> H         3.221678   -2.147147    0.684854
| 22> C        -1.790231    0.356234   -0.278890
| 23> H        -1.921386    3.110114   -0.205734
| 24> H        -1.159405    2.057296    1.852154
| 25> O        -2.092868    0.221634   -1.438547
| 26> S        -1.818855   -0.979659    0.876482
| 27> C        -2.251446   -2.328130   -0.231040
| 28> H        -2.283274   -3.235454    0.367098
| 29> H        -1.499578   -2.417864   -1.011105
| 30> H        -3.221672   -2.147151   -0.684857
| 31> *
| 32>
| 33> $new_job
| 34> ! ri-mp2 aug-cc-pvtz aug-cc-pvtz/c tightscf
| 35> %pal nprocs 16 end
| 36> %maxcore 3800
| 37> %base "TZ_Si-Si_133_AB"
| 38>
| 39> *xyz 0 1
| 40> Si        -1.106567    2.026134    0.376163
| 41> Si         1.106564    2.026135   -0.376164
| 42> C         1.790231    0.356236    0.278889
| 43> H         1.921382    3.110115    0.205733
| 44> H         1.159403    2.057296   -1.852154
| 45> O         2.092870    0.221636    1.438547
| 46> S         1.818854   -0.979658   -0.876481
| 47> C         2.251450   -2.328127    0.231040
| 48> H         2.283278   -3.235452   -0.367097
| 49> H         1.499585   -2.417862    1.011107
| 50> H         3.221678   -2.147147    0.684854
| 51> C        -1.790231    0.356234   -0.278890
| 52> H        -1.921386    3.110114   -0.205734
| 53> H        -1.159405    2.057296    1.852154
| 54> O        -2.092868    0.221634   -1.438547
| 55> S        -1.818855   -0.979659    0.876482
| 56> C        -2.251446   -2.328130   -0.231040
| 57> H        -2.283274   -3.235454    0.367098
| 58> H        -1.499578   -2.417864   -1.011105
| 59> H        -3.221672   -2.147151   -0.684857
| 60> *
| 61>
| 62> $new_job
| 63> ! ri-mp2 aug-cc-pvqz aug-cc-pvqz/c tightscf
| 64> %pal nprocs 16 end
| 65> %maxcore 3800
| 66> %base "QZ_Si-Si_133_AB"
| 67>
| 68> *xyz 0 1
| 69> Si        -1.106567    2.026134    0.376163
| 70> Si         1.106564    2.026135   -0.376164
| 71> C         1.790231    0.356236    0.278889
| 72> H         1.921382    3.110115    0.205733
| 73> H         1.159403    2.057296   -1.852154
| 74> O         2.092870    0.221636    1.438547
| 75> S         1.818854   -0.979658   -0.876481
| 76> C         2.251450   -2.328127    0.231040
| 77> H         2.283278   -3.235452   -0.367097
| 78> H         1.499585   -2.417862    1.011107
| 79> H         3.221678   -2.147147    0.684854
| 80> C        -1.790231    0.356234   -0.278890
| 81> H        -1.921386    3.110114   -0.205734
| 82> H        -1.159405    2.057296    1.852154
| 83> O        -2.092868    0.221634   -1.438547
| 84> S        -1.818855   -0.979659    0.876482
| 85> C        -2.251446   -2.328130   -0.231040
| 86> H        -2.283274   -3.235454    0.367098
| 87> H        -1.499578   -2.417864   -1.011105
| 88> H        -3.221672   -2.147151   -0.684857
| 89> *
| 90>
| 91>
| 92>
| 93>
| 94>                          ****END OF INPUT****
 Total Charge           Charge          ....    0
 Multiplicity           Mult            ....    1
 Number of Electrons    NEL             ....  110
MP2 TOTAL ENERGY:    -1681.429295490 Eh
FINAL SINGLE POINT ENERGY     -1681.429295489838
MP2 TOTAL ENERGY:    -1681.868356389 Eh
FINAL SINGLE POINT ENERGY     -1681.868356389441

CARTESIAN COORDINATES (ANGSTROEM)
---------------------------------
  Si    -1.106567    2.026134    0.376163
  Si     1.106564    2.026135   -0.376164
  C      1.790231    0.356236    0.278889
  H      1.921382    3.110115    0.205733
  H      1.159403    2.057296   -1.852154
  O      2.092870    0.221636    1.438547
  S      1.818854   -0.979658   -0.876481
  C      2.251450   -2.328127    0.231040
  H      2.283278   -3.235452   -0.367097
  H      1.499585   -2.417862    1.011107
  H      3.221678   -2.147147    0.684854
  C     -1.790231    0.356234   -0.278890
  H     -1.921386    3.110114   -0.205734
  H     -1.159405    2.057296    1.852154
  O     -2.092868    0.221634   -1.438547
  S     -1.818855   -0.979659    0.876482
  C     -2.251446   -2.328130   -0.231040
  H     -2.283274   -3.235454    0.367098
  H     -1.499578   -2.417864   -1.011105
  H     -3.221672   -2.147151   -0.684857

 Multiplicity           Mult            ....    1
 Number of Electrons    NEL             ....  110
 Basis Dimension        Dim             .... 1276

ORBITAL ENERGIES
----------------

  NO   OCC          E(Eh)            E(eV)
   0   2.0000     -91.970992     -2502.6579
   1   2.0000     -91.970992     -2502.6579
   2   2.0000     -68.790706     -1871.8903
   3   2.0000     -68.790705     -1871.8902
   4   2.0000     -20.564216      -559.5808
   5   2.0000     -20.564216      -559.5808
   6   2.0000     -11.349709      -308.8413
   7   2.0000     -11.349708      -308.8413
   8   2.0000     -11.259633      -306.3902
   9   2.0000     -11.259633      -306.3902
  10   2.0000      -8.974563      -244.2103
  11   2.0000      -8.974562      -244.2103
  12   2.0000      -6.656012      -181.1193
  13   2.0000      -6.656012      -181.1193
  14   2.0000      -6.654845      -181.0875
  15   2.0000      -6.654845      -181.0875
  16   2.0000      -6.654326      -181.0734
  17   2.0000      -6.654326      -181.0734
  18   2.0000      -6.141931      -167.1304
  19   2.0000      -6.141779      -167.1263
  20   2.0000      -4.248220      -115.5999
  21   2.0000      -4.247874      -115.5905
  22   2.0000      -4.247846      -115.5898
  23   2.0000      -4.247750      -115.5871
  24   2.0000      -4.247685      -115.5854
  25   2.0000      -4.247446      -115.5789
  26   2.0000      -1.407698       -38.3054
  27   2.0000      -1.407391       -38.2971
  28   2.0000      -1.069982       -29.1157
  29   2.0000      -1.067397       -29.0453
  30   2.0000      -0.927360       -25.2348
  31   2.0000      -0.922034       -25.0898
  32   2.0000      -0.811161       -22.0728
  33   2.0000      -0.774623       -21.0786
  34   2.0000      -0.713306       -19.4100
  35   2.0000      -0.688082       -18.7237
  36   2.0000      -0.645996       -17.5784
  37   2.0000      -0.645173       -17.5560
  38   2.0000      -0.615552       -16.7500
  39   2.0000      -0.610638       -16.6163
  40   2.0000      -0.602300       -16.3894
  41   2.0000      -0.594304       -16.1718
  42   2.0000      -0.568837       -15.4789
  43   2.0000      -0.566733       -15.4216
  44   2.0000      -0.560417       -15.2497
  45   2.0000      -0.547178       -14.8895
  46   2.0000      -0.512772       -13.9532
  47   2.0000      -0.496542       -13.5116
  48   2.0000      -0.479534       -13.0488
  49   2.0000      -0.475191       -12.9306
  50   2.0000      -0.432734       -11.7753
  51   2.0000      -0.387066       -10.5326
  52   2.0000      -0.381429       -10.3792
  53   2.0000      -0.378718       -10.3055
  54   2.0000      -0.369982       -10.0677
  55   0.0000       0.022547         0.6135
  56   0.0000       0.026488         0.7208
  57   0.0000       0.028649         0.7796
  58   0.0000       0.035960         0.9785
  59   0.0000       0.038280         1.0416

MULLIKEN ATOMIC CHARGES
-----------------------
   0 Si:    0.829344
   1 Si:    0.829344
   2 C :    0.371076
   3 H :   -0.274748
   4 H :   -0.215836
   5 O :   -0.894248
   6 S :    0.216946
   7 C :   -1.121579
   8 H :    0.422167
   9 H :    0.323132
  10 H :    0.343745
  11 C :    0.371078
  12 H :   -0.274748
  13 H :   -0.215836
  14 O :   -0.894248
  15 S :    0.216945
  16 C :   -1.121578
  17 H :    0.422166
  18 H :    0.323131
  19 H :    0.343745
Sum of atomic charges:    0.0000000

LOEWDIN ATOMIC CHARGES
----------------------
   0 Si:    0.608173
   1 Si:    0.608173
   2 C :   -1.228851
   3 H :   -0.270008
   4 H :   -0.267255
   5 O :    0.549467
   6 S :    1.228567
   7 C :    0.519676
   8 H :   -0.385161
   9 H :   -0.382260
  10 H :   -0.372349
  11 C :   -1.228852
  12 H :   -0.270008
  13 H :   -0.267254
  14 O :    0.549468
  15 S :    1.228567
  16 C :    0.519677
  17 H :   -0.385161
  18 H :   -0.382260
  19 H :   -0.372350

  Mayer bond orders larger than 0.100000
B(  0-Si,  1-Si) :   0.7940 B(  0-Si, 11-C ) :   0.6681 B(  0-Si, 12-H ) :   0.8036
B(  0-Si, 13-H ) :   0.8001 B(  1-Si,  2-C ) :   0.6681 B(  1-Si,  3-H ) :   0.8036
B(  1-Si,  4-H ) :   0.8001 B(  2-C ,  5-O ) :   1.2550 B(  2-C ,  6-S ) :   0.9958
B(  6-S ,  7-C ) :   1.0497 B(  7-C ,  8-H ) :   0.8193 B(  7-C ,  9-H ) :   0.8768
B(  7-C , 10-H ) :   0.8843 B( 11-C , 14-O ) :   1.2550 B( 11-C , 15-S ) :   0.9958
B( 15-S , 16-C ) :   1.0497 B( 16-C , 17-H ) :   0.8193 B( 16-C , 18-H ) :   0.8768
B( 16-C , 19-H ) :   0.8843

MP2 TOTAL ENERGY:    -1682.011594997 Eh
FINAL SINGLE POINT ENERGY     -1682.011594997434

DIPOLE MOMENT
-------------
                                X             Y             Z
Electronic contribution:     -0.00001       4.97509      -0.00000
Nuclear contribution   :      0.00001      -5.34567      -0.00000
                        -----------------------------------------
Total Dipole Moment    :     -0.00000      -0.37057      -0.00000
                        -----------------------------------------
Magnitude (a.u.)       :      0.37057
Magnitude (Debye)      :      0.94192

Rotational constants in cm-1:     0.026594     0.020999     0.014495
Rotational constants in MHz :   797.279347   629.527898   434.552982

                             ****ORCA TERMINATED NORMALLY****
TOTAL RUN TIME: 0 days 5 hours 20 minutes 51 seconds 742 msec
