                         Program Version 5.0.4 -  RELEASE  -
|  1> ! ri-mp2 aug-cc-pvdz aug-cc-pvdz/c tightscf
|  2> %pal nprocs 16 end
|  3> %maxcore 3800
|  4> %base "DZ_P-N_69_AB"
|  5> %scf
|  6> STABPerform true
|  7> STABRestartUHFifUnstable true
|  8> end
|  9>
| 10> *xyz 0 1
| 11> C         1.380527   -0.043322    0.602622
| 12> N        -1.256353   -0.117730   -0.248625
| 13> O        -1.242524    1.185790   -0.757084
| 14> O        -1.511373   -0.038380    1.138582
| 15> C         2.406998    0.665485    0.154121
| 16> H         3.066511    1.205740    0.823226
| 17> H         2.632357    0.723948   -0.904840
| 18> H        -2.472517   -0.099546    1.198041
| 19> H        -0.547806    1.669936   -0.277904
| 20> P         0.284615   -0.898649   -0.572035
| 21> H         1.171479   -0.085679    1.665244
| 22> H        -0.018759   -2.022817    0.224693
| 23> *
| 24>
| 25> $new_job
| 26> ! ri-mp2 aug-cc-pvtz aug-cc-pvtz/c tightscf
| 27> %pal nprocs 16 end
| 28> %maxcore 3800
| 29> %base "TZ_P-N_69_AB"
| 30>
| 31> *xyz 0 1
| 32> C         1.380527   -0.043322    0.602622
| 33> N        -1.256353   -0.117730   -0.248625
| 34> O        -1.242524    1.185790   -0.757084
| 35> O        -1.511373   -0.038380    1.138582
| 36> C         2.406998    0.665485    0.154121
| 37> H         3.066511    1.205740    0.823226
| 38> H         2.632357    0.723948   -0.904840
| 39> H        -2.472517   -0.099546    1.198041
| 40> H        -0.547806    1.669936   -0.277904
| 41> P         0.284615   -0.898649   -0.572035
| 42> H         1.171479   -0.085679    1.665244
| 43> H        -0.018759   -2.022817    0.224693
| 44> *
| 45>
| 46> $new_job
| 47> ! ri-mp2 aug-cc-pvqz aug-cc-pvqz/c tightscf
| 48> %pal nprocs 16 end
| 49> %maxcore 3800
| 50> %base "QZ_P-N_69_AB"
| 51>
| 52> *xyz 0 1
| 53> C         1.380527   -0.043322    0.602622
| 54> N        -1.256353   -0.117730   -0.248625
| 55> O        -1.242524    1.185790   -0.757084
| 56> O        -1.511373   -0.038380    1.138582
| 57> C         2.406998    0.665485    0.154121
| 58> H         3.066511    1.205740    0.823226
| 59> H         2.632357    0.723948   -0.904840
| 60> H        -2.472517   -0.099546    1.198041
| 61> H        -0.547806    1.669936   -0.277904
| 62> P         0.284615   -0.898649   -0.572035
| 63> H         1.171479   -0.085679    1.665244
| 64> H        -0.018759   -2.022817    0.224693
| 65> *
| 66>
| 67>
| 68>
| 69>
| 70>                          ****END OF INPUT****
 Total Charge           Charge          ....    0
 Multiplicity           Mult            ....    1
 Number of Electrons    NEL             ....   56
MP2 TOTAL ENERGY:     -625.020432679 Eh
FINAL SINGLE POINT ENERGY      -625.020432678953
MP2 TOTAL ENERGY:     -625.311403300 Eh
FINAL SINGLE POINT ENERGY      -625.311403299849

CARTESIAN COORDINATES (ANGSTROEM)
---------------------------------
  C      1.380527   -0.043322    0.602622
  N     -1.256353   -0.117730   -0.248625
  O     -1.242524    1.185790   -0.757084
  O     -1.511373   -0.038380    1.138582
  C      2.406998    0.665485    0.154121
  H      3.066511    1.205740    0.823226
  H      2.632357    0.723948   -0.904840
  H     -2.472517   -0.099546    1.198041
  H     -0.547806    1.669936   -0.277904
  P      0.284615   -0.898649   -0.572035
  H      1.171479   -0.085679    1.665244
  H     -0.018759   -2.022817    0.224693

 Multiplicity           Mult            ....    1
 Number of Electrons    NEL             ....   56
 Basis Dimension        Dim             ....  760

ORBITAL ENERGIES
----------------

  NO   OCC          E(Eh)            E(eV)
   0   2.0000     -79.967271     -2176.0201
   1   2.0000     -20.602966      -560.6352
   2   2.0000     -20.599784      -560.5486
   3   2.0000     -15.665914      -426.2912
   4   2.0000     -11.256344      -306.3007
   5   2.0000     -11.243418      -305.9490
   6   2.0000      -7.507174      -204.2806
   7   2.0000      -5.400987      -146.9683
   8   2.0000      -5.400646      -146.9590
   9   2.0000      -5.399647      -146.9319
  10   2.0000      -1.473400       -40.0932
  11   2.0000      -1.351896       -36.7870
  12   2.0000      -1.075448       -29.2644
  13   2.0000      -1.032974       -28.1087
  14   2.0000      -0.856928       -23.3182
  15   2.0000      -0.765893       -20.8410
  16   2.0000      -0.749558       -20.3965
  17   2.0000      -0.668591       -18.1933
  18   2.0000      -0.657530       -17.8923
  19   2.0000      -0.645155       -17.5556
  20   2.0000      -0.624482       -16.9930
  21   2.0000      -0.576662       -15.6918
  22   2.0000      -0.511727       -13.9248
  23   2.0000      -0.503307       -13.6957
  24   2.0000      -0.489230       -13.3126
  25   2.0000      -0.417815       -11.3693
  26   2.0000      -0.397806       -10.8249
  27   2.0000      -0.375340       -10.2135
  28   0.0000       0.023494         0.6393
  29   0.0000       0.031197         0.8489
  30   0.0000       0.038742         1.0542
  31   0.0000       0.040794         1.1101
  32   0.0000       0.050019         1.3611

MULLIKEN ATOMIC CHARGES
-----------------------
   0 C :   -0.636869
   1 N :   -0.017136
   2 O :   -0.576463
   3 O :   -0.588624
   4 C :   -0.804215
   5 H :    0.389623
   6 H :    0.402337
   7 H :    0.347604
   8 H :    0.360693
   9 P :    0.816465
  10 H :    0.409399
  11 H :   -0.102813
Sum of atomic charges:    0.0000000

LOEWDIN ATOMIC CHARGES
----------------------
   0 C :    0.120984
   1 N :   -0.440674
   2 O :    0.977933
   3 O :    0.995739
   4 C :    0.681232
   5 H :   -0.347204
   6 H :   -0.379308
   7 H :   -0.845830
   8 H :   -0.891394
   9 P :    0.989130
  10 H :   -0.409728
  11 H :   -0.450880

  Mayer bond orders larger than 0.100000
B(  0-C ,  4-C ) :   1.7563 B(  0-C ,  9-P ) :   0.7087 B(  0-C , 10-H ) :   0.8651
B(  1-N ,  2-O ) :   0.6845 B(  1-N ,  3-O ) :   0.7489 B(  1-N ,  9-P ) :   0.6139
B(  2-O ,  8-H ) :   0.8498 B(  3-O ,  7-H ) :   0.8983 B(  4-C ,  5-H ) :   0.9131
B(  4-C ,  6-H ) :   0.8320 B(  9-P , 11-H ) :   0.9707

MP2 TOTAL ENERGY:     -625.406213969 Eh
FINAL SINGLE POINT ENERGY      -625.406213968958

DIPOLE MOMENT
-------------
                                X             Y             Z
Electronic contribution:     -2.91140      -2.11551      -2.50294
Nuclear contribution   :      3.44789       2.22512       3.22033
                        -----------------------------------------
Total Dipole Moment    :      0.53649       0.10960       0.71739
                        -----------------------------------------
Magnitude (a.u.)       :      0.90249
Magnitude (Debye)      :      2.29394

Rotational constants in cm-1:     0.149025     0.066392     0.063694
Rotational constants in MHz :  4467.663145  1990.377008  1909.492080

                             ****ORCA TERMINATED NORMALLY****
TOTAL RUN TIME: 0 days 0 hours 35 minutes 32 seconds 794 msec
