                         Program Version 5.0.4 -  RELEASE  -
|  1> ! ri-mp2 aug-cc-pvdz aug-cc-pvdz/c tightscf
|  2> %pal nprocs 16 end
|  3> %maxcore 3800
|  4> %base "DZ_S-F_62_A"
|  5> %scf
|  6> STABPerform true
|  7> STABRestartUHFifUnstable true
|  8> end
|  9>
| 10> *xyz 0 2
| 11> S         1.500211    0.000035    0.037659
| 12> C        -0.328056    0.000002   -0.022313
| 13> O        -0.792780    1.093082   -0.725082
| 14> H        -0.606769    1.884128   -0.206744
| 15> O        -0.796800    0.000007    1.288669
| 16> H        -1.763688    0.000019    1.236341
| 17> O        -0.792660   -1.093159   -0.725042
| 18> H        -0.606656   -1.884156   -0.206627
| 19> *
| 20>
| 21> $new_job
| 22> ! ri-mp2 aug-cc-pvtz aug-cc-pvtz/c tightscf
| 23> %pal nprocs 16 end
| 24> %maxcore 3800
| 25> %base "TZ_S-F_62_A"
| 26>
| 27> *xyz 0 2
| 28> S         1.500211    0.000035    0.037659
| 29> C        -0.328056    0.000002   -0.022313
| 30> O        -0.792780    1.093082   -0.725082
| 31> H        -0.606769    1.884128   -0.206744
| 32> O        -0.796800    0.000007    1.288669
| 33> H        -1.763688    0.000019    1.236341
| 34> O        -0.792660   -1.093159   -0.725042
| 35> H        -0.606656   -1.884156   -0.206627
| 36> *
| 37>
| 38> $new_job
| 39> ! ri-mp2 aug-cc-pvqz aug-cc-pvqz/c tightscf
| 40> %pal nprocs 16 end
| 41> %maxcore 3800
| 42> %base "QZ_S-F_62_A"
| 43>
| 44> *xyz 0 2
| 45> S         1.500211    0.000035    0.037659
| 46> C        -0.328056    0.000002   -0.022313
| 47> O        -0.792780    1.093082   -0.725082
| 48> H        -0.606769    1.884128   -0.206744
| 49> O        -0.796800    0.000007    1.288669
| 50> H        -1.763688    0.000019    1.236341
| 51> O        -0.792660   -1.093159   -0.725042
| 52> H        -0.606656   -1.884156   -0.206627
| 53> *
| 54>
| 55>
| 56>
| 57>
| 58>                          ****END OF INPUT****
 Total Charge           Charge          ....    0
 Multiplicity           Mult            ....    2
 Number of Electrons    NEL             ....   49
MP2 TOTAL ENERGY:     -662.612615419 Eh
FINAL SINGLE POINT ENERGY      -662.612615419468
MP2 TOTAL ENERGY:     -662.883365088 Eh
FINAL SINGLE POINT ENERGY      -662.883365087886

CARTESIAN COORDINATES (ANGSTROEM)
---------------------------------
  S      1.500211    0.000035    0.037659
  C     -0.328056    0.000002   -0.022313
  O     -0.792780    1.093082   -0.725082
  H     -0.606769    1.884128   -0.206744
  O     -0.796800    0.000007    1.288669
  H     -1.763688    0.000019    1.236341
  O     -0.792660   -1.093159   -0.725042
  H     -0.606656   -1.884156   -0.206627

 Multiplicity           Mult            ....    2
 Number of Electrons    NEL             ....   49
 Basis Dimension        Dim             ....  542

ORBITAL ENERGIES
----------------
                 SPIN UP ORBITALS
  NO   OCC          E(Eh)            E(eV)
   0   1.0000     -91.984271     -2503.0193
   1   1.0000     -20.600413      -560.5657
   2   1.0000     -20.592104      -560.3396
   3   1.0000     -20.592089      -560.3392
   4   1.0000     -11.444480      -311.4201
   5   1.0000      -8.987002      -244.5488
   6   1.0000      -6.683020      -181.8542
   7   1.0000      -6.664227      -181.3428
   8   1.0000      -6.662696      -181.3012
   9   1.0000      -1.494057       -40.6554
  10   1.0000      -1.376001       -37.4429
  11   1.0000      -1.375702       -37.4348
  12   1.0000      -1.024848       -27.8875
  13   1.0000      -0.875788       -23.8314
  14   1.0000      -0.796513       -21.6742
  15   1.0000      -0.708163       -19.2701
  16   1.0000      -0.681276       -18.5385
  17   1.0000      -0.648166       -17.6375
  18   1.0000      -0.641106       -17.4454
  19   1.0000      -0.561841       -15.2885
  20   1.0000      -0.542942       -14.7742
  21   1.0000      -0.508795       -13.8450
  22   1.0000      -0.473393       -12.8817
  23   1.0000      -0.454162       -12.3584
  24   1.0000      -0.393501       -10.7077
  25   0.0000       0.022811         0.6207
  26   0.0000       0.034929         0.9505
  27   0.0000       0.043146         1.1741
  28   0.0000       0.054682         1.4880
  29   0.0000       0.072067         1.9610

                 SPIN DOWN ORBITALS
  NO   OCC          E(Eh)            E(eV)
   0   1.0000     -91.974941     -2502.7654
   1   1.0000     -20.599766      -560.5481
   2   1.0000     -20.591686      -560.3283
   3   1.0000     -20.591670      -560.3278
   4   1.0000     -11.445651      -311.4520
   5   1.0000      -8.976726      -244.2691
   6   1.0000      -6.658953      -181.1993
   7   1.0000      -6.657320      -181.1549
   8   1.0000      -6.641012      -180.7111
   9   1.0000      -1.492901       -40.6239
  10   1.0000      -1.374941       -37.4140
  11   1.0000      -1.374072       -37.3904
  12   1.0000      -0.970353       -26.4046
  13   1.0000      -0.854156       -23.2428
  14   1.0000      -0.781086       -21.2544
  15   1.0000      -0.707501       -19.2521
  16   1.0000      -0.671829       -18.2814
  17   1.0000      -0.640413       -17.4265
  18   1.0000      -0.636003       -17.3065
  19   1.0000      -0.559421       -15.2226
  20   1.0000      -0.540324       -14.7030
  21   1.0000      -0.507215       -13.8020
  22   1.0000      -0.456223       -12.4145
  23   1.0000      -0.373926       -10.1750
  24   0.0000       0.007734         0.2105
  25   0.0000       0.023435         0.6377
  26   0.0000       0.035005         0.9525
  27   0.0000       0.043732         1.1900
  28   0.0000       0.055663         1.5147

MULLIKEN ATOMIC CHARGES AND SPIN POPULATIONS
--------------------------------------------
   0 S :   -0.142873    1.108353
   1 C :    1.355905   -0.109690
   2 O :   -0.733497    0.000335
   3 H :    0.354193   -0.000170
   4 O :   -0.788100    0.002841
   5 H :    0.333676   -0.001842
   6 O :   -0.733501    0.000343
   7 H :    0.354196   -0.000170
Sum of atomic charges         :   -0.0000000

LOEWDIN ATOMIC CHARGES AND SPIN POPULATIONS
-------------------------------------------
   0 S :    0.986482    0.769390
   1 C :   -1.985855    0.181824
   2 O :    1.156823    0.011787
   3 H :   -0.836444    0.000425
   4 O :    1.158519    0.022976
   5 H :   -0.799892    0.001371
   6 O :    1.156815    0.011801
   7 H :   -0.836449    0.000425

  Mayer bond orders larger than 0.100000
B(  0-S ,  1-C ) :   0.7607 B(  1-C ,  2-O ) :   0.6996 B(  1-C ,  4-O ) :   0.7105
B(  1-C ,  6-O ) :   0.6996 B(  2-O ,  3-H ) :   0.8650 B(  4-O ,  5-H ) :   0.8416
B(  6-O ,  7-H ) :   0.8650

MP2 TOTAL ENERGY:     -662.973882892 Eh
FINAL SINGLE POINT ENERGY      -662.973882891663

DIPOLE MOMENT
-------------
                                X             Y             Z
Electronic contribution:      2.56399       0.00006      -0.18198
Nuclear contribution   :     -2.96225      -0.00001       0.79284
                        -----------------------------------------
Total Dipole Moment    :     -0.39826       0.00005       0.61087
                        -----------------------------------------
Magnitude (a.u.)       :      0.72923
Magnitude (Debye)      :      1.85355

Rotational constants in cm-1:     0.186492     0.110502     0.110220
Rotational constants in MHz :  5590.892171  3312.753744  3304.310170

                             ****ORCA TERMINATED NORMALLY****
TOTAL RUN TIME: 0 days 0 hours 39 minutes 12 seconds 401 msec
