                         Program Version 5.0.4 -  RELEASE  -
|  1> ! ri-mp2 aug-cc-pvdz aug-cc-pvdz/c tightscf
|  2> %pal nprocs 16 end
|  3> %maxcore 3800
|  4> %base "DZ_B-B_18_AB"
|  5> %scf
|  6> STABPerform true
|  7> STABRestartUHFifUnstable true
|  8> end
|  9>
| 10> *xyz 0 1
| 11> B         0.984086    0.000046    0.462667
| 12> B        -0.663304    0.000003    0.082307
| 13> Cl        -1.513310    1.504782   -0.125333
| 14> Cl        -1.513236   -1.504820   -0.125320
| 15> Cl         2.183396    0.000012   -0.812725
| 16> F         1.414405    0.000021    1.705840
| 17> *
| 18>
| 19> $new_job
| 20> ! ri-mp2 aug-cc-pvtz aug-cc-pvtz/c tightscf
| 21> %pal nprocs 16 end
| 22> %maxcore 3800
| 23> %base "TZ_B-B_18_AB"
| 24>
| 25> *xyz 0 1
| 26> B         0.984086    0.000046    0.462667
| 27> B        -0.663304    0.000003    0.082307
| 28> Cl        -1.513310    1.504782   -0.125333
| 29> Cl        -1.513236   -1.504820   -0.125320
| 30> Cl         2.183396    0.000012   -0.812725
| 31> F         1.414405    0.000021    1.705840
| 32> *
| 33>
| 34> $new_job
| 35> ! ri-mp2 aug-cc-pvqz aug-cc-pvqz/c tightscf
| 36> %pal nprocs 16 end
| 37> %maxcore 3800
| 38> %base "QZ_B-B_18_AB"
| 39>
| 40> *xyz 0 1
| 41> B         0.984086    0.000046    0.462667
| 42> B        -0.663304    0.000003    0.082307
| 43> Cl        -1.513310    1.504782   -0.125333
| 44> Cl        -1.513236   -1.504820   -0.125320
| 45> Cl         2.183396    0.000012   -0.812725
| 46> F         1.414405    0.000021    1.705840
| 47> *
| 48>
| 49>
| 50>
| 51>
| 52>                          ****END OF INPUT****
 Total Charge           Charge          ....    0
 Multiplicity           Mult            ....    1
 Number of Electrons    NEL             ....   70
MP2 TOTAL ENERGY:    -1528.312621087 Eh
FINAL SINGLE POINT ENERGY     -1528.312621087309
MP2 TOTAL ENERGY:    -1528.617453711 Eh
FINAL SINGLE POINT ENERGY     -1528.617453710559

CARTESIAN COORDINATES (ANGSTROEM)
---------------------------------
  B      0.984086    0.000046    0.462667
  B     -0.663304    0.000003    0.082307
  Cl    -1.513310    1.504782   -0.125333
  Cl    -1.513236   -1.504820   -0.125320
  Cl     2.183396    0.000012   -0.812725
  F      1.414405    0.000021    1.705840

 Multiplicity           Mult            ....    1
 Number of Electrons    NEL             ....   70
 Basis Dimension        Dim             ....  492

ORBITAL ENERGIES
----------------

  NO   OCC          E(Eh)            E(eV)
   0   2.0000    -104.860453     -2853.3980
   1   2.0000    -104.860453     -2853.3980
   2   2.0000    -104.853337     -2853.2044
   3   2.0000     -26.332515      -716.5442
   4   2.0000     -10.588124      -288.1175
   5   2.0000     -10.588115      -288.1173
   6   2.0000     -10.581254      -287.9306
   7   2.0000      -8.054893      -219.1848
   8   2.0000      -8.054892      -219.1848
   9   2.0000      -8.053843      -219.1562
  10   2.0000      -8.053841      -219.1562
  11   2.0000      -8.053540      -219.1480
  12   2.0000      -8.053539      -219.1479
  13   2.0000      -8.048034      -218.9981
  14   2.0000      -8.046995      -218.9699
  15   2.0000      -8.046760      -218.9635
  16   2.0000      -7.723837      -210.1763
  17   2.0000      -7.721308      -210.1075
  18   2.0000      -1.649556       -44.8867
  19   2.0000      -1.162946       -31.6454
  20   2.0000      -1.133561       -30.8458
  21   2.0000      -1.118935       -30.4478
  22   2.0000      -0.818188       -22.2640
  23   2.0000      -0.746907       -20.3244
  24   2.0000      -0.707985       -19.2652
  25   2.0000      -0.704972       -19.1833
  26   2.0000      -0.637465       -17.3463
  27   2.0000      -0.591346       -16.0914
  28   2.0000      -0.560976       -15.2649
  29   2.0000      -0.534769       -14.5518
  30   2.0000      -0.501049       -13.6342
  31   2.0000      -0.495671       -13.4879
  32   2.0000      -0.483517       -13.1572
  33   2.0000      -0.473675       -12.8894
  34   2.0000      -0.442401       -12.0383
  35   0.0000       0.031043         0.8447
  36   0.0000       0.031857         0.8669
  37   0.0000       0.038355         1.0437
  38   0.0000       0.038587         1.0500
  39   0.0000       0.050307         1.3689

MULLIKEN ATOMIC CHARGES
-----------------------
   0 B :    1.007632
   1 B :    0.378760
   2 Cl:   -0.211443
   3 Cl:   -0.211440
   4 Cl:   -0.210217
   5 F :   -0.753291
Sum of atomic charges:   -0.0000000

LOEWDIN ATOMIC CHARGES
----------------------
   0 B :   -2.168739
   1 B :   -2.358686
   2 Cl:    1.251212
   3 Cl:    1.251215
   4 Cl:    1.280641
   5 F :    0.744356

  Mayer bond orders larger than 0.100000
B(  0-B ,  1-B ) :   0.9708 B(  0-B ,  4-Cl) :   1.0161 B(  0-B ,  5-F ) :   0.4500
B(  1-B ,  2-Cl) :   1.0606 B(  1-B ,  3-Cl) :   1.0607

MP2 TOTAL ENERGY:    -1528.719871098 Eh
FINAL SINGLE POINT ENERGY     -1528.719871097640

DIPOLE MOMENT
-------------
                                X             Y             Z
Electronic contribution:      0.26625       0.00005       0.48556
Nuclear contribution   :     -0.40169      -0.00002      -0.53890
                        -----------------------------------------
Total Dipole Moment    :     -0.13543       0.00003      -0.05334
                        -----------------------------------------
Magnitude (a.u.)       :      0.14556
Magnitude (Debye)      :      0.36998

Rotational constants in cm-1:     0.069442     0.036112     0.030921
Rotational constants in MHz :  2081.825712  1082.613405   926.996792

                             ****ORCA TERMINATED NORMALLY****
TOTAL RUN TIME: 0 days 0 hours 14 minutes 30 seconds 302 msec
