                         Program Version 5.0.4 -  RELEASE  -
|  1> ! ri-mp2 aug-cc-pvdz aug-cc-pvdz/c tightscf
|  2> %pal nprocs 16 end
|  3> %maxcore 3800
|  4> %base "DZ_P-Si_42_AB"
|  5> %scf
|  6> STABPerform true
|  7> STABRestartUHFifUnstable true
|  8> end
|  9>
| 10> *xyz 0 1
| 11> C        -1.885879    1.701043   -0.040261
| 12> P        -1.524800    0.029479    0.665192
| 13> H        -2.118130    1.672164   -1.105310
| 14> H        -1.035509    2.363235    0.114518
| 15> H        -2.736952    2.128558    0.490517
| 16> C        -3.016987   -0.891380    0.075068
| 17> H        -3.890308   -0.533668    0.621405
| 18> H        -2.900744   -1.952277    0.292747
| 19> H        -3.202874   -0.769630   -0.992778
| 20> Si        -0.044336   -0.718656   -0.862673
| 21> P         2.097171   -0.170257   -0.453710
| 22> C         2.272570   -0.922532    1.226059
| 23> H         1.486346   -0.618709    1.917268
| 24> H         3.237448   -0.630566    1.641387
| 25> H         2.265445   -2.008674    1.139896
| 26> C         1.921512    1.613359    0.004736
| 27> H         2.898518    1.995451    0.300967
| 28> H         1.225096    1.776586    0.827286
| 29> H         1.592676    2.188331   -0.860704
| 30> H        -0.419321   -0.240020   -2.219264
| 31> H        -0.113841   -2.200863   -0.856348
| 32> *
| 33>
| 34> $new_job
| 35> ! ri-mp2 aug-cc-pvtz aug-cc-pvtz/c tightscf
| 36> %pal nprocs 16 end
| 37> %maxcore 3800
| 38> %base "TZ_P-Si_42_AB"
| 39>
| 40> *xyz 0 1
| 41> C        -1.885879    1.701043   -0.040261
| 42> P        -1.524800    0.029479    0.665192
| 43> H        -2.118130    1.672164   -1.105310
| 44> H        -1.035509    2.363235    0.114518
| 45> H        -2.736952    2.128558    0.490517
| 46> C        -3.016987   -0.891380    0.075068
| 47> H        -3.890308   -0.533668    0.621405
| 48> H        -2.900744   -1.952277    0.292747
| 49> H        -3.202874   -0.769630   -0.992778
| 50> Si        -0.044336   -0.718656   -0.862673
| 51> P         2.097171   -0.170257   -0.453710
| 52> C         2.272570   -0.922532    1.226059
| 53> H         1.486346   -0.618709    1.917268
| 54> H         3.237448   -0.630566    1.641387
| 55> H         2.265445   -2.008674    1.139896
| 56> C         1.921512    1.613359    0.004736
| 57> H         2.898518    1.995451    0.300967
| 58> H         1.225096    1.776586    0.827286
| 59> H         1.592676    2.188331   -0.860704
| 60> H        -0.419321   -0.240020   -2.219264
| 61> H        -0.113841   -2.200863   -0.856348
| 62> *
| 63>
| 64> $new_job
| 65> ! ri-mp2 aug-cc-pvqz aug-cc-pvqz/c tightscf
| 66> %pal nprocs 16 end
| 67> %maxcore 3800
| 68> %base "QZ_P-Si_42_AB"
| 69>
| 70> *xyz 0 1
| 71> C        -1.885879    1.701043   -0.040261
| 72> P        -1.524800    0.029479    0.665192
| 73> H        -2.118130    1.672164   -1.105310
| 74> H        -1.035509    2.363235    0.114518
| 75> H        -2.736952    2.128558    0.490517
| 76> C        -3.016987   -0.891380    0.075068
| 77> H        -3.890308   -0.533668    0.621405
| 78> H        -2.900744   -1.952277    0.292747
| 79> H        -3.202874   -0.769630   -0.992778
| 80> Si        -0.044336   -0.718656   -0.862673
| 81> P         2.097171   -0.170257   -0.453710
| 82> C         2.272570   -0.922532    1.226059
| 83> H         1.486346   -0.618709    1.917268
| 84> H         3.237448   -0.630566    1.641387
| 85> H         2.265445   -2.008674    1.139896
| 86> C         1.921512    1.613359    0.004736
| 87> H         2.898518    1.995451    0.300967
| 88> H         1.225096    1.776586    0.827286
| 89> H         1.592676    2.188331   -0.860704
| 90> H        -0.419321   -0.240020   -2.219264
| 91> H        -0.113841   -2.200863   -0.856348
| 92> *
| 93>
| 94>
| 95>
| 96>
| 97>                          ****END OF INPUT****
 Total Charge           Charge          ....    0
 Multiplicity           Mult            ....    1
 Number of Electrons    NEL             ....   82
MP2 TOTAL ENERGY:    -1131.041280257 Eh
FINAL SINGLE POINT ENERGY     -1131.041280257155
MP2 TOTAL ENERGY:    -1131.326744239 Eh
FINAL SINGLE POINT ENERGY     -1131.326744238541

CARTESIAN COORDINATES (ANGSTROEM)
---------------------------------
  C     -1.885879    1.701043   -0.040261
  P     -1.524800    0.029479    0.665192
  H     -2.118130    1.672164   -1.105310
  H     -1.035509    2.363235    0.114518
  H     -2.736952    2.128558    0.490517
  C     -3.016987   -0.891380    0.075068
  H     -3.890308   -0.533668    0.621405
  H     -2.900744   -1.952277    0.292747
  H     -3.202874   -0.769630   -0.992778
  Si    -0.044336   -0.718656   -0.862673
  P      2.097171   -0.170257   -0.453710
  C      2.272570   -0.922532    1.226059
  H      1.486346   -0.618709    1.917268
  H      3.237448   -0.630566    1.641387
  H      2.265445   -2.008674    1.139896
  C      1.921512    1.613359    0.004736
  H      2.898518    1.995451    0.300967
  H      1.225096    1.776586    0.827286
  H      1.592676    2.188331   -0.860704
  H     -0.419321   -0.240020   -2.219264
  H     -0.113841   -2.200863   -0.856348

 Multiplicity           Mult            ....    1
 Number of Electrons    NEL             ....   82
 Basis Dimension        Dim             .... 1216

ORBITAL ENERGIES
----------------

  NO   OCC          E(Eh)            E(eV)
   0   2.0000     -79.923822     -2174.8378
   1   2.0000     -79.921969     -2174.7874
   2   2.0000     -68.768241     -1871.2790
   3   2.0000     -11.226526      -305.4893
   4   2.0000     -11.226429      -305.4867
   5   2.0000     -11.225945      -305.4735
   6   2.0000     -11.221576      -305.3546
   7   2.0000      -7.466953      -203.1861
   8   2.0000      -7.465001      -203.1330
   9   2.0000      -6.118172      -166.4839
  10   2.0000      -5.361025      -145.8809
  11   2.0000      -5.360998      -145.8802
  12   2.0000      -5.360046      -145.8543
  13   2.0000      -5.359051      -145.8272
  14   2.0000      -5.359021      -145.8264
  15   2.0000      -5.358062      -145.8003
  16   2.0000      -4.224145      -114.9448
  17   2.0000      -4.223947      -114.9394
  18   2.0000      -4.223898      -114.9381
  19   2.0000      -1.008015       -27.4295
  20   2.0000      -1.000322       -27.2201
  21   2.0000      -0.941772       -25.6269
  22   2.0000      -0.937969       -25.5234
  23   2.0000      -0.780846       -21.2479
  24   2.0000      -0.731196       -19.8969
  25   2.0000      -0.653448       -17.7812
  26   2.0000      -0.597379       -16.2555
  27   2.0000      -0.588358       -16.0100
  28   2.0000      -0.582301       -15.8452
  29   2.0000      -0.578192       -15.7334
  30   2.0000      -0.562973       -15.3193
  31   2.0000      -0.560681       -15.2569
  32   2.0000      -0.557151       -15.1608
  33   2.0000      -0.550831       -14.9889
  34   2.0000      -0.489753       -13.3268
  35   2.0000      -0.465297       -12.6614
  36   2.0000      -0.458011       -12.4631
  37   2.0000      -0.429154       -11.6779
  38   2.0000      -0.413950       -11.2641
  39   2.0000      -0.338086        -9.1998
  40   2.0000      -0.314354        -8.5540
  41   0.0000       0.023802         0.6477
  42   0.0000       0.029075         0.7912
  43   0.0000       0.031173         0.8483
  44   0.0000       0.033696         0.9169
  45   0.0000       0.041975         1.1422

MULLIKEN ATOMIC CHARGES
-----------------------
   0 C :   -1.289833
   1 P :    0.453921
   2 H :    0.280777
   3 H :    0.385265
   4 H :    0.380210
   5 C :   -1.286478
   6 H :    0.365819
   7 H :    0.354949
   8 H :    0.299270
   9 Si:    1.058341
  10 P :    0.274534
  11 C :   -1.223284
  12 H :    0.343102
  13 H :    0.390998
  14 H :    0.310009
  15 C :   -1.135393
  16 H :    0.346708
  17 H :    0.283765
  18 H :    0.306589
  19 H :   -0.427943
  20 H :   -0.471326
Sum of atomic charges:   -0.0000000

LOEWDIN ATOMIC CHARGES
----------------------
   0 C :    0.708891
   1 P :    0.853655
   2 H :   -0.358058
   3 H :   -0.384644
   4 H :   -0.355000
   5 C :    0.706250
   6 H :   -0.359133
   7 H :   -0.369229
   8 H :   -0.354895
   9 Si:    0.394507
  10 P :    0.848277
  11 C :    0.696291
  12 H :   -0.370585
  13 H :   -0.358613
  14 H :   -0.367704
  15 C :    0.700699
  16 H :   -0.356303
  17 H :   -0.376091
  18 H :   -0.362605
  19 H :   -0.263326
  20 H :   -0.272386

  Mayer bond orders larger than 0.100000
B(  0-C ,  1-P ) :   0.8388 B(  0-C ,  2-H ) :   0.8983 B(  0-C ,  3-H ) :   0.8501
B(  0-C ,  4-H ) :   0.8702 B(  1-P ,  5-C ) :   0.8935 B(  1-P ,  9-Si) :   0.8463
B(  5-C ,  6-H ) :   0.8713 B(  5-C ,  7-H ) :   0.8734 B(  5-C ,  8-H ) :   0.8821
B(  9-Si, 10-P ) :   0.7784 B(  9-Si, 19-H ) :   0.6198 B(  9-Si, 20-H ) :   0.6175
B( 10-P , 11-C ) :   0.8755 B( 10-P , 15-C ) :   0.8811 B( 11-C , 12-H ) :   0.8683
B( 11-C , 13-H ) :   0.8583 B( 11-C , 14-H ) :   0.9054 B( 15-C , 16-H ) :   0.9244
B( 15-C , 17-H ) :   0.8699 B( 15-C , 18-H ) :   0.8823

MP2 TOTAL ENERGY:    -1131.413004756 Eh
FINAL SINGLE POINT ENERGY     -1131.413004755956

DIPOLE MOMENT
-------------
                                X             Y             Z
Electronic contribution:      3.85883      -3.03406      -1.04068
Nuclear contribution   :     -4.30522       3.38748       1.17639
                        -----------------------------------------
Total Dipole Moment    :     -0.44639       0.35342       0.13571
                        -----------------------------------------
Magnitude (a.u.)       :      0.58531
Magnitude (Debye)      :      1.48774

Rotational constants in cm-1:     0.077598     0.027125     0.024581
Rotational constants in MHz :  2326.340187   813.181356   736.918787

                             ****ORCA TERMINATED NORMALLY****
TOTAL RUN TIME: 0 days 3 hours 4 minutes 11 seconds 729 msec
