                         Program Version 5.0.4 -  RELEASE  -
|  1> ! ri-mp2 aug-cc-pvdz aug-cc-pvdz/c tightscf
|  2> %pal nprocs 16 end
|  3> %maxcore 3800
|  4> %base "DZ_S-Cl_18_AB"
|  5>
|  6> *xyz 0 1
|  7> Cl         2.569587   -0.109115   -0.280710
|  8> S         0.910664   -1.045081    0.415680
|  9> C        -0.301470   -0.025034   -0.422630
| 10> N        -1.637775   -0.704793   -0.301064
| 11> O        -1.682860   -1.683639    0.403828
| 12> O        -2.538376   -0.207644   -0.921757
| 13> N        -0.458519    1.346992    0.209383
| 14> H        -0.080514    0.136671   -1.471980
| 15> O        -1.050414    1.400432    1.255395
| 16> O         0.060372    2.252651   -0.391128
| 17> *
| 18>
| 19> $new_job
| 20> ! ri-mp2 aug-cc-pvtz aug-cc-pvtz/c tightscf
| 21> %pal nprocs 16 end
| 22> %maxcore 3800
| 23> %base "TZ_S-Cl_18_AB"
| 24>
| 25> *xyz 0 1
| 26> Cl         2.569587   -0.109115   -0.280710
| 27> S         0.910664   -1.045081    0.415680
| 28> C        -0.301470   -0.025034   -0.422630
| 29> N        -1.637775   -0.704793   -0.301064
| 30> O        -1.682860   -1.683639    0.403828
| 31> O        -2.538376   -0.207644   -0.921757
| 32> N        -0.458519    1.346992    0.209383
| 33> H        -0.080514    0.136671   -1.471980
| 34> O        -1.050414    1.400432    1.255395
| 35> O         0.060372    2.252651   -0.391128
| 36> *
| 37>
| 38> $new_job
| 39> ! ri-mp2 aug-cc-pvqz aug-cc-pvqz/c tightscf
| 40> %pal nprocs 16 end
| 41> %maxcore 3800
| 42> %base "QZ_S-Cl_18_AB"
| 43>
| 44> *xyz 0 1
| 45> Cl         2.569587   -0.109115   -0.280710
| 46> S         0.910664   -1.045081    0.415680
| 47> C        -0.301470   -0.025034   -0.422630
| 48> N        -1.637775   -0.704793   -0.301064
| 49> O        -1.682860   -1.683639    0.403828
| 50> O        -2.538376   -0.207644   -0.921757
| 51> N        -0.458519    1.346992    0.209383
| 52> H        -0.080514    0.136671   -1.471980
| 53> O        -1.050414    1.400432    1.255395
| 54> O         0.060372    2.252651   -0.391128
| 55> *
| 56>
| 57>
| 58>
| 59>
| 60>                          ****END OF INPUT****
 Total Charge           Charge          ....    0
 Multiplicity           Mult            ....    1
 Number of Electrons    NEL             ....   86
MP2 TOTAL ENERGY:    -1305.208586933 Eh
FINAL SINGLE POINT ENERGY     -1305.208586933249
MP2 TOTAL ENERGY:    -1305.684603149 Eh
FINAL SINGLE POINT ENERGY     -1305.684603148982

CARTESIAN COORDINATES (ANGSTROEM)
---------------------------------
  Cl     2.569587   -0.109115   -0.280710
  S      0.910664   -1.045081    0.415680
  C     -0.301470   -0.025034   -0.422630
  N     -1.637775   -0.704793   -0.301064
  O     -1.682860   -1.683639    0.403828
  O     -2.538376   -0.207644   -0.921757
  N     -0.458519    1.346992    0.209383
  H     -0.080514    0.136671   -1.471980
  O     -1.050414    1.400432    1.255395
  O      0.060372    2.252651   -0.391128

 Multiplicity           Mult            ....    1
 Number of Electrons    NEL             ....   86
 Basis Dimension        Dim             ....  774

ORBITAL ENERGIES
----------------

  NO   OCC          E(Eh)            E(eV)
   0   2.0000    -104.896745     -2854.3856
   1   2.0000     -92.074381     -2505.4713
   2   2.0000     -20.656846      -562.1014
   3   2.0000     -20.655328      -562.0600
   4   2.0000     -20.647783      -561.8547
   5   2.0000     -20.644147      -561.7558
   6   2.0000     -15.906214      -432.8301
   7   2.0000     -15.896416      -432.5635
   8   2.0000     -11.437837      -311.2394
   9   2.0000     -10.620933      -289.0103
  10   2.0000      -9.071846      -246.8575
  11   2.0000      -8.087943      -220.0841
  12   2.0000      -8.085871      -220.0277
  13   2.0000      -8.085649      -220.0217
  14   2.0000      -6.752557      -183.7464
  15   2.0000      -6.751381      -183.7144
  16   2.0000      -6.749727      -183.6694
  17   2.0000      -1.681202       -45.7478
  18   2.0000      -1.661596       -45.2143
  19   2.0000      -1.470829       -40.0233
  20   2.0000      -1.460668       -39.7468
  21   2.0000      -1.232574       -33.5400
  22   2.0000      -1.165932       -31.7266
  23   2.0000      -1.004566       -27.3356
  24   2.0000      -0.981565       -26.7097
  25   2.0000      -0.871411       -23.7123
  26   2.0000      -0.837663       -22.7940
  27   2.0000      -0.821133       -22.3442
  28   2.0000      -0.787432       -21.4271
  29   2.0000      -0.773022       -21.0350
  30   2.0000      -0.760983       -20.7074
  31   2.0000      -0.736638       -20.0449
  32   2.0000      -0.650303       -17.6957
  33   2.0000      -0.581761       -15.8305
  34   2.0000      -0.567799       -15.4506
  35   2.0000      -0.559649       -15.2288
  36   2.0000      -0.543985       -14.8026
  37   2.0000      -0.538107       -14.6426
  38   2.0000      -0.527066       -14.3422
  39   2.0000      -0.508300       -13.8315
  40   2.0000      -0.496181       -13.5018
  41   2.0000      -0.490136       -13.3373
  42   2.0000      -0.415975       -11.3193
  43   0.0000       0.022822         0.6210
  44   0.0000       0.030829         0.8389
  45   0.0000       0.036531         0.9940
  46   0.0000       0.040815         1.1106
  47   0.0000       0.044183         1.2023

MULLIKEN ATOMIC CHARGES
-----------------------
   0 Cl:   -0.295655
   1 S :    0.302508
   2 C :    0.044358
   3 N :    0.846020
   4 O :   -0.566292
   5 O :   -0.525609
   6 N :    0.846573
   7 H :    0.455589
   8 O :   -0.552587
   9 O :   -0.554904
Sum of atomic charges:    0.0000000

LOEWDIN ATOMIC CHARGES
----------------------
   0 Cl:    0.556742
   1 S :    0.452380
   2 C :   -0.854094
   3 N :   -0.957679
   4 O :    0.531834
   5 O :    0.578291
   6 N :   -0.956830
   7 H :   -0.458001
   8 O :    0.547596
   9 O :    0.559761

  Mayer bond orders larger than 0.100000
B(  0-Cl,  1-S ) :   1.0160 B(  0-Cl,  2-C ) :  -0.1403 B(  1-S ,  2-C ) :   0.8147
B(  2-C ,  3-N ) :   0.8891 B(  2-C ,  6-N ) :   0.8689 B(  2-C ,  7-H ) :   0.7674
B(  3-N ,  4-O ) :   1.2551 B(  3-N ,  5-O ) :   1.3183 B(  4-O ,  5-O ) :   0.1461
B(  6-N ,  8-O ) :   1.3058 B(  6-N ,  9-O ) :   1.3041 B(  8-O ,  9-O ) :   0.1469

MP2 TOTAL ENERGY:    -1305.845966509 Eh
FINAL SINGLE POINT ENERGY     -1305.845966508698

DIPOLE MOMENT
-------------
                                X             Y             Z
Electronic contribution:      4.55675      -0.93927       0.37831
Nuclear contribution   :     -3.63133       0.33378      -1.00937
                        -----------------------------------------
Total Dipole Moment    :      0.92542      -0.60549      -0.63106
                        -----------------------------------------
Magnitude (a.u.)       :      1.27329
Magnitude (Debye)      :      3.23644

Rotational constants in cm-1:     0.059183     0.032005     0.024264
Rotational constants in MHz :  1774.256796   959.490605   727.421088

                             ****ORCA TERMINATED NORMALLY****
TOTAL RUN TIME: 0 days 0 hours 10 minutes 34 seconds 316 msec
