                         Program Version 5.0.4 -  RELEASE  -
|  1> ! ri-mp2 aug-cc-pvdz aug-cc-pvdz/c tightscf
|  2> %pal nprocs 16 end
|  3> %maxcore 3800
|  4> %base "DZ_B-Cl_16_A"
|  5> %scf
|  6> STABPerform true
|  7> STABRestartUHFifUnstable true
|  8> end
|  9>
| 10> *xyz 0 2
| 11> Cl         1.984677   -0.088109    0.035080
| 12> B         0.403961   -0.784982    0.037878
| 13> C        -0.924612   -0.067847   -0.325613
| 14> C        -2.175296   -0.814410    0.140727
| 15> H        -2.162949   -1.856055   -0.177964
| 16> H        -3.077652   -0.345578   -0.255779
| 17> H        -2.248858   -0.803222    1.229446
| 18> C        -0.968513    1.412102    0.070927
| 19> H        -0.898287   -0.117659   -1.427616
| 20> H        -0.965793    1.522792    1.156641
| 21> H        -1.879769    1.880323   -0.304614
| 22> H        -0.115464    1.963079   -0.322109
| 23> *
| 24>
| 25> $new_job
| 26> ! ri-mp2 aug-cc-pvtz aug-cc-pvtz/c tightscf
| 27> %pal nprocs 16 end
| 28> %maxcore 3800
| 29> %base "TZ_B-Cl_16_A"
| 30>
| 31> *xyz 0 2
| 32> Cl         1.984677   -0.088109    0.035080
| 33> B         0.403961   -0.784982    0.037878
| 34> C        -0.924612   -0.067847   -0.325613
| 35> C        -2.175296   -0.814410    0.140727
| 36> H        -2.162949   -1.856055   -0.177964
| 37> H        -3.077652   -0.345578   -0.255779
| 38> H        -2.248858   -0.803222    1.229446
| 39> C        -0.968513    1.412102    0.070927
| 40> H        -0.898287   -0.117659   -1.427616
| 41> H        -0.965793    1.522792    1.156641
| 42> H        -1.879769    1.880323   -0.304614
| 43> H        -0.115464    1.963079   -0.322109
| 44> *
| 45>
| 46> $new_job
| 47> ! ri-mp2 aug-cc-pvqz aug-cc-pvqz/c tightscf
| 48> %pal nprocs 16 end
| 49> %maxcore 3800
| 50> %base "QZ_B-Cl_16_A"
| 51>
| 52> *xyz 0 2
| 53> Cl         1.984677   -0.088109    0.035080
| 54> B         0.403961   -0.784982    0.037878
| 55> C        -0.924612   -0.067847   -0.325613
| 56> C        -2.175296   -0.814410    0.140727
| 57> H        -2.162949   -1.856055   -0.177964
| 58> H        -3.077652   -0.345578   -0.255779
| 59> H        -2.248858   -0.803222    1.229446
| 60> C        -0.968513    1.412102    0.070927
| 61> H        -0.898287   -0.117659   -1.427616
| 62> H        -0.965793    1.522792    1.156641
| 63> H        -1.879769    1.880323   -0.304614
| 64> H        -0.115464    1.963079   -0.322109
| 65> *
| 66>
| 67>
| 68>
| 69>
| 70>                          ****END OF INPUT****
 Total Charge           Charge          ....    0
 Multiplicity           Mult            ....    2
 Number of Electrons    NEL             ....   47
MP2 TOTAL ENERGY:     -602.525899103 Eh
FINAL SINGLE POINT ENERGY      -602.525899102801
MP2 TOTAL ENERGY:     -602.719523877 Eh
FINAL SINGLE POINT ENERGY      -602.719523877449

CARTESIAN COORDINATES (ANGSTROEM)
---------------------------------
  Cl     1.984677   -0.088109    0.035080
  B      0.403961   -0.784982    0.037878
  C     -0.924612   -0.067847   -0.325613
  C     -2.175296   -0.814410    0.140727
  H     -2.162949   -1.856055   -0.177964
  H     -3.077652   -0.345578   -0.255779
  H     -2.248858   -0.803222    1.229446
  C     -0.968513    1.412102    0.070927
  H     -0.898287   -0.117659   -1.427616
  H     -0.965793    1.522792    1.156641
  H     -1.879769    1.880323   -0.304614
  H     -0.115464    1.963079   -0.322109

 Multiplicity           Mult            ....    2
 Number of Electrons    NEL             ....   47
 Basis Dimension        Dim             ....  726

ORBITAL ENERGIES
----------------
                 SPIN UP ORBITALS
  NO   OCC          E(Eh)            E(eV)
   0   1.0000    -104.838440     -2852.7990
   1   1.0000     -11.224945      -305.4463
   2   1.0000     -11.221048      -305.3402
   3   1.0000     -11.219836      -305.3072
   4   1.0000     -10.566192      -287.5207
   5   1.0000      -8.033929      -218.6143
   6   1.0000      -8.031759      -218.5553
   7   1.0000      -8.031480      -218.5477
   8   1.0000      -7.667148      -208.6337
   9   1.0000      -1.125221       -30.6188
  10   1.0000      -1.068122       -29.0651
  11   1.0000      -0.937964       -25.5233
  12   1.0000      -0.827925       -22.5290
  13   1.0000      -0.666601       -18.1391
  14   1.0000      -0.621604       -16.9147
  15   1.0000      -0.600053       -16.3283
  16   1.0000      -0.575602       -15.6629
  17   1.0000      -0.543528       -14.7901
  18   1.0000      -0.504720       -13.7341
  19   1.0000      -0.499477       -13.5915
  20   1.0000      -0.491038       -13.3618
  21   1.0000      -0.477105       -12.9827
  22   1.0000      -0.465418       -12.6647
  23   1.0000      -0.327580        -8.9139
  24   0.0000       0.024002         0.6531
  25   0.0000       0.032162         0.8752
  26   0.0000       0.033776         0.9191
  27   0.0000       0.035003         0.9525
  28   0.0000       0.049890         1.3576

                 SPIN DOWN ORBITALS
  NO   OCC          E(Eh)            E(eV)
   0   1.0000    -104.837642     -2852.7773
   1   1.0000     -11.223591      -305.4094
   2   1.0000     -11.220390      -305.3223
   3   1.0000     -11.219510      -305.2984
   4   1.0000     -10.565241      -287.4948
   5   1.0000      -8.032215      -218.5677
   6   1.0000      -8.031624      -218.5516
   7   1.0000      -8.029481      -218.4933
   8   1.0000      -7.647629      -208.1026
   9   1.0000      -1.115801       -30.3625
  10   1.0000      -1.064182       -28.9579
  11   1.0000      -0.936069       -25.4717
  12   1.0000      -0.819550       -22.3011
  13   1.0000      -0.646943       -17.6042
  14   1.0000      -0.618642       -16.8341
  15   1.0000      -0.589293       -16.0355
  16   1.0000      -0.563044       -15.3212
  17   1.0000      -0.542317       -14.7572
  18   1.0000      -0.500066       -13.6075
  19   1.0000      -0.486907       -13.2494
  20   1.0000      -0.482033       -13.1168
  21   1.0000      -0.475786       -12.9468
  22   1.0000      -0.449959       -12.2440
  23   0.0000       0.022239         0.6052
  24   0.0000       0.032545         0.8856
  25   0.0000       0.033030         0.8988
  26   0.0000       0.034743         0.9454
  27   0.0000       0.049940         1.3589

MULLIKEN ATOMIC CHARGES AND SPIN POPULATIONS
--------------------------------------------
   0 Cl:   -0.303174    0.014420
   1 B :    0.278495    1.017690
   2 C :    0.001340   -0.041114
   3 C :   -0.847093   -0.016637
   4 H :    0.279571   -0.003279
   5 H :    0.245310   -0.000291
   6 H :    0.233815   -0.007685
   7 C :   -0.914388    0.034396
   8 H :    0.247623   -0.003026
   9 H :    0.237493   -0.003052
  10 H :    0.253197    0.007392
  11 H :    0.287810    0.001187
Sum of atomic charges         :   -0.0000000

LOEWDIN ATOMIC CHARGES AND SPIN POPULATIONS
-------------------------------------------
   0 Cl:    1.260273    0.169704
   1 B :   -0.988592    0.554586
   2 C :    0.053689    0.156583
   3 C :    0.871554    0.040408
   4 H :   -0.290140    0.016889
   5 H :   -0.278052    0.000904
   6 H :   -0.281670    0.006530
   7 C :    0.849379    0.022448
   8 H :   -0.328025    0.019845
   9 H :   -0.279467    0.002798
  10 H :   -0.277339    0.004786
  11 H :   -0.311611    0.004519

  Mayer bond orders larger than 0.100000
B(  0-Cl,  1-B ) :   1.0516 B(  1-B ,  2-C ) :   0.8682 B(  2-C ,  3-C ) :   0.7808
B(  2-C ,  7-C ) :   0.8266 B(  2-C ,  8-H ) :   0.8477 B(  3-C ,  4-H ) :   0.9537
B(  3-C ,  5-H ) :   0.9795 B(  3-C ,  6-H ) :   0.9587 B(  7-C ,  9-H ) :   0.9453
B(  7-C , 10-H ) :   0.9732 B(  7-C , 11-H ) :   0.9455

MP2 TOTAL ENERGY:     -602.780490769 Eh
FINAL SINGLE POINT ENERGY      -602.780490768516

DIPOLE MOMENT
-------------
                                X             Y             Z
Electronic contribution:     13.80899      -2.78370       0.05174
Nuclear contribution   :    -14.33783       2.96590      -0.18049
                        -----------------------------------------
Total Dipole Moment    :     -0.52884       0.18220      -0.12875
                        -----------------------------------------
Magnitude (a.u.)       :      0.57397
Magnitude (Debye)      :      1.45892

Rotational constants in cm-1:     0.282444     0.067698     0.057145
Rotational constants in MHz :  8467.463698  2029.540638  1713.158907

                             ****ORCA TERMINATED NORMALLY****
TOTAL RUN TIME: 0 days 1 hours 37 minutes 39 seconds 570 msec
