                         Program Version 5.0.4 -  RELEASE  -
|  1> ! ri-mp2 aug-cc-pvdz aug-cc-pvdz/c tightscf
|  2> %pal nprocs 16 end
|  3> %maxcore 3800
|  4> %base "DZ_S-F_16_AB"
|  5> %scf
|  6> STABPerform true
|  7> STABRestartUHFifUnstable true
|  8> end
|  9>
| 10> *xyz 0 1
| 11> F        -2.293115    0.009761    0.247665
| 12> S        -1.052495   -0.887009   -0.271813
| 13> C         0.279470    0.054213    0.446880
| 14> Cl         0.394987    1.718580   -0.135920
| 15> Cl         1.698617   -0.913787    0.013047
| 16> H         0.209870    0.097531    1.527587
| 17> *
| 18>
| 19> $new_job
| 20> ! ri-mp2 aug-cc-pvtz aug-cc-pvtz/c tightscf
| 21> %pal nprocs 16 end
| 22> %maxcore 3800
| 23> %base "TZ_S-F_16_AB"
| 24>
| 25> *xyz 0 1
| 26> F        -2.293115    0.009761    0.247665
| 27> S        -1.052495   -0.887009   -0.271813
| 28> C         0.279470    0.054213    0.446880
| 29> Cl         0.394987    1.718580   -0.135920
| 30> Cl         1.698617   -0.913787    0.013047
| 31> H         0.209870    0.097531    1.527587
| 32> *
| 33>
| 34> $new_job
| 35> ! ri-mp2 aug-cc-pvqz aug-cc-pvqz/c tightscf
| 36> %pal nprocs 16 end
| 37> %maxcore 3800
| 38> %base "QZ_S-F_16_AB"
| 39>
| 40> *xyz 0 1
| 41> F        -2.293115    0.009761    0.247665
| 42> S        -1.052495   -0.887009   -0.271813
| 43> C         0.279470    0.054213    0.446880
| 44> Cl         0.394987    1.718580   -0.135920
| 45> Cl         1.698617   -0.913787    0.013047
| 46> H         0.209870    0.097531    1.527587
| 47> *
| 48>
| 49>
| 50>
| 51>
| 52>                          ****END OF INPUT****
 Total Charge           Charge          ....    0
 Multiplicity           Mult            ....    1
 Number of Electrons    NEL             ....   66
MP2 TOTAL ENERGY:    -1455.180405988 Eh
FINAL SINGLE POINT ENERGY     -1455.180405987582
MP2 TOTAL ENERGY:    -1455.473586105 Eh
FINAL SINGLE POINT ENERGY     -1455.473586104792

CARTESIAN COORDINATES (ANGSTROEM)
---------------------------------
  F     -2.293115    0.009761    0.247665
  S     -1.052495   -0.887009   -0.271813
  C      0.279470    0.054213    0.446880
  Cl     0.394987    1.718580   -0.135920
  Cl     1.698617   -0.913787    0.013047
  H      0.209870    0.097531    1.527587

 Multiplicity           Mult            ....    1
 Number of Electrons    NEL             ....   66
 Basis Dimension        Dim             ....  458

ORBITAL ENERGIES
----------------

  NO   OCC          E(Eh)            E(eV)
   0   2.0000    -104.875663     -2853.8119
   1   2.0000    -104.862617     -2853.4569
   2   2.0000     -92.060612     -2505.0966
   3   2.0000     -26.328030      -716.4221
   4   2.0000     -11.409073      -310.4567
   5   2.0000     -10.601129      -288.4714
   6   2.0000     -10.588252      -288.1210
   7   2.0000      -9.054903      -246.3964
   8   2.0000      -8.068164      -219.5459
   9   2.0000      -8.066241      -219.4936
  10   2.0000      -8.066149      -219.4911
  11   2.0000      -8.055272      -219.1951
  12   2.0000      -8.053345      -219.1427
  13   2.0000      -8.053293      -219.1412
  14   2.0000      -6.736232      -183.3022
  15   2.0000      -6.734269      -183.2488
  16   2.0000      -6.732783      -183.2083
  17   2.0000      -1.629002       -44.3274
  18   2.0000      -1.228388       -33.4261
  19   2.0000      -1.119396       -30.4603
  20   2.0000      -1.019353       -27.7380
  21   2.0000      -0.865229       -23.5441
  22   2.0000      -0.727680       -19.8012
  23   2.0000      -0.710486       -19.3333
  24   2.0000      -0.705833       -19.2067
  25   2.0000      -0.651906       -17.7393
  26   2.0000      -0.608067       -16.5464
  27   2.0000      -0.558613       -15.2006
  28   2.0000      -0.495769       -13.4906
  29   2.0000      -0.491097       -13.3634
  30   2.0000      -0.466568       -12.6960
  31   2.0000      -0.458777       -12.4840
  32   2.0000      -0.397199       -10.8083
  33   0.0000       0.030199         0.8217
  34   0.0000       0.047678         1.2974
  35   0.0000       0.048540         1.3208
  36   0.0000       0.055808         1.5186
  37   0.0000       0.079788         2.1712

MULLIKEN ATOMIC CHARGES
-----------------------
   0 F :   -0.603695
   1 S :    0.666854
   2 C :   -0.162315
   3 Cl:   -0.167459
   4 Cl:   -0.146464
   5 H :    0.413080
Sum of atomic charges:    0.0000000

LOEWDIN ATOMIC CHARGES
----------------------
   0 F :    0.071344
   1 S :    0.428410
   2 C :   -1.861457
   3 Cl:    1.013574
   4 Cl:    1.001869
   5 H :   -0.653740

  Mayer bond orders larger than 0.100000
B(  0-F ,  1-S ) :   0.6174 B(  1-S ,  2-C ) :   0.9638 B(  2-C ,  3-Cl) :   0.8742
B(  2-C ,  4-Cl) :   0.8711 B(  2-C ,  5-H ) :   0.7580

MP2 TOTAL ENERGY:    -1455.571180207 Eh
FINAL SINGLE POINT ENERGY     -1455.571180207455

DIPOLE MOMENT
-------------
                                X             Y             Z
Electronic contribution:      0.71901       0.70879      -1.00878
Nuclear contribution   :     -0.44833      -0.95145       1.34728
                        -----------------------------------------
Total Dipole Moment    :      0.27068      -0.24267       0.33850
                        -----------------------------------------
Magnitude (a.u.)       :      0.49673
Magnitude (Debye)      :      1.26258

Rotational constants in cm-1:     0.100054     0.066588     0.041747
Rotational constants in MHz :  2999.541700  1996.248620  1251.558340

                             ****ORCA TERMINATED NORMALLY****
TOTAL RUN TIME: 0 days 0 hours 10 minutes 32 seconds 926 msec
