                         Program Version 5.0.4 -  RELEASE  -
|  1> ! ri-mp2 aug-cc-pvdz aug-cc-pvdz/c tightscf
|  2> %pal nprocs 16 end
|  3> %maxcore 3800
|  4> %base "DZ_B-P_21_AB"
|  5> %scf
|  6> STABPerform true
|  7> STABRestartUHFifUnstable true
|  8> end
|  9>
| 10> *xyz 0 1
| 11> P         0.346167    0.218508    0.829732
| 12> B        -1.364467   -0.355754    0.039253
| 13> O        -1.486938   -1.389765   -0.814864
| 14> O        -2.431729    0.364125    0.442064
| 15> Cl         1.528304   -1.279916   -0.009747
| 16> Cl         0.641776    1.775850   -0.499727
| 17> H        -3.261485    0.097049    0.030082
| 18> H        -0.650709   -1.821663   -1.028875
| 19> *
| 20>
| 21> $new_job
| 22> ! ri-mp2 aug-cc-pvtz aug-cc-pvtz/c tightscf
| 23> %pal nprocs 16 end
| 24> %maxcore 3800
| 25> %base "TZ_B-P_21_AB"
| 26>
| 27> *xyz 0 1
| 28> P         0.346167    0.218508    0.829732
| 29> B        -1.364467   -0.355754    0.039253
| 30> O        -1.486938   -1.389765   -0.814864
| 31> O        -2.431729    0.364125    0.442064
| 32> Cl         1.528304   -1.279916   -0.009747
| 33> Cl         0.641776    1.775850   -0.499727
| 34> H        -3.261485    0.097049    0.030082
| 35> H        -0.650709   -1.821663   -1.028875
| 36> *
| 37>
| 38> $new_job
| 39> ! ri-mp2 aug-cc-pvqz aug-cc-pvqz/c tightscf
| 40> %pal nprocs 16 end
| 41> %maxcore 3800
| 42> %base "QZ_B-P_21_AB"
| 43>
| 44> *xyz 0 1
| 45> P         0.346167    0.218508    0.829732
| 46> B        -1.364467   -0.355754    0.039253
| 47> O        -1.486938   -1.389765   -0.814864
| 48> O        -2.431729    0.364125    0.442064
| 49> Cl         1.528304   -1.279916   -0.009747
| 50> Cl         0.641776    1.775850   -0.499727
| 51> H        -3.261485    0.097049    0.030082
| 52> H        -0.650709   -1.821663   -1.028875
| 53> *
| 54>
| 55>
| 56>
| 57>
| 58>                          ****END OF INPUT****
 Total Charge           Charge          ....    0
 Multiplicity           Mult            ....    1
 Number of Electrons    NEL             ....   72
MP2 TOTAL ENERGY:    -1436.404175091 Eh
FINAL SINGLE POINT ENERGY     -1436.404175091444
MP2 TOTAL ENERGY:    -1436.723481067 Eh
FINAL SINGLE POINT ENERGY     -1436.723481067012

CARTESIAN COORDINATES (ANGSTROEM)
---------------------------------
  P      0.346167    0.218508    0.829732
  B     -1.364467   -0.355754    0.039253
  O     -1.486938   -1.389765   -0.814864
  O     -2.431729    0.364125    0.442064
  Cl     1.528304   -1.279916   -0.009747
  Cl     0.641776    1.775850   -0.499727
  H     -3.261485    0.097049    0.030082
  H     -0.650709   -1.821663   -1.028875

 Multiplicity           Mult            ....    1
 Number of Electrons    NEL             ....   72
 Basis Dimension        Dim             ....  584

ORBITAL ENERGIES
----------------

  NO   OCC          E(Eh)            E(eV)
   0   2.0000    -104.851579     -2853.1565
   1   2.0000    -104.848108     -2853.0621
   2   2.0000     -80.035387     -2177.8736
   3   2.0000     -20.594827      -560.4137
   4   2.0000     -20.593365      -560.3739
   5   2.0000     -10.577954      -287.8407
   6   2.0000     -10.574154      -287.7374
   7   2.0000      -8.044722      -218.9080
   8   2.0000      -8.043385      -218.8716
   9   2.0000      -8.043272      -218.8686
  10   2.0000      -8.040974      -218.8060
  11   2.0000      -8.039508      -218.7661
  12   2.0000      -8.039347      -218.7618
  13   2.0000      -7.678917      -208.9540
  14   2.0000      -7.570345      -205.9995
  15   2.0000      -5.463376      -148.6660
  16   2.0000      -5.462494      -148.6420
  17   2.0000      -5.461019      -148.6019
  18   2.0000      -1.414414       -38.4881
  19   2.0000      -1.377134       -37.4737
  20   2.0000      -1.145645       -31.1746
  21   2.0000      -1.099343       -29.9146
  22   2.0000      -0.836714       -22.7681
  23   2.0000      -0.783287       -21.3143
  24   2.0000      -0.752703       -20.4821
  25   2.0000      -0.646321       -17.5873
  26   2.0000      -0.607153       -16.5215
  27   2.0000      -0.595345       -16.2002
  28   2.0000      -0.566444       -15.4137
  29   2.0000      -0.544249       -14.8098
  30   2.0000      -0.530172       -14.4267
  31   2.0000      -0.527537       -14.3550
  32   2.0000      -0.485837       -13.2203
  33   2.0000      -0.463216       -12.6048
  34   2.0000      -0.460433       -12.5290
  35   2.0000      -0.374111       -10.1801
  36   0.0000       0.024045         0.6543
  37   0.0000       0.034683         0.9438
  38   0.0000       0.035365         0.9623
  39   0.0000       0.040790         1.1099
  40   0.0000       0.057536         1.5656

MULLIKEN ATOMIC CHARGES
-----------------------
   0 P :    0.797726
   1 B :    1.313383
   2 O :   -1.003755
   3 O :   -0.957408
   4 Cl:   -0.491527
   5 Cl:   -0.425243
   6 H :    0.345521
   7 H :    0.421302
Sum of atomic charges:    0.0000000

LOEWDIN ATOMIC CHARGES
----------------------
   0 P :   -0.465180
   1 B :   -1.707098
   2 O :    1.295825
   3 O :    1.260105
   4 Cl:    0.706887
   5 Cl:    0.665859
   6 H :   -0.790564
   7 H :   -0.965833

  Mayer bond orders larger than 0.100000
B(  0-P ,  1-B ) :   0.9514 B(  0-P ,  3-O ) :  -0.1006 B(  0-P ,  4-Cl) :   0.7943
B(  0-P ,  5-Cl) :   0.8397 B(  1-B ,  2-O ) :   0.6275 B(  1-B ,  3-O ) :   0.4698
B(  2-O ,  7-H ) :   0.8709 B(  3-O ,  6-H ) :   0.9258

MP2 TOTAL ENERGY:    -1436.830169862 Eh
FINAL SINGLE POINT ENERGY     -1436.830169861648

DIPOLE MOMENT
-------------
                                X             Y             Z
Electronic contribution:      5.22995       1.72543       0.91842
Nuclear contribution   :     -5.81499      -2.18609      -1.01172
                        -----------------------------------------
Total Dipole Moment    :     -0.58504      -0.46066      -0.09330
                        -----------------------------------------
Magnitude (a.u.)       :      0.75046
Magnitude (Debye)      :      1.90751

Rotational constants in cm-1:     0.066363     0.054890     0.035773
Rotational constants in MHz :  1989.508471  1645.570466  1072.449950

                             ****ORCA TERMINATED NORMALLY****
TOTAL RUN TIME: 0 days 0 hours 22 minutes 0 seconds 895 msec
