                         Program Version 5.0.4 -  RELEASE  -
|  1> ! ri-mp2 aug-cc-pvdz aug-cc-pvdz/c tightscf
|  2> %pal nprocs 16 end
|  3> %maxcore 3800
|  4> %base "DZ_B-P_77_A"
|  5> %scf
|  6> STABPerform true
|  7> STABRestartUHFifUnstable true
|  8> end
|  9>
| 10> *xyz 0 2
| 11> C        -0.218471   -0.000001    0.557673
| 12> C        -1.314910   -0.742877   -0.171449
| 13> C        -1.314910    0.742878   -0.171449
| 14> H        -2.047669   -1.257963    0.434074
| 15> H        -1.047228   -1.256073   -1.084223
| 16> H        -1.047227    1.256074   -1.084222
| 17> H        -2.047668    1.257963    0.434075
| 18> P         1.494401    0.000000   -0.015186
| 19> H        -0.303052   -0.000001    1.637400
| 20> H         1.166569   -0.000000   -1.397960
| 21> *
| 22>
| 23> $new_job
| 24> ! ri-mp2 aug-cc-pvtz aug-cc-pvtz/c tightscf
| 25> %pal nprocs 16 end
| 26> %maxcore 3800
| 27> %base "TZ_B-P_77_A"
| 28>
| 29> *xyz 0 2
| 30> C        -0.218471   -0.000001    0.557673
| 31> C        -1.314910   -0.742877   -0.171449
| 32> C        -1.314910    0.742878   -0.171449
| 33> H        -2.047669   -1.257963    0.434074
| 34> H        -1.047228   -1.256073   -1.084223
| 35> H        -1.047227    1.256074   -1.084222
| 36> H        -2.047668    1.257963    0.434075
| 37> P         1.494401    0.000000   -0.015186
| 38> H        -0.303052   -0.000001    1.637400
| 39> H         1.166569   -0.000000   -1.397960
| 40> *
| 41>
| 42> $new_job
| 43> ! ri-mp2 aug-cc-pvqz aug-cc-pvqz/c tightscf
| 44> %pal nprocs 16 end
| 45> %maxcore 3800
| 46> %base "QZ_B-P_77_A"
| 47>
| 48> *xyz 0 2
| 49> C        -0.218471   -0.000001    0.557673
| 50> C        -1.314910   -0.742877   -0.171449
| 51> C        -1.314910    0.742878   -0.171449
| 52> H        -2.047669   -1.257963    0.434074
| 53> H        -1.047228   -1.256073   -1.084223
| 54> H        -1.047227    1.256074   -1.084222
| 55> H        -2.047668    1.257963    0.434075
| 56> P         1.494401    0.000000   -0.015186
| 57> H        -0.303052   -0.000001    1.637400
| 58> H         1.166569   -0.000000   -1.397960
| 59> *
| 60>
| 61>
| 62>
| 63>
| 64>                          ****END OF INPUT****
 Total Charge           Charge          ....    0
 Multiplicity           Mult            ....    2
 Number of Electrons    NEL             ....   39
MP2 TOTAL ENERGY:     -458.327935520 Eh
FINAL SINGLE POINT ENERGY      -458.327935519627
MP2 TOTAL ENERGY:     -458.477883381 Eh
FINAL SINGLE POINT ENERGY      -458.477883381341

CARTESIAN COORDINATES (ANGSTROEM)
---------------------------------
  C     -0.218471   -0.000001    0.557673
  C     -1.314910   -0.742877   -0.171449
  C     -1.314910    0.742878   -0.171449
  H     -2.047669   -1.257963    0.434074
  H     -1.047228   -1.256073   -1.084223
  H     -1.047227    1.256074   -1.084222
  H     -2.047668    1.257963    0.434075
  P      1.494401    0.000000   -0.015186
  H     -0.303052   -0.000001    1.637400
  H      1.166569   -0.000000   -1.397960

 Multiplicity           Mult            ....    2
 Number of Electrons    NEL             ....   39
 Basis Dimension        Dim             ....  600

ORBITAL ENERGIES
----------------
                 SPIN UP ORBITALS
  NO   OCC          E(Eh)            E(eV)
   0   1.0000     -79.941932     -2175.3305
   1   1.0000     -11.238719      -305.8211
   2   1.0000     -11.237762      -305.7951
   3   1.0000     -11.237576      -305.7900
   4   1.0000      -7.485067      -203.6790
   5   1.0000      -5.389706      -146.6614
   6   1.0000      -5.376061      -146.2901
   7   1.0000      -5.374253      -146.2409
   8   1.0000      -1.154332       -31.4110
   9   1.0000      -0.891828       -24.2679
  10   1.0000      -0.835085       -22.7238
  11   1.0000      -0.765889       -20.8409
  12   1.0000      -0.667801       -18.1718
  13   1.0000      -0.617989       -16.8163
  14   1.0000      -0.527141       -14.3442
  15   1.0000      -0.483350       -13.1526
  16   1.0000      -0.468890       -12.7592
  17   1.0000      -0.463732       -12.6188
  18   1.0000      -0.391154       -10.6439
  19   1.0000      -0.328713        -8.9447
  20   0.0000       0.025781         0.7015
  21   0.0000       0.033887         0.9221
  22   0.0000       0.036317         0.9882
  23   0.0000       0.038592         1.0502
  24   0.0000       0.051884         1.4118

                 SPIN DOWN ORBITALS
  NO   OCC          E(Eh)            E(eV)
   0   1.0000     -79.935099     -2175.1446
   1   1.0000     -11.239774      -305.8498
   2   1.0000     -11.236657      -305.7650
   3   1.0000     -11.235975      -305.7464
   4   1.0000      -7.476661      -203.4503
   5   1.0000      -5.371476      -146.1653
   6   1.0000      -5.371153      -146.1565
   7   1.0000      -5.357349      -145.7809
   8   1.0000      -1.148736       -31.2587
   9   1.0000      -0.864343       -23.5200
  10   1.0000      -0.829438       -22.5702
  11   1.0000      -0.740456       -20.1488
  12   1.0000      -0.661107       -17.9896
  13   1.0000      -0.611377       -16.6364
  14   1.0000      -0.525017       -14.2865
  15   1.0000      -0.480552       -13.0765
  16   1.0000      -0.459033       -12.4909
  17   1.0000      -0.434988       -11.8366
  18   1.0000      -0.372835       -10.1453
  19   0.0000       0.026035         0.7084
  20   0.0000       0.029334         0.7982
  21   0.0000       0.034018         0.9257
  22   0.0000       0.039024         1.0619
  23   0.0000       0.046425         1.2633

MULLIKEN ATOMIC CHARGES AND SPIN POPULATIONS
--------------------------------------------
   0 C :   -0.639159   -0.133837
   1 C :   -0.720346    0.039703
   2 C :   -0.720346    0.039703
   3 H :    0.415177   -0.000122
   4 H :    0.362816   -0.001062
   5 H :    0.362817   -0.001065
   6 H :    0.415171   -0.000118
   7 P :    0.274592    1.110635
   8 H :    0.367290    0.002496
   9 H :   -0.118012   -0.056332
Sum of atomic charges         :   -0.0000000

LOEWDIN ATOMIC CHARGES AND SPIN POPULATIONS
-------------------------------------------
   0 C :   -0.194319    0.161513
   1 C :    0.491344    0.033074
   2 C :    0.491346    0.033074
   3 H :   -0.275680    0.006210
   4 H :   -0.300979    0.008200
   5 H :   -0.300980    0.008200
   6 H :   -0.275680    0.006211
   7 P :    1.325431    0.573346
   8 H :   -0.385958    0.002976
   9 H :   -0.574524    0.167195

  Mayer bond orders larger than 0.100000
B(  0-C ,  1-C ) :   0.9531 B(  0-C ,  2-C ) :   0.9531 B(  0-C ,  7-P ) :   0.7404
B(  0-C ,  8-H ) :   0.8856 B(  1-C ,  2-C ) :   1.0562 B(  1-C ,  3-H ) :   0.7942
B(  1-C ,  4-H ) :   0.8394 B(  2-C ,  5-H ) :   0.8394 B(  2-C ,  6-H ) :   0.7942
B(  7-P ,  9-H ) :   0.9391

MP2 TOTAL ENERGY:     -458.524126013 Eh
FINAL SINGLE POINT ENERGY      -458.524126013201

DIPOLE MOMENT
-------------
                                X             Y             Z
Electronic contribution:      6.11456      -0.00000       1.00220
Nuclear contribution   :     -6.76704       0.00000      -1.04911
                        -----------------------------------------
Total Dipole Moment    :     -0.65248      -0.00000      -0.04691
                        -----------------------------------------
Magnitude (a.u.)       :      0.65417
Magnitude (Debye)      :      1.66276

Rotational constants in cm-1:     0.535784     0.125198     0.118349
Rotational constants in MHz : 16062.405774  3753.348358  3548.018409

                             ****ORCA TERMINATED NORMALLY****
TOTAL RUN TIME: 0 days 0 hours 44 minutes 3 seconds 874 msec
