                         Program Version 5.0.4 -  RELEASE  -
|  1> ! ri-mp2 aug-cc-pvdz aug-cc-pvdz/c tightscf
|  2> %pal nprocs 16 end
|  3> %maxcore 3800
|  4> %base "DZ_Si-Cl_77_AB"
|  5> %scf
|  6> STABPerform true
|  7> STABRestartUHFifUnstable true
|  8> end
|  9>
| 10> *xyz 0 1
| 11> Si        -0.416643   -0.090664    0.671003
| 12> C         0.707396    1.373493    0.359818
| 13> C         0.739124   -1.401249   -0.008294
| 14> C         1.754980    0.801182   -0.611305
| 15> H         1.184152    1.660632    1.301227
| 16> H         0.201222    2.255437   -0.028643
| 17> C         2.065929   -0.640347   -0.194408
| 18> H         2.659960    1.409683   -0.637468
| 19> H         1.345924    0.799032   -1.625417
| 20> H         0.357545   -1.743928   -0.972303
| 21> H         0.843871   -2.280480    0.625969
| 22> H         2.713301   -1.132529   -0.921401
| 23> H         2.613092   -0.623828    0.752461
| 24> Cl        -2.168212    0.023413   -0.425869
| 25> H        -0.831038   -0.271228    2.076443
| 26> *
| 27>
| 28> $new_job
| 29> ! ri-mp2 aug-cc-pvtz aug-cc-pvtz/c tightscf
| 30> %pal nprocs 16 end
| 31> %maxcore 3800
| 32> %base "TZ_Si-Cl_77_AB"
| 33>
| 34> *xyz 0 1
| 35> Si        -0.416643   -0.090664    0.671003
| 36> C         0.707396    1.373493    0.359818
| 37> C         0.739124   -1.401249   -0.008294
| 38> C         1.754980    0.801182   -0.611305
| 39> H         1.184152    1.660632    1.301227
| 40> H         0.201222    2.255437   -0.028643
| 41> C         2.065929   -0.640347   -0.194408
| 42> H         2.659960    1.409683   -0.637468
| 43> H         1.345924    0.799032   -1.625417
| 44> H         0.357545   -1.743928   -0.972303
| 45> H         0.843871   -2.280480    0.625969
| 46> H         2.713301   -1.132529   -0.921401
| 47> H         2.613092   -0.623828    0.752461
| 48> Cl        -2.168212    0.023413   -0.425869
| 49> H        -0.831038   -0.271228    2.076443
| 50> *
| 51>
| 52> $new_job
| 53> ! ri-mp2 aug-cc-pvqz aug-cc-pvqz/c tightscf
| 54> %pal nprocs 16 end
| 55> %maxcore 3800
| 56> %base "QZ_Si-Cl_77_AB"
| 57>
| 58> *xyz 0 1
| 59> Si        -0.416643   -0.090664    0.671003
| 60> C         0.707396    1.373493    0.359818
| 61> C         0.739124   -1.401249   -0.008294
| 62> C         1.754980    0.801182   -0.611305
| 63> H         1.184152    1.660632    1.301227
| 64> H         0.201222    2.255437   -0.028643
| 65> C         2.065929   -0.640347   -0.194408
| 66> H         2.659960    1.409683   -0.637468
| 67> H         1.345924    0.799032   -1.625417
| 68> H         0.357545   -1.743928   -0.972303
| 69> H         0.843871   -2.280480    0.625969
| 70> H         2.713301   -1.132529   -0.921401
| 71> H         2.613092   -0.623828    0.752461
| 72> Cl        -2.168212    0.023413   -0.425869
| 73> H        -0.831038   -0.271228    2.076443
| 74> *
| 75>
| 76>
| 77>
| 78>
| 79>                          ****END OF INPUT****
 Total Charge           Charge          ....    0
 Multiplicity           Mult            ....    1
 Number of Electrons    NEL             ....   64
MP2 TOTAL ENERGY:     -906.067697995 Eh
FINAL SINGLE POINT ENERGY      -906.067697994677
MP2 TOTAL ENERGY:     -906.318211076 Eh
FINAL SINGLE POINT ENERGY      -906.318211075630

CARTESIAN COORDINATES (ANGSTROEM)
---------------------------------
  Si    -0.416643   -0.090664    0.671003
  C      0.707396    1.373493    0.359818
  C      0.739124   -1.401249   -0.008294
  C      1.754980    0.801182   -0.611305
  H      1.184152    1.660632    1.301227
  H      0.201222    2.255437   -0.028643
  C      2.065929   -0.640347   -0.194408
  H      2.659960    1.409683   -0.637468
  H      1.345924    0.799032   -1.625417
  H      0.357545   -1.743928   -0.972303
  H      0.843871   -2.280480    0.625969
  H      2.713301   -1.132529   -0.921401
  H      2.613092   -0.623828    0.752461
  Cl    -2.168212    0.023413   -0.425869
  H     -0.831038   -0.271228    2.076443

 Multiplicity           Mult            ....    1
 Number of Electrons    NEL             ....   64
 Basis Dimension        Dim             ....  902

ORBITAL ENERGIES
----------------

  NO   OCC          E(Eh)            E(eV)
   0   2.0000    -104.814721     -2852.1536
   1   2.0000     -68.794569     -1871.9954
   2   2.0000     -11.229064      -305.5584
   3   2.0000     -11.228049      -305.5308
   4   2.0000     -11.209942      -305.0380
   5   2.0000     -11.209766      -305.0332
   6   2.0000     -10.542267      -286.8697
   7   2.0000      -8.009060      -217.9376
   8   2.0000      -8.008015      -217.9092
   9   2.0000      -8.008004      -217.9089
  10   2.0000      -6.141070      -167.1070
  11   2.0000      -4.248070      -115.5959
  12   2.0000      -4.246827      -115.5620
  13   2.0000      -4.246589      -115.5556
  14   2.0000      -1.099273       -29.9127
  15   2.0000      -1.078354       -29.3435
  16   2.0000      -0.971042       -26.4234
  17   2.0000      -0.886280       -24.1169
  18   2.0000      -0.783418       -21.3179
  19   2.0000      -0.680523       -18.5180
  20   2.0000      -0.640264       -17.4225
  21   2.0000      -0.623535       -16.9672
  22   2.0000      -0.586426       -15.9575
  23   2.0000      -0.543434       -14.7876
  24   2.0000      -0.501493       -13.6463
  25   2.0000      -0.491791       -13.3823
  26   2.0000      -0.489314       -13.3149
  27   2.0000      -0.482141       -13.1197
  28   2.0000      -0.473531       -12.8854
  29   2.0000      -0.468710       -12.7542
  30   2.0000      -0.427019       -11.6198
  31   2.0000      -0.406279       -11.0554
  32   0.0000       0.022353         0.6083
  33   0.0000       0.031409         0.8547
  34   0.0000       0.031602         0.8599
  35   0.0000       0.034592         0.9413
  36   0.0000       0.047125         1.2823

MULLIKEN ATOMIC CHARGES
-----------------------
   0 Si:    1.307269
   1 C :   -0.722021
   2 C :   -0.715183
   3 C :   -0.419850
   4 H :    0.205648
   5 H :    0.275139
   6 C :   -0.414760
   7 H :    0.302997
   8 H :    0.202204
   9 H :    0.206067
  10 H :    0.307483
  11 H :    0.312774
  12 H :    0.195066
  13 Cl:   -0.744115
  14 H :   -0.298718
Sum of atomic charges:    0.0000000

LOEWDIN ATOMIC CHARGES
----------------------
   0 Si:   -0.256829
   1 C :    0.522288
   2 C :    0.526478
   3 C :    0.451619
   4 H :   -0.328392
   5 H :   -0.331076
   6 C :    0.456583
   7 H :   -0.260445
   8 H :   -0.275129
   9 H :   -0.345753
  10 H :   -0.323464
  11 H :   -0.260902
  12 H :   -0.274762
  13 Cl:    0.940187
  14 H :   -0.240402

  Mayer bond orders larger than 0.100000
B(  0-Si,  1-C ) :   0.8251 B(  0-Si,  2-C ) :   0.8232 B(  0-Si, 13-Cl) :   0.3776
B(  0-Si, 14-H ) :   0.8821 B(  1-C ,  3-C ) :   0.9506 B(  1-C ,  4-H ) :   0.9456
B(  1-C ,  5-H ) :   0.9562 B(  1-C ,  6-C ) :  -0.1249 B(  2-C ,  3-C ) :  -0.1247
B(  2-C ,  6-C ) :   0.9587 B(  2-C ,  9-H ) :   0.9677 B(  2-C , 10-H ) :   0.9277
B(  2-C , 13-Cl) :  -0.1063 B(  3-C ,  6-C ) :   0.9090 B(  3-C ,  7-H ) :   0.8432
B(  3-C ,  8-H ) :   0.9560 B(  6-C , 11-H ) :   0.8282 B(  6-C , 12-H ) :   0.9731

MP2 TOTAL ENERGY:     -906.396796349 Eh
FINAL SINGLE POINT ENERGY      -906.396796349059

DIPOLE MOMENT
-------------
                                X             Y             Z
Electronic contribution:    -13.31701      -0.05976      -0.93307
Nuclear contribution   :     14.16129       0.04463       1.13508
                        -----------------------------------------
Total Dipole Moment    :      0.84428      -0.01513       0.20201
                        -----------------------------------------
Magnitude (a.u.)       :      0.86824
Magnitude (Debye)      :      2.20690

Rotational constants in cm-1:     0.143968     0.050405     0.044733
Rotational constants in MHz :  4316.059551  1511.110838  1341.072098

                             ****ORCA TERMINATED NORMALLY****
TOTAL RUN TIME: 0 days 2 hours 31 minutes 6 seconds 373 msec
