                         Program Version 5.0.4 -  RELEASE  -
|  1> ! ri-mp2 aug-cc-pvdz aug-cc-pvdz/c tightscf
|  2> %pal nprocs 16 end
|  3> %maxcore 3800
|  4> %base "DZ_P-Si_52_AB"
|  5>
|  6> *xyz 0 1
|  7> N         2.460205   -0.572170   -0.078451
|  8> P         1.899588    0.961688    0.763338
|  9> Si        -0.084313    1.145391   -0.339831
| 10> P        -1.066477   -0.888644   -0.160385
| 11> N        -2.751396   -0.165389    0.041218
| 12> O        -3.030093    0.731937   -0.736245
| 13> O        -3.508648   -0.648590    0.846367
| 14> O         1.642842   -1.481572   -0.125728
| 15> O         3.597138   -0.651382   -0.462447
| 16> H         2.675563    1.811430   -0.049844
| 17> H        -0.865635   -1.070298    1.221267
| 18> H         0.113480    1.486721   -1.758005
| 19> H        -0.811265    2.200761    0.384985
| 20> *
| 21>
| 22> $new_job
| 23> ! ri-mp2 aug-cc-pvtz aug-cc-pvtz/c tightscf
| 24> %pal nprocs 16 end
| 25> %maxcore 3800
| 26> %base "TZ_P-Si_52_AB"
| 27>
| 28> *xyz 0 1
| 29> N         2.460205   -0.572170   -0.078451
| 30> P         1.899588    0.961688    0.763338
| 31> Si        -0.084313    1.145391   -0.339831
| 32> P        -1.066477   -0.888644   -0.160385
| 33> N        -2.751396   -0.165389    0.041218
| 34> O        -3.030093    0.731937   -0.736245
| 35> O        -3.508648   -0.648590    0.846367
| 36> O         1.642842   -1.481572   -0.125728
| 37> O         3.597138   -0.651382   -0.462447
| 38> H         2.675563    1.811430   -0.049844
| 39> H        -0.865635   -1.070298    1.221267
| 40> H         0.113480    1.486721   -1.758005
| 41> H        -0.811265    2.200761    0.384985
| 42> *
| 43>
| 44> $new_job
| 45> ! ri-mp2 aug-cc-pvqz aug-cc-pvqz/c tightscf
| 46> %pal nprocs 16 end
| 47> %maxcore 3800
| 48> %base "QZ_P-Si_52_AB"
| 49>
| 50> *xyz 0 1
| 51> N         2.460205   -0.572170   -0.078451
| 52> P         1.899588    0.961688    0.763338
| 53> Si        -0.084313    1.145391   -0.339831
| 54> P        -1.066477   -0.888644   -0.160385
| 55> N        -2.751396   -0.165389    0.041218
| 56> O        -3.030093    0.731937   -0.736245
| 57> O        -3.508648   -0.648590    0.846367
| 58> O         1.642842   -1.481572   -0.125728
| 59> O         3.597138   -0.651382   -0.462447
| 60> H         2.675563    1.811430   -0.049844
| 61> H        -0.865635   -1.070298    1.221267
| 62> H         0.113480    1.486721   -1.758005
| 63> H        -0.811265    2.200761    0.384985
| 64> *
| 65>
| 66>
| 67>
| 68>
| 69>                          ****END OF INPUT****
 Total Charge           Charge          ....    0
 Multiplicity           Mult            ....    1
 Number of Electrons    NEL             ....   94
MP2 TOTAL ENERGY:    -1382.429423306 Eh
FINAL SINGLE POINT ENERGY     -1382.429423306130
MP2 TOTAL ENERGY:    -1382.878237619 Eh
FINAL SINGLE POINT ENERGY     -1382.878237619103

CARTESIAN COORDINATES (ANGSTROEM)
---------------------------------
  N      2.460205   -0.572170   -0.078451
  P      1.899588    0.961688    0.763338
  Si    -0.084313    1.145391   -0.339831
  P     -1.066477   -0.888644   -0.160385
  N     -2.751396   -0.165389    0.041218
  O     -3.030093    0.731937   -0.736245
  O     -3.508648   -0.648590    0.846367
  O      1.642842   -1.481572   -0.125728
  O      3.597138   -0.651382   -0.462447
  H      2.675563    1.811430   -0.049844
  H     -0.865635   -1.070298    1.221267
  H      0.113480    1.486721   -1.758005
  H     -0.811265    2.200761    0.384985

 Multiplicity           Mult            ....    1
 Number of Electrons    NEL             ....   94
 Basis Dimension        Dim             ....  916

ORBITAL ENERGIES
----------------

  NO   OCC          E(Eh)            E(eV)
   0   2.0000     -80.026510     -2177.6321
   1   2.0000     -80.016386     -2177.3566
   2   2.0000     -68.838655     -1873.1950
   3   2.0000     -20.635977      -561.5335
   4   2.0000     -20.626343      -561.2713
   5   2.0000     -20.612864      -560.9045
   6   2.0000     -20.606703      -560.7369
   7   2.0000     -15.863713      -431.6736
   8   2.0000     -15.840006      -431.0285
   9   2.0000      -7.568346      -205.9452
  10   2.0000      -7.557087      -205.6388
  11   2.0000      -6.187168      -168.3614
  12   2.0000      -5.462039      -148.6296
  13   2.0000      -5.460827      -148.5967
  14   2.0000      -5.460230      -148.5804
  15   2.0000      -5.450472      -148.3149
  16   2.0000      -5.449133      -148.2784
  17   2.0000      -5.448598      -148.2639
  18   2.0000      -4.293622      -116.8354
  19   2.0000      -4.292995      -116.8183
  20   2.0000      -4.292571      -116.8068
  21   2.0000      -1.637072       -44.5470
  22   2.0000      -1.615006       -43.9465
  23   2.0000      -1.433845       -39.0169
  24   2.0000      -1.412738       -38.4426
  25   2.0000      -1.030137       -28.0314
  26   2.0000      -1.009940       -27.4819
  27   2.0000      -0.877490       -23.8777
  28   2.0000      -0.839688       -22.8491
  29   2.0000      -0.776983       -21.1428
  30   2.0000      -0.758210       -20.6319
  31   2.0000      -0.744991       -20.2722
  32   2.0000      -0.742169       -20.1954
  33   2.0000      -0.735153       -20.0045
  34   2.0000      -0.721386       -19.6299
  35   2.0000      -0.693017       -18.8579
  36   2.0000      -0.569258       -15.4903
  37   2.0000      -0.553316       -15.0565
  38   2.0000      -0.535201       -14.5636
  39   2.0000      -0.516782       -14.0623
  40   2.0000      -0.499330       -13.5875
  41   2.0000      -0.490648       -13.3512
  42   2.0000      -0.485987       -13.2244
  43   2.0000      -0.467422       -12.7192
  44   2.0000      -0.460917       -12.5422
  45   2.0000      -0.431594       -11.7443
  46   2.0000      -0.411515       -11.1979
  47   0.0000       0.014850         0.4041
  48   0.0000       0.027128         0.7382
  49   0.0000       0.029462         0.8017
  50   0.0000       0.033277         0.9055
  51   0.0000       0.040867         1.1120

MULLIKEN ATOMIC CHARGES
-----------------------
   0 N :    0.611691
   1 P :    0.401566
   2 Si:    0.657257
   3 P :    0.529330
   4 N :    0.596280
   5 O :   -0.622280
   6 O :   -0.577354
   7 O :   -0.634526
   8 O :   -0.564969
   9 H :   -0.024474
  10 H :   -0.026728
  11 H :   -0.160524
  12 H :   -0.185269
Sum of atomic charges:   -0.0000000

LOEWDIN ATOMIC CHARGES
----------------------
   0 N :   -1.140850
   1 P :    0.985913
   2 Si:    0.316381
   3 P :    0.914414
   4 N :   -1.164594
   5 O :    0.405874
   6 O :    0.428642
   7 O :    0.390520
   8 O :    0.447917
   9 H :   -0.515078
  10 H :   -0.497901
  11 H :   -0.281380
  12 H :   -0.289860

  Mayer bond orders larger than 0.100000
B(  0-N ,  1-P ) :   0.5923 B(  0-N ,  7-O ) :   1.2502 B(  0-N ,  8-O ) :   1.3545
B(  1-P ,  2-Si) :   0.8183 B(  1-P ,  9-H ) :   0.9677 B(  2-Si,  3-P ) :   0.8031
B(  2-Si, 11-H ) :   0.7846 B(  2-Si, 12-H ) :   0.7832 B(  3-P ,  4-N ) :   0.6156
B(  3-P , 10-H ) :   0.9316 B(  4-N ,  5-O ) :   1.2430 B(  4-N ,  6-O ) :   1.3352
B(  5-O ,  6-O ) :   0.1485 B(  7-O ,  8-O ) :   0.1452

MP2 TOTAL ENERGY:    -1383.030320377 Eh
FINAL SINGLE POINT ENERGY     -1383.030320376517

DIPOLE MOMENT
-------------
                                X             Y             Z
Electronic contribution:      0.82248      -2.83960       1.03695
Nuclear contribution   :      0.28619       4.03490      -0.72385
                        -----------------------------------------
Total Dipole Moment    :      1.10866       1.19530       0.31310
                        -----------------------------------------
Magnitude (a.u.)       :      1.66010
Magnitude (Debye)      :      4.21963

Rotational constants in cm-1:     0.078640     0.017005     0.015263
Rotational constants in MHz :  2357.567458   509.792855   457.578256

                             ****ORCA TERMINATED NORMALLY****
TOTAL RUN TIME: 0 days 0 hours 18 minutes 3 seconds 339 msec
