                         Program Version 5.0.4 -  RELEASE  -
|  1> ! ri-mp2 aug-cc-pvdz aug-cc-pvdz/c tightscf
|  2> %pal nprocs 16 end
|  3> %maxcore 3800
|  4> %base "DZ_B-B_74_AB"
|  5>
|  6> *xyz 0 1
|  7> B        -0.705500    1.819832    0.436263
|  8> B         0.705498    1.819829   -0.436269
|  9> C         1.919961    0.901934   -0.204652
| 10> C         3.088166    1.042948   -0.965231
| 11> C         1.902227   -0.112905    0.762616
| 12> C         2.983652   -0.945822    0.967587
| 13> C         4.106876   -0.755595    0.188420
| 14> C         4.185222    0.224867   -0.778706
| 15> H         1.014087   -0.254992    1.365607
| 16> H         2.975012   -1.730599    1.710767
| 17> C        -1.919961    0.901933    0.204651
| 18> C        -3.088173    1.042958    0.965218
| 19> C        -1.902220   -0.112920   -0.762603
| 20> C        -2.983645   -0.945839   -0.967572
| 21> C        -4.106875   -0.755599   -0.188418
| 22> C        -4.185228    0.224877    0.778693
| 23> H        -1.014075   -0.255017   -1.365584
| 24> H        -2.974999   -1.730626   -1.710742
| 25> F         5.163142   -1.557361    0.378349
| 26> F        -5.163142   -1.557364   -0.378347
| 27> H         3.128867    1.816800   -1.720633
| 28> H        -3.128879    1.816820    1.720610
| 29> H        -5.089108    0.329494    1.362133
| 30> H         5.089096    0.329474   -1.362155
| 31> H         0.811114    2.623915   -1.322605
| 32> H        -0.811120    2.623928    1.322589
| 33> *
| 34>
| 35> $new_job
| 36> ! ri-mp2 aug-cc-pvtz aug-cc-pvtz/c tightscf
| 37> %pal nprocs 16 end
| 38> %maxcore 3800
| 39> %base "TZ_B-B_74_AB"
| 40>
| 41> *xyz 0 1
| 42> B        -0.705500    1.819832    0.436263
| 43> B         0.705498    1.819829   -0.436269
| 44> C         1.919961    0.901934   -0.204652
| 45> C         3.088166    1.042948   -0.965231
| 46> C         1.902227   -0.112905    0.762616
| 47> C         2.983652   -0.945822    0.967587
| 48> C         4.106876   -0.755595    0.188420
| 49> C         4.185222    0.224867   -0.778706
| 50> H         1.014087   -0.254992    1.365607
| 51> H         2.975012   -1.730599    1.710767
| 52> C        -1.919961    0.901933    0.204651
| 53> C        -3.088173    1.042958    0.965218
| 54> C        -1.902220   -0.112920   -0.762603
| 55> C        -2.983645   -0.945839   -0.967572
| 56> C        -4.106875   -0.755599   -0.188418
| 57> C        -4.185228    0.224877    0.778693
| 58> H        -1.014075   -0.255017   -1.365584
| 59> H        -2.974999   -1.730626   -1.710742
| 60> F         5.163142   -1.557361    0.378349
| 61> F        -5.163142   -1.557364   -0.378347
| 62> H         3.128867    1.816800   -1.720633
| 63> H        -3.128879    1.816820    1.720610
| 64> H        -5.089108    0.329494    1.362133
| 65> H         5.089096    0.329474   -1.362155
| 66> H         0.811114    2.623915   -1.322605
| 67> H        -0.811120    2.623928    1.322589
| 68> *
| 69>
| 70> $new_job
| 71> ! ri-mp2 aug-cc-pvqz aug-cc-pvqz/c tightscf
| 72> %pal nprocs 16 end
| 73> %maxcore 3800
| 74> %base "QZ_B-B_74_AB"
| 75>
| 76> *xyz 0 1
| 77> B        -0.705500    1.819832    0.436263
| 78> B         0.705498    1.819829   -0.436269
| 79> C         1.919961    0.901934   -0.204652
| 80> C         3.088166    1.042948   -0.965231
| 81> C         1.902227   -0.112905    0.762616
| 82> C         2.983652   -0.945822    0.967587
| 83> C         4.106876   -0.755595    0.188420
| 84> C         4.185222    0.224867   -0.778706
| 85> H         1.014087   -0.254992    1.365607
| 86> H         2.975012   -1.730599    1.710767
| 87> C        -1.919961    0.901933    0.204651
| 88> C        -3.088173    1.042958    0.965218
| 89> C        -1.902220   -0.112920   -0.762603
| 90> C        -2.983645   -0.945839   -0.967572
| 91> C        -4.106875   -0.755599   -0.188418
| 92> C        -4.185228    0.224877    0.778693
| 93> H        -1.014075   -0.255017   -1.365584
| 94> H        -2.974999   -1.730626   -1.710742
| 95> F         5.163142   -1.557361    0.378349
| 96> F        -5.163142   -1.557364   -0.378347
| 97> H         3.128867    1.816800   -1.720633
| 98> H        -3.128879    1.816820    1.720610
| 99> H        -5.089108    0.329494    1.362133
|100> H         5.089096    0.329474   -1.362155
|101> H         0.811114    2.623915   -1.322605
|102> H        -0.811120    2.623928    1.322589
|103> *
|104>
|105>
|106>
|107>
|108>                          ****END OF INPUT****
 Total Charge           Charge          ....    0
 Multiplicity           Mult            ....    1
 Number of Electrons    NEL             ....  110
MP2 TOTAL ENERGY:     -710.702585874 Eh
FINAL SINGLE POINT ENERGY      -710.702585873623
MP2 TOTAL ENERGY:     -711.307426585 Eh
FINAL SINGLE POINT ENERGY      -711.307426584938

CARTESIAN COORDINATES (ANGSTROEM)
---------------------------------
  B     -0.705500    1.819832    0.436263
  B      0.705498    1.819829   -0.436269
  C      1.919961    0.901934   -0.204652
  C      3.088166    1.042948   -0.965231
  C      1.902227   -0.112905    0.762616
  C      2.983652   -0.945822    0.967587
  C      4.106876   -0.755595    0.188420
  C      4.185222    0.224867   -0.778706
  H      1.014087   -0.254992    1.365607
  H      2.975012   -1.730599    1.710767
  C     -1.919961    0.901933    0.204651
  C     -3.088173    1.042958    0.965218
  C     -1.902220   -0.112920   -0.762603
  C     -2.983645   -0.945839   -0.967572
  C     -4.106875   -0.755599   -0.188418
  C     -4.185228    0.224877    0.778693
  H     -1.014075   -0.255017   -1.365584
  H     -2.974999   -1.730626   -1.710742
  F      5.163142   -1.557361    0.378349
  F     -5.163142   -1.557364   -0.378347
  H      3.128867    1.816800   -1.720633
  H     -3.128879    1.816820    1.720610
  H     -5.089108    0.329494    1.362133
  H      5.089096    0.329474   -1.362155
  H      0.811114    2.623915   -1.322605
  H     -0.811120    2.623928    1.322589

 Multiplicity           Mult            ....    1
 Number of Electrons    NEL             ....  110
 Basis Dimension        Dim             .... 1740

ORBITAL ENERGIES
----------------

  NO   OCC          E(Eh)            E(eV)
   0   2.0000     -26.317129      -716.1255
   1   2.0000     -26.317129      -716.1255
   2   2.0000     -11.341720      -308.6239
   3   2.0000     -11.341719      -308.6239
   4   2.0000     -11.258120      -306.3490
   5   2.0000     -11.258120      -306.3490
   6   2.0000     -11.256728      -306.3111
   7   2.0000     -11.256727      -306.3111
   8   2.0000     -11.244265      -305.9720
   9   2.0000     -11.244265      -305.9720
  10   2.0000     -11.243724      -305.9573
  11   2.0000     -11.243724      -305.9573
  12   2.0000     -11.218848      -305.2804
  13   2.0000     -11.218847      -305.2804
  14   2.0000      -7.574185      -206.1041
  15   2.0000      -7.573288      -206.0796
  16   2.0000      -1.639448       -44.6116
  17   2.0000      -1.639448       -44.6116
  18   2.0000      -1.173924       -31.9441
  19   2.0000      -1.173319       -31.9276
  20   2.0000      -1.042631       -28.3714
  21   2.0000      -1.042265       -28.3615
  22   2.0000      -1.030602       -28.0441
  23   2.0000      -1.027234       -27.9525
  24   2.0000      -0.864707       -23.5299
  25   2.0000      -0.863280       -23.4910
  26   2.0000      -0.856280       -23.3006
  27   2.0000      -0.850630       -23.1468
  28   2.0000      -0.757957       -20.6251
  29   2.0000      -0.755957       -20.5706
  30   2.0000      -0.737257       -20.0618
  31   2.0000      -0.712759       -19.3952
  32   2.0000      -0.712669       -19.3927
  33   2.0000      -0.705113       -19.1871
  34   2.0000      -0.705109       -19.1870
  35   2.0000      -0.691675       -18.8214
  36   2.0000      -0.643936       -17.5224
  37   2.0000      -0.629682       -17.1345
  38   2.0000      -0.611508       -16.6400
  39   2.0000      -0.611126       -16.6296
  40   2.0000      -0.609702       -16.5908
  41   2.0000      -0.608591       -16.5606
  42   2.0000      -0.607928       -16.5426
  43   2.0000      -0.564723       -15.3669
  44   2.0000      -0.518272       -14.1029
  45   2.0000      -0.517336       -14.0774
  46   2.0000      -0.510394       -13.8885
  47   2.0000      -0.509042       -13.8517
  48   2.0000      -0.480550       -13.0764
  49   2.0000      -0.474909       -12.9229
  50   2.0000      -0.416321       -11.3287
  51   2.0000      -0.360925        -9.8213
  52   2.0000      -0.359164        -9.7733
  53   2.0000      -0.351591        -9.5673
  54   2.0000      -0.350537        -9.5386
  55   0.0000       0.019201         0.5225
  56   0.0000       0.024344         0.6624
  57   0.0000       0.027631         0.7519
  58   0.0000       0.028574         0.7775
  59   0.0000       0.034914         0.9501

MULLIKEN ATOMIC CHARGES
-----------------------
   0 B :    0.849592
   1 B :    0.849683
   2 C :    0.081337
   3 C :   -0.436761
   4 C :   -0.430402
   5 C :   -0.480512
   6 C :    1.100205
   7 C :   -0.561154
   8 H :    0.251482
   9 H :    0.340512
  10 C :    0.081430
  11 C :   -0.436628
  12 C :   -0.430532
  13 C :   -0.480533
  14 C :    1.100209
  15 C :   -0.561224
  16 H :    0.251461
  17 H :    0.340498
  18 F :   -0.786109
  19 F :   -0.786101
  20 H :    0.210908
  21 H :    0.210953
  22 H :    0.340510
  23 H :    0.340510
  24 H :   -0.479674
  25 H :   -0.479658
Sum of atomic charges:    0.0000000

LOEWDIN ATOMIC CHARGES
----------------------
   0 B :   -0.004152
   1 B :   -0.004152
   2 C :    0.038971
   3 C :    0.316885
   4 C :    0.321642
   5 C :    0.329052
   6 C :   -0.686772
   7 C :    0.323534
   8 H :   -0.309894
   9 H :   -0.325337
  10 C :    0.038972
  11 C :    0.316884
  12 C :    0.321643
  13 C :    0.329051
  14 C :   -0.686773
  15 C :    0.323533
  16 H :   -0.309894
  17 H :   -0.325336
  18 F :    0.794255
  19 F :    0.794255
  20 H :   -0.319620
  21 H :   -0.319619
  22 H :   -0.327114
  23 H :   -0.327116
  24 H :   -0.151449
  25 H :   -0.151449

  Mayer bond orders larger than 0.100000
B(  0-B ,  1-B ) :   1.2521 B(  0-B ,  2-C ) :  -0.1150 B(  0-B ,  4-C ) :   0.1031
B(  0-B , 10-C ) :   0.5714 B(  0-B , 25-H ) :   0.5964 B(  1-B ,  2-C ) :   0.5716
B(  1-B , 10-C ) :  -0.1151 B(  1-B , 12-C ) :   0.1032 B(  1-B , 24-H ) :   0.5963
B(  2-C ,  3-C ) :   0.9212 B(  2-C ,  4-C ) :   1.1100 B(  2-C ,  5-C ) :  -0.3216
B(  2-C ,  7-C ) :  -0.3384 B(  2-C , 24-H ) :   0.1411 B(  3-C ,  5-C ) :   0.1140
B(  3-C ,  7-C ) :   1.3297 B(  3-C , 20-H ) :   1.0466 B(  3-C , 23-H ) :  -0.1085
B(  4-C ,  5-C ) :   1.2197 B(  4-C ,  6-C ) :  -0.1516 B(  4-C ,  8-H ) :   0.9501
B(  4-C ,  9-H ) :  -0.1209 B(  5-C ,  6-C ) :   1.3906 B(  5-C ,  7-C ) :   0.1076
B(  5-C ,  9-H ) :   0.9306 B(  6-C ,  7-C ) :   1.3779 B(  6-C , 18-F ) :  -0.2279
B(  7-C , 18-F ) :   0.1293 B(  7-C , 23-H ) :   0.9292 B( 10-C , 11-C ) :   0.9212
B( 10-C , 12-C ) :   1.1100 B( 10-C , 13-C ) :  -0.3216 B( 10-C , 15-C ) :  -0.3384
B( 10-C , 25-H ) :   0.1412 B( 11-C , 13-C ) :   0.1140 B( 11-C , 15-C ) :   1.3296
B( 11-C , 21-H ) :   1.0466 B( 11-C , 22-H ) :  -0.1085 B( 12-C , 13-C ) :   1.2197
B( 12-C , 14-C ) :  -0.1516 B( 12-C , 16-H ) :   0.9501 B( 12-C , 17-H ) :  -0.1209
B( 13-C , 14-C ) :   1.3906 B( 13-C , 15-C ) :   0.1076 B( 13-C , 17-H ) :   0.9306
B( 14-C , 15-C ) :   1.3779 B( 14-C , 19-F ) :  -0.2279 B( 15-C , 19-F ) :   0.1294
B( 15-C , 22-H ) :   0.9293

MP2 TOTAL ENERGY:     -711.502490320 Eh
FINAL SINGLE POINT ENERGY      -711.502490319762

DIPOLE MOMENT
-------------
                                X             Y             Z
Electronic contribution:      0.00001      -5.30611       0.00001
Nuclear contribution   :     -0.00000       5.51900      -0.00001
                        -----------------------------------------
Total Dipole Moment    :      0.00000       0.21290       0.00000
                        -----------------------------------------
Magnitude (a.u.)       :      0.21290
Magnitude (Debye)      :      0.54114

Rotational constants in cm-1:     0.044302     0.006316     0.005948
Rotational constants in MHz :  1328.127817   189.357522   178.311837

                             ****ORCA TERMINATED NORMALLY****
TOTAL RUN TIME: 0 days 1 hours 36 minutes 34 seconds 67 msec
