                         Program Version 5.0.4 -  RELEASE  -
|  1> ! ri-mp2 aug-cc-pvdz aug-cc-pvdz/c tightscf
|  2> %pal nprocs 16 end
|  3> %maxcore 3800
|  4> %base "DZ_S-F_58_AB"
|  5> %scf
|  6> STABPerform true
|  7> STABRestartUHFifUnstable true
|  8> end
|  9>
| 10> *xyz 0 1
| 11> F         2.113238    0.751814   -0.000016
| 12> S         1.176255   -0.569154    0.000015
| 13> C        -0.375906    0.234162   -0.000008
| 14> N        -1.426091   -0.441192    0.000006
| 15> H        -0.303644    1.329104   -0.000027
| 16> C        -2.695088    0.245417   -0.000007
| 17> H        -3.266725   -0.057661    0.877759
| 18> H        -3.266725   -0.057696   -0.877761
| 19> H        -2.593515    1.337261   -0.000028
| 20> *
| 21>
| 22> $new_job
| 23> ! ri-mp2 aug-cc-pvtz aug-cc-pvtz/c tightscf
| 24> %pal nprocs 16 end
| 25> %maxcore 3800
| 26> %base "TZ_S-F_58_AB"
| 27>
| 28> *xyz 0 1
| 29> F         2.113238    0.751814   -0.000016
| 30> S         1.176255   -0.569154    0.000015
| 31> C        -0.375906    0.234162   -0.000008
| 32> N        -1.426091   -0.441192    0.000006
| 33> H        -0.303644    1.329104   -0.000027
| 34> C        -2.695088    0.245417   -0.000007
| 35> H        -3.266725   -0.057661    0.877759
| 36> H        -3.266725   -0.057696   -0.877761
| 37> H        -2.593515    1.337261   -0.000028
| 38> *
| 39>
| 40> $new_job
| 41> ! ri-mp2 aug-cc-pvqz aug-cc-pvqz/c tightscf
| 42> %pal nprocs 16 end
| 43> %maxcore 3800
| 44> %base "QZ_S-F_58_AB"
| 45>
| 46> *xyz 0 1
| 47> F         2.113238    0.751814   -0.000016
| 48> S         1.176255   -0.569154    0.000015
| 49> C        -0.375906    0.234162   -0.000008
| 50> N        -1.426091   -0.441192    0.000006
| 51> H        -0.303644    1.329104   -0.000027
| 52> C        -2.695088    0.245417   -0.000007
| 53> H        -3.266725   -0.057661    0.877759
| 54> H        -3.266725   -0.057696   -0.877761
| 55> H        -2.593515    1.337261   -0.000028
| 56> *
| 57>
| 58>
| 59>
| 60>
| 61>                          ****END OF INPUT****
 Total Charge           Charge          ....    0
 Multiplicity           Mult            ....    1
 Number of Electrons    NEL             ....   48
MP2 TOTAL ENERGY:     -630.249216085 Eh
FINAL SINGLE POINT ENERGY      -630.249216084637
MP2 TOTAL ENERGY:     -630.505058700 Eh
FINAL SINGLE POINT ENERGY      -630.505058700450

CARTESIAN COORDINATES (ANGSTROEM)
---------------------------------
  F      2.113238    0.751814   -0.000016
  S      1.176255   -0.569154    0.000015
  C     -0.375906    0.234162   -0.000008
  N     -1.426091   -0.441192    0.000006
  H     -0.303644    1.329104   -0.000027
  C     -2.695088    0.245417   -0.000007
  H     -3.266725   -0.057661    0.877759
  H     -3.266725   -0.057696   -0.877761
  H     -2.593515    1.337261   -0.000028

 Multiplicity           Mult            ....    1
 Number of Electrons    NEL             ....   48
 Basis Dimension        Dim             ....  588

ORBITAL ENERGIES
----------------

  NO   OCC          E(Eh)            E(eV)
   0   2.0000     -92.045156     -2504.6760
   1   2.0000     -26.319709      -716.1957
   2   2.0000     -15.575302      -423.8255
   3   2.0000     -11.322007      -308.0875
   4   2.0000     -11.262472      -306.4675
   5   2.0000      -9.040153      -245.9951
   6   2.0000      -6.721660      -182.9057
   7   2.0000      -6.719721      -182.8529
   8   2.0000      -6.718438      -182.8180
   9   2.0000      -1.620189       -44.0876
  10   2.0000      -1.263619       -34.3848
  11   2.0000      -1.038036       -28.2464
  12   2.0000      -0.939065       -25.5533
  13   2.0000      -0.801836       -21.8191
  14   2.0000      -0.709249       -19.2997
  15   2.0000      -0.702430       -19.1141
  16   2.0000      -0.696517       -18.9532
  17   2.0000      -0.648358       -17.6427
  18   2.0000      -0.610147       -16.6029
  19   2.0000      -0.596184       -16.2230
  20   2.0000      -0.512119       -13.9355
  21   2.0000      -0.487512       -13.2659
  22   2.0000      -0.424123       -11.5410
  23   2.0000      -0.362487        -9.8638
  24   0.0000       0.025010         0.6806
  25   0.0000       0.036681         0.9981
  26   0.0000       0.040960         1.1146
  27   0.0000       0.045041         1.2256
  28   0.0000       0.058760         1.5989

MULLIKEN ATOMIC CHARGES
-----------------------
   0 F :   -0.630842
   1 S :    0.763435
   2 C :   -0.317121
   3 N :   -0.414111
   4 H :    0.417582
   5 C :   -0.622970
   6 H :    0.279671
   7 H :    0.279671
   8 H :    0.244686
Sum of atomic charges:   -0.0000000

LOEWDIN ATOMIC CHARGES
----------------------
   0 F :    0.074381
   1 S :    0.680717
   2 C :   -0.436451
   3 N :    0.446025
   4 H :   -0.430067
   5 C :    0.644976
   6 H :   -0.322169
   7 H :   -0.322169
   8 H :   -0.335243

  Mayer bond orders larger than 0.100000
B(  0-F ,  1-S ) :   0.5809 B(  1-S ,  2-C ) :   0.9236 B(  2-C ,  3-N ) :   1.7979
B(  2-C ,  4-H ) :   0.7708 B(  3-N ,  5-C ) :   0.8904 B(  5-C ,  6-H ) :   0.9263
B(  5-C ,  7-H ) :   0.9263 B(  5-C ,  8-H ) :   0.9280

MP2 TOTAL ENERGY:     -630.588479322 Eh
FINAL SINGLE POINT ENERGY      -630.588479321912

DIPOLE MOMENT
-------------
                                X             Y             Z
Electronic contribution:     10.54622      -1.27990       0.00003
Nuclear contribution   :    -11.19333       1.76531      -0.00004
                        -----------------------------------------
Total Dipole Moment    :     -0.64710       0.48540      -0.00001
                        -----------------------------------------
Magnitude (a.u.)       :      0.80893
Magnitude (Debye)      :      2.05613

Rotational constants in cm-1:     0.557681     0.061243     0.055750
Rotational constants in MHz : 16718.843876  1836.023101  1671.342727

                             ****ORCA TERMINATED NORMALLY****
TOTAL RUN TIME: 0 days 0 hours 14 minutes 39 seconds 311 msec
