                         Program Version 5.0.4 -  RELEASE  -
|  1> ! ri-mp2 aug-cc-pvdz aug-cc-pvdz/c tightscf
|  2> %pal nprocs 16 end
|  3> %maxcore 3800
|  4> %base "DZ_B-Cl_49_AB"
|  5> %scf
|  6> STABPerform true
|  7> STABRestartUHFifUnstable true
|  8> end
|  9>
| 10> *xyz 0 1
| 11> Cl        -1.271216    1.687607    0.556239
| 12> B        -0.830206    0.183517   -0.181214
| 13> Cl        -2.069670   -0.965921   -0.602984
| 14> C         0.680383   -0.190759   -0.527019
| 15> O         1.071671   -1.428713    0.018994
| 16> O         1.527391    0.852205   -0.157582
| 17> C         0.977242   -1.497841    1.427861
| 18> H         1.562987   -0.710981    1.906868
| 19> H         1.364823   -2.469786    1.722347
| 20> H        -0.063226   -1.421162    1.763953
| 21> C         2.840663    0.729935   -0.664708
| 22> H         3.384509    1.618751   -0.354621
| 23> H         2.829370    0.676165   -1.758647
| 24> H         3.339199   -0.159063   -0.274274
| 25> H         0.746197   -0.356117   -1.612990
| 26> *
| 27>
| 28> $new_job
| 29> ! ri-mp2 aug-cc-pvtz aug-cc-pvtz/c tightscf
| 30> %pal nprocs 16 end
| 31> %maxcore 3800
| 32> %base "TZ_B-Cl_49_AB"
| 33>
| 34> *xyz 0 1
| 35> Cl        -1.271216    1.687607    0.556239
| 36> B        -0.830206    0.183517   -0.181214
| 37> Cl        -2.069670   -0.965921   -0.602984
| 38> C         0.680383   -0.190759   -0.527019
| 39> O         1.071671   -1.428713    0.018994
| 40> O         1.527391    0.852205   -0.157582
| 41> C         0.977242   -1.497841    1.427861
| 42> H         1.562987   -0.710981    1.906868
| 43> H         1.364823   -2.469786    1.722347
| 44> H        -0.063226   -1.421162    1.763953
| 45> C         2.840663    0.729935   -0.664708
| 46> H         3.384509    1.618751   -0.354621
| 47> H         2.829370    0.676165   -1.758647
| 48> H         3.339199   -0.159063   -0.274274
| 49> H         0.746197   -0.356117   -1.612990
| 50> *
| 51>
| 52> $new_job
| 53> ! ri-mp2 aug-cc-pvqz aug-cc-pvqz/c tightscf
| 54> %pal nprocs 16 end
| 55> %maxcore 3800
| 56> %base "QZ_B-Cl_49_AB"
| 57>
| 58> *xyz 0 1
| 59> Cl        -1.271216    1.687607    0.556239
| 60> B        -0.830206    0.183517   -0.181214
| 61> Cl        -2.069670   -0.965921   -0.602984
| 62> C         0.680383   -0.190759   -0.527019
| 63> O         1.071671   -1.428713    0.018994
| 64> O         1.527391    0.852205   -0.157582
| 65> C         0.977242   -1.497841    1.427861
| 66> H         1.562987   -0.710981    1.906868
| 67> H         1.364823   -2.469786    1.722347
| 68> H        -0.063226   -1.421162    1.763953
| 69> C         2.840663    0.729935   -0.664708
| 70> H         3.384509    1.618751   -0.354621
| 71> H         2.829370    0.676165   -1.758647
| 72> H         3.339199   -0.159063   -0.274274
| 73> H         0.746197   -0.356117   -1.612990
| 74> *
| 75>
| 76>
| 77>
| 78>
| 79>                          ****END OF INPUT****
 Total Charge           Charge          ....    0
 Multiplicity           Mult            ....    1
 Number of Electrons    NEL             ....   80
MP2 TOTAL ENERGY:    -1212.403044374 Eh
FINAL SINGLE POINT ENERGY     -1212.403044373853
MP2 TOTAL ENERGY:    -1212.783319133 Eh
FINAL SINGLE POINT ENERGY     -1212.783319133000

CARTESIAN COORDINATES (ANGSTROEM)
---------------------------------
  Cl    -1.271216    1.687607    0.556239
  B     -0.830206    0.183517   -0.181214
  Cl    -2.069670   -0.965921   -0.602984
  C      0.680383   -0.190759   -0.527019
  O      1.071671   -1.428713    0.018994
  O      1.527391    0.852205   -0.157582
  C      0.977242   -1.497841    1.427861
  H      1.562987   -0.710981    1.906868
  H      1.364823   -2.469786    1.722347
  H     -0.063226   -1.421162    1.763953
  C      2.840663    0.729935   -0.664708
  H      3.384509    1.618751   -0.354621
  H      2.829370    0.676165   -1.758647
  H      3.339199   -0.159063   -0.274274
  H      0.746197   -0.356117   -1.612990

 Multiplicity           Mult            ....    1
 Number of Electrons    NEL             ....   80
 Basis Dimension        Dim             ....  970

ORBITAL ENERGIES
----------------

  NO   OCC          E(Eh)            E(eV)
   0   2.0000    -104.844046     -2852.9515
   1   2.0000    -104.843464     -2852.9357
   2   2.0000     -20.570333      -559.7472
   3   2.0000     -20.569468      -559.7237
   4   2.0000     -11.329686      -308.2964
   5   2.0000     -11.277802      -306.8846
   6   2.0000     -11.275597      -306.8246
   7   2.0000     -10.571974      -287.6780
   8   2.0000     -10.571354      -287.6612
   9   2.0000      -8.038807      -218.7471
  10   2.0000      -8.038182      -218.7300
  11   2.0000      -8.037747      -218.7182
  12   2.0000      -8.037458      -218.7103
  13   2.0000      -8.037130      -218.7014
  14   2.0000      -8.036791      -218.6922
  15   2.0000      -7.712246      -209.8609
  16   2.0000      -1.429355       -38.8947
  17   2.0000      -1.358310       -36.9615
  18   2.0000      -1.149166       -31.2704
  19   2.0000      -1.104103       -30.0442
  20   2.0000      -0.993558       -27.0361
  21   2.0000      -0.942660       -25.6511
  22   2.0000      -0.853687       -23.2300
  23   2.0000      -0.722839       -19.6694
  24   2.0000      -0.707204       -19.2440
  25   2.0000      -0.690462       -18.7884
  26   2.0000      -0.650085       -17.6897
  27   2.0000      -0.624703       -16.9990
  28   2.0000      -0.610564       -16.6143
  29   2.0000      -0.592470       -16.1219
  30   2.0000      -0.566104       -15.4045
  31   2.0000      -0.545407       -14.8413
  32   2.0000      -0.533673       -14.5220
  33   2.0000      -0.516234       -14.0475
  34   2.0000      -0.492521       -13.4022
  35   2.0000      -0.470938       -12.8149
  36   2.0000      -0.466063       -12.6822
  37   2.0000      -0.455516       -12.3952
  38   2.0000      -0.448743       -12.2109
  39   2.0000      -0.431917       -11.7531
  40   0.0000       0.023097         0.6285
  41   0.0000       0.031369         0.8536
  42   0.0000       0.033286         0.9058
  43   0.0000       0.034070         0.9271
  44   0.0000       0.047426         1.2905

MULLIKEN ATOMIC CHARGES
-----------------------
   0 Cl:   -0.267632
   1 B :    0.665469
   2 Cl:   -0.285507
   3 C :    0.871702
   4 O :   -0.869362
   5 O :   -0.909856
   6 C :   -0.670720
   7 H :    0.269712
   8 H :    0.439794
   9 H :    0.247743
  10 C :   -0.695936
  11 H :    0.380968
  12 H :    0.276806
  13 H :    0.301412
  14 H :    0.245408
Sum of atomic charges:   -0.0000000

LOEWDIN ATOMIC CHARGES
----------------------
   0 Cl:    1.316914
   1 B :   -2.423162
   2 Cl:    1.318431
   3 C :   -0.728689
   4 O :    0.852472
   5 O :    0.822038
   6 C :    0.547354
   7 H :   -0.308710
   8 H :   -0.311891
   9 H :   -0.333681
  10 C :    0.578534
  11 H :   -0.318244
  12 H :   -0.305921
  13 H :   -0.311743
  14 H :   -0.393702

  Mayer bond orders larger than 0.100000
B(  0-Cl,  1-B ) :   0.9512 B(  1-B ,  2-Cl) :   0.9291 B(  1-B ,  3-C ) :   0.9518
B(  3-C ,  4-O ) :   0.5528 B(  3-C ,  5-O ) :   0.5052 B(  3-C , 10-C ) :  -0.1289
B(  3-C , 14-H ) :   0.9198 B(  4-O ,  6-C ) :   0.8470 B(  5-O , 10-C ) :   0.9509
B(  6-C ,  7-H ) :   0.9175 B(  6-C ,  8-H ) :   0.8412 B(  6-C ,  9-H ) :   0.9111
B( 10-C , 11-H ) :   0.8906 B( 10-C , 12-H ) :   0.9192 B( 10-C , 13-H ) :   0.8995

MP2 TOTAL ENERGY:    -1212.906822965 Eh
FINAL SINGLE POINT ENERGY     -1212.906822964956

DIPOLE MOMENT
-------------
                                X             Y             Z
Electronic contribution:    -17.27564       3.77932      -1.52209
Nuclear contribution   :     17.87342      -3.84389       1.53630
                        -----------------------------------------
Total Dipole Moment    :      0.59778      -0.06456       0.01421
                        -----------------------------------------
Magnitude (a.u.)       :      0.60143
Magnitude (Debye)      :      1.52871

Rotational constants in cm-1:     0.056621     0.034232     0.026134
Rotational constants in MHz :  1697.452045  1026.245393   783.478670

                             ****ORCA TERMINATED NORMALLY****
TOTAL RUN TIME: 0 days 2 hours 23 minutes 4 seconds 510 msec
