                         Program Version 5.0.4 -  RELEASE  -
|  1> ! ri-mp2 aug-cc-pvdz aug-cc-pvdz/c tightscf
|  2> %pal nprocs 16 end
|  3> %maxcore 3800
|  4> %base "DZ_S-Cl_39_AB"
|  5> %scf
|  6> STABPerform true
|  7> STABRestartUHFifUnstable true
|  8> end
|  9>
| 10> *xyz 0 1
| 11> Cl         1.494369   -0.535482    0.000000
| 12> S         0.029662    0.889703   -0.000001
| 13> C        -1.359424   -0.032787    0.000000
| 14> C        -2.400112   -0.629310    0.000001
| 15> H        -3.321644   -1.159475    0.000000
| 16> *
| 17>
| 18> $new_job
| 19> ! ri-mp2 aug-cc-pvtz aug-cc-pvtz/c tightscf
| 20> %pal nprocs 16 end
| 21> %maxcore 3800
| 22> %base "TZ_S-Cl_39_AB"
| 23>
| 24> *xyz 0 1
| 25> Cl         1.494369   -0.535482    0.000000
| 26> S         0.029662    0.889703   -0.000001
| 27> C        -1.359424   -0.032787    0.000000
| 28> C        -2.400112   -0.629310    0.000001
| 29> H        -3.321644   -1.159475    0.000000
| 30> *
| 31>
| 32> $new_job
| 33> ! ri-mp2 aug-cc-pvqz aug-cc-pvqz/c tightscf
| 34> %pal nprocs 16 end
| 35> %maxcore 3800
| 36> %base "QZ_S-Cl_39_AB"
| 37>
| 38> *xyz 0 1
| 39> Cl         1.494369   -0.535482    0.000000
| 40> S         0.029662    0.889703   -0.000001
| 41> C        -1.359424   -0.032787    0.000000
| 42> C        -2.400112   -0.629310    0.000001
| 43> H        -3.321644   -1.159475    0.000000
| 44> *
| 45>
| 46>
| 47>
| 48>
| 49>                          ****END OF INPUT****
 Total Charge           Charge          ....    0
 Multiplicity           Mult            ....    1
 Number of Electrons    NEL             ....   46
MP2 TOTAL ENERGY:     -933.809528261 Eh
FINAL SINGLE POINT ENERGY      -933.809528261463
MP2 TOTAL ENERGY:     -933.994472798 Eh
FINAL SINGLE POINT ENERGY      -933.994472797713

CARTESIAN COORDINATES (ANGSTROEM)
---------------------------------
  Cl     1.494369   -0.535482    0.000000
  S      0.029662    0.889703   -0.000001
  C     -1.359424   -0.032787    0.000000
  C     -2.400112   -0.629310    0.000001
  H     -3.321644   -1.159475    0.000000

 Multiplicity           Mult            ....    1
 Number of Electrons    NEL             ....   46
 Basis Dimension        Dim             ....  374

ORBITAL ENERGIES
----------------

  NO   OCC          E(Eh)            E(eV)
   0   2.0000    -104.865102     -2853.5245
   1   2.0000     -92.046893     -2504.7233
   2   2.0000     -11.274433      -306.7929
   3   2.0000     -11.261489      -306.4407
   4   2.0000     -10.589250      -288.1481
   5   2.0000      -9.043572      -246.0881
   6   2.0000      -8.056233      -219.2213
   7   2.0000      -8.054190      -219.1656
   8   2.0000      -8.053998      -219.1604
   9   2.0000      -6.724853      -182.9925
  10   2.0000      -6.723617      -182.9589
  11   2.0000      -6.722209      -182.9206
  12   2.0000      -1.167358       -31.7654
  13   2.0000      -1.069390       -29.0996
  14   2.0000      -0.959780       -26.1170
  15   2.0000      -0.746555       -20.3148
  16   2.0000      -0.651258       -17.7216
  17   2.0000      -0.561921       -15.2906
  18   2.0000      -0.544649       -14.8207
  19   2.0000      -0.471486       -12.8298
  20   2.0000      -0.465156       -12.6575
  21   2.0000      -0.423864       -11.5339
  22   2.0000      -0.355427        -9.6717
  23   0.0000       0.024751         0.6735
  24   0.0000       0.035857         0.9757
  25   0.0000       0.047981         1.3056
  26   0.0000       0.058325         1.5871
  27   0.0000       0.068329         1.8593

MULLIKEN ATOMIC CHARGES
-----------------------
   0 Cl:   -0.238386
   1 S :    0.569744
   2 C :   -0.537761
   3 C :   -0.355197
   4 H :    0.561600
Sum of atomic charges:    0.0000000

LOEWDIN ATOMIC CHARGES
----------------------
   0 Cl:    0.455885
   1 S :    0.307670
   2 C :   -0.696289
   3 C :    0.399558
   4 H :   -0.466823

  Mayer bond orders larger than 0.100000
B(  0-Cl,  1-S ) :   1.0188 B(  1-S ,  2-C ) :   0.8740 B(  2-C ,  3-C ) :   2.5500
B(  3-C ,  4-H ) :   0.7180

MP2 TOTAL ENERGY:     -934.054217065 Eh
FINAL SINGLE POINT ENERGY      -934.054217065325

DIPOLE MOMENT
-------------
                                X             Y             Z
Electronic contribution:      4.52615       0.33526      -0.00000
Nuclear contribution   :     -5.09751      -0.39286      -0.00000
                        -----------------------------------------
Total Dipole Moment    :     -0.57136      -0.05761      -0.00000
                        -----------------------------------------
Magnitude (a.u.)       :      0.57425
Magnitude (Debye)      :      1.45964

Rotational constants in cm-1:     0.406320     0.092845     0.075576
Rotational constants in MHz : 12181.172003  2783.424887  2265.706023

                             ****ORCA TERMINATED NORMALLY****
TOTAL RUN TIME: 0 days 0 hours 4 minutes 32 seconds 51 msec
