                         Program Version 5.0.4 -  RELEASE  -
|  1> ! ri-mp2 aug-cc-pvdz aug-cc-pvdz/c tightscf
|  2> %pal nprocs 16 end
|  3> %maxcore 3800
|  4> %base "DZ_S-F_22_AB"
|  5> %scf
|  6> STABPerform true
|  7> STABRestartUHFifUnstable true
|  8> end
|  9>
| 10> *xyz 0 1
| 11> F        -1.243177    0.974213    0.180093
| 12> S        -0.800428   -0.542929   -0.214982
| 13> C         0.858690   -0.519442    0.440623
| 14> C         1.793133    0.465629   -0.236584
| 15> H         0.807276   -0.355543    1.517621
| 16> H         1.880900    0.251008   -1.300872
| 17> H         2.786160    0.415823    0.212400
| 18> H         1.423767    1.483931   -0.124277
| 19> H         1.186387   -1.553399    0.289769
| 20> *
| 21>
| 22> $new_job
| 23> ! ri-mp2 aug-cc-pvtz aug-cc-pvtz/c tightscf
| 24> %pal nprocs 16 end
| 25> %maxcore 3800
| 26> %base "TZ_S-F_22_AB"
| 27>
| 28> *xyz 0 1
| 29> F        -1.243177    0.974213    0.180093
| 30> S        -0.800428   -0.542929   -0.214982
| 31> C         0.858690   -0.519442    0.440623
| 32> C         1.793133    0.465629   -0.236584
| 33> H         0.807276   -0.355543    1.517621
| 34> H         1.880900    0.251008   -1.300872
| 35> H         2.786160    0.415823    0.212400
| 36> H         1.423767    1.483931   -0.124277
| 37> H         1.186387   -1.553399    0.289769
| 38> *
| 39>
| 40> $new_job
| 41> ! ri-mp2 aug-cc-pvqz aug-cc-pvqz/c tightscf
| 42> %pal nprocs 16 end
| 43> %maxcore 3800
| 44> %base "QZ_S-F_22_AB"
| 45>
| 46> *xyz 0 1
| 47> F        -1.243177    0.974213    0.180093
| 48> S        -0.800428   -0.542929   -0.214982
| 49> C         0.858690   -0.519442    0.440623
| 50> C         1.793133    0.465629   -0.236584
| 51> H         0.807276   -0.355543    1.517621
| 52> H         1.880900    0.251008   -1.300872
| 53> H         2.786160    0.415823    0.212400
| 54> H         1.423767    1.483931   -0.124277
| 55> H         1.186387   -1.553399    0.289769
| 56> *
| 57>
| 58>
| 59>
| 60>
| 61>                          ****END OF INPUT****
 Total Charge           Charge          ....    0
 Multiplicity           Mult            ....    1
 Number of Electrons    NEL             ....   42
MP2 TOTAL ENERGY:     -576.254010092 Eh
FINAL SINGLE POINT ENERGY      -576.254010091581
MP2 TOTAL ENERGY:     -576.469672711 Eh
FINAL SINGLE POINT ENERGY      -576.469672710845

CARTESIAN COORDINATES (ANGSTROEM)
---------------------------------
  F     -1.243177    0.974213    0.180093
  S     -0.800428   -0.542929   -0.214982
  C      0.858690   -0.519442    0.440623
  C      1.793133    0.465629   -0.236584
  H      0.807276   -0.355543    1.517621
  H      1.880900    0.251008   -1.300872
  H      2.786160    0.415823    0.212400
  H      1.423767    1.483931   -0.124277
  H      1.186387   -1.553399    0.289769

 Multiplicity           Mult            ....    1
 Number of Electrons    NEL             ....   42
 Basis Dimension        Dim             ....  554

ORBITAL ENERGIES
----------------

  NO   OCC          E(Eh)            E(eV)
   0   2.0000     -92.021194     -2504.0240
   1   2.0000     -26.298529      -715.6193
   2   2.0000     -11.272073      -306.7287
   3   2.0000     -11.230290      -305.5917
   4   2.0000      -9.016026      -245.3385
   5   2.0000      -6.697733      -182.2546
   6   2.0000      -6.695602      -182.1966
   7   2.0000      -6.694429      -182.1647
   8   2.0000      -1.596796       -43.4510
   9   2.0000      -1.085819       -29.5466
  10   2.0000      -0.950477       -25.8638
  11   2.0000      -0.833923       -22.6922
  12   2.0000      -0.688029       -18.7222
  13   2.0000      -0.683579       -18.6011
  14   2.0000      -0.665814       -18.1177
  15   2.0000      -0.618148       -16.8207
  16   2.0000      -0.587594       -15.9893
  17   2.0000      -0.544951       -14.8289
  18   2.0000      -0.518488       -14.1088
  19   2.0000      -0.466251       -12.6873
  20   2.0000      -0.362851        -9.8737
  21   0.0000       0.024850         0.6762
  22   0.0000       0.035427         0.9640
  23   0.0000       0.036560         0.9948
  24   0.0000       0.044659         1.2152
  25   0.0000       0.058517         1.5923

MULLIKEN ATOMIC CHARGES
-----------------------
   0 F :   -0.626160
   1 S :    0.510383
   2 C :   -0.471573
   3 C :   -0.783069
   4 H :    0.253652
   5 H :    0.264525
   6 H :    0.251406
   7 H :    0.274050
   8 H :    0.326787
Sum of atomic charges:   -0.0000000

LOEWDIN ATOMIC CHARGES
----------------------
   0 F :    0.083811
   1 S :    0.729071
   2 C :    0.055951
   3 C :    0.823346
   4 H :   -0.374845
   5 H :   -0.311099
   6 H :   -0.291525
   7 H :   -0.313418
   8 H :   -0.401293

  Mayer bond orders larger than 0.100000
B(  0-F ,  1-S ) :   0.5759 B(  1-S ,  2-C ) :   0.9823 B(  2-C ,  3-C ) :   0.9951
B(  2-C ,  4-H ) :   0.8844 B(  2-C ,  8-H ) :   0.8406 B(  3-C ,  5-H ) :   0.9306
B(  3-C ,  6-H ) :   0.9301 B(  3-C ,  7-H ) :   0.9291

MP2 TOTAL ENERGY:     -576.538515990 Eh
FINAL SINGLE POINT ENERGY      -576.538515989735

DIPOLE MOMENT
-------------
                                X             Y             Z
Electronic contribution:     -8.30635       0.26071      -0.29069
Nuclear contribution   :      9.19232      -0.69265       0.41686
                        -----------------------------------------
Total Dipole Moment    :      0.88598      -0.43195       0.12617
                        -----------------------------------------
Magnitude (a.u.)       :      0.99371
Magnitude (Debye)      :      2.52580

Rotational constants in cm-1:     0.354815     0.139207     0.112207
Rotational constants in MHz : 10637.076503  4173.335084  3363.888439

                             ****ORCA TERMINATED NORMALLY****
TOTAL RUN TIME: 0 days 0 hours 14 minutes 9 seconds 889 msec
