                         Program Version 5.0.4 -  RELEASE  -
|  1> ! ri-mp2 aug-cc-pvdz aug-cc-pvdz/c tightscf
|  2> %pal nprocs 16 end
|  3> %maxcore 3800
|  4> %base "DZ_S-F_7_AB"
|  5>
|  6> *xyz 0 1
|  7> F        -1.690767    0.574448    0.000038
|  8> N         0.838801    0.124045   -0.000029
|  9> S        -0.732344   -0.689612    0.000096
| 10> O         1.730495   -0.690586   -0.000002
| 11> O         0.902354    1.315016   -0.000207
| 12> *
| 13>
| 14> $new_job
| 15> ! ri-mp2 aug-cc-pvtz aug-cc-pvtz/c tightscf
| 16> %pal nprocs 16 end
| 17> %maxcore 3800
| 18> %base "TZ_S-F_7_AB"
| 19>
| 20> *xyz 0 1
| 21> F        -1.690767    0.574448    0.000038
| 22> N         0.838801    0.124045   -0.000029
| 23> S        -0.732344   -0.689612    0.000096
| 24> O         1.730495   -0.690586   -0.000002
| 25> O         0.902354    1.315016   -0.000207
| 26> *
| 27>
| 28> $new_job
| 29> ! ri-mp2 aug-cc-pvqz aug-cc-pvqz/c tightscf
| 30> %pal nprocs 16 end
| 31> %maxcore 3800
| 32> %base "QZ_S-F_7_AB"
| 33>
| 34> *xyz 0 1
| 35> F        -1.690767    0.574448    0.000038
| 36> N         0.838801    0.124045   -0.000029
| 37> S        -0.732344   -0.689612    0.000096
| 38> O         1.730495   -0.690586   -0.000002
| 39> O         0.902354    1.315016   -0.000207
| 40> *
| 41>
| 42>
| 43>
| 44>
| 45>                          ****END OF INPUT****
 Total Charge           Charge          ....    0
 Multiplicity           Mult            ....    1
 Number of Electrons    NEL             ....   48
MP2 TOTAL ENERGY:     -701.934341260 Eh
FINAL SINGLE POINT ENERGY      -701.934341259739
MP2 TOTAL ENERGY:     -702.236405458 Eh
FINAL SINGLE POINT ENERGY      -702.236405458366

CARTESIAN COORDINATES (ANGSTROEM)
---------------------------------
  F     -1.690767    0.574448    0.000038
  N      0.838801    0.124045   -0.000029
  S     -0.732344   -0.689612    0.000096
  O      1.730495   -0.690586   -0.000002
  O      0.902354    1.315016   -0.000207

 Multiplicity           Mult            ....    1
 Number of Electrons    NEL             ....   48
 Basis Dimension        Dim             ....  404

ORBITAL ENERGIES
----------------

  NO   OCC          E(Eh)            E(eV)
   0   2.0000     -92.126487     -2506.8891
   1   2.0000     -26.372819      -717.6409
   2   2.0000     -20.646505      -561.8200
   3   2.0000     -20.636774      -561.5552
   4   2.0000     -15.898222      -432.6126
   5   2.0000      -9.117720      -248.1058
   6   2.0000      -6.798523      -184.9972
   7   2.0000      -6.796959      -184.9547
   8   2.0000      -6.794863      -184.8976
   9   2.0000      -1.683212       -45.8025
  10   2.0000      -1.656701       -45.0811
  11   2.0000      -1.460133       -39.7322
  12   2.0000      -1.106561       -30.1111
  13   2.0000      -0.904733       -24.6190
  14   2.0000      -0.824216       -22.4281
  15   2.0000      -0.777867       -21.1668
  16   2.0000      -0.772525       -21.0215
  17   2.0000      -0.744555       -20.2604
  18   2.0000      -0.735939       -20.0259
  19   2.0000      -0.664760       -18.0890
  20   2.0000      -0.540258       -14.7012
  21   2.0000      -0.501344       -13.6423
  22   2.0000      -0.498269       -13.5586
  23   2.0000      -0.444512       -12.0958
  24   0.0000       0.036299         0.9878
  25   0.0000       0.049114         1.3365
  26   0.0000       0.052090         1.4174
  27   0.0000       0.064462         1.7541
  28   0.0000       0.080058         2.1785

MULLIKEN ATOMIC CHARGES
-----------------------
   0 F :   -0.545524
   1 N :    0.640892
   2 S :    0.894122
   3 O :   -0.512974
   4 O :   -0.476515
Sum of atomic charges:    0.0000000

LOEWDIN ATOMIC CHARGES
----------------------
   0 F :    0.082730
   1 N :   -1.370624
   2 S :    0.495584
   3 O :    0.374216
   4 O :    0.418094

  Mayer bond orders larger than 0.100000
B(  0-F ,  2-S ) :   0.6887 B(  1-N ,  2-S ) :   0.8934 B(  1-N ,  3-O ) :   1.4305
B(  1-N ,  4-O ) :   1.4979 B(  3-O ,  4-O ) :   0.1609

MP2 TOTAL ENERGY:     -702.338851619 Eh
FINAL SINGLE POINT ENERGY      -702.338851618999

DIPOLE MOMENT
-------------
                                X             Y             Z
Electronic contribution:     -2.42665      -0.12681       0.00016
Nuclear contribution   :      1.61492      -0.49732      -0.00004
                        -----------------------------------------
Total Dipole Moment    :     -0.81172      -0.62413       0.00011
                        -----------------------------------------
Magnitude (a.u.)       :      1.02393
Magnitude (Debye)      :      2.60262

Rotational constants in cm-1:     0.295671     0.118485     0.084588
Rotational constants in MHz :  8863.994682  3552.093906  2535.882479

                             ****ORCA TERMINATED NORMALLY****
TOTAL RUN TIME: 0 days 0 hours 1 minutes 48 seconds 796 msec
