                         Program Version 5.0.4 -  RELEASE  -
|  1> ! ri-mp2 aug-cc-pvdz aug-cc-pvdz/c tightscf
|  2> %pal nprocs 16 end
|  3> %maxcore 3800
|  4> %base "DZ_P-C_17_AB"
|  5>
|  6> *xyz 0 1
|  7> C        -0.113617    0.132301   -0.504932
|  8> N        -0.261001    1.547430   -0.024267
|  9> P         1.574957   -0.432141   -0.073580
| 10> O        -0.003922    1.758821    1.150111
| 11> O        -0.648107    2.375855   -0.804301
| 12> O         2.612960    0.395589   -0.673305
| 13> O         1.557909   -1.946177   -0.543171
| 14> H        -0.179568    0.193994   -1.589066
| 15> C        -1.236476   -0.720757    0.074513
| 16> C        -2.627884   -0.271446   -0.348019
| 17> H        -1.153817   -0.728799    1.162036
| 18> H        -1.058059   -1.744065   -0.259891
| 19> C        -3.708143   -1.185139    0.208153
| 20> H        -2.685947   -0.247335   -1.439191
| 21> H        -2.807290    0.751678   -0.010270
| 22> H        -3.576060   -2.210598   -0.141063
| 23> H        -4.699449   -0.853518   -0.098988
| 24> H        -3.685847   -1.200691    1.299017
| 25> H         2.281851   -2.136515   -1.151841
| 26> O         1.555879   -0.599983    1.494752
| 27> H         1.285805    0.223363    1.931844
| 28> *
| 29>
| 30> $new_job
| 31> ! ri-mp2 aug-cc-pvtz aug-cc-pvtz/c tightscf
| 32> %pal nprocs 16 end
| 33> %maxcore 3800
| 34> %base "TZ_P-C_17_AB"
| 35>
| 36> *xyz 0 1
| 37> C        -0.113617    0.132301   -0.504932
| 38> N        -0.261001    1.547430   -0.024267
| 39> P         1.574957   -0.432141   -0.073580
| 40> O        -0.003922    1.758821    1.150111
| 41> O        -0.648107    2.375855   -0.804301
| 42> O         2.612960    0.395589   -0.673305
| 43> O         1.557909   -1.946177   -0.543171
| 44> H        -0.179568    0.193994   -1.589066
| 45> C        -1.236476   -0.720757    0.074513
| 46> C        -2.627884   -0.271446   -0.348019
| 47> H        -1.153817   -0.728799    1.162036
| 48> H        -1.058059   -1.744065   -0.259891
| 49> C        -3.708143   -1.185139    0.208153
| 50> H        -2.685947   -0.247335   -1.439191
| 51> H        -2.807290    0.751678   -0.010270
| 52> H        -3.576060   -2.210598   -0.141063
| 53> H        -4.699449   -0.853518   -0.098988
| 54> H        -3.685847   -1.200691    1.299017
| 55> H         2.281851   -2.136515   -1.151841
| 56> O         1.555879   -0.599983    1.494752
| 57> H         1.285805    0.223363    1.931844
| 58> *
| 59>
| 60> $new_job
| 61> ! ri-mp2 aug-cc-pvqz aug-cc-pvqz/c tightscf
| 62> %pal nprocs 16 end
| 63> %maxcore 3800
| 64> %base "QZ_P-C_17_AB"
| 65>
| 66> *xyz 0 1
| 67> C        -0.113617    0.132301   -0.504932
| 68> N        -0.261001    1.547430   -0.024267
| 69> P         1.574957   -0.432141   -0.073580
| 70> O        -0.003922    1.758821    1.150111
| 71> O        -0.648107    2.375855   -0.804301
| 72> O         2.612960    0.395589   -0.673305
| 73> O         1.557909   -1.946177   -0.543171
| 74> H        -0.179568    0.193994   -1.589066
| 75> C        -1.236476   -0.720757    0.074513
| 76> C        -2.627884   -0.271446   -0.348019
| 77> H        -1.153817   -0.728799    1.162036
| 78> H        -1.058059   -1.744065   -0.259891
| 79> C        -3.708143   -1.185139    0.208153
| 80> H        -2.685947   -0.247335   -1.439191
| 81> H        -2.807290    0.751678   -0.010270
| 82> H        -3.576060   -2.210598   -0.141063
| 83> H        -4.699449   -0.853518   -0.098988
| 84> H        -3.685847   -1.200691    1.299017
| 85> H         2.281851   -2.136515   -1.151841
| 86> O         1.555879   -0.599983    1.494752
| 87> H         1.285805    0.223363    1.931844
| 88> *
| 89>
| 90>
| 91>
| 92>
| 93>                          ****END OF INPUT****
 Total Charge           Charge          ....    0
 Multiplicity           Mult            ....    1
 Number of Electrons    NEL             ....   96
MP2 TOTAL ENERGY:     -928.742428179 Eh
FINAL SINGLE POINT ENERGY      -928.742428178505
MP2 TOTAL ENERGY:     -929.323975919 Eh
FINAL SINGLE POINT ENERGY      -929.323975918994

CARTESIAN COORDINATES (ANGSTROEM)
---------------------------------
  C     -0.113617    0.132301   -0.504932
  N     -0.261001    1.547430   -0.024267
  P      1.574957   -0.432141   -0.073580
  O     -0.003922    1.758821    1.150111
  O     -0.648107    2.375855   -0.804301
  O      2.612960    0.395589   -0.673305
  O      1.557909   -1.946177   -0.543171
  H     -0.179568    0.193994   -1.589066
  C     -1.236476   -0.720757    0.074513
  C     -2.627884   -0.271446   -0.348019
  H     -1.153817   -0.728799    1.162036
  H     -1.058059   -1.744065   -0.259891
  C     -3.708143   -1.185139    0.208153
  H     -2.685947   -0.247335   -1.439191
  H     -2.807290    0.751678   -0.010270
  H     -3.576060   -2.210598   -0.141063
  H     -4.699449   -0.853518   -0.098988
  H     -3.685847   -1.200691    1.299017
  H      2.281851   -2.136515   -1.151841
  O      1.555879   -0.599983    1.494752
  H      1.285805    0.223363    1.931844

 Multiplicity           Mult            ....    1
 Number of Electrons    NEL             ....   96
 Basis Dimension        Dim             .... 1344

ORBITAL ENERGIES
----------------

  NO   OCC          E(Eh)            E(eV)
   0   2.0000     -80.091589     -2179.4029
   1   2.0000     -20.627606      -561.3057
   2   2.0000     -20.623143      -561.1842
   3   2.0000     -20.616356      -560.9996
   4   2.0000     -20.610673      -560.8449
   5   2.0000     -20.522574      -558.4476
   6   2.0000     -15.866605      -431.7523
   7   2.0000     -11.324080      -308.1439
   8   2.0000     -11.265788      -306.5577
   9   2.0000     -11.245523      -306.0062
  10   2.0000     -11.230768      -305.6047
  11   2.0000      -7.614270      -207.1948
  12   2.0000      -5.512766      -150.0100
  13   2.0000      -5.512101      -149.9919
  14   2.0000      -5.510999      -149.9619
  15   2.0000      -1.637757       -44.5656
  16   2.0000      -1.460754       -39.7491
  17   2.0000      -1.429488       -38.8984
  18   2.0000      -1.404920       -38.2298
  19   2.0000      -1.319006       -35.8920
  20   2.0000      -1.157007       -31.4838
  21   2.0000      -1.069417       -29.1003
  22   2.0000      -0.963619       -26.2214
  23   2.0000      -0.900192       -24.4955
  24   2.0000      -0.855697       -23.2847
  25   2.0000      -0.833808       -22.6891
  26   2.0000      -0.778008       -21.1707
  27   2.0000      -0.760521       -20.6948
  28   2.0000      -0.746637       -20.3170
  29   2.0000      -0.744031       -20.2461
  30   2.0000      -0.706154       -19.2154
  31   2.0000      -0.678270       -18.4567
  32   2.0000      -0.657096       -17.8805
  33   2.0000      -0.630010       -17.1434
  34   2.0000      -0.627065       -17.0633
  35   2.0000      -0.596452       -16.2303
  36   2.0000      -0.585120       -15.9219
  37   2.0000      -0.578241       -15.7347
  38   2.0000      -0.560344       -15.2477
  39   2.0000      -0.550143       -14.9701
  40   2.0000      -0.520344       -14.1593
  41   2.0000      -0.517681       -14.0868
  42   2.0000      -0.514543       -14.0014
  43   2.0000      -0.501343       -13.6422
  44   2.0000      -0.495441       -13.4816
  45   2.0000      -0.484835       -13.1930
  46   2.0000      -0.475948       -12.9512
  47   2.0000      -0.461998       -12.5716
  48   0.0000       0.017609         0.4792
  49   0.0000       0.024625         0.6701
  50   0.0000       0.029719         0.8087
  51   0.0000       0.035137         0.9561
  52   0.0000       0.041293         1.1236

MULLIKEN ATOMIC CHARGES
-----------------------
   0 C :   -0.380995
   1 N :    1.116806
   2 P :    2.666703
   3 O :   -0.753819
   4 O :   -0.726589
   5 O :   -1.268428
   6 O :   -1.044323
   7 H :    0.295893
   8 C :   -0.144768
   9 C :   -0.444433
  10 H :    0.257091
  11 H :    0.376026
  12 C :   -0.886103
  13 H :    0.237114
  14 H :    0.240528
  15 H :    0.222713
  16 H :    0.273655
  17 H :    0.230350
  18 H :    0.372152
  19 O :   -1.059776
  20 H :    0.420204
Sum of atomic charges:   -0.0000000

LOEWDIN ATOMIC CHARGES
----------------------
   0 C :   -0.099012
   1 N :   -0.844381
   2 P :   -0.641168
   3 O :    0.604392
   4 O :    0.609160
   5 O :    0.330577
   6 O :    1.127396
   7 H :   -0.364217
   8 C :    0.455085
   9 C :    0.510049
  10 H :   -0.290692
  11 H :   -0.285059
  12 C :    0.940661
  13 H :   -0.264471
  14 H :   -0.284834
  15 H :   -0.279218
  16 H :   -0.277327
  17 H :   -0.277925
  18 H :   -0.845778
  19 O :    1.128565
  20 H :   -0.951804

  Mayer bond orders larger than 0.100000
B(  0-C ,  1-N ) :   0.9403 B(  0-C ,  2-P ) :   0.7685 B(  0-C ,  4-O ) :   0.1250
B(  0-C ,  5-O ) :  -0.2204 B(  0-C ,  7-H ) :   0.9071 B(  0-C ,  8-C ) :   0.7152
B(  1-N ,  3-O ) :   1.0717 B(  1-N ,  4-O ) :   1.0790 B(  2-P ,  5-O ) :   1.2759
B(  2-P ,  6-O ) :   0.4569 B(  2-P , 19-O ) :   0.5405 B(  3-O ,  4-O ) :   0.1228
B(  6-O , 18-H ) :   0.9568 B(  8-C ,  9-C ) :   0.8671 B(  8-C , 10-H ) :   0.8646
B(  8-C , 11-H ) :   0.8257 B(  9-C , 12-C ) :   1.0014 B(  9-C , 13-H ) :   0.8771
B(  9-C , 14-H ) :   0.8782 B(  9-C , 16-H ) :  -0.1031 B( 12-C , 15-H ) :   0.9579
B( 12-C , 16-H ) :   1.0174 B( 12-C , 17-H ) :   0.9525 B( 19-O , 20-H ) :   0.7861

MP2 TOTAL ENERGY:     -929.513025883 Eh
FINAL SINGLE POINT ENERGY      -929.513025883047

DIPOLE MOMENT
-------------
                                X             Y             Z
Electronic contribution:     16.32398       5.75174      -0.03311
Nuclear contribution   :    -17.42871      -7.38566      -0.21431
                        -----------------------------------------
Total Dipole Moment    :     -1.10473      -1.63392      -0.24741
                        -----------------------------------------
Magnitude (a.u.)       :      1.98779
Magnitude (Debye)      :      5.05257

Rotational constants in cm-1:     0.043820     0.023819     0.018780
Rotational constants in MHz :  1313.681631   714.088355   563.007190

                             ****ORCA TERMINATED NORMALLY****
TOTAL RUN TIME: 0 days 0 hours 47 minutes 54 seconds 953 msec
