                         Program Version 5.0.4 -  RELEASE  -
|  1> ! ri-mp2 aug-cc-pvdz aug-cc-pvdz/c tightscf
|  2> %pal nprocs 16 end
|  3> %maxcore 3800
|  4> %base "DZ_B-Si_68_A"
|  5> %scf
|  6> STABPerform true
|  7> STABRestartUHFifUnstable true
|  8> end
|  9>
| 10> *xyz 0 2
| 11> Si        -0.000007   -0.000002    0.536113
| 12> Cl         0.975764   -1.661129   -0.147172
| 13> Cl         0.950708    1.675597   -0.147164
| 14> Cl        -1.926466   -0.014466   -0.147168
| 15> *
| 16>
| 17> $new_job
| 18> ! ri-mp2 aug-cc-pvtz aug-cc-pvtz/c tightscf
| 19> %pal nprocs 16 end
| 20> %maxcore 3800
| 21> %base "TZ_B-Si_68_A"
| 22>
| 23> *xyz 0 2
| 24> Si        -0.000007   -0.000002    0.536113
| 25> Cl         0.975764   -1.661129   -0.147172
| 26> Cl         0.950708    1.675597   -0.147164
| 27> Cl        -1.926466   -0.014466   -0.147168
| 28> *
| 29>
| 30> $new_job
| 31> ! ri-mp2 aug-cc-pvqz aug-cc-pvqz/c tightscf
| 32> %pal nprocs 16 end
| 33> %maxcore 3800
| 34> %base "QZ_B-Si_68_A"
| 35>
| 36> *xyz 0 2
| 37> Si        -0.000007   -0.000002    0.536113
| 38> Cl         0.975764   -1.661129   -0.147172
| 39> Cl         0.950708    1.675597   -0.147164
| 40> Cl        -1.926466   -0.014466   -0.147168
| 41> *
| 42>
| 43>
| 44>
| 45>
| 46>                          ****END OF INPUT****
 Total Charge           Charge          ....    0
 Multiplicity           Mult            ....    2
 Number of Electrons    NEL             ....   65
MP2 TOTAL ENERGY:    -1668.078778628 Eh
FINAL SINGLE POINT ENERGY     -1668.078778628179
MP2 TOTAL ENERGY:    -1668.297546769 Eh
FINAL SINGLE POINT ENERGY     -1668.297546769477

CARTESIAN COORDINATES (ANGSTROEM)
---------------------------------
  Si    -0.000007   -0.000002    0.536113
  Cl     0.975764   -1.661129   -0.147172
  Cl     0.950708    1.675597   -0.147164
  Cl    -1.926466   -0.014466   -0.147168

 Multiplicity           Mult            ....    2
 Number of Electrons    NEL             ....   65
 Basis Dimension        Dim             ....  336

ORBITAL ENERGIES
----------------
                 SPIN UP ORBITALS
  NO   OCC          E(Eh)            E(eV)
   0   1.0000    -104.856277     -2853.2844
   1   1.0000    -104.856276     -2853.2843
   2   1.0000    -104.856276     -2853.2843
   3   1.0000     -68.914764     -1875.2661
   4   1.0000     -10.583492      -287.9915
   5   1.0000     -10.583491      -287.9914
   6   1.0000     -10.583484      -287.9912
   7   1.0000      -8.051842      -219.1018
   8   1.0000      -8.051841      -219.1017
   9   1.0000      -8.051839      -219.1017
  10   1.0000      -8.048869      -219.0209
  11   1.0000      -8.048867      -219.0208
  12   1.0000      -8.048867      -219.0208
  13   1.0000      -8.048593      -219.0134
  14   1.0000      -8.048592      -219.0133
  15   1.0000      -8.048592      -219.0133
  16   1.0000      -6.251819      -170.1206
  17   1.0000      -4.361350      -118.6784
  18   1.0000      -4.354154      -118.4826
  19   1.0000      -4.354154      -118.4826
  20   1.0000      -1.156142       -31.4602
  21   1.0000      -1.115531       -30.3551
  22   1.0000      -1.115529       -30.3551
  23   1.0000      -0.719824       -19.5874
  24   1.0000      -0.584755       -15.9120
  25   1.0000      -0.584754       -15.9120
  26   1.0000      -0.553210       -15.0536
  27   1.0000      -0.512230       -13.9385
  28   1.0000      -0.512230       -13.9385
  29   1.0000      -0.485514       -13.2115
  30   1.0000      -0.485513       -13.2115
  31   1.0000      -0.470228       -12.7956
  32   1.0000      -0.375014       -10.2047
  33   0.0000       0.035888         0.9766
  34   0.0000       0.041833         1.1383
  35   0.0000       0.041833         1.1383
  36   0.0000       0.043715         1.1896
  37   0.0000       0.083313         2.2670

                 SPIN DOWN ORBITALS
  NO   OCC          E(Eh)            E(eV)
   0   1.0000    -104.854965     -2853.2486
   1   1.0000    -104.854964     -2853.2486
   2   1.0000    -104.854963     -2853.2486
   3   1.0000     -68.908186     -1875.0871
   4   1.0000     -10.582055      -287.9524
   5   1.0000     -10.582054      -287.9523
   6   1.0000     -10.582044      -287.9520
   7   1.0000      -8.048457      -219.0096
   8   1.0000      -8.048456      -219.0096
   9   1.0000      -8.048454      -219.0096
  10   1.0000      -8.047892      -218.9943
  11   1.0000      -8.047891      -218.9942
  12   1.0000      -8.047890      -218.9942
  13   1.0000      -8.046319      -218.9515
  14   1.0000      -8.046317      -218.9514
  15   1.0000      -8.046316      -218.9514
  16   1.0000      -6.240458      -169.8115
  17   1.0000      -4.349967      -118.3686
  18   1.0000      -4.349967      -118.3686
  19   1.0000      -4.341624      -118.1416
  20   1.0000      -1.144762       -31.1506
  21   1.0000      -1.105348       -30.0781
  22   1.0000      -1.105347       -30.0780
  23   1.0000      -0.684280       -18.6202
  24   1.0000      -0.571777       -15.5589
  25   1.0000      -0.571776       -15.5588
  26   1.0000      -0.525431       -14.2977
  27   1.0000      -0.502706       -13.6793
  28   1.0000      -0.502705       -13.6793
  29   1.0000      -0.481210       -13.0944
  30   1.0000      -0.481208       -13.0943
  31   1.0000      -0.468432       -12.7467
  32   0.0000       0.004406         0.1199
  33   0.0000       0.042678         1.1613
  34   0.0000       0.042678         1.1613
  35   0.0000       0.043965         1.1963
  36   0.0000       0.050328         1.3695

MULLIKEN ATOMIC CHARGES AND SPIN POPULATIONS
--------------------------------------------
   0 Si:    1.488084    0.827234
   1 Cl:   -0.496028    0.057588
   2 Cl:   -0.496029    0.057589
   3 Cl:   -0.496027    0.057589
Sum of atomic charges         :    0.0000000

LOEWDIN ATOMIC CHARGES AND SPIN POPULATIONS
-------------------------------------------
   0 Si:   -2.079850    0.578205
   1 Cl:    0.693282    0.140598
   2 Cl:    0.693280    0.140598
   3 Cl:    0.693288    0.140599

  Mayer bond orders larger than 0.100000
B(  0-Si,  1-Cl) :   0.7678 B(  0-Si,  2-Cl) :   0.7678 B(  0-Si,  3-Cl) :   0.7678

MP2 TOTAL ENERGY:    -1668.372119432 Eh
FINAL SINGLE POINT ENERGY     -1668.372119432001

DIPOLE MOMENT
-------------
                                X             Y             Z
Electronic contribution:     -0.00002      -0.00000      -0.22346
Nuclear contribution   :     -0.00001      -0.00000       0.54397
                        -----------------------------------------
Total Dipole Moment    :     -0.00002      -0.00001       0.32052
                        -----------------------------------------
Magnitude (a.u.)       :      0.32052
Magnitude (Debye)      :      0.81469

Rotational constants in cm-1:     0.081145     0.081145     0.042705
Rotational constants in MHz :  2432.671449  2432.651377  1280.256979

                             ****ORCA TERMINATED NORMALLY****
TOTAL RUN TIME: 0 days 0 hours 8 minutes 6 seconds 276 msec
