                         Program Version 5.0.4 -  RELEASE  -
|  1> ! ri-mp2 aug-cc-pvdz aug-cc-pvdz/c tightscf
|  2> %pal nprocs 16 end
|  3> %maxcore 3800
|  4> %base "DZ_Si-Si_8_AB"
|  5> %scf
|  6> STABPerform true
|  7> STABRestartUHFifUnstable true
|  8> end
|  9>
| 10> *xyz 0 1
| 11> Si         0.317730    1.129981   -0.000001
| 12> Si        -0.317730   -1.129981   -0.000001
| 13> F         0.317730   -1.824862    1.280983
| 14> F        -0.317730    1.824862    1.280983
| 15> F         0.317738   -1.824861   -1.280981
| 16> H        -1.763721   -1.399810   -0.000006
| 17> F        -0.317738    1.824861   -1.280981
| 18> H         1.763721    1.399810   -0.000006
| 19> *
| 20>
| 21> $new_job
| 22> ! ri-mp2 aug-cc-pvtz aug-cc-pvtz/c tightscf
| 23> %pal nprocs 16 end
| 24> %maxcore 3800
| 25> %base "TZ_Si-Si_8_AB"
| 26>
| 27> *xyz 0 1
| 28> Si         0.317730    1.129981   -0.000001
| 29> Si        -0.317730   -1.129981   -0.000001
| 30> F         0.317730   -1.824862    1.280983
| 31> F        -0.317730    1.824862    1.280983
| 32> F         0.317738   -1.824861   -1.280981
| 33> H        -1.763721   -1.399810   -0.000006
| 34> F        -0.317738    1.824861   -1.280981
| 35> H         1.763721    1.399810   -0.000006
| 36> *
| 37>
| 38> $new_job
| 39> ! ri-mp2 aug-cc-pvqz aug-cc-pvqz/c tightscf
| 40> %pal nprocs 16 end
| 41> %maxcore 3800
| 42> %base "QZ_Si-Si_8_AB"
| 43>
| 44> *xyz 0 1
| 45> Si         0.317730    1.129981   -0.000001
| 46> Si        -0.317730   -1.129981   -0.000001
| 47> F         0.317730   -1.824862    1.280983
| 48> F        -0.317730    1.824862    1.280983
| 49> F         0.317738   -1.824861   -1.280981
| 50> H        -1.763721   -1.399810   -0.000006
| 51> F        -0.317738    1.824861   -1.280981
| 52> H         1.763721    1.399810   -0.000006
| 53> *
| 54>
| 55>
| 56>
| 57>
| 58>                          ****END OF INPUT****
 Total Charge           Charge          ....    0
 Multiplicity           Mult            ....    1
 Number of Electrons    NEL             ....   66
MP2 TOTAL ENERGY:     -978.083437229 Eh
FINAL SINGLE POINT ENERGY      -978.083437228526
MP2 TOTAL ENERGY:     -978.507799086 Eh
FINAL SINGLE POINT ENERGY      -978.507799086346

CARTESIAN COORDINATES (ANGSTROEM)
---------------------------------
  Si     0.317730    1.129981   -0.000001
  Si    -0.317730   -1.129981   -0.000001
  F      0.317730   -1.824862    1.280983
  F     -0.317730    1.824862    1.280983
  F      0.317738   -1.824861   -1.280981
  H     -1.763721   -1.399810   -0.000006
  F     -0.317738    1.824861   -1.280981
  H      1.763721    1.399810   -0.000006

 Multiplicity           Mult            ....    1
 Number of Electrons    NEL             ....   66
 Basis Dimension        Dim             ....  580

ORBITAL ENERGIES
----------------

  NO   OCC          E(Eh)            E(eV)
   0   2.0000     -68.865830     -1873.9345
   1   2.0000     -68.865829     -1873.9345
   2   2.0000     -26.310313      -715.9400
   3   2.0000     -26.310313      -715.9400
   4   2.0000     -26.310306      -715.9398
   5   2.0000     -26.310305      -715.9398
   6   2.0000      -6.205309      -168.8551
   7   2.0000      -6.205169      -168.8512
   8   2.0000      -4.313181      -117.3676
   9   2.0000      -4.313095      -117.3653
  10   2.0000      -4.312524      -117.3498
  11   2.0000      -4.312368      -117.3455
  12   2.0000      -4.311677      -117.3267
  13   2.0000      -4.311156      -117.3125
  14   2.0000      -1.624431       -44.2030
  15   2.0000      -1.623361       -44.1739
  16   2.0000      -1.605836       -43.6970
  17   2.0000      -1.605312       -43.6828
  18   2.0000      -0.829749       -22.5786
  19   2.0000      -0.800932       -21.7945
  20   2.0000      -0.736726       -20.0473
  21   2.0000      -0.732481       -19.9318
  22   2.0000      -0.721678       -19.6379
  23   2.0000      -0.716239       -19.4898
  24   2.0000      -0.710365       -19.3300
  25   2.0000      -0.699016       -19.0212
  26   2.0000      -0.681476       -18.5439
  27   2.0000      -0.679183       -18.4815
  28   2.0000      -0.663812       -18.0632
  29   2.0000      -0.660540       -17.9742
  30   2.0000      -0.599755       -16.3202
  31   2.0000      -0.567906       -15.4535
  32   2.0000      -0.446676       -12.1547
  33   0.0000       0.029662         0.8071
  34   0.0000       0.029745         0.8094
  35   0.0000       0.036094         0.9822
  36   0.0000       0.037472         1.0197
  37   0.0000       0.052700         1.4340

MULLIKEN ATOMIC CHARGES
-----------------------
   0 Si:    1.555316
   1 Si:    1.555316
   2 F :   -0.689532
   3 F :   -0.689532
   4 F :   -0.689532
   5 H :   -0.176251
   6 F :   -0.689532
   7 H :   -0.176251
Sum of atomic charges:    0.0000000

LOEWDIN ATOMIC CHARGES
----------------------
   0 Si:   -0.459098
   1 Si:   -0.459098
   2 F :    0.376749
   3 F :    0.376749
   4 F :    0.376750
   5 H :   -0.294401
   6 F :    0.376750
   7 H :   -0.294401

  Mayer bond orders larger than 0.100000
B(  0-Si,  1-Si) :   0.9834 B(  0-Si,  3-F ) :   0.3956 B(  0-Si,  6-F ) :   0.3956
B(  0-Si,  7-H ) :   0.9397 B(  1-Si,  2-F ) :   0.3956 B(  1-Si,  4-F ) :   0.3956
B(  1-Si,  5-H ) :   0.9397

MP2 TOTAL ENERGY:     -978.650793838 Eh
FINAL SINGLE POINT ENERGY      -978.650793838468

DIPOLE MOMENT
-------------
                                X             Y             Z
Electronic contribution:     -0.00000       0.00000       0.00001
Nuclear contribution   :      0.00000      -0.00000      -0.00001
                        -----------------------------------------
Total Dipole Moment    :     -0.00000       0.00000      -0.00000
                        -----------------------------------------
Magnitude (a.u.)       :      0.00000
Magnitude (Debye)      :      0.00001

Rotational constants in cm-1:     0.117757     0.048393     0.037084
Rotational constants in MHz :  3530.253546  1450.780775  1111.735452

                             ****ORCA TERMINATED NORMALLY****
TOTAL RUN TIME: 0 days 0 hours 16 minutes 42 seconds 503 msec
