                         Program Version 5.0.4 -  RELEASE  -
|  1> ! ri-mp2 aug-cc-pvdz aug-cc-pvdz/c tightscf
|  2> %pal nprocs 16 end
|  3> %maxcore 3800
|  4> %base "DZ_B-F_6_A"
|  5> %scf
|  6> STABPerform true
|  7> STABRestartUHFifUnstable true
|  8> end
|  9>
| 10> *xyz 0 2
| 11> F        -2.016769   -0.189492   -0.000000
| 12> N         0.363123   -0.085872   -0.000000
| 13> B        -0.828358   -0.784318    0.000000
| 14> C         1.652450   -0.742946    0.000000
| 15> H         2.230626   -0.462960   -0.884941
| 16> H         1.515494   -1.821536   -0.000002
| 17> H         2.230623   -0.462964    0.884945
| 18> C         0.422912    1.366003   -0.000000
| 19> H        -0.582150    1.779397    0.000001
| 20> H         0.952039    1.728922   -0.884960
| 21> H         0.952042    1.728922    0.884958
| 22> *
| 23>
| 24> $new_job
| 25> ! ri-mp2 aug-cc-pvtz aug-cc-pvtz/c tightscf
| 26> %pal nprocs 16 end
| 27> %maxcore 3800
| 28> %base "TZ_B-F_6_A"
| 29>
| 30> *xyz 0 2
| 31> F        -2.016769   -0.189492   -0.000000
| 32> N         0.363123   -0.085872   -0.000000
| 33> B        -0.828358   -0.784318    0.000000
| 34> C         1.652450   -0.742946    0.000000
| 35> H         2.230626   -0.462960   -0.884941
| 36> H         1.515494   -1.821536   -0.000002
| 37> H         2.230623   -0.462964    0.884945
| 38> C         0.422912    1.366003   -0.000000
| 39> H        -0.582150    1.779397    0.000001
| 40> H         0.952039    1.728922   -0.884960
| 41> H         0.952042    1.728922    0.884958
| 42> *
| 43>
| 44> $new_job
| 45> ! ri-mp2 aug-cc-pvqz aug-cc-pvqz/c tightscf
| 46> %pal nprocs 16 end
| 47> %maxcore 3800
| 48> %base "QZ_B-F_6_A"
| 49>
| 50> *xyz 0 2
| 51> F        -2.016769   -0.189492   -0.000000
| 52> N         0.363123   -0.085872   -0.000000
| 53> B        -0.828358   -0.784318    0.000000
| 54> C         1.652450   -0.742946    0.000000
| 55> H         2.230626   -0.462960   -0.884941
| 56> H         1.515494   -1.821536   -0.000002
| 57> H         2.230623   -0.462964    0.884945
| 58> C         0.422912    1.366003   -0.000000
| 59> H        -0.582150    1.779397    0.000001
| 60> H         0.952039    1.728922   -0.884960
| 61> H         0.952042    1.728922    0.884958
| 62> *
| 63>
| 64>
| 65>
| 66>
| 67>                          ****END OF INPUT****
 Total Charge           Charge          ....    0
 Multiplicity           Mult            ....    2
 Number of Electrons    NEL             ....   39
MP2 TOTAL ENERGY:     -258.597507807 Eh
FINAL SINGLE POINT ENERGY      -258.597507807161
MP2 TOTAL ENERGY:     -258.831939676 Eh
FINAL SINGLE POINT ENERGY      -258.831939675521

CARTESIAN COORDINATES (ANGSTROEM)
---------------------------------
  F     -2.016769   -0.189492   -0.000000
  N      0.363123   -0.085872   -0.000000
  B     -0.828358   -0.784318    0.000000
  C      1.652450   -0.742946    0.000000
  H      2.230626   -0.462960   -0.884941
  H      1.515494   -1.821536   -0.000002
  H      2.230623   -0.462964    0.884945
  C      0.422912    1.366003   -0.000000
  H     -0.582150    1.779397    0.000001
  H      0.952039    1.728922   -0.884960
  H      0.952042    1.728922    0.884958

 Multiplicity           Mult            ....    2
 Number of Electrons    NEL             ....   39
 Basis Dimension        Dim             ....  676

ORBITAL ENERGIES
----------------
                 SPIN UP ORBITALS
  NO   OCC          E(Eh)            E(eV)
   0   1.0000     -26.287595      -715.3218
   1   1.0000     -15.565517      -423.5592
   2   1.0000     -11.259734      -306.3929
   3   1.0000     -11.259045      -306.3742
   4   1.0000      -7.657378      -208.3678
   5   1.0000      -1.604395       -43.6578
   6   1.0000      -1.230819       -33.4923
   7   1.0000      -0.973072       -26.4786
   8   1.0000      -0.896643       -24.3989
   9   1.0000      -0.763868       -20.7859
  10   1.0000      -0.706859       -19.2346
  11   1.0000      -0.671244       -18.2655
  12   1.0000      -0.670656       -18.2495
  13   1.0000      -0.632753       -17.2181
  14   1.0000      -0.612575       -16.6690
  15   1.0000      -0.558374       -15.1941
  16   1.0000      -0.547645       -14.9022
  17   1.0000      -0.533081       -14.5059
  18   1.0000      -0.389338       -10.5944
  19   1.0000      -0.351070        -9.5531
  20   0.0000       0.023716         0.6453
  21   0.0000       0.033351         0.9075
  22   0.0000       0.035501         0.9660
  23   0.0000       0.038659         1.0520
  24   0.0000       0.052702         1.4341

                 SPIN DOWN ORBITALS
  NO   OCC          E(Eh)            E(eV)
   0   1.0000     -26.284059      -715.2256
   1   1.0000     -15.565556      -423.5603
   2   1.0000     -11.259301      -306.3812
   3   1.0000     -11.258071      -306.3477
   4   1.0000      -7.636362      -207.7960
   5   1.0000      -1.594152       -43.3791
   6   1.0000      -1.228439       -33.4275
   7   1.0000      -0.970668       -26.4132
   8   1.0000      -0.887345       -24.1459
   9   1.0000      -0.751876       -20.4596
  10   1.0000      -0.691747       -18.8234
  11   1.0000      -0.668298       -18.1853
  12   1.0000      -0.648206       -17.6386
  13   1.0000      -0.635402       -17.2902
  14   1.0000      -0.607952       -16.5432
  15   1.0000      -0.558426       -15.1955
  16   1.0000      -0.540895       -14.7185
  17   1.0000      -0.531789       -14.4707
  18   1.0000      -0.395003       -10.7486
  19   0.0000       0.022595         0.6148
  20   0.0000       0.033929         0.9232
  21   0.0000       0.034306         0.9335
  22   0.0000       0.037047         1.0081
  23   0.0000       0.052789         1.4364

MULLIKEN ATOMIC CHARGES AND SPIN POPULATIONS
--------------------------------------------
   0 F :   -0.802278    0.002026
   1 N :   -0.180946   -0.104693
   2 B :    0.774119    1.073117
   3 C :   -0.841581    0.028214
   4 H :    0.280045   -0.000629
   5 H :    0.347006   -0.006153
   6 H :    0.280045   -0.000629
   7 C :   -0.770361    0.013886
   8 H :    0.342197    0.001849
   9 H :    0.285877   -0.003495
  10 H :    0.285877   -0.003495
Sum of atomic charges         :    0.0000000

LOEWDIN ATOMIC CHARGES AND SPIN POPULATIONS
-------------------------------------------
   0 F :    0.735965    0.146957
   1 N :    0.431998    0.151445
   2 B :   -0.858760    0.563563
   3 C :    0.714791    0.056955
   4 H :   -0.281293    0.002426
   5 H :   -0.320733    0.038408
   6 H :   -0.281293    0.002426
   7 C :    0.736647    0.025636
   8 H :   -0.321850    0.006030
   9 H :   -0.277736    0.003076
  10 H :   -0.277736    0.003076

  Mayer bond orders larger than 0.100000
B(  0-F ,  2-B ) :   0.3216 B(  1-N ,  2-B ) :   1.1689 B(  1-N ,  3-C ) :   0.8698
B(  1-N ,  7-C ) :   0.8944 B(  3-C ,  4-H ) :   0.9387 B(  3-C ,  5-H ) :   0.8987
B(  3-C ,  6-H ) :   0.9387 B(  7-C ,  8-H ) :   0.8977 B(  7-C ,  9-H ) :   0.9244
B(  7-C , 10-H ) :   0.9244

MP2 TOTAL ENERGY:     -258.905087507 Eh
FINAL SINGLE POINT ENERGY      -258.905087506699

DIPOLE MOMENT
-------------
                                X             Y             Z
Electronic contribution:     -8.92787      -2.94283      -0.00000
Nuclear contribution   :      9.87374       3.27976       0.00000
                        -----------------------------------------
Total Dipole Moment    :      0.94588       0.33693      -0.00000
                        -----------------------------------------
Magnitude (a.u.)       :      1.00409
Magnitude (Debye)      :      2.55220

Rotational constants in cm-1:     0.321853     0.122215     0.091620
Rotational constants in MHz :  9648.920047  3663.925588  2746.695571

                             ****ORCA TERMINATED NORMALLY****
TOTAL RUN TIME: 0 days 1 hours 16 minutes 38 seconds 670 msec
