                         Program Version 5.0.4 -  RELEASE  -
|  1> ! ri-mp2 aug-cc-pvdz aug-cc-pvdz/c tightscf
|  2> %pal nprocs 16 end
|  3> %maxcore 3800
|  4> %base "DZ_B-F_77_AB"
|  5> %scf
|  6> STABPerform true
|  7> STABRestartUHFifUnstable true
|  8> end
|  9>
| 10> *xyz 0 1
| 11> C         1.260981    1.399279    0.057140
| 12> C         2.618535    0.859244    0.489624
| 13> C         2.975819   -0.415487   -0.264827
| 14> C         1.880386   -1.464763   -0.121426
| 15> C         0.525344   -0.916747   -0.552141
| 16> C        -1.194814    0.907392   -0.258360
| 17> C         0.153451    0.358445    0.203079
| 18> B        -2.439541    0.028138    0.055645
| 19> F        -3.591796    0.201792   -0.572220
| 20> F        -2.434304   -0.910978    0.988942
| 21> H         1.312357    1.712970   -0.991846
| 22> H         1.007193    2.291484    0.634971
| 23> H         2.594756    0.646562    1.563381
| 24> H         3.389278    1.617881    0.340345
| 25> H         3.928949   -0.811740    0.090537
| 26> H         3.111211   -0.179538   -1.325536
| 27> H         1.821467   -1.784038    0.924005
| 28> H         2.127214   -2.354121   -0.704340
| 29> H        -0.246130   -1.676790   -0.407575
| 30> H         0.550110   -0.692854   -1.625024
| 31> H        -1.172656    1.127196   -1.330386
| 32> H        -1.383313    1.878694    0.218471
| 33> H         0.073959    0.102108    1.265747
| 34> *
| 35>
| 36> $new_job
| 37> ! ri-mp2 aug-cc-pvtz aug-cc-pvtz/c tightscf
| 38> %pal nprocs 16 end
| 39> %maxcore 3800
| 40> %base "TZ_B-F_77_AB"
| 41>
| 42> *xyz 0 1
| 43> C         1.260981    1.399279    0.057140
| 44> C         2.618535    0.859244    0.489624
| 45> C         2.975819   -0.415487   -0.264827
| 46> C         1.880386   -1.464763   -0.121426
| 47> C         0.525344   -0.916747   -0.552141
| 48> C        -1.194814    0.907392   -0.258360
| 49> C         0.153451    0.358445    0.203079
| 50> B        -2.439541    0.028138    0.055645
| 51> F        -3.591796    0.201792   -0.572220
| 52> F        -2.434304   -0.910978    0.988942
| 53> H         1.312357    1.712970   -0.991846
| 54> H         1.007193    2.291484    0.634971
| 55> H         2.594756    0.646562    1.563381
| 56> H         3.389278    1.617881    0.340345
| 57> H         3.928949   -0.811740    0.090537
| 58> H         3.111211   -0.179538   -1.325536
| 59> H         1.821467   -1.784038    0.924005
| 60> H         2.127214   -2.354121   -0.704340
| 61> H        -0.246130   -1.676790   -0.407575
| 62> H         0.550110   -0.692854   -1.625024
| 63> H        -1.172656    1.127196   -1.330386
| 64> H        -1.383313    1.878694    0.218471
| 65> H         0.073959    0.102108    1.265747
| 66> *
| 67>
| 68> $new_job
| 69> ! ri-mp2 aug-cc-pvqz aug-cc-pvqz/c tightscf
| 70> %pal nprocs 16 end
| 71> %maxcore 3800
| 72> %base "QZ_B-F_77_AB"
| 73>
| 74> *xyz 0 1
| 75> C         1.260981    1.399279    0.057140
| 76> C         2.618535    0.859244    0.489624
| 77> C         2.975819   -0.415487   -0.264827
| 78> C         1.880386   -1.464763   -0.121426
| 79> C         0.525344   -0.916747   -0.552141
| 80> C        -1.194814    0.907392   -0.258360
| 81> C         0.153451    0.358445    0.203079
| 82> B        -2.439541    0.028138    0.055645
| 83> F        -3.591796    0.201792   -0.572220
| 84> F        -2.434304   -0.910978    0.988942
| 85> H         1.312357    1.712970   -0.991846
| 86> H         1.007193    2.291484    0.634971
| 87> H         2.594756    0.646562    1.563381
| 88> H         3.389278    1.617881    0.340345
| 89> H         3.928949   -0.811740    0.090537
| 90> H         3.111211   -0.179538   -1.325536
| 91> H         1.821467   -1.784038    0.924005
| 92> H         2.127214   -2.354121   -0.704340
| 93> H        -0.246130   -1.676790   -0.407575
| 94> H         0.550110   -0.692854   -1.625024
| 95> H        -1.172656    1.127196   -1.330386
| 96> H        -1.383313    1.878694    0.218471
| 97> H         0.073959    0.102108    1.265747
| 98> *
| 99>
|100>
|101>
|102>
|103>                          ****END OF INPUT****
 Total Charge           Charge          ....    0
 Multiplicity           Mult            ....    1
 Number of Electrons    NEL             ....   78
MP2 TOTAL ENERGY:     -497.924182463 Eh
FINAL SINGLE POINT ENERGY      -497.924182462804
MP2 TOTAL ENERGY:     -498.376714113 Eh
FINAL SINGLE POINT ENERGY      -498.376714112849

CARTESIAN COORDINATES (ANGSTROEM)
---------------------------------
  C      1.260981    1.399279    0.057140
  C      2.618535    0.859244    0.489624
  C      2.975819   -0.415487   -0.264827
  C      1.880386   -1.464763   -0.121426
  C      0.525344   -0.916747   -0.552141
  C     -1.194814    0.907392   -0.258360
  C      0.153451    0.358445    0.203079
  B     -2.439541    0.028138    0.055645
  F     -3.591796    0.201792   -0.572220
  F     -2.434304   -0.910978    0.988942
  H      1.312357    1.712970   -0.991846
  H      1.007193    2.291484    0.634971
  H      2.594756    0.646562    1.563381
  H      3.389278    1.617881    0.340345
  H      3.928949   -0.811740    0.090537
  H      3.111211   -0.179538   -1.325536
  H      1.821467   -1.784038    0.924005
  H      2.127214   -2.354121   -0.704340
  H     -0.246130   -1.676790   -0.407575
  H      0.550110   -0.692854   -1.625024
  H     -1.172656    1.127196   -1.330386
  H     -1.383313    1.878694    0.218471
  H      0.073959    0.102108    1.265747

 Multiplicity           Mult            ....    1
 Number of Electrons    NEL             ....   78
 Basis Dimension        Dim             .... 1398

ORBITAL ENERGIES
----------------

  NO   OCC          E(Eh)            E(eV)
   0   2.0000     -26.302932      -715.7392
   1   2.0000     -26.301597      -715.7028
   2   2.0000     -11.228159      -305.5337
   3   2.0000     -11.217205      -305.2357
   4   2.0000     -11.216426      -305.2145
   5   2.0000     -11.215433      -305.1874
   6   2.0000     -11.215216      -305.1815
   7   2.0000     -11.214361      -305.1583
   8   2.0000     -11.212840      -305.1169
   9   2.0000      -7.696645      -209.4364
  10   2.0000      -1.636811       -44.5399
  11   2.0000      -1.603034       -43.6208
  12   2.0000      -1.130768       -30.7698
  13   2.0000      -1.043778       -28.4026
  14   2.0000      -1.008459       -27.4416
  15   2.0000      -0.937605       -25.5135
  16   2.0000      -0.837707       -22.7952
  17   2.0000      -0.819915       -22.3110
  18   2.0000      -0.800948       -21.7949
  19   2.0000      -0.761844       -20.7308
  20   2.0000      -0.748132       -20.3577
  21   2.0000      -0.713862       -19.4252
  22   2.0000      -0.707400       -19.2493
  23   2.0000      -0.655227       -17.8296
  24   2.0000      -0.650538       -17.7020
  25   2.0000      -0.638759       -17.3815
  26   2.0000      -0.615499       -16.7486
  27   2.0000      -0.607181       -16.5222
  28   2.0000      -0.602022       -16.3818
  29   2.0000      -0.563982       -15.3467
  30   2.0000      -0.540163       -14.6986
  31   2.0000      -0.530123       -14.4254
  32   2.0000      -0.517742       -14.0885
  33   2.0000      -0.489706       -13.3256
  34   2.0000      -0.484571       -13.1858
  35   2.0000      -0.474775       -12.9193
  36   2.0000      -0.455505       -12.3949
  37   2.0000      -0.432674       -11.7737
  38   2.0000      -0.427305       -11.6276
  39   0.0000       0.022792         0.6202
  40   0.0000       0.027792         0.7563
  41   0.0000       0.029011         0.7894
  42   0.0000       0.029959         0.8152
  43   0.0000       0.041969         1.1420

MULLIKEN ATOMIC CHARGES
-----------------------
   0 C :   -0.468368
   1 C :   -0.522014
   2 C :   -0.448317
   3 C :   -0.489158
   4 C :   -0.401415
   5 C :   -0.518404
   6 C :    0.361369
   7 B :    1.799251
   8 F :   -0.963370
   9 F :   -0.882218
  10 H :    0.144004
  11 H :    0.238281
  12 H :    0.131453
  13 H :    0.225325
  14 H :    0.250150
  15 H :    0.098706
  16 H :    0.137327
  17 H :    0.218898
  18 H :    0.283911
  19 H :    0.175855
  20 H :    0.216495
  21 H :    0.170423
  22 H :    0.241816
Sum of atomic charges:   -0.0000000

LOEWDIN ATOMIC CHARGES
----------------------
   0 C :    0.532539
   1 C :    0.543623
   2 C :    0.536237
   3 C :    0.548383
   4 C :    0.528802
   5 C :    0.622881
   6 C :    0.096398
   7 B :   -1.673250
   8 F :    0.830388
   9 F :    0.854133
  10 H :   -0.256835
  11 H :   -0.254199
  12 H :   -0.260104
  13 H :   -0.256826
  14 H :   -0.258093
  15 H :   -0.261818
  16 H :   -0.257976
  17 H :   -0.255401
  18 H :   -0.264890
  19 H :   -0.254086
  20 H :   -0.289743
  21 H :   -0.283935
  22 H :   -0.266228

  Mayer bond orders larger than 0.100000
B(  0-C ,  1-C ) :   0.8924 B(  0-C ,  6-C ) :   0.5298 B(  0-C , 10-H ) :   1.0356
B(  0-C , 11-H ) :   0.9871 B(  1-C ,  2-C ) :   0.8760 B(  1-C ,  6-C ) :  -0.1038
B(  1-C , 12-H ) :   1.0437 B(  1-C , 13-H ) :   1.0100 B(  2-C ,  3-C ) :   0.8695
B(  2-C , 14-H ) :   0.9538 B(  2-C , 15-H ) :   1.0686 B(  3-C ,  4-C ) :   0.8147
B(  3-C , 16-H ) :   1.0388 B(  3-C , 17-H ) :   1.0166 B(  4-C ,  6-C ) :   0.7166
B(  4-C , 18-H ) :   0.9594 B(  4-C , 19-H ) :   0.9636 B(  5-C ,  6-C ) :   0.6843
B(  5-C ,  7-B ) :   1.0205 B(  5-C ,  8-F ) :  -0.1050 B(  5-C ,  9-F ) :  -0.1842
B(  5-C , 20-H ) :   0.9646 B(  5-C , 21-H ) :   1.0393 B(  6-C ,  9-F ) :   0.1304
B(  6-C , 22-H ) :   0.9484 B(  7-B ,  9-F ) :   0.2083

MP2 TOTAL ENERGY:     -498.516905554 Eh
FINAL SINGLE POINT ENERGY      -498.516905553823

DIPOLE MOMENT
-------------
                                X             Y             Z
Electronic contribution:    -24.41243      -2.22157       1.71785
Nuclear contribution   :     25.11769       2.56432      -1.80985
                        -----------------------------------------
Total Dipole Moment    :      0.70526       0.34275      -0.09200
                        -----------------------------------------
Magnitude (a.u.)       :      0.78951
Magnitude (Debye)      :      2.00678

Rotational constants in cm-1:     0.096724     0.021235     0.019284
Rotational constants in MHz :  2899.717637   636.622624   578.106204

                             ****ORCA TERMINATED NORMALLY****
TOTAL RUN TIME: 0 days 8 hours 12 minutes 9 seconds 124 msec
