                         Program Version 5.0.4 -  RELEASE  -
|  1> ! ri-mp2 aug-cc-pvdz aug-cc-pvdz/c tightscf
|  2> %pal nprocs 16 end
|  3> %maxcore 3800
|  4> %base "DZ_P-Cl_9_AB"
|  5>
|  6> *xyz 0 1
|  7> Cl         1.578068    2.049801   -0.152605
|  8> S         0.473687   -0.939701    0.473887
|  9> O         0.588057   -2.294296   -0.010552
| 10> O         0.828340   -0.617663    1.830090
| 11> P         1.707136    0.163854   -0.968390
| 12> C        -1.165818   -0.362744    0.179206
| 13> C        -1.683397    0.643239    0.978620
| 14> H        -1.091196    1.037895    1.791315
| 15> C        -2.959630    1.109640    0.721506
| 16> H        -3.380558    1.891517    1.338534
| 17> C        -3.696959    0.573237   -0.321871
| 18> H        -4.695127    0.941319   -0.518494
| 19> C        -3.168013   -0.434766   -1.112751
| 20> H        -3.751888   -0.855297   -1.919908
| 21> C        -1.893218   -0.909478   -0.865970
| 22> H        -1.465355   -1.705088   -1.459313
| 23> C         3.277187   -0.404283   -0.233430
| 24> H         3.382640   -1.467472   -0.451741
| 25> H         3.304480   -0.242494    0.842272
| 26> H         4.091715    0.137025   -0.712896
| 27> *
| 28>
| 29> $new_job
| 30> ! ri-mp2 aug-cc-pvtz aug-cc-pvtz/c tightscf
| 31> %pal nprocs 16 end
| 32> %maxcore 3800
| 33> %base "TZ_P-Cl_9_AB"
| 34>
| 35> *xyz 0 1
| 36> Cl         1.578068    2.049801   -0.152605
| 37> S         0.473687   -0.939701    0.473887
| 38> O         0.588057   -2.294296   -0.010552
| 39> O         0.828340   -0.617663    1.830090
| 40> P         1.707136    0.163854   -0.968390
| 41> C        -1.165818   -0.362744    0.179206
| 42> C        -1.683397    0.643239    0.978620
| 43> H        -1.091196    1.037895    1.791315
| 44> C        -2.959630    1.109640    0.721506
| 45> H        -3.380558    1.891517    1.338534
| 46> C        -3.696959    0.573237   -0.321871
| 47> H        -4.695127    0.941319   -0.518494
| 48> C        -3.168013   -0.434766   -1.112751
| 49> H        -3.751888   -0.855297   -1.919908
| 50> C        -1.893218   -0.909478   -0.865970
| 51> H        -1.465355   -1.705088   -1.459313
| 52> C         3.277187   -0.404283   -0.233430
| 53> H         3.382640   -1.467472   -0.451741
| 54> H         3.304480   -0.242494    0.842272
| 55> H         4.091715    0.137025   -0.712896
| 56> *
| 57>
| 58> $new_job
| 59> ! ri-mp2 aug-cc-pvqz aug-cc-pvqz/c tightscf
| 60> %pal nprocs 16 end
| 61> %maxcore 3800
| 62> %base "QZ_P-Cl_9_AB"
| 63>
| 64> *xyz 0 1
| 65> Cl         1.578068    2.049801   -0.152605
| 66> S         0.473687   -0.939701    0.473887
| 67> O         0.588057   -2.294296   -0.010552
| 68> O         0.828340   -0.617663    1.830090
| 69> P         1.707136    0.163854   -0.968390
| 70> C        -1.165818   -0.362744    0.179206
| 71> C        -1.683397    0.643239    0.978620
| 72> H        -1.091196    1.037895    1.791315
| 73> C        -2.959630    1.109640    0.721506
| 74> H        -3.380558    1.891517    1.338534
| 75> C        -3.696959    0.573237   -0.321871
| 76> H        -4.695127    0.941319   -0.518494
| 77> C        -3.168013   -0.434766   -1.112751
| 78> H        -3.751888   -0.855297   -1.919908
| 79> C        -1.893218   -0.909478   -0.865970
| 80> H        -1.465355   -1.705088   -1.459313
| 81> C         3.277187   -0.404283   -0.233430
| 82> H         3.382640   -1.467472   -0.451741
| 83> H         3.304480   -0.242494    0.842272
| 84> H         4.091715    0.137025   -0.712896
| 85> *
| 86>
| 87>
| 88>
| 89>
| 90>                          ****END OF INPUT****
 Total Charge           Charge          ....    0
 Multiplicity           Mult            ....    1
 Number of Electrons    NEL             ....  114
MP2 TOTAL ENERGY:    -1619.009826196 Eh
FINAL SINGLE POINT ENERGY     -1619.009826196389
MP2 TOTAL ENERGY:    -1619.570963695 Eh
FINAL SINGLE POINT ENERGY     -1619.570963695438

CARTESIAN COORDINATES (ANGSTROEM)
---------------------------------
  Cl     1.578068    2.049801   -0.152605
  S      0.473687   -0.939701    0.473887
  O      0.588057   -2.294296   -0.010552
  O      0.828340   -0.617663    1.830090
  P      1.707136    0.163854   -0.968390
  C     -1.165818   -0.362744    0.179206
  C     -1.683397    0.643239    0.978620
  H     -1.091196    1.037895    1.791315
  C     -2.959630    1.109640    0.721506
  H     -3.380558    1.891517    1.338534
  C     -3.696959    0.573237   -0.321871
  H     -4.695127    0.941319   -0.518494
  C     -3.168013   -0.434766   -1.112751
  H     -3.751888   -0.855297   -1.919908
  C     -1.893218   -0.909478   -0.865970
  H     -1.465355   -1.705088   -1.459313
  C      3.277187   -0.404283   -0.233430
  H      3.382640   -1.467472   -0.451741
  H      3.304480   -0.242494    0.842272
  H      4.091715    0.137025   -0.712896

 Multiplicity           Mult            ....    1
 Number of Electrons    NEL             ....  114
 Basis Dimension        Dim             .... 1340

ORBITAL ENERGIES
----------------

  NO   OCC          E(Eh)            E(eV)
   0   2.0000    -104.848763     -2853.0799
   1   2.0000     -92.167654     -2508.0094
   2   2.0000     -80.027206     -2177.6510
   3   2.0000     -20.549055      -559.1682
   4   2.0000     -20.548110      -559.1425
   5   2.0000     -11.275450      -306.8206
   6   2.0000     -11.266074      -306.5655
   7   2.0000     -11.264942      -306.5347
   8   2.0000     -11.262563      -306.4699
   9   2.0000     -11.254830      -306.2595
  10   2.0000     -11.254232      -306.2432
  11   2.0000     -11.250584      -306.1439
  12   2.0000     -10.575101      -287.7631
  13   2.0000      -9.139892      -248.7091
  14   2.0000      -8.041934      -218.8322
  15   2.0000      -8.040497      -218.7930
  16   2.0000      -8.040368      -218.7895
  17   2.0000      -7.563944      -205.8254
  18   2.0000      -6.824839      -185.7133
  19   2.0000      -6.824399      -185.7014
  20   2.0000      -6.824196      -185.6958
  21   2.0000      -5.457027      -148.4933
  22   2.0000      -5.456289      -148.4732
  23   2.0000      -5.454970      -148.4373
  24   2.0000      -1.458470       -39.6870
  25   2.0000      -1.347803       -36.6756
  26   2.0000      -1.189969       -32.3807
  27   2.0000      -1.132613       -30.8200
  28   2.0000      -1.064907       -28.9776
  29   2.0000      -1.047491       -28.5037
  30   2.0000      -1.008029       -27.4299
  31   2.0000      -0.926278       -25.2053
  32   2.0000      -0.858497       -23.3609
  33   2.0000      -0.837776       -22.7970
  34   2.0000      -0.775469       -21.1016
  35   2.0000      -0.732802       -19.9405
  36   2.0000      -0.680766       -18.5246
  37   2.0000      -0.667684       -18.1686
  38   2.0000      -0.663860       -18.0645
  39   2.0000      -0.641623       -17.4594
  40   2.0000      -0.634313       -17.2605
  41   2.0000      -0.618238       -16.8231
  42   2.0000      -0.610067       -16.6008
  43   2.0000      -0.589239       -16.0340
  44   2.0000      -0.552833       -15.0433
  45   2.0000      -0.549030       -14.9399
  46   2.0000      -0.532619       -14.4933
  47   2.0000      -0.524447       -14.2709
  48   2.0000      -0.515068       -14.0157
  49   2.0000      -0.503191       -13.6925
  50   2.0000      -0.499884       -13.6025
  51   2.0000      -0.486755       -13.2453
  52   2.0000      -0.477266       -12.9871
  53   2.0000      -0.430670       -11.7191
  54   2.0000      -0.380967       -10.3666
  55   2.0000      -0.371438       -10.1073
  56   2.0000      -0.363749        -9.8981
  57   0.0000       0.019877         0.5409
  58   0.0000       0.027221         0.7407
  59   0.0000       0.028320         0.7706
  60   0.0000       0.036641         0.9971
  61   0.0000       0.042372         1.1530

MULLIKEN ATOMIC CHARGES
-----------------------
   0 Cl:   -0.519740
   1 S :    2.865508
   2 O :   -1.378509
   3 O :   -1.353631
   4 P :    0.927291
   5 C :   -0.306622
   6 C :   -0.364641
   7 H :    0.388966
   8 C :   -0.279686
   9 H :    0.241469
  10 C :   -0.309487
  11 H :    0.348934
  12 C :   -0.285561
  13 H :    0.237028
  14 C :   -0.437657
  15 H :    0.367984
  16 C :   -1.124283
  17 H :    0.299508
  18 H :    0.292630
  19 H :    0.390500
Sum of atomic charges:    0.0000000

LOEWDIN ATOMIC CHARGES
----------------------
   0 Cl:    0.770050
   1 S :   -0.467737
   2 O :    0.267614
   3 O :    0.275663
   4 P :    0.064906
   5 C :   -0.338591
   6 C :    0.254286
   7 H :   -0.352735
   8 C :    0.355929
   9 H :   -0.316497
  10 C :    0.349156
  11 H :   -0.312635
  12 C :    0.355746
  13 H :   -0.316868
  14 C :    0.266328
  15 H :   -0.342206
  16 C :    0.634299
  17 H :   -0.373188
  18 H :   -0.393924
  19 H :   -0.379596

  Mayer bond orders larger than 0.100000
B(  0-Cl,  4-P ) :   0.7582 B(  1-S ,  2-O ) :   0.8221 B(  1-S ,  3-O ) :   0.8424
B(  1-S ,  4-P ) :   0.8150 B(  1-S ,  5-C ) :   0.8379 B(  1-S ,  6-C ) :  -0.1584
B(  1-S , 14-C ) :  -0.1999 B(  2-O , 14-C ) :   0.1213 B(  3-O ,  5-C ) :  -0.1758
B(  3-O ,  6-C ) :   0.1396 B(  4-P , 16-C ) :   0.9854 B(  5-C ,  6-C ) :   0.9200
B(  5-C ,  8-C ) :  -0.3455 B(  5-C , 12-C ) :  -0.3435 B(  5-C , 14-C ) :   0.9425
B(  5-C , 15-H ) :  -0.1029 B(  6-C ,  7-H ) :   0.8243 B(  6-C ,  8-C ) :   1.3622
B(  6-C ,  9-H ) :  -0.1226 B(  6-C , 12-C ) :   0.1222 B(  8-C ,  9-H ) :   1.1292
B(  8-C , 10-C ) :   1.1170 B(  8-C , 14-C ) :   0.1294 B(  9-H , 10-C ) :  -0.1072
B( 10-C , 11-H ) :   0.9791 B( 10-C , 12-C ) :   1.1037 B( 10-C , 13-H ) :  -0.1215
B( 10-C , 14-C ) :   0.1058 B( 12-C , 13-H ) :   1.1362 B( 12-C , 14-C ) :   1.4104
B( 13-H , 14-C ) :  -0.1232 B( 14-C , 15-H ) :   0.8520 B( 16-C , 17-H ) :   0.8875
B( 16-C , 18-H ) :   0.8925 B( 16-C , 19-H ) :   0.8517

MP2 TOTAL ENERGY:    -1619.753001840 Eh
FINAL SINGLE POINT ENERGY     -1619.753001840261

DIPOLE MOMENT
-------------
                                X             Y             Z
Electronic contribution:      6.61278       4.08132      -0.98459
Nuclear contribution   :     -7.19458      -3.23913       0.06196
                        -----------------------------------------
Total Dipole Moment    :     -0.58180       0.84219      -0.92264
                        -----------------------------------------
Magnitude (a.u.)       :      1.37806
Magnitude (Debye)      :      3.50274

Rotational constants in cm-1:     0.036173     0.016021     0.013763
Rotational constants in MHz :  1084.446051   480.293723   412.598525

                             ****ORCA TERMINATED NORMALLY****
TOTAL RUN TIME: 0 days 1 hours 25 minutes 27 seconds 461 msec
