                         Program Version 5.0.4 -  RELEASE  -
|  1> ! ri-mp2 aug-cc-pvdz aug-cc-pvdz/c tightscf
|  2> %pal nprocs 16 end
|  3> %maxcore 3800
|  4> %base "DZ_P-N_70_AB"
|  5>
|  6> *xyz 0 1
|  7> C        -2.835942    0.277372   -0.298237
|  8> C        -2.072632    1.224725    0.362800
|  9> C        -0.755149    0.949548    0.688686
| 10> C        -2.281090   -0.948380   -0.628670
| 11> C        -0.968193   -1.225381   -0.292279
| 12> C        -0.187251   -0.277688    0.363486
| 13> H        -3.865063    0.492839   -0.553856
| 14> H        -2.502783    2.183096    0.622356
| 15> H        -0.157408    1.698408    1.190976
| 16> H        -2.875954   -1.693186   -1.140618
| 17> H        -0.541455   -2.189459   -0.539991
| 18> N         2.334682   -0.161725   -0.641799
| 19> O         2.293423    1.238137   -0.887122
| 20> H         1.742453    1.319372   -1.673315
| 21> P         1.536094   -0.702362    0.769946
| 22> H         1.764104    0.389975    1.646487
| 23> H         3.306087   -0.439828   -0.686369
| 24> *
| 25>
| 26> $new_job
| 27> ! ri-mp2 aug-cc-pvtz aug-cc-pvtz/c tightscf
| 28> %pal nprocs 16 end
| 29> %maxcore 3800
| 30> %base "TZ_P-N_70_AB"
| 31>
| 32> *xyz 0 1
| 33> C        -2.835942    0.277372   -0.298237
| 34> C        -2.072632    1.224725    0.362800
| 35> C        -0.755149    0.949548    0.688686
| 36> C        -2.281090   -0.948380   -0.628670
| 37> C        -0.968193   -1.225381   -0.292279
| 38> C        -0.187251   -0.277688    0.363486
| 39> H        -3.865063    0.492839   -0.553856
| 40> H        -2.502783    2.183096    0.622356
| 41> H        -0.157408    1.698408    1.190976
| 42> H        -2.875954   -1.693186   -1.140618
| 43> H        -0.541455   -2.189459   -0.539991
| 44> N         2.334682   -0.161725   -0.641799
| 45> O         2.293423    1.238137   -0.887122
| 46> H         1.742453    1.319372   -1.673315
| 47> P         1.536094   -0.702362    0.769946
| 48> H         1.764104    0.389975    1.646487
| 49> H         3.306087   -0.439828   -0.686369
| 50> *
| 51>
| 52> $new_job
| 53> ! ri-mp2 aug-cc-pvqz aug-cc-pvqz/c tightscf
| 54> %pal nprocs 16 end
| 55> %maxcore 3800
| 56> %base "QZ_P-N_70_AB"
| 57>
| 58> *xyz 0 1
| 59> C        -2.835942    0.277372   -0.298237
| 60> C        -2.072632    1.224725    0.362800
| 61> C        -0.755149    0.949548    0.688686
| 62> C        -2.281090   -0.948380   -0.628670
| 63> C        -0.968193   -1.225381   -0.292279
| 64> C        -0.187251   -0.277688    0.363486
| 65> H        -3.865063    0.492839   -0.553856
| 66> H        -2.502783    2.183096    0.622356
| 67> H        -0.157408    1.698408    1.190976
| 68> H        -2.875954   -1.693186   -1.140618
| 69> H        -0.541455   -2.189459   -0.539991
| 70> N         2.334682   -0.161725   -0.641799
| 71> O         2.293423    1.238137   -0.887122
| 72> H         1.742453    1.319372   -1.673315
| 73> P         1.536094   -0.702362    0.769946
| 74> H         1.764104    0.389975    1.646487
| 75> H         3.306087   -0.439828   -0.686369
| 76> *
| 77>
| 78>
| 79>
| 80>
| 81>                          ****END OF INPUT****
 Total Charge           Charge          ....    0
 Multiplicity           Mult            ....    1
 Number of Electrons    NEL             ....   74
MP2 TOTAL ENERGY:     -703.214171372 Eh
FINAL SINGLE POINT ENERGY      -703.214171371751
MP2 TOTAL ENERGY:     -703.575536268 Eh
FINAL SINGLE POINT ENERGY      -703.575536267928

CARTESIAN COORDINATES (ANGSTROEM)
---------------------------------
  C     -2.835942    0.277372   -0.298237
  C     -2.072632    1.224725    0.362800
  C     -0.755149    0.949548    0.688686
  C     -2.281090   -0.948380   -0.628670
  C     -0.968193   -1.225381   -0.292279
  C     -0.187251   -0.277688    0.363486
  H     -3.865063    0.492839   -0.553856
  H     -2.502783    2.183096    0.622356
  H     -0.157408    1.698408    1.190976
  H     -2.875954   -1.693186   -1.140618
  H     -0.541455   -2.189459   -0.539991
  N      2.334682   -0.161725   -0.641799
  O      2.293423    1.238137   -0.887122
  H      1.742453    1.319372   -1.673315
  P      1.536094   -0.702362    0.769946
  H      1.764104    0.389975    1.646487
  H      3.306087   -0.439828   -0.686369

 Multiplicity           Mult            ....    1
 Number of Electrons    NEL             ....   74
 Basis Dimension        Dim             .... 1092

ORBITAL ENERGIES
----------------

  NO   OCC          E(Eh)            E(eV)
   0   2.0000     -79.957112     -2175.7436
   1   2.0000     -20.594002      -560.3913
   2   2.0000     -15.604950      -424.6323
   3   2.0000     -11.240733      -305.8759
   4   2.0000     -11.240509      -305.8698
   5   2.0000     -11.240350      -305.8655
   6   2.0000     -11.236763      -305.7679
   7   2.0000     -11.236249      -305.7539
   8   2.0000     -11.236025      -305.7478
   9   2.0000      -7.496688      -203.9953
  10   2.0000      -5.390942      -146.6950
  11   2.0000      -5.390494      -146.6828
  12   2.0000      -5.389864      -146.6656
  13   2.0000      -1.406345       -38.2686
  14   2.0000      -1.163519       -31.6610
  15   2.0000      -1.099046       -29.9066
  16   2.0000      -1.026664       -27.9369
  17   2.0000      -1.023944       -27.8629
  18   2.0000      -0.860501       -23.4154
  19   2.0000      -0.833968       -22.6934
  20   2.0000      -0.786088       -21.3905
  21   2.0000      -0.702731       -19.1223
  22   2.0000      -0.697412       -18.9775
  23   2.0000      -0.662142       -18.0178
  24   2.0000      -0.637621       -17.3505
  25   2.0000      -0.633740       -17.2449
  26   2.0000      -0.602090       -16.3837
  27   2.0000      -0.594302       -16.1718
  28   2.0000      -0.556400       -15.1404
  29   2.0000      -0.512944       -13.9579
  30   2.0000      -0.508521       -13.8376
  31   2.0000      -0.498721       -13.5709
  32   2.0000      -0.469994       -12.7892
  33   2.0000      -0.406923       -11.0729
  34   2.0000      -0.377033       -10.2596
  35   2.0000      -0.344595        -9.3769
  36   2.0000      -0.336907        -9.1677
  37   0.0000       0.023021         0.6264
  38   0.0000       0.029777         0.8103
  39   0.0000       0.030686         0.8350
  40   0.0000       0.039108         1.0642
  41   0.0000       0.041710         1.1350

MULLIKEN ATOMIC CHARGES
-----------------------
   0 C :   -0.338331
   1 C :   -0.268452
   2 C :   -0.390468
   3 C :   -0.314056
   4 C :   -0.276596
   5 C :   -0.187766
   6 H :    0.357386
   7 H :    0.253693
   8 H :    0.318414
   9 H :    0.253104
  10 H :    0.320040
  11 N :   -0.428668
  12 O :   -0.630680
  13 H :    0.376149
  14 P :    0.805160
  15 H :   -0.111321
  16 H :    0.262391
Sum of atomic charges:    0.0000000

LOEWDIN ATOMIC CHARGES
----------------------
   0 C :    0.333283
   1 C :    0.338687
   2 C :    0.245176
   3 C :    0.335636
   4 C :    0.234896
   5 C :   -0.301217
   6 H :   -0.319656
   7 H :   -0.321203
   8 H :   -0.347693
   9 H :   -0.321482
  10 H :   -0.342749
  11 N :    0.307083
  12 O :    1.045675
  13 H :   -0.845479
  14 P :    1.060925
  15 H :   -0.423521
  16 H :   -0.678361

  Mayer bond orders larger than 0.100000
B(  0-C ,  1-C ) :   1.1452 B(  0-C ,  2-C ) :   0.1339 B(  0-C ,  3-C ) :   1.1179
B(  0-C ,  6-H ) :   0.9754 B(  1-C ,  2-C ) :   1.3426 B(  1-C ,  3-C ) :  -0.1273
B(  1-C ,  4-C ) :   0.1455 B(  1-C ,  5-C ) :  -0.3186 B(  1-C ,  7-H ) :   1.1127
B(  2-C ,  3-C ) :   0.1496 B(  2-C ,  5-C ) :   0.9032 B(  2-C ,  7-H ) :  -0.1264
B(  2-C ,  8-H ) :   0.9377 B(  3-C ,  4-C ) :   1.3558 B(  3-C ,  5-C ) :  -0.2724
B(  3-C ,  9-H ) :   1.1106 B(  4-C ,  5-C ) :   0.9437 B(  4-C ,  9-H ) :  -0.1284
B(  4-C , 10-H ) :   0.9231 B(  4-C , 14-P ) :  -0.2724 B(  5-C , 10-H ) :  -0.1137
B(  5-C , 14-P ) :   0.8924 B(  5-C , 15-H ) :  -0.1511 B( 11-N , 12-O ) :   0.7664
B( 11-N , 14-P ) :   0.7934 B( 11-N , 16-H ) :   0.9451 B( 12-O , 13-H ) :   0.8756
B( 14-P , 15-H ) :   0.9142

MP2 TOTAL ENERGY:     -703.691789075 Eh
FINAL SINGLE POINT ENERGY      -703.691789075179

DIPOLE MOMENT
-------------
                                X             Y             Z
Electronic contribution:      4.07207      -2.25891       1.50364
Nuclear contribution   :     -4.47444       2.41169      -1.85686
                        -----------------------------------------
Total Dipole Moment    :     -0.40237       0.15278      -0.35322
                        -----------------------------------------
Magnitude (a.u.)       :      0.55678
Magnitude (Debye)      :      1.41522

Rotational constants in cm-1:     0.093856     0.029494     0.026849
Rotational constants in MHz :  2813.744271   884.212317   804.901775

                             ****ORCA TERMINATED NORMALLY****
TOTAL RUN TIME: 0 days 0 hours 33 minutes 12 seconds 689 msec
