                         Program Version 5.0.4 -  RELEASE  -
|  1> ! ri-mp2 aug-cc-pvdz aug-cc-pvdz/c tightscf
|  2> %pal nprocs 16 end
|  3> %maxcore 3800
|  4> %base "DZ_B-S_39_AB"
|  5>
|  6> *xyz 0 1
|  7> F         2.763436    1.769838    0.438662
|  8> N         3.892464   -0.605287   -0.168139
|  9> H         4.285769   -1.524958   -0.076850
| 10> H         4.428090    0.134276    0.251875
| 11> B        -1.825488    0.024635   -0.012771
| 12> S        -2.682441    1.577641   -0.337449
| 13> C         1.933529    0.734010    0.173671
| 14> S        -2.832987   -1.415527    0.404358
| 15> C         2.526096   -0.494637   -0.106669
| 16> C         1.663637   -1.559361   -0.356260
| 17> H         2.082291   -2.531344   -0.585422
| 18> C         0.295677   -1.385152   -0.317678
| 19> H        -0.337842   -2.238329   -0.521270
| 20> C        -0.289591   -0.145152   -0.047665
| 21> C         0.580679    0.922380    0.201074
| 22> H         0.212197    1.909221    0.447334
| 23> H        -1.631442    2.296359   -0.751598
| 24> H        -4.043094   -0.886294    0.179423
| 25> *
| 26>
| 27> $new_job
| 28> ! ri-mp2 aug-cc-pvtz aug-cc-pvtz/c tightscf
| 29> %pal nprocs 16 end
| 30> %maxcore 3800
| 31> %base "TZ_B-S_39_AB"
| 32>
| 33> *xyz 0 1
| 34> F         2.763436    1.769838    0.438662
| 35> N         3.892464   -0.605287   -0.168139
| 36> H         4.285769   -1.524958   -0.076850
| 37> H         4.428090    0.134276    0.251875
| 38> B        -1.825488    0.024635   -0.012771
| 39> S        -2.682441    1.577641   -0.337449
| 40> C         1.933529    0.734010    0.173671
| 41> S        -2.832987   -1.415527    0.404358
| 42> C         2.526096   -0.494637   -0.106669
| 43> C         1.663637   -1.559361   -0.356260
| 44> H         2.082291   -2.531344   -0.585422
| 45> C         0.295677   -1.385152   -0.317678
| 46> H        -0.337842   -2.238329   -0.521270
| 47> C        -0.289591   -0.145152   -0.047665
| 48> C         0.580679    0.922380    0.201074
| 49> H         0.212197    1.909221    0.447334
| 50> H        -1.631442    2.296359   -0.751598
| 51> H        -4.043094   -0.886294    0.179423
| 52> *
| 53>
| 54> $new_job
| 55> ! ri-mp2 aug-cc-pvqz aug-cc-pvqz/c tightscf
| 56> %pal nprocs 16 end
| 57> %maxcore 3800
| 58> %base "QZ_B-S_39_AB"
| 59>
| 60> *xyz 0 1
| 61> F         2.763436    1.769838    0.438662
| 62> N         3.892464   -0.605287   -0.168139
| 63> H         4.285769   -1.524958   -0.076850
| 64> H         4.428090    0.134276    0.251875
| 65> B        -1.825488    0.024635   -0.012771
| 66> S        -2.682441    1.577641   -0.337449
| 67> C         1.933529    0.734010    0.173671
| 68> S        -2.832987   -1.415527    0.404358
| 69> C         2.526096   -0.494637   -0.106669
| 70> C         1.663637   -1.559361   -0.356260
| 71> H         2.082291   -2.531344   -0.585422
| 72> C         0.295677   -1.385152   -0.317678
| 73> H        -0.337842   -2.238329   -0.521270
| 74> C        -0.289591   -0.145152   -0.047665
| 75> C         0.580679    0.922380    0.201074
| 76> H         0.212197    1.909221    0.447334
| 77> H        -1.631442    2.296359   -0.751598
| 78> H        -4.043094   -0.886294    0.179423
| 79> *
| 80>
| 81>
| 82>
| 83>
| 84>                          ****END OF INPUT****
 Total Charge           Charge          ....    0
 Multiplicity           Mult            ....    1
 Number of Electrons    NEL             ....   96
MP2 TOTAL ENERGY:    -1206.602263098 Eh
FINAL SINGLE POINT ENERGY     -1206.602263097657
MP2 TOTAL ENERGY:    -1207.053950682 Eh
FINAL SINGLE POINT ENERGY     -1207.053950682491

CARTESIAN COORDINATES (ANGSTROEM)
---------------------------------
  F      2.763436    1.769838    0.438662
  N      3.892464   -0.605287   -0.168139
  H      4.285769   -1.524958   -0.076850
  H      4.428090    0.134276    0.251875
  B     -1.825488    0.024635   -0.012771
  S     -2.682441    1.577641   -0.337449
  C      1.933529    0.734010    0.173671
  S     -2.832987   -1.415527    0.404358
  C      2.526096   -0.494637   -0.106669
  C      1.663637   -1.559361   -0.356260
  H      2.082291   -2.531344   -0.585422
  C      0.295677   -1.385152   -0.317678
  H     -0.337842   -2.238329   -0.521270
  C     -0.289591   -0.145152   -0.047665
  C      0.580679    0.922380    0.201074
  H      0.212197    1.909221    0.447334
  H     -1.631442    2.296359   -0.751598
  H     -4.043094   -0.886294    0.179423

 Multiplicity           Mult            ....    1
 Number of Electrons    NEL             ....   96
 Basis Dimension        Dim             .... 1210

ORBITAL ENERGIES
----------------

  NO   OCC          E(Eh)            E(eV)
   0   2.0000     -91.953337     -2502.1775
   1   2.0000     -91.951079     -2502.1161
   2   2.0000     -26.311539      -715.9734
   3   2.0000     -15.583200      -424.0404
   4   2.0000     -11.318928      -308.0037
   5   2.0000     -11.302075      -307.5451
   6   2.0000     -11.253482      -306.2228
   7   2.0000     -11.249166      -306.1054
   8   2.0000     -11.239359      -305.8385
   9   2.0000     -11.223330      -305.4023
  10   2.0000      -8.958535      -243.7741
  11   2.0000      -8.956306      -243.7135
  12   2.0000      -7.647334      -208.0945
  13   2.0000      -6.640146      -180.6875
  14   2.0000      -6.639120      -180.6596
  15   2.0000      -6.638683      -180.6478
  16   2.0000      -6.637901      -180.6265
  17   2.0000      -6.636903      -180.5993
  18   2.0000      -6.636456      -180.5871
  19   2.0000      -1.630278       -44.3621
  20   2.0000      -1.251708       -34.0607
  21   2.0000      -1.154093       -31.4045
  22   2.0000      -1.034785       -28.1579
  23   2.0000      -1.028394       -27.9840
  24   2.0000      -0.992057       -26.9952
  25   2.0000      -0.958961       -26.0946
  26   2.0000      -0.868025       -23.6202
  27   2.0000      -0.845660       -23.0116
  28   2.0000      -0.758506       -20.6400
  29   2.0000      -0.731764       -19.9123
  30   2.0000      -0.715176       -19.4609
  31   2.0000      -0.701658       -19.0931
  32   2.0000      -0.671362       -18.2687
  33   2.0000      -0.661757       -18.0073
  34   2.0000      -0.619800       -16.8656
  35   2.0000      -0.613108       -16.6835
  36   2.0000      -0.599328       -16.3085
  37   2.0000      -0.565443       -15.3865
  38   2.0000      -0.553844       -15.0709
  39   2.0000      -0.527600       -14.3567
  40   2.0000      -0.514799       -14.0084
  41   2.0000      -0.477093       -12.9824
  42   2.0000      -0.458406       -12.4739
  43   2.0000      -0.446321       -12.1450
  44   2.0000      -0.423018       -11.5109
  45   2.0000      -0.367885       -10.0107
  46   2.0000      -0.354618        -9.6496
  47   2.0000      -0.309395        -8.4191
  48   0.0000       0.018366         0.4998
  49   0.0000       0.028542         0.7767
  50   0.0000       0.030341         0.8256
  51   0.0000       0.038668         1.0522
  52   0.0000       0.040231         1.0947

MULLIKEN ATOMIC CHARGES
-----------------------
   0 F :   -0.801669
   1 N :   -0.765006
   2 H :    0.289989
   3 H :    0.297967
   4 B :    0.519801
   5 S :   -0.134964
   6 C :    1.355319
   7 S :   -0.103730
   8 C :    0.072561
   9 C :   -0.379731
  10 H :    0.200665
  11 C :   -0.498899
  12 H :    0.147927
  13 C :    0.219113
  14 C :   -0.695710
  15 H :    0.301713
  16 H :   -0.015616
  17 H :   -0.009730
Sum of atomic charges:   -0.0000000

LOEWDIN ATOMIC CHARGES
----------------------
   0 F :    0.796327
   1 N :    1.273765
   2 H :   -0.491478
   3 H :   -0.521932
   4 B :   -1.654840
   5 S :    1.704612
   6 C :   -0.653952
   7 S :    1.689061
   8 C :   -0.278814
   9 C :    0.358624
  10 H :   -0.314894
  11 C :    0.276695
  12 H :   -0.361011
  13 C :   -0.119346
  14 C :    0.245203
  15 H :   -0.357872
  16 H :   -0.788758
  17 H :   -0.801392

  Mayer bond orders larger than 0.100000
B(  0-F ,  6-C ) :  -0.6672 B(  0-F ,  8-C ) :   0.5138 B(  0-F , 14-C ) :   0.2795
B(  1-N ,  2-H ) :   0.9367 B(  1-N ,  3-H ) :   0.9168 B(  1-N ,  8-C ) :   0.6679
B(  4-B ,  5-S ) :   1.0173 B(  4-B ,  7-S ) :   1.0238 B(  4-B , 13-C ) :   1.0893
B(  5-S , 16-H ) :   1.0674 B(  6-C ,  8-C ) :   1.3548 B(  6-C , 11-C ) :   0.1641
B(  6-C , 13-C ) :  -0.4738 B(  6-C , 14-C ) :   1.5198 B(  7-S , 17-H ) :   1.0984
B(  8-C ,  9-C ) :   1.2045 B(  8-C , 10-H ) :  -0.1123 B(  9-C , 10-H ) :   1.0686
B(  9-C , 11-C ) :   1.2154 B(  9-C , 12-H ) :  -0.1140 B(  9-C , 13-C ) :  -0.3151
B( 10-H , 11-C ) :  -0.1692 B( 11-C , 12-H ) :   1.0859 B( 11-C , 13-C ) :   1.0620
B( 13-C , 14-C ) :   0.9009 B( 14-C , 15-H ) :   0.8929

MP2 TOTAL ENERGY:    -1207.200965214 Eh
FINAL SINGLE POINT ENERGY     -1207.200965213828

DIPOLE MOMENT
-------------
                                X             Y             Z
Electronic contribution:     -2.85385       3.99859       1.42047
Nuclear contribution   :      3.78875      -4.45043      -1.42890
                        -----------------------------------------
Total Dipole Moment    :      0.93490      -0.45185      -0.00843
                        -----------------------------------------
Magnitude (a.u.)       :      1.03840
Magnitude (Debye)      :      2.63939

Rotational constants in cm-1:     0.052313     0.015017     0.011969
Rotational constants in MHz :  1568.296656   450.201591   358.815018

                             ****ORCA TERMINATED NORMALLY****
TOTAL RUN TIME: 0 days 0 hours 51 minutes 34 seconds 783 msec
