                         Program Version 5.0.4 -  RELEASE  -
|  1> ! ri-mp2 aug-cc-pvdz aug-cc-pvdz/c tightscf
|  2> %pal nprocs 16 end
|  3> %maxcore 3800
|  4> %base "DZ_P-Si_12_AB"
|  5>
|  6> *xyz 0 1
|  7> Si        -0.284865    0.204479   -1.014567
|  8> N        -1.054947    1.617642   -0.027096
|  9> P         1.597025   -0.242526    0.158235
| 10> O        -0.376206    2.241636    0.782103
| 11> O        -2.212365    1.877919   -0.266909
| 12> O         1.357476   -1.181260    1.257094
| 13> O         2.202382    1.176359    0.499300
| 14> C        -1.512706   -1.173759   -1.144056
| 15> C        -1.705540   -2.058065    0.093258
| 16> H        -1.195212   -1.778770   -1.999453
| 17> H        -2.458263   -0.709117   -1.439598
| 18> C        -2.170410   -1.295000    1.323346
| 19> H        -0.771808   -2.570365    0.326979
| 20> H        -2.435944   -2.830141   -0.156653
| 21> H        -1.394164   -0.621772    1.691071
| 22> H        -2.395982   -1.981684    2.138322
| 23> H        -3.067200   -0.708425    1.117503
| 24> H         1.516092    1.769398    0.860243
| 25> O         2.646492   -0.767203   -0.921301
| 26> H         3.014085   -1.622978   -0.666990
| 27> H        -0.004543    0.886866   -2.288929
| 28> *
| 29>
| 30> $new_job
| 31> ! ri-mp2 aug-cc-pvtz aug-cc-pvtz/c tightscf
| 32> %pal nprocs 16 end
| 33> %maxcore 3800
| 34> %base "TZ_P-Si_12_AB"
| 35>
| 36> *xyz 0 1
| 37> Si        -0.284865    0.204479   -1.014567
| 38> N        -1.054947    1.617642   -0.027096
| 39> P         1.597025   -0.242526    0.158235
| 40> O        -0.376206    2.241636    0.782103
| 41> O        -2.212365    1.877919   -0.266909
| 42> O         1.357476   -1.181260    1.257094
| 43> O         2.202382    1.176359    0.499300
| 44> C        -1.512706   -1.173759   -1.144056
| 45> C        -1.705540   -2.058065    0.093258
| 46> H        -1.195212   -1.778770   -1.999453
| 47> H        -2.458263   -0.709117   -1.439598
| 48> C        -2.170410   -1.295000    1.323346
| 49> H        -0.771808   -2.570365    0.326979
| 50> H        -2.435944   -2.830141   -0.156653
| 51> H        -1.394164   -0.621772    1.691071
| 52> H        -2.395982   -1.981684    2.138322
| 53> H        -3.067200   -0.708425    1.117503
| 54> H         1.516092    1.769398    0.860243
| 55> O         2.646492   -0.767203   -0.921301
| 56> H         3.014085   -1.622978   -0.666990
| 57> H        -0.004543    0.886866   -2.288929
| 58> *
| 59>
| 60> $new_job
| 61> ! ri-mp2 aug-cc-pvqz aug-cc-pvqz/c tightscf
| 62> %pal nprocs 16 end
| 63> %maxcore 3800
| 64> %base "QZ_P-Si_12_AB"
| 65>
| 66> *xyz 0 1
| 67> Si        -0.284865    0.204479   -1.014567
| 68> N        -1.054947    1.617642   -0.027096
| 69> P         1.597025   -0.242526    0.158235
| 70> O        -0.376206    2.241636    0.782103
| 71> O        -2.212365    1.877919   -0.266909
| 72> O         1.357476   -1.181260    1.257094
| 73> O         2.202382    1.176359    0.499300
| 74> C        -1.512706   -1.173759   -1.144056
| 75> C        -1.705540   -2.058065    0.093258
| 76> H        -1.195212   -1.778770   -1.999453
| 77> H        -2.458263   -0.709117   -1.439598
| 78> C        -2.170410   -1.295000    1.323346
| 79> H        -0.771808   -2.570365    0.326979
| 80> H        -2.435944   -2.830141   -0.156653
| 81> H        -1.394164   -0.621772    1.691071
| 82> H        -2.395982   -1.981684    2.138322
| 83> H        -3.067200   -0.708425    1.117503
| 84> H         1.516092    1.769398    0.860243
| 85> O         2.646492   -0.767203   -0.921301
| 86> H         3.014085   -1.622978   -0.666990
| 87> H        -0.004543    0.886866   -2.288929
| 88> *
| 89>
| 90>
| 91>
| 92>
| 93>                          ****END OF INPUT****
 Total Charge           Charge          ....    0
 Multiplicity           Mult            ....    1
 Number of Electrons    NEL             ....  104
MP2 TOTAL ENERGY:    -1179.776823663 Eh
FINAL SINGLE POINT ENERGY     -1179.776823662845
MP2 TOTAL ENERGY:    -1180.360350559 Eh
FINAL SINGLE POINT ENERGY     -1180.360350558510

CARTESIAN COORDINATES (ANGSTROEM)
---------------------------------
  Si    -0.284865    0.204479   -1.014567
  N     -1.054947    1.617642   -0.027096
  P      1.597025   -0.242526    0.158235
  O     -0.376206    2.241636    0.782103
  O     -2.212365    1.877919   -0.266909
  O      1.357476   -1.181260    1.257094
  O      2.202382    1.176359    0.499300
  C     -1.512706   -1.173759   -1.144056
  C     -1.705540   -2.058065    0.093258
  H     -1.195212   -1.778770   -1.999453
  H     -2.458263   -0.709117   -1.439598
  C     -2.170410   -1.295000    1.323346
  H     -0.771808   -2.570365    0.326979
  H     -2.435944   -2.830141   -0.156653
  H     -1.394164   -0.621772    1.691071
  H     -2.395982   -1.981684    2.138322
  H     -3.067200   -0.708425    1.117503
  H      1.516092    1.769398    0.860243
  O      2.646492   -0.767203   -0.921301
  H      3.014085   -1.622978   -0.666990
  H     -0.004543    0.886866   -2.288929

 Multiplicity           Mult            ....    1
 Number of Electrons    NEL             ....  104
 Basis Dimension        Dim             .... 1348

ORBITAL ENERGIES
----------------

  NO   OCC          E(Eh)            E(eV)
   0   2.0000     -80.079491     -2179.0737
   1   2.0000     -68.845800     -1873.3895
   2   2.0000     -20.623726      -561.2001
   3   2.0000     -20.616469      -561.0026
   4   2.0000     -20.615249      -560.9695
   5   2.0000     -20.601372      -560.5918
   6   2.0000     -20.519636      -558.3677
   7   2.0000     -15.833367      -430.8478
   8   2.0000     -11.248765      -306.0944
   9   2.0000     -11.240480      -305.8690
  10   2.0000     -11.219624      -305.3015
  11   2.0000      -7.602674      -206.8793
  12   2.0000      -6.194368      -168.5573
  13   2.0000      -5.500844      -149.6856
  14   2.0000      -5.500164      -149.6671
  15   2.0000      -5.499184      -149.6404
  16   2.0000      -4.301075      -117.0382
  17   2.0000      -4.299849      -117.0048
  18   2.0000      -4.299225      -116.9879
  19   2.0000      -1.617233       -44.0071
  20   2.0000      -1.448692       -39.4209
  21   2.0000      -1.415671       -38.5224
  22   2.0000      -1.394055       -37.9342
  23   2.0000      -1.311856       -35.6974
  24   2.0000      -1.082802       -29.4645
  25   2.0000      -0.979006       -26.6401
  26   2.0000      -0.950113       -25.8539
  27   2.0000      -0.867997       -23.6194
  28   2.0000      -0.836767       -22.7696
  29   2.0000      -0.808618       -22.0036
  30   2.0000      -0.745900       -20.2970
  31   2.0000      -0.738411       -20.0932
  32   2.0000      -0.725497       -19.7418
  33   2.0000      -0.713394       -19.4124
  34   2.0000      -0.676744       -18.4151
  35   2.0000      -0.656072       -17.8526
  36   2.0000      -0.631934       -17.1958
  37   2.0000      -0.628897       -17.1132
  38   2.0000      -0.602855       -16.4045
  39   2.0000      -0.593203       -16.1419
  40   2.0000      -0.577135       -15.7046
  41   2.0000      -0.570880       -15.5344
  42   2.0000      -0.533993       -14.5307
  43   2.0000      -0.522532       -14.2188
  44   2.0000      -0.518599       -14.1118
  45   2.0000      -0.504154       -13.7187
  46   2.0000      -0.497869       -13.5477
  47   2.0000      -0.484097       -13.1730
  48   2.0000      -0.476992       -12.9796
  49   2.0000      -0.472795       -12.8654
  50   2.0000      -0.465838       -12.6761
  51   2.0000      -0.431879       -11.7520
  52   0.0000       0.015135         0.4119
  53   0.0000       0.027778         0.7559
  54   0.0000       0.028352         0.7715
  55   0.0000       0.033745         0.9182
  56   0.0000       0.043008         1.1703

MULLIKEN ATOMIC CHARGES
-----------------------
   0 Si:    1.370600
   1 N :    0.852126
   2 P :    2.407772
   3 O :   -0.728034
   4 O :   -0.660433
   5 O :   -1.283567
   6 O :   -1.059952
   7 C :   -0.542903
   8 C :   -0.371503
   9 H :    0.250209
  10 H :    0.249695
  11 C :   -0.913131
  12 H :    0.277667
  13 H :    0.250592
  14 H :    0.253560
  15 H :    0.301602
  16 H :    0.216824
  17 H :    0.376522
  18 O :   -1.083983
  19 H :    0.427012
  20 H :   -0.590677
Sum of atomic charges:    0.0000000

LOEWDIN ATOMIC CHARGES
----------------------
   0 Si:    0.345351
   1 N :   -0.834765
   2 P :   -0.598779
   3 O :    0.534280
   4 O :    0.487743
   5 O :    0.291025
   6 O :    1.071403
   7 C :    0.538108
   8 C :    0.457351
   9 H :   -0.326526
  10 H :   -0.336718
  11 C :    0.903872
  12 H :   -0.311235
  13 H :   -0.269888
  14 H :   -0.318496
  15 H :   -0.267110
  16 H :   -0.279754
  17 H :   -1.080842
  18 O :    1.062483
  19 H :   -0.874051
  20 H :   -0.193454

  Mayer bond orders larger than 0.100000
B(  0-Si,  1-N ) :   0.3926 B(  0-Si,  2-P ) :   0.9727 B(  0-Si,  7-C ) :   0.8597
B(  0-Si, 20-H ) :   0.5582 B(  1-N ,  3-O ) :   1.0664 B(  1-N ,  4-O ) :   1.2382
B(  2-P ,  5-O ) :   1.2436 B(  2-P ,  6-O ) :   0.5497 B(  2-P , 18-O ) :   0.4440
B(  3-O ,  4-O ) :   0.1256 B(  6-O , 17-H ) :   0.8308 B(  7-C ,  8-C ) :   0.8578
B(  7-C ,  9-H ) :   0.9261 B(  7-C , 10-H ) :   0.9129 B(  8-C , 11-C ) :   0.9607
B(  8-C , 12-H ) :   0.8957 B(  8-C , 13-H ) :   0.9223 B( 11-C , 14-H ) :   0.9296
B( 11-C , 15-H ) :   0.9414 B( 11-C , 16-H ) :   0.9909 B( 18-O , 19-H ) :   0.9020

MP2 TOTAL ENERGY:    -1180.549718699 Eh
FINAL SINGLE POINT ENERGY     -1180.549718698930

DIPOLE MOMENT
-------------
                                X             Y             Z
Electronic contribution:     10.31746       8.61471      -0.98116
Nuclear contribution   :    -10.43970      -9.69480      -0.47609
                        -----------------------------------------
Total Dipole Moment    :     -0.12224      -1.08008      -1.45725
                        -----------------------------------------
Magnitude (a.u.)       :      1.81799
Magnitude (Debye)      :      4.62096

Rotational constants in cm-1:     0.034591     0.024037     0.018622
Rotational constants in MHz :  1037.000827   720.600060   558.282179

                             ****ORCA TERMINATED NORMALLY****
TOTAL RUN TIME: 0 days 1 hours 9 minutes 58 seconds 168 msec
