                         Program Version 5.0.4 -  RELEASE  -
|  1> ! ri-mp2 aug-cc-pvdz aug-cc-pvdz/c tightscf
|  2> %pal nprocs 16 end
|  3> %maxcore 3800
|  4> %base "DZ_P-C_43_AB"
|  5> %scf
|  6> STABPerform true
|  7> STABRestartUHFifUnstable true
|  8> end
|  9>
| 10> *xyz 0 1
| 11> C         0.826773    0.631389   -0.048866
| 12> P        -0.525306   -0.626573   -0.137382
| 13> C        -2.002374    0.455324    0.072187
| 14> H        -2.884131   -0.162792    0.238501
| 15> H        -2.164806    1.016917   -0.847983
| 16> H        -1.903283    1.158704    0.898490
| 17> C         2.203368   -0.011228    0.057766
| 18> H         0.656056    1.315071    0.784887
| 19> H         0.763374    1.225050   -0.964051
| 20> H         2.296768   -0.594057    0.975519
| 21> H         2.990353    0.743619    0.064644
| 22> H         2.391759   -0.683666   -0.780003
| 23> H        -0.433110   -1.073163    1.204213
| 24> *
| 25>
| 26> $new_job
| 27> ! ri-mp2 aug-cc-pvtz aug-cc-pvtz/c tightscf
| 28> %pal nprocs 16 end
| 29> %maxcore 3800
| 30> %base "TZ_P-C_43_AB"
| 31>
| 32> *xyz 0 1
| 33> C         0.826773    0.631389   -0.048866
| 34> P        -0.525306   -0.626573   -0.137382
| 35> C        -2.002374    0.455324    0.072187
| 36> H        -2.884131   -0.162792    0.238501
| 37> H        -2.164806    1.016917   -0.847983
| 38> H        -1.903283    1.158704    0.898490
| 39> C         2.203368   -0.011228    0.057766
| 40> H         0.656056    1.315071    0.784887
| 41> H         0.763374    1.225050   -0.964051
| 42> H         2.296768   -0.594057    0.975519
| 43> H         2.990353    0.743619    0.064644
| 44> H         2.391759   -0.683666   -0.780003
| 45> H        -0.433110   -1.073163    1.204213
| 46> *
| 47>
| 48> $new_job
| 49> ! ri-mp2 aug-cc-pvqz aug-cc-pvqz/c tightscf
| 50> %pal nprocs 16 end
| 51> %maxcore 3800
| 52> %base "QZ_P-C_43_AB"
| 53>
| 54> *xyz 0 1
| 55> C         0.826773    0.631389   -0.048866
| 56> P        -0.525306   -0.626573   -0.137382
| 57> C        -2.002374    0.455324    0.072187
| 58> H        -2.884131   -0.162792    0.238501
| 59> H        -2.164806    1.016917   -0.847983
| 60> H        -1.903283    1.158704    0.898490
| 61> C         2.203368   -0.011228    0.057766
| 62> H         0.656056    1.315071    0.784887
| 63> H         0.763374    1.225050   -0.964051
| 64> H         2.296768   -0.594057    0.975519
| 65> H         2.990353    0.743619    0.064644
| 66> H         2.391759   -0.683666   -0.780003
| 67> H        -0.433110   -1.073163    1.204213
| 68> *
| 69>
| 70>
| 71>
| 72>
| 73>                          ****END OF INPUT****
 Total Charge           Charge          ....    0
 Multiplicity           Mult            ....    1
 Number of Electrons    NEL             ....   42
MP2 TOTAL ENERGY:     -460.179269542 Eh
FINAL SINGLE POINT ENERGY      -460.179269541816
MP2 TOTAL ENERGY:     -460.345754249 Eh
FINAL SINGLE POINT ENERGY      -460.345754248961

CARTESIAN COORDINATES (ANGSTROEM)
---------------------------------
  C      0.826773    0.631389   -0.048866
  P     -0.525306   -0.626573   -0.137382
  C     -2.002374    0.455324    0.072187
  H     -2.884131   -0.162792    0.238501
  H     -2.164806    1.016917   -0.847983
  H     -1.903283    1.158704    0.898490
  C      2.203368   -0.011228    0.057766
  H      0.656056    1.315071    0.784887
  H      0.763374    1.225050   -0.964051
  H      2.296768   -0.594057    0.975519
  H      2.990353    0.743619    0.064644
  H      2.391759   -0.683666   -0.780003
  H     -0.433110   -1.073163    1.204213

 Multiplicity           Mult            ....    1
 Number of Electrons    NEL             ....   42
 Basis Dimension        Dim             ....  738

ORBITAL ENERGIES
----------------

  NO   OCC          E(Eh)            E(eV)
   0   2.0000     -79.925766     -2174.8907
   1   2.0000     -11.224586      -305.4365
   2   2.0000     -11.219923      -305.3096
   3   2.0000     -11.217523      -305.2443
   4   2.0000      -7.468058      -203.2162
   5   2.0000      -5.362218      -145.9134
   6   2.0000      -5.361957      -145.9063
   7   2.0000      -5.360915      -145.8779
   8   2.0000      -1.041553       -28.3421
   9   2.0000      -0.970410       -26.4062
  10   2.0000      -0.856493       -23.3064
  11   2.0000      -0.745899       -20.2969
  12   2.0000      -0.620432       -16.8828
  13   2.0000      -0.581594       -15.8260
  14   2.0000      -0.571908       -15.5624
  15   2.0000      -0.569854       -15.5065
  16   2.0000      -0.519754       -14.1432
  17   2.0000      -0.499646       -13.5961
  18   2.0000      -0.469750       -12.7826
  19   2.0000      -0.442054       -12.0289
  20   2.0000      -0.339902        -9.2492
  21   0.0000       0.026765         0.7283
  22   0.0000       0.030804         0.8382
  23   0.0000       0.035569         0.9679
  24   0.0000       0.038708         1.0533
  25   0.0000       0.049418         1.3447

MULLIKEN ATOMIC CHARGES
-----------------------
   0 C :   -0.596019
   1 P :    0.490875
   2 C :   -1.115793
   3 H :    0.360768
   4 H :    0.270759
   5 H :    0.278279
   6 C :   -0.840661
   7 H :    0.232329
   8 H :    0.281461
   9 H :    0.247877
  10 H :    0.269184
  11 H :    0.247347
  12 H :   -0.126407
Sum of atomic charges:    0.0000000

LOEWDIN ATOMIC CHARGES
----------------------
   0 C :    0.311203
   1 P :    1.226859
   2 C :    0.734508
   3 H :   -0.372628
   4 H :   -0.367968
   5 H :   -0.356274
   6 C :    0.830318
   7 H :   -0.344435
   8 H :   -0.351746
   9 H :   -0.302751
  10 H :   -0.289108
  11 H :   -0.305525
  12 H :   -0.412454

  Mayer bond orders larger than 0.100000
B(  0-C ,  1-P ) :   0.8057 B(  0-C ,  6-C ) :   0.9187 B(  0-C ,  7-H ) :   0.9053
B(  0-C ,  8-H ) :   0.8711 B(  1-P ,  2-C ) :   0.9198 B(  1-P , 12-H ) :   0.9344
B(  2-C ,  3-H ) :   0.8785 B(  2-C ,  4-H ) :   0.9244 B(  2-C ,  5-H ) :   0.9092
B(  6-C ,  9-H ) :   0.9396 B(  6-C , 10-H ) :   0.9775 B(  6-C , 11-H ) :   0.9356

MP2 TOTAL ENERGY:     -460.395384715 Eh
FINAL SINGLE POINT ENERGY      -460.395384715197

DIPOLE MOMENT
-------------
                                X             Y             Z
Electronic contribution:     -2.28026      -3.16274      -1.51896
Nuclear contribution   :      2.29473       3.67279       1.76781
                        -----------------------------------------
Total Dipole Moment    :      0.01447       0.51005       0.24885
                        -----------------------------------------
Magnitude (a.u.)       :      0.56771
Magnitude (Debye)      :      1.44300

Rotational constants in cm-1:     0.491263     0.100299     0.089281
Rotational constants in MHz : 14727.698245  3006.877880  2676.587262

                             ****ORCA TERMINATED NORMALLY****
TOTAL RUN TIME: 0 days 0 hours 36 minutes 50 seconds 899 msec
