                         Program Version 5.0.4 -  RELEASE  -
|  1> ! ri-mp2 aug-cc-pvdz aug-cc-pvdz/c tightscf
|  2> %pal nprocs 16 end
|  3> %maxcore 3800
|  4> %base "DZ_S-Cl_52_AB"
|  5> %scf
|  6> STABPerform true
|  7> STABRestartUHFifUnstable true
|  8> end
|  9>
| 10> *xyz 0 1
| 11> Cl         2.319300   -0.018067    0.000019
| 12> S         0.564874   -1.087210    0.000021
| 13> C        -0.753057    0.030609   -0.000008
| 14> S        -2.174563   -0.764210   -0.000012
| 15> S        -0.617373    1.744815   -0.000025
| 16> H         0.723237    1.829160   -0.000009
| 17> *
| 18>
| 19> $new_job
| 20> ! ri-mp2 aug-cc-pvtz aug-cc-pvtz/c tightscf
| 21> %pal nprocs 16 end
| 22> %maxcore 3800
| 23> %base "TZ_S-Cl_52_AB"
| 24>
| 25> *xyz 0 1
| 26> Cl         2.319300   -0.018067    0.000019
| 27> S         0.564874   -1.087210    0.000021
| 28> C        -0.753057    0.030609   -0.000008
| 29> S        -2.174563   -0.764210   -0.000012
| 30> S        -0.617373    1.744815   -0.000025
| 31> H         0.723237    1.829160   -0.000009
| 32> *
| 33>
| 34> $new_job
| 35> ! ri-mp2 aug-cc-pvqz aug-cc-pvqz/c tightscf
| 36> %pal nprocs 16 end
| 37> %maxcore 3800
| 38> %base "QZ_S-Cl_52_AB"
| 39>
| 40> *xyz 0 1
| 41> Cl         2.319300   -0.018067    0.000019
| 42> S         0.564874   -1.087210    0.000021
| 43> C        -0.753057    0.030609   -0.000008
| 44> S        -2.174563   -0.764210   -0.000012
| 45> S        -0.617373    1.744815   -0.000025
| 46> H         0.723237    1.829160   -0.000009
| 47> *
| 48>
| 49>
| 50>
| 51>
| 52>                          ****END OF INPUT****
 Total Charge           Charge          ....    0
 Multiplicity           Mult            ....    1
 Number of Electrons    NEL             ....   72
MP2 TOTAL ENERGY:    -1691.234522805 Eh
FINAL SINGLE POINT ENERGY     -1691.234522804925
MP2 TOTAL ENERGY:    -1691.482619563 Eh
FINAL SINGLE POINT ENERGY     -1691.482619562735

CARTESIAN COORDINATES (ANGSTROEM)
---------------------------------
  Cl     2.319300   -0.018067    0.000019
  S      0.564874   -1.087210    0.000021
  C     -0.753057    0.030609   -0.000008
  S     -2.174563   -0.764210   -0.000012
  S     -0.617373    1.744815   -0.000025
  H      0.723237    1.829160   -0.000009

 Multiplicity           Mult            ....    1
 Number of Electrons    NEL             ....   72
 Basis Dimension        Dim             ....  462

ORBITAL ENERGIES
----------------

  NO   OCC          E(Eh)            E(eV)
   0   2.0000    -104.879940     -2853.9283
   1   2.0000     -92.058072     -2505.0275
   2   2.0000     -92.016182     -2503.8876
   3   2.0000     -91.949990     -2502.0864
   4   2.0000     -11.397192      -310.1334
   5   2.0000     -10.604482      -288.5626
   6   2.0000      -9.055314      -246.4076
   7   2.0000      -9.018898      -245.4167
   8   2.0000      -8.954111      -243.6537
   9   2.0000      -8.071369      -219.6331
  10   2.0000      -8.069581      -219.5845
  11   2.0000      -8.069322      -219.5774
  12   2.0000      -6.736148      -183.2999
  13   2.0000      -6.734292      -183.2494
  14   2.0000      -6.733179      -183.2191
  15   2.0000      -6.700200      -182.3217
  16   2.0000      -6.699162      -182.2935
  17   2.0000      -6.698404      -182.2729
  18   2.0000      -6.635405      -180.5586
  19   2.0000      -6.634031      -180.5212
  20   2.0000      -6.633163      -180.4975
  21   2.0000      -1.198868       -32.6228
  22   2.0000      -1.130592       -30.7650
  23   2.0000      -1.016129       -27.6503
  24   2.0000      -0.947232       -25.7755
  25   2.0000      -0.737195       -20.0601
  26   2.0000      -0.669501       -18.2180
  27   2.0000      -0.590534       -16.0693
  28   2.0000      -0.567608       -15.4454
  29   2.0000      -0.536882       -14.6093
  30   2.0000      -0.504836       -13.7373
  31   2.0000      -0.504404       -13.7255
  32   2.0000      -0.484280       -13.1779
  33   2.0000      -0.407875       -11.0988
  34   2.0000      -0.362721        -9.8702
  35   2.0000      -0.354439        -9.6448
  36   0.0000       0.025369         0.6903
  37   0.0000       0.026431         0.7192
  38   0.0000       0.041030         1.1165
  39   0.0000       0.048496         1.3196
  40   0.0000       0.061290         1.6678

MULLIKEN ATOMIC CHARGES
-----------------------
   0 Cl:   -0.335733
   1 S :    0.559394
   2 C :   -0.627971
   3 S :    0.081930
   4 S :    0.212322
   5 H :    0.110057
Sum of atomic charges:   -0.0000000

LOEWDIN ATOMIC CHARGES
----------------------
   0 Cl:    0.528363
   1 S :    0.257296
   2 C :   -2.035884
   3 S :    0.806161
   4 S :    1.402129
   5 H :   -0.958064

  Mayer bond orders larger than 0.100000
B(  0-Cl,  1-S ) :   0.9292 B(  1-S ,  2-C ) :   0.9915 B(  2-C ,  3-S ) :   1.5618
B(  2-C ,  4-S ) :   0.9769 B(  4-S ,  5-H ) :   0.9928

MP2 TOTAL ENERGY:    -1691.565962351 Eh
FINAL SINGLE POINT ENERGY     -1691.565962351124

DIPOLE MOMENT
-------------
                                X             Y             Z
Electronic contribution:      3.11224      -1.19756       0.00004
Nuclear contribution   :     -2.36147       1.73714      -0.00003
                        -----------------------------------------
Total Dipole Moment    :      0.75077       0.53958       0.00000
                        -----------------------------------------
Magnitude (a.u.)       :      0.92456
Magnitude (Debye)      :      2.35004

Rotational constants in cm-1:     0.106975     0.045309     0.031828
Rotational constants in MHz :  3207.016569  1358.317307   954.179087

                             ****ORCA TERMINATED NORMALLY****
TOTAL RUN TIME: 0 days 0 hours 7 minutes 32 seconds 740 msec
