                         Program Version 5.0.4 -  RELEASE  -
|  1> ! ri-mp2 aug-cc-pvdz aug-cc-pvdz/c tightscf
|  2> %pal nprocs 16 end
|  3> %maxcore 3800
|  4> %base "DZ_B-F_33_A"
|  5> %scf
|  6> STABPerform true
|  7> STABRestartUHFifUnstable true
|  8> end
|  9>
| 10> *xyz 0 2
| 11> F        -1.995178   -0.171351   -0.226775
| 12> B        -0.949851   -0.311441    0.529148
| 13> C         0.513289    0.103415    0.080207
| 14> O         0.684164    1.305946   -0.017246
| 15> N         1.486699   -0.812034   -0.100546
| 16> H         1.326106   -1.788745    0.067984
| 17> H         2.419806   -0.495707   -0.312198
| 18> *
| 19>
| 20> $new_job
| 21> ! ri-mp2 aug-cc-pvtz aug-cc-pvtz/c tightscf
| 22> %pal nprocs 16 end
| 23> %maxcore 3800
| 24> %base "TZ_B-F_33_A"
| 25>
| 26> *xyz 0 2
| 27> F        -1.995178   -0.171351   -0.226775
| 28> B        -0.949851   -0.311441    0.529148
| 29> C         0.513289    0.103415    0.080207
| 30> O         0.684164    1.305946   -0.017246
| 31> N         1.486699   -0.812034   -0.100546
| 32> H         1.326106   -1.788745    0.067984
| 33> H         2.419806   -0.495707   -0.312198
| 34> *
| 35>
| 36> $new_job
| 37> ! ri-mp2 aug-cc-pvqz aug-cc-pvqz/c tightscf
| 38> %pal nprocs 16 end
| 39> %maxcore 3800
| 40> %base "QZ_B-F_33_A"
| 41>
| 42> *xyz 0 2
| 43> F        -1.995178   -0.171351   -0.226775
| 44> B        -0.949851   -0.311441    0.529148
| 45> C         0.513289    0.103415    0.080207
| 46> O         0.684164    1.305946   -0.017246
| 47> N         1.486699   -0.812034   -0.100546
| 48> H         1.326106   -1.788745    0.067984
| 49> H         2.419806   -0.495707   -0.312198
| 50> *
| 51>
| 52>
| 53>
| 54>
| 55>                          ****END OF INPUT****
 Total Charge           Charge          ....    0
 Multiplicity           Mult            ....    2
 Number of Electrons    NEL             ....   37
MP2 TOTAL ENERGY:     -293.266142627 Eh
FINAL SINGLE POINT ENERGY      -293.266142627034
MP2 TOTAL ENERGY:     -293.514573396 Eh
FINAL SINGLE POINT ENERGY      -293.514573395996

CARTESIAN COORDINATES (ANGSTROEM)
---------------------------------
  F     -1.995178   -0.171351   -0.226775
  B     -0.949851   -0.311441    0.529148
  C      0.513289    0.103415    0.080207
  O      0.684164    1.305946   -0.017246
  N      1.486699   -0.812034   -0.100546
  H      1.326106   -1.788745    0.067984
  H      2.419806   -0.495707   -0.312198

 Multiplicity           Mult            ....    2
 Number of Electrons    NEL             ....   37
 Basis Dimension        Dim             ....  492

ORBITAL ENERGIES
----------------
                 SPIN UP ORBITALS
  NO   OCC          E(Eh)            E(eV)
   0   1.0000     -26.338099      -716.6961
   1   1.0000     -20.539232      -558.9009
   2   1.0000     -15.603145      -424.5832
   3   1.0000     -11.353605      -308.9473
   4   1.0000      -7.708177      -209.7501
   5   1.0000      -1.657207       -45.0949
   6   1.0000      -1.399507       -38.0825
   7   1.0000      -1.231951       -33.5231
   8   1.0000      -0.877391       -23.8750
   9   1.0000      -0.811703       -22.0876
  10   1.0000      -0.766538       -20.8585
  11   1.0000      -0.734187       -19.9783
  12   1.0000      -0.708063       -19.2674
  13   1.0000      -0.683324       -18.5942
  14   1.0000      -0.615949       -16.7608
  15   1.0000      -0.589932       -16.0529
  16   1.0000      -0.461175       -12.5492
  17   1.0000      -0.436167       -11.8687
  18   1.0000      -0.365893        -9.9565
  19   0.0000       0.015205         0.4138
  20   0.0000       0.032637         0.8881
  21   0.0000       0.038058         1.0356
  22   0.0000       0.040836         1.1112
  23   0.0000       0.052970         1.4414

                 SPIN DOWN ORBITALS
  NO   OCC          E(Eh)            E(eV)
   0   1.0000     -26.334789      -716.6060
   1   1.0000     -20.537312      -558.8487
   2   1.0000     -15.603049      -424.5806
   3   1.0000     -11.350470      -308.8620
   4   1.0000      -7.689192      -209.2335
   5   1.0000      -1.648175       -44.8491
   6   1.0000      -1.394797       -37.9544
   7   1.0000      -1.230448       -33.4822
   8   1.0000      -0.859177       -23.3794
   9   1.0000      -0.803225       -21.8569
  10   1.0000      -0.758784       -20.6476
  11   1.0000      -0.712127       -19.3780
  12   1.0000      -0.705325       -19.1929
  13   1.0000      -0.672116       -18.2892
  14   1.0000      -0.604377       -16.4459
  15   1.0000      -0.579308       -15.7638
  16   1.0000      -0.436733       -11.8841
  17   1.0000      -0.427353       -11.6289
  18   0.0000       0.013888         0.3779
  19   0.0000       0.029475         0.8020
  20   0.0000       0.036801         1.0014
  21   0.0000       0.041316         1.1243
  22   0.0000       0.051813         1.4099

MULLIKEN ATOMIC CHARGES AND SPIN POPULATIONS
--------------------------------------------
   0 F :   -0.673691   -0.018590
   1 B :    0.908629    0.980103
   2 C :    0.604941   -0.002003
   3 O :   -0.760211    0.039614
   4 N :   -0.687066    0.002330
   5 H :    0.324151   -0.000069
   6 H :    0.283247   -0.001386
Sum of atomic charges         :    0.0000000

LOEWDIN ATOMIC CHARGES AND SPIN POPULATIONS
-------------------------------------------
   0 F :    0.730337    0.152197
   1 B :   -0.734600    0.583543
   2 C :   -0.814785    0.180820
   3 O :    0.640350    0.048724
   4 N :    1.185555    0.025059
   5 H :   -0.509356    0.007975
   6 H :   -0.497502    0.001681

  Mayer bond orders larger than 0.100000
B(  0-F ,  1-B ) :   0.4419 B(  1-B ,  2-C ) :   0.9208 B(  2-C ,  3-O ) :   1.5025
B(  2-C ,  4-N ) :   1.1711 B(  3-O ,  4-N ) :   0.1339 B(  4-N ,  5-H ) :   0.8921
B(  4-N ,  6-H ) :   0.9428

MP2 TOTAL ENERGY:     -293.596056217 Eh
FINAL SINGLE POINT ENERGY      -293.596056217116

DIPOLE MOMENT
-------------
                                X             Y             Z
Electronic contribution:     -5.55033       0.19035       0.50834
Nuclear contribution   :      6.11804      -1.73950      -0.42113
                        -----------------------------------------
Total Dipole Moment    :      0.56771      -1.54915       0.08721
                        -----------------------------------------
Magnitude (a.u.)       :      1.65220
Magnitude (Debye)      :      4.19956

Rotational constants in cm-1:     0.367987     0.121606     0.095896
Rotational constants in MHz : 11031.966268  3645.648330  2874.896309

                             ****ORCA TERMINATED NORMALLY****
TOTAL RUN TIME: 0 days 0 hours 16 minutes 47 seconds 374 msec
