                         Program Version 5.0.4 -  RELEASE  -
|  1> ! ri-mp2 aug-cc-pvdz aug-cc-pvdz/c tightscf
|  2> %pal nprocs 16 end
|  3> %maxcore 3800
|  4> %base "DZ_S-S_35_A"
|  5> %scf
|  6> STABPerform true
|  7> STABRestartUHFifUnstable true
|  8> end
|  9>
| 10> *xyz 0 2
| 11> C        -1.296083   -0.140085   -0.000003
| 12> O         0.005544   -0.591527   -0.000006
| 13> F        -1.564336    0.579563    1.077538
| 14> F        -2.063946   -1.215012   -0.000020
| 15> F        -1.564331    0.579595   -1.077524
| 16> C         1.027612    0.319718    0.000007
| 17> S         2.567098   -0.489814   -0.000004
| 18> O         0.903302    1.499266    0.000019
| 19> *
| 20>
| 21> $new_job
| 22> ! ri-mp2 aug-cc-pvtz aug-cc-pvtz/c tightscf
| 23> %pal nprocs 16 end
| 24> %maxcore 3800
| 25> %base "TZ_S-S_35_A"
| 26>
| 27> *xyz 0 2
| 28> C        -1.296083   -0.140085   -0.000003
| 29> O         0.005544   -0.591527   -0.000006
| 30> F        -1.564336    0.579563    1.077538
| 31> F        -2.063946   -1.215012   -0.000020
| 32> F        -1.564331    0.579595   -1.077524
| 33> C         1.027612    0.319718    0.000007
| 34> S         2.567098   -0.489814   -0.000004
| 35> O         0.903302    1.499266    0.000019
| 36> *
| 37>
| 38> $new_job
| 39> ! ri-mp2 aug-cc-pvqz aug-cc-pvqz/c tightscf
| 40> %pal nprocs 16 end
| 41> %maxcore 3800
| 42> %base "QZ_S-S_35_A"
| 43>
| 44> *xyz 0 2
| 45> C        -1.296083   -0.140085   -0.000003
| 46> O         0.005544   -0.591527   -0.000006
| 47> F        -1.564336    0.579563    1.077538
| 48> F        -2.063946   -1.215012   -0.000020
| 49> F        -1.564331    0.579595   -1.077524
| 50> C         1.027612    0.319718    0.000007
| 51> S         2.567098   -0.489814   -0.000004
| 52> O         0.903302    1.499266    0.000019
| 53> *
| 54>
| 55>
| 56>
| 57>
| 58>                          ****END OF INPUT****
 Total Charge           Charge          ....    0
 Multiplicity           Mult            ....    2
 Number of Electrons    NEL             ....   71
MP2 TOTAL ENERGY:     -922.735654698 Eh
FINAL SINGLE POINT ENERGY      -922.735654697812
MP2 TOTAL ENERGY:     -923.217318355 Eh
FINAL SINGLE POINT ENERGY      -923.217318354884

CARTESIAN COORDINATES (ANGSTROEM)
---------------------------------
  C     -1.296083   -0.140085   -0.000003
  O      0.005544   -0.591527   -0.000006
  F     -1.564336    0.579563    1.077538
  F     -2.063946   -1.215012   -0.000020
  F     -1.564331    0.579595   -1.077524
  C      1.027612    0.319718    0.000007
  S      2.567098   -0.489814   -0.000004
  O      0.903302    1.499266    0.000019

 Multiplicity           Mult            ....    2
 Number of Electrons    NEL             ....   71
 Basis Dimension        Dim             ....  644

ORBITAL ENERGIES
----------------
                 SPIN UP ORBITALS
  NO   OCC          E(Eh)            E(eV)
   0   1.0000     -92.037498     -2504.4677
   1   1.0000     -26.366880      -717.4793
   2   1.0000     -26.365013      -717.4285
   3   1.0000     -26.364990      -717.4279
   4   1.0000     -20.674577      -562.5838
   5   1.0000     -20.597786      -560.4943
   6   1.0000     -11.591347      -315.4166
   7   1.0000     -11.456511      -311.7475
   8   1.0000      -9.039950      -245.9895
   9   1.0000      -6.736065      -183.2976
  10   1.0000      -6.716911      -182.7764
  11   1.0000      -6.715540      -182.7391
  12   1.0000      -1.776874       -48.3512
  13   1.0000      -1.671624       -45.4872
  14   1.0000      -1.670136       -45.4467
  15   1.0000      -1.531244       -41.6673
  16   1.0000      -1.437667       -39.1209
  17   1.0000      -1.101045       -29.9610
  18   1.0000      -1.005045       -27.3487
  19   1.0000      -0.913895       -24.8684
  20   1.0000      -0.872163       -23.7328
  21   1.0000      -0.868539       -23.6341
  22   1.0000      -0.780254       -21.2318
  23   1.0000      -0.750915       -20.4334
  24   1.0000      -0.741262       -20.1708
  25   1.0000      -0.720942       -19.6178
  26   1.0000      -0.704134       -19.1605
  27   1.0000      -0.701912       -19.1000
  28   1.0000      -0.683400       -18.5963
  29   1.0000      -0.678255       -18.4563
  30   1.0000      -0.669651       -18.2221
  31   1.0000      -0.615803       -16.7568
  32   1.0000      -0.554944       -15.1008
  33   1.0000      -0.521443       -14.1892
  34   1.0000      -0.486855       -13.2480
  35   1.0000      -0.441131       -12.0038
  36   0.0000       0.036274         0.9871
  37   0.0000       0.053203         1.4477
  38   0.0000       0.058078         1.5804
  39   0.0000       0.062731         1.7070
  40   0.0000       0.067780         1.8444

                 SPIN DOWN ORBITALS
  NO   OCC          E(Eh)            E(eV)
   0   1.0000     -92.028011     -2504.2095
   1   1.0000     -26.366880      -717.4793
   2   1.0000     -26.365006      -717.4283
   3   1.0000     -26.364984      -717.4277
   4   1.0000     -20.674193      -562.5734
   5   1.0000     -20.596291      -560.4536
   6   1.0000     -11.591173      -315.4119
   7   1.0000     -11.457452      -311.7731
   8   1.0000      -9.029447      -245.7038
   9   1.0000      -6.712221      -182.6488
  10   1.0000      -6.709873      -182.5849
  11   1.0000      -6.693101      -182.1285
  12   1.0000      -1.776810       -48.3495
  13   1.0000      -1.671615       -45.4870
  14   1.0000      -1.670113       -45.4461
  15   1.0000      -1.529743       -41.6264
  16   1.0000      -1.434282       -39.0288
  17   1.0000      -1.063083       -28.9280
  18   1.0000      -0.976437       -26.5702
  19   1.0000      -0.901851       -24.5406
  20   1.0000      -0.872098       -23.7310
  21   1.0000      -0.864545       -23.5255
  22   1.0000      -0.777456       -21.1557
  23   1.0000      -0.750896       -20.4329
  24   1.0000      -0.736773       -20.0486
  25   1.0000      -0.714611       -19.4456
  26   1.0000      -0.701881       -19.0992
  27   1.0000      -0.698060       -18.9952
  28   1.0000      -0.678224       -18.4554
  29   1.0000      -0.673252       -18.3201
  30   1.0000      -0.669304       -18.2127
  31   1.0000      -0.606061       -16.4918
  32   1.0000      -0.553647       -15.0655
  33   1.0000      -0.489391       -13.3170
  34   1.0000      -0.420912       -11.4536
  35   0.0000      -0.027552        -0.7497
  36   0.0000       0.037589         1.0228
  37   0.0000       0.054116         1.4726
  38   0.0000       0.058141         1.5821
  39   0.0000       0.066849         1.8191

MULLIKEN ATOMIC CHARGES AND SPIN POPULATIONS
--------------------------------------------
   0 C :    1.998793    0.001529
   1 O :   -0.538630   -0.010505
   2 F :   -0.538975    0.000140
   3 F :   -0.590256   -0.000175
   4 F :   -0.538973    0.000140
   5 C :    0.522230   -0.108712
   6 S :    0.256230    1.102065
   7 O :   -0.570420    0.015518
Sum of atomic charges         :    0.0000000

LOEWDIN ATOMIC CHARGES AND SPIN POPULATIONS
-------------------------------------------
   0 C :   -2.641892    0.002185
   1 O :    0.592671    0.020602
   2 F :    0.769798    0.000315
   3 F :    0.755845    0.000087
   4 F :    0.769798    0.000315
   5 C :   -1.827217    0.207170
   6 S :    1.026818    0.739828
   7 O :    0.554180    0.029498

  Mayer bond orders larger than 0.100000
B(  0-C ,  1-O ) :   0.8502 B(  0-C ,  2-F ) :   0.5943 B(  0-C ,  3-F ) :   0.5257
B(  0-C ,  4-F ) :   0.5943 B(  1-O ,  5-C ) :   0.9399 B(  5-C ,  6-S ) :   0.9397
B(  5-C ,  7-O ) :   1.7268

MP2 TOTAL ENERGY:     -923.377531966 Eh
FINAL SINGLE POINT ENERGY      -923.377531965751

DIPOLE MOMENT
-------------
                                X             Y             Z
Electronic contribution:     -4.10944      -0.76624      -0.00001
Nuclear contribution   :      4.65386       0.07774       0.00001
                        -----------------------------------------
Total Dipole Moment    :      0.54442      -0.68849      -0.00001
                        -----------------------------------------
Magnitude (a.u.)       :      0.87773
Magnitude (Debye)      :      2.23102

Rotational constants in cm-1:     0.124282     0.035487     0.032266
Rotational constants in MHz :  3725.888046  1063.859840   967.324107

                             ****ORCA TERMINATED NORMALLY****
TOTAL RUN TIME: 0 days 1 hours 6 minutes 51 seconds 418 msec
