                         Program Version 5.0.4 -  RELEASE  -
|  1> ! ri-mp2 aug-cc-pvdz aug-cc-pvdz/c tightscf
|  2> %pal nprocs 16 end
|  3> %maxcore 3800
|  4> %base "DZ_B-B_15_B"
|  5> %scf
|  6> STABPerform true
|  7> STABRestartUHFifUnstable true
|  8> end
|  9>
| 10> *xyz 0 2
| 11> B         0.068655    0.738753    0.000000
| 12> F         0.068655   -0.561300    0.000000
| 13> H        -0.961173    1.357936    0.000000
| 14> *
| 15>
| 16> $new_job
| 17> ! ri-mp2 aug-cc-pvtz aug-cc-pvtz/c tightscf
| 18> %pal nprocs 16 end
| 19> %maxcore 3800
| 20> %base "TZ_B-B_15_B"
| 21>
| 22> *xyz 0 2
| 23> B         0.068655    0.738753    0.000000
| 24> F         0.068655   -0.561300    0.000000
| 25> H        -0.961173    1.357936    0.000000
| 26> *
| 27>
| 28> $new_job
| 29> ! ri-mp2 aug-cc-pvqz aug-cc-pvqz/c tightscf
| 30> %pal nprocs 16 end
| 31> %maxcore 3800
| 32> %base "QZ_B-B_15_B"
| 33>
| 34> *xyz 0 2
| 35> B         0.068655    0.738753    0.000000
| 36> F         0.068655   -0.561300    0.000000
| 37> H        -0.961173    1.357936    0.000000
| 38> *
| 39>
| 40>
| 41>
| 42>
| 43>                          ****END OF INPUT****
 Total Charge           Charge          ....    0
 Multiplicity           Mult            ....    2
 Number of Electrons    NEL             ....   15
MP2 TOTAL ENERGY:     -124.960009450 Eh
FINAL SINGLE POINT ENERGY      -124.960009449833
MP2 TOTAL ENERGY:     -125.068892750 Eh
FINAL SINGLE POINT ENERGY      -125.068892749953

CARTESIAN COORDINATES (ANGSTROEM)
---------------------------------
  B      0.068655    0.738753    0.000000
  F      0.068655   -0.561300    0.000000
  H     -0.961173    1.357936    0.000000

 Multiplicity           Mult            ....    2
 Number of Electrons    NEL             ....   15
 Basis Dimension        Dim             ....  206

ORBITAL ENERGIES
----------------
                 SPIN UP ORBITALS
  NO   OCC          E(Eh)            E(eV)
   0   1.0000     -26.327226      -716.4002
   1   1.0000      -7.693024      -209.3378
   2   1.0000      -1.645919       -44.7877
   3   1.0000      -0.812952       -22.1216
   4   1.0000      -0.731258       -19.8985
   5   1.0000      -0.694724       -18.9044
   6   1.0000      -0.615518       -16.7491
   7   1.0000      -0.363966        -9.9040
   8   0.0000       0.031472         0.8564
   9   0.0000       0.033203         0.9035
  10   0.0000       0.040945         1.1142
  11   0.0000       0.043663         1.1881
  12   0.0000       0.089573         2.4374

                 SPIN DOWN ORBITALS
  NO   OCC          E(Eh)            E(eV)
   0   1.0000     -26.323871      -716.3090
   1   1.0000      -7.673703      -208.8121
   2   1.0000      -1.636868       -44.5414
   3   1.0000      -0.798619       -21.7315
   4   1.0000      -0.699049       -19.0221
   5   1.0000      -0.695415       -18.9232
   6   1.0000      -0.569503       -15.4970
   7   0.0000       0.028468         0.7746
   8   0.0000       0.037227         1.0130
   9   0.0000       0.040083         1.0907
  10   0.0000       0.041328         1.1246
  11   0.0000       0.077533         2.1098

MULLIKEN ATOMIC CHARGES AND SPIN POPULATIONS
--------------------------------------------
   0 B :    0.718913    0.952071
   1 F :   -0.602003   -0.013610
   2 H :   -0.116910    0.061539
Sum of atomic charges         :    0.0000000

LOEWDIN ATOMIC CHARGES AND SPIN POPULATIONS
-------------------------------------------
   0 B :   -0.281326    0.643297
   1 F :    0.652010    0.161504
   2 H :   -0.370684    0.195199

  Mayer bond orders larger than 0.100000
B(  0-B ,  1-F ) :   0.5159 B(  0-B ,  2-H ) :   0.9519

MP2 TOTAL ENERGY:     -125.103161777 Eh
FINAL SINGLE POINT ENERGY      -125.103161777232

DIPOLE MOMENT
-------------
                                X             Y             Z
Electronic contribution:      0.81689      -0.95902       0.00000
Nuclear contribution   :     -0.99123       1.20395       0.00000
                        -----------------------------------------
Total Dipole Moment    :     -0.17435       0.24493       0.00000
                        -----------------------------------------
Magnitude (a.u.)       :      0.30065
Magnitude (Debye)      :      0.76418

Rotational constants in cm-1:    19.394311     1.216887     1.145041
Rotational constants in MHz : 581426.826400 36481.340767 34327.479895

                             ****ORCA TERMINATED NORMALLY****
TOTAL RUN TIME: 0 days 0 hours 3 minutes 0 seconds 575 msec
