                         Program Version 5.0.4 -  RELEASE  -
|  1> ! ri-mp2 aug-cc-pvdz aug-cc-pvdz/c tightscf
|  2> %pal nprocs 16 end
|  3> %maxcore 3800
|  4> %base "DZ_Si-S_46_AB"
|  5> %scf
|  6> STABPerform true
|  7> STABRestartUHFifUnstable true
|  8> end
|  9>
| 10> *xyz 0 1
| 11> S         1.371117    0.079686   -0.688622
| 12> C         1.894344   -0.966983    0.704119
| 13> H         2.093717   -0.368396    1.590593
| 14> H         2.814143   -1.462046    0.402956
| 15> H         1.149273   -1.725749    0.931938
| 16> Si        -0.312226    1.049426    0.189502
| 17> C        -1.682416   -0.141104    0.640692
| 18> C        -2.225333   -0.951940   -0.533971
| 19> H        -2.481192    0.447445    1.102618
| 20> H        -1.316731   -0.807271    1.427015
| 21> H        -2.638467   -0.301805   -1.306777
| 22> H        -3.017235   -1.631937   -0.218030
| 23> H        -1.439240   -1.547126   -0.999468
| 24> H        -0.766315    2.011373   -0.838384
| 25> H         0.115764    1.778735    1.407428
| 26> *
| 27>
| 28> $new_job
| 29> ! ri-mp2 aug-cc-pvtz aug-cc-pvtz/c tightscf
| 30> %pal nprocs 16 end
| 31> %maxcore 3800
| 32> %base "TZ_Si-S_46_AB"
| 33>
| 34> *xyz 0 1
| 35> S         1.371117    0.079686   -0.688622
| 36> C         1.894344   -0.966983    0.704119
| 37> H         2.093717   -0.368396    1.590593
| 38> H         2.814143   -1.462046    0.402956
| 39> H         1.149273   -1.725749    0.931938
| 40> Si        -0.312226    1.049426    0.189502
| 41> C        -1.682416   -0.141104    0.640692
| 42> C        -2.225333   -0.951940   -0.533971
| 43> H        -2.481192    0.447445    1.102618
| 44> H        -1.316731   -0.807271    1.427015
| 45> H        -2.638467   -0.301805   -1.306777
| 46> H        -3.017235   -1.631937   -0.218030
| 47> H        -1.439240   -1.547126   -0.999468
| 48> H        -0.766315    2.011373   -0.838384
| 49> H         0.115764    1.778735    1.407428
| 50> *
| 51>
| 52> $new_job
| 53> ! ri-mp2 aug-cc-pvqz aug-cc-pvqz/c tightscf
| 54> %pal nprocs 16 end
| 55> %maxcore 3800
| 56> %base "QZ_Si-S_46_AB"
| 57>
| 58> *xyz 0 1
| 59> S         1.371117    0.079686   -0.688622
| 60> C         1.894344   -0.966983    0.704119
| 61> H         2.093717   -0.368396    1.590593
| 62> H         2.814143   -1.462046    0.402956
| 63> H         1.149273   -1.725749    0.931938
| 64> Si        -0.312226    1.049426    0.189502
| 65> C        -1.682416   -0.141104    0.640692
| 66> C        -2.225333   -0.951940   -0.533971
| 67> H        -2.481192    0.447445    1.102618
| 68> H        -1.316731   -0.807271    1.427015
| 69> H        -2.638467   -0.301805   -1.306777
| 70> H        -3.017235   -1.631937   -0.218030
| 71> H        -1.439240   -1.547126   -0.999468
| 72> H        -0.766315    2.011373   -0.838384
| 73> H         0.115764    1.778735    1.407428
| 74> *
| 75>
| 76>
| 77>
| 78>
| 79>                          ****END OF INPUT****
 Total Charge           Charge          ....    0
 Multiplicity           Mult            ....    1
 Number of Electrons    NEL             ....   58
MP2 TOTAL ENERGY:     -806.637671981 Eh
FINAL SINGLE POINT ENERGY      -806.637671981261
MP2 TOTAL ENERGY:     -806.849597516 Eh
FINAL SINGLE POINT ENERGY      -806.849597516457

CARTESIAN COORDINATES (ANGSTROEM)
---------------------------------
  S      1.371117    0.079686   -0.688622
  C      1.894344   -0.966983    0.704119
  H      2.093717   -0.368396    1.590593
  H      2.814143   -1.462046    0.402956
  H      1.149273   -1.725749    0.931938
  Si    -0.312226    1.049426    0.189502
  C     -1.682416   -0.141104    0.640692
  C     -2.225333   -0.951940   -0.533971
  H     -2.481192    0.447445    1.102618
  H     -1.316731   -0.807271    1.427015
  H     -2.638467   -0.301805   -1.306777
  H     -3.017235   -1.631937   -0.218030
  H     -1.439240   -1.547126   -0.999468
  H     -0.766315    2.011373   -0.838384
  H      0.115764    1.778735    1.407428

 Multiplicity           Mult            ....    1
 Number of Electrons    NEL             ....   58
 Basis Dimension        Dim             ....  868

ORBITAL ENERGIES
----------------

  NO   OCC          E(Eh)            E(eV)
   0   2.0000     -91.932472     -2501.6097
   1   2.0000     -68.778931     -1871.5699
   2   2.0000     -11.257234      -306.3249
   3   2.0000     -11.218682      -305.2759
   4   2.0000     -11.213782      -305.1425
   5   2.0000      -8.936637      -243.1782
   6   2.0000      -6.618148      -180.0890
   7   2.0000      -6.617400      -180.0686
   8   2.0000      -6.616661      -180.0485
   9   2.0000      -6.126907      -166.7216
  10   2.0000      -4.233599      -115.2021
  11   2.0000      -4.233123      -115.1891
  12   2.0000      -4.232496      -115.1721
  13   2.0000      -1.037577       -28.2339
  14   2.0000      -1.021673       -27.8011
  15   2.0000      -0.866358       -23.5748
  16   2.0000      -0.845020       -22.9942
  17   2.0000      -0.679151       -18.4806
  18   2.0000      -0.616360       -16.7720
  19   2.0000      -0.596384       -16.2284
  20   2.0000      -0.586665       -15.9640
  21   2.0000      -0.575792       -15.6681
  22   2.0000      -0.528706       -14.3868
  23   2.0000      -0.500072       -13.6076
  24   2.0000      -0.497824       -13.5465
  25   2.0000      -0.464167       -12.6306
  26   2.0000      -0.443914       -12.0795
  27   2.0000      -0.410348       -11.1661
  28   2.0000      -0.350828        -9.5465
  29   0.0000       0.022850         0.6218
  30   0.0000       0.031489         0.8569
  31   0.0000       0.034111         0.9282
  32   0.0000       0.034525         0.9395
  33   0.0000       0.046466         1.2644

MULLIKEN ATOMIC CHARGES
-----------------------
   0 S :   -0.341508
   1 C :   -0.983444
   2 H :    0.269000
   3 H :    0.430815
   4 H :    0.290164
   5 Si:    1.113561
   6 C :   -0.590151
   7 C :   -0.884803
   8 H :    0.251466
   9 H :    0.235806
  10 H :    0.239593
  11 H :    0.317746
  12 H :    0.269392
  13 H :   -0.330837
  14 H :   -0.286799
Sum of atomic charges:    0.0000000

LOEWDIN ATOMIC CHARGES
----------------------
   0 S :    1.157558
   1 C :    0.466609
   2 H :   -0.378582
   3 H :   -0.390957
   4 H :   -0.378657
   5 Si:    0.311551
   6 C :    0.457677
   7 C :    0.838050
   8 H :   -0.342967
   9 H :   -0.350118
  10 H :   -0.296958
  11 H :   -0.284092
  12 H :   -0.311259
  13 H :   -0.255748
  14 H :   -0.242107

  Mayer bond orders larger than 0.100000
B(  0-S ,  1-C ) :   0.9547 B(  0-S ,  5-Si) :   0.7905 B(  1-C ,  2-H ) :   0.9176
B(  1-C ,  3-H ) :   0.7900 B(  1-C ,  4-H ) :   0.8981 B(  5-Si,  6-C ) :   0.7719
B(  5-Si, 13-H ) :   0.7919 B(  5-Si, 14-H ) :   0.8159 B(  6-C ,  7-C ) :   0.9495
B(  6-C ,  8-H ) :   0.9246 B(  6-C ,  9-H ) :   0.9116 B(  7-C , 10-H ) :   0.9495
B(  7-C , 11-H ) :   0.9172 B(  7-C , 12-H ) :   0.9288

MP2 TOTAL ENERGY:     -806.914485757 Eh
FINAL SINGLE POINT ENERGY      -806.914485756904

DIPOLE MOMENT
-------------
                                X             Y             Z
Electronic contribution:      5.34874       3.37374      -2.96723
Nuclear contribution   :     -5.64804      -3.76521       3.59779
                        -----------------------------------------
Total Dipole Moment    :     -0.29930      -0.39147       0.63057
                        -----------------------------------------
Magnitude (a.u.)       :      0.80027
Magnitude (Debye)      :      2.03413

Rotational constants in cm-1:     0.147262     0.059646     0.054011
Rotational constants in MHz :  4414.803077  1788.141700  1619.220943

                             ****ORCA TERMINATED NORMALLY****
TOTAL RUN TIME: 0 days 1 hours 26 minutes 53 seconds 49 msec
