                         Program Version 5.0.4 -  RELEASE  -
|  1> ! ri-mp2 aug-cc-pvdz aug-cc-pvdz/c tightscf
|  2> %pal nprocs 16 end
|  3> %maxcore 3800
|  4> %base "DZ_Si-Cl_37_AB"
|  5> %scf
|  6> STABPerform true
|  7> STABRestartUHFifUnstable true
|  8> end
|  9>
| 10> *xyz 0 1
| 11> C        -1.635156   -0.380563    0.000000
| 12> O        -1.990187   -1.519852    0.000019
| 13> Si         0.237680    0.000626    0.000001
| 14> O        -2.517084    0.630563   -0.000015
| 15> Cl         1.073916   -0.783775    1.659706
| 16> Cl         0.475992    2.032561   -0.000042
| 17> Cl         1.073928   -0.783845   -1.659665
| 18> H        -2.063624    1.484917   -0.000027
| 19> *
| 20>
| 21> $new_job
| 22> ! ri-mp2 aug-cc-pvtz aug-cc-pvtz/c tightscf
| 23> %pal nprocs 16 end
| 24> %maxcore 3800
| 25> %base "TZ_Si-Cl_37_AB"
| 26>
| 27> *xyz 0 1
| 28> C        -1.635156   -0.380563    0.000000
| 29> O        -1.990187   -1.519852    0.000019
| 30> Si         0.237680    0.000626    0.000001
| 31> O        -2.517084    0.630563   -0.000015
| 32> Cl         1.073916   -0.783775    1.659706
| 33> Cl         0.475992    2.032561   -0.000042
| 34> Cl         1.073928   -0.783845   -1.659665
| 35> H        -2.063624    1.484917   -0.000027
| 36> *
| 37>
| 38> $new_job
| 39> ! ri-mp2 aug-cc-pvqz aug-cc-pvqz/c tightscf
| 40> %pal nprocs 16 end
| 41> %maxcore 3800
| 42> %base "QZ_Si-Cl_37_AB"
| 43>
| 44> *xyz 0 1
| 45> C        -1.635156   -0.380563    0.000000
| 46> O        -1.990187   -1.519852    0.000019
| 47> Si         0.237680    0.000626    0.000001
| 48> O        -2.517084    0.630563   -0.000015
| 49> Cl         1.073916   -0.783775    1.659706
| 50> Cl         0.475992    2.032561   -0.000042
| 51> Cl         1.073928   -0.783845   -1.659665
| 52> H        -2.063624    1.484917   -0.000027
| 53> *
| 54>
| 55>
| 56>
| 57>
| 58>                          ****END OF INPUT****
 Total Charge           Charge          ....    0
 Multiplicity           Mult            ....    1
 Number of Electrons    NEL             ....   88
MP2 TOTAL ENERGY:    -1856.868043788 Eh
FINAL SINGLE POINT ENERGY     -1856.868043787629
MP2 TOTAL ENERGY:    -1857.248900478 Eh
FINAL SINGLE POINT ENERGY     -1857.248900478129

CARTESIAN COORDINATES (ANGSTROEM)
---------------------------------
  C     -1.635156   -0.380563    0.000000
  O     -1.990187   -1.519852    0.000019
  Si     0.237680    0.000626    0.000001
  O     -2.517084    0.630563   -0.000015
  Cl     1.073916   -0.783775    1.659706
  Cl     0.475992    2.032561   -0.000042
  Cl     1.073928   -0.783845   -1.659665
  H     -2.063624    1.484917   -0.000027

 Multiplicity           Mult            ....    1
 Number of Electrons    NEL             ....   88
 Basis Dimension        Dim             ....  622

ORBITAL ENERGIES
----------------

  NO   OCC          E(Eh)            E(eV)
   0   2.0000    -104.876689     -2853.8398
   1   2.0000    -104.869224     -2853.6367
   2   2.0000    -104.869223     -2853.6366
   3   2.0000     -68.928360     -1875.6360
   4   2.0000     -20.634014      -561.4801
   5   2.0000     -20.575191      -559.8794
   6   2.0000     -11.397656      -310.1460
   7   2.0000     -10.604224      -288.5556
   8   2.0000     -10.596716      -288.3513
   9   2.0000     -10.596710      -288.3511
  10   2.0000      -8.070956      -219.6219
  11   2.0000      -8.069817      -219.5909
  12   2.0000      -8.069776      -219.5898
  13   2.0000      -8.063492      -219.4188
  14   2.0000      -8.063491      -219.4187
  15   2.0000      -8.062215      -219.3840
  16   2.0000      -8.062214      -219.3840
  17   2.0000      -8.062201      -219.3836
  18   2.0000      -8.062200      -219.3836
  19   2.0000      -6.264248      -170.4588
  20   2.0000      -4.371803      -118.9628
  21   2.0000      -4.371513      -118.9549
  22   2.0000      -4.370452      -118.9261
  23   2.0000      -1.485740       -40.4290
  24   2.0000      -1.394100       -37.9354
  25   2.0000      -1.173575       -31.9346
  26   2.0000      -1.132357       -30.8130
  27   2.0000      -1.128108       -30.6974
  28   2.0000      -0.872650       -23.7460
  29   2.0000      -0.809055       -22.0155
  30   2.0000      -0.693915       -18.8824
  31   2.0000      -0.683879       -18.6093
  32   2.0000      -0.653931       -17.7944
  33   2.0000      -0.608521       -16.5587
  34   2.0000      -0.596011       -16.2183
  35   2.0000      -0.591259       -16.0890
  36   2.0000      -0.540155       -14.6984
  37   2.0000      -0.530455       -14.4344
  38   2.0000      -0.524698       -14.2778
  39   2.0000      -0.507124       -13.7996
  40   2.0000      -0.500872       -13.6294
  41   2.0000      -0.494252       -13.4493
  42   2.0000      -0.485422       -13.2090
  43   2.0000      -0.444325       -12.0907
  44   0.0000       0.024536         0.6677
  45   0.0000       0.035820         0.9747
  46   0.0000       0.039007         1.0614
  47   0.0000       0.043222         1.1761
  48   0.0000       0.059584         1.6214

MULLIKEN ATOMIC CHARGES
-----------------------
   0 C :    0.682119
   1 O :   -0.723389
   2 Si:    2.120779
   3 O :   -0.752799
   4 Cl:   -0.572059
   5 Cl:   -0.597060
   6 Cl:   -0.572060
   7 H :    0.414469
Sum of atomic charges:    0.0000000

LOEWDIN ATOMIC CHARGES
----------------------
   0 C :   -1.188234
   1 O :    0.575016
   2 Si:   -2.381015
   3 O :    1.164946
   4 Cl:    0.921061
   5 Cl:    0.933374
   6 Cl:    0.921061
   7 H :   -0.946208

  Mayer bond orders larger than 0.100000
B(  0-C ,  1-O ) :   1.6300 B(  0-C ,  2-Si) :   0.7887 B(  0-C ,  3-O ) :   0.9040
B(  2-Si,  4-Cl) :   0.5884 B(  2-Si,  5-Cl) :   0.5239 B(  2-Si,  6-Cl) :   0.5884
B(  3-O ,  7-H ) :   0.8326

MP2 TOTAL ENERGY:    -1857.378227039 Eh
FINAL SINGLE POINT ENERGY     -1857.378227039214

DIPOLE MOMENT
-------------
                                X             Y             Z
Electronic contribution:      6.14662       0.36748       0.00001
Nuclear contribution   :     -5.43612       0.74198      -0.00002
                        -----------------------------------------
Total Dipole Moment    :      0.71051       1.10945      -0.00001
                        -----------------------------------------
Magnitude (a.u.)       :      1.31746
Magnitude (Debye)      :      3.34872

Rotational constants in cm-1:     0.038973     0.034563     0.031828
Rotational constants in MHz :  1168.384980  1036.176978   954.174570

                             ****ORCA TERMINATED NORMALLY****
TOTAL RUN TIME: 0 days 0 hours 27 minutes 36 seconds 633 msec
