                         Program Version 5.0.4 -  RELEASE  -
|  1> ! ri-mp2 aug-cc-pvdz aug-cc-pvdz/c tightscf
|  2> %pal nprocs 16 end
|  3> %maxcore 3800
|  4> %base "DZ_B-Si_60_AB"
|  5> %scf
|  6> STABPerform true
|  7> STABRestartUHFifUnstable true
|  8> end
|  9>
| 10> *xyz 0 1
| 11> Si         0.905428   -0.626620    0.250896
| 12> B        -0.991575    0.056358    0.020787
| 13> O        -2.063508   -0.723776   -0.310920
| 14> O        -1.225385    1.380237    0.216668
| 15> C         2.181159    0.593169   -0.371216
| 16> H         2.062189    0.769775   -1.440573
| 17> H         3.195039    0.233012   -0.197387
| 18> H         2.065675    1.550089    0.138402
| 19> H        -2.153555    1.618607    0.099823
| 20> H        -1.856688   -1.648904   -0.459795
| 21> H         1.047364   -1.925288   -0.463338
| 22> H         1.146051   -0.917107    1.687702
| 23> *
| 24>
| 25> $new_job
| 26> ! ri-mp2 aug-cc-pvtz aug-cc-pvtz/c tightscf
| 27> %pal nprocs 16 end
| 28> %maxcore 3800
| 29> %base "TZ_B-Si_60_AB"
| 30>
| 31> *xyz 0 1
| 32> Si         0.905428   -0.626620    0.250896
| 33> B        -0.991575    0.056358    0.020787
| 34> O        -2.063508   -0.723776   -0.310920
| 35> O        -1.225385    1.380237    0.216668
| 36> C         2.181159    0.593169   -0.371216
| 37> H         2.062189    0.769775   -1.440573
| 38> H         3.195039    0.233012   -0.197387
| 39> H         2.065675    1.550089    0.138402
| 40> H        -2.153555    1.618607    0.099823
| 41> H        -1.856688   -1.648904   -0.459795
| 42> H         1.047364   -1.925288   -0.463338
| 43> H         1.146051   -0.917107    1.687702
| 44> *
| 45>
| 46> $new_job
| 47> ! ri-mp2 aug-cc-pvqz aug-cc-pvqz/c tightscf
| 48> %pal nprocs 16 end
| 49> %maxcore 3800
| 50> %base "QZ_B-Si_60_AB"
| 51>
| 52> *xyz 0 1
| 53> Si         0.905428   -0.626620    0.250896
| 54> B        -0.991575    0.056358    0.020787
| 55> O        -2.063508   -0.723776   -0.310920
| 56> O        -1.225385    1.380237    0.216668
| 57> C         2.181159    0.593169   -0.371216
| 58> H         2.062189    0.769775   -1.440573
| 59> H         3.195039    0.233012   -0.197387
| 60> H         2.065675    1.550089    0.138402
| 61> H        -2.153555    1.618607    0.099823
| 62> H        -1.856688   -1.648904   -0.459795
| 63> H         1.047364   -1.925288   -0.463338
| 64> H         1.146051   -0.917107    1.687702
| 65> *
| 66>
| 67>
| 68>
| 69>
| 70>                          ****END OF INPUT****
 Total Charge           Charge          ....    0
 Multiplicity           Mult            ....    1
 Number of Electrons    NEL             ....   48
MP2 TOTAL ENERGY:     -506.168173671 Eh
FINAL SINGLE POINT ENERGY      -506.168173671098
MP2 TOTAL ENERGY:     -506.401522191 Eh
FINAL SINGLE POINT ENERGY      -506.401522190728

CARTESIAN COORDINATES (ANGSTROEM)
---------------------------------
  Si     0.905428   -0.626620    0.250896
  B     -0.991575    0.056358    0.020787
  O     -2.063508   -0.723776   -0.310920
  O     -1.225385    1.380237    0.216668
  C      2.181159    0.593169   -0.371216
  H      2.062189    0.769775   -1.440573
  H      3.195039    0.233012   -0.197387
  H      2.065675    1.550089    0.138402
  H     -2.153555    1.618607    0.099823
  H     -1.856688   -1.648904   -0.459795
  H      1.047364   -1.925288   -0.463338
  H      1.146051   -0.917107    1.687702

 Multiplicity           Mult            ....    1
 Number of Electrons    NEL             ....   48
 Basis Dimension        Dim             ....  726

ORBITAL ENERGIES
----------------

  NO   OCC          E(Eh)            E(eV)
   0   2.0000     -68.747736     -1870.7210
   1   2.0000     -20.574302      -559.8552
   2   2.0000     -20.566892      -559.6536
   3   2.0000     -11.201604      -304.8111
   4   2.0000      -7.636407      -207.7972
   5   2.0000      -6.099232      -165.9685
   6   2.0000      -4.205666      -114.4420
   7   2.0000      -4.205400      -114.4347
   8   2.0000      -4.205046      -114.4251
   9   2.0000      -1.389355       -37.8063
  10   2.0000      -1.347616       -36.6705
  11   2.0000      -0.943814       -25.6825
  12   2.0000      -0.777152       -21.1474
  13   2.0000      -0.741723       -20.1833
  14   2.0000      -0.685708       -18.6591
  15   2.0000      -0.606597       -16.5063
  16   2.0000      -0.577728       -15.7208
  17   2.0000      -0.567657       -15.4467
  18   2.0000      -0.557410       -15.1679
  19   2.0000      -0.554470       -15.0879
  20   2.0000      -0.504944       -13.7402
  21   2.0000      -0.461706       -12.5637
  22   2.0000      -0.451143       -12.2762
  23   2.0000      -0.408375       -11.1124
  24   0.0000       0.022623         0.6156
  25   0.0000       0.030984         0.8431
  26   0.0000       0.034213         0.9310
  27   0.0000       0.038538         1.0487
  28   0.0000       0.049307         1.3417

MULLIKEN ATOMIC CHARGES
-----------------------
   0 Si:    0.617035
   1 B :    1.316668
   2 O :   -1.086629
   3 O :   -0.954616
   4 C :   -0.936769
   5 H :    0.232877
   6 H :    0.299243
   7 H :    0.244141
   8 H :    0.327478
   9 H :    0.343252
  10 H :   -0.202635
  11 H :   -0.200045
Sum of atomic charges:   -0.0000000

LOEWDIN ATOMIC CHARGES
----------------------
   0 Si:    0.912009
   1 B :   -1.193701
   2 O :    1.302636
   3 O :    1.277455
   4 C :    0.885853
   5 H :   -0.357001
   6 H :   -0.359529
   7 H :   -0.357156
   8 H :   -0.805270
   9 H :   -0.821860
  10 H :   -0.242264
  11 H :   -0.241172

  Mayer bond orders larger than 0.100000
B(  0-Si,  1-B ) :   0.7453 B(  0-Si,  4-C ) :   0.8361 B(  0-Si, 10-H ) :   0.7560
B(  0-Si, 11-H ) :   0.7588 B(  1-B ,  2-O ) :   0.4439 B(  1-B ,  3-O ) :   0.4814
B(  2-O ,  3-O ) :  -0.1005 B(  2-O ,  9-H ) :   0.9196 B(  3-O ,  8-H ) :   0.9353
B(  4-C ,  5-H ) :   0.9603 B(  4-C ,  6-H ) :   0.9295 B(  4-C ,  7-H ) :   0.9495

MP2 TOTAL ENERGY:     -506.476575571 Eh
FINAL SINGLE POINT ENERGY      -506.476575570794

DIPOLE MOMENT
-------------
                                X             Y             Z
Electronic contribution:     -6.38240       0.06811       0.42479
Nuclear contribution   :      6.21113      -0.31750      -0.67002
                        -----------------------------------------
Total Dipole Moment    :     -0.17127      -0.24939      -0.24523
                        -----------------------------------------
Magnitude (a.u.)       :      0.38944
Magnitude (Debye)      :      0.98988

Rotational constants in cm-1:     0.215210     0.075533     0.060382
Rotational constants in MHz :  6451.839259  2264.420444  1810.215308

                             ****ORCA TERMINATED NORMALLY****
TOTAL RUN TIME: 0 days 0 hours 29 minutes 32 seconds 848 msec
