                         Program Version 5.0.4 -  RELEASE  -
|  1> ! ri-mp2 aug-cc-pvdz aug-cc-pvdz/c tightscf
|  2> %pal nprocs 16 end
|  3> %maxcore 3800
|  4> %base "DZ_Si-Cl_49_AB"
|  5>
|  6> *xyz 0 1
|  7> C         0.255511    1.197814   -0.336549
|  8> C         1.612894    1.205828   -0.084242
|  9> C         2.294173   -0.000014    0.042506
| 10> C         1.612851   -1.205795   -0.084590
| 11> C         0.255469   -1.197661   -0.336896
| 12> C        -0.445119    0.000108   -0.464993
| 13> H        -0.263283    2.143145   -0.435295
| 14> H         2.151173    2.137973    0.014038
| 15> Si        -2.276543    0.000187   -0.781957
| 16> H        -0.263358   -2.142945   -0.435914
| 17> Cl        -3.300981   -0.000229    1.002877
| 18> H         2.151097   -2.137988    0.013420
| 19> C         3.702493   -0.000077    0.301226
| 20> N         4.829377   -0.000124    0.507450
| 21> H        -2.661320   -1.218474   -1.514621
| 22> H        -2.661302    1.219196   -1.514054
| 23> *
| 24>
| 25> $new_job
| 26> ! ri-mp2 aug-cc-pvtz aug-cc-pvtz/c tightscf
| 27> %pal nprocs 16 end
| 28> %maxcore 3800
| 29> %base "TZ_Si-Cl_49_AB"
| 30>
| 31> *xyz 0 1
| 32> C         0.255511    1.197814   -0.336549
| 33> C         1.612894    1.205828   -0.084242
| 34> C         2.294173   -0.000014    0.042506
| 35> C         1.612851   -1.205795   -0.084590
| 36> C         0.255469   -1.197661   -0.336896
| 37> C        -0.445119    0.000108   -0.464993
| 38> H        -0.263283    2.143145   -0.435295
| 39> H         2.151173    2.137973    0.014038
| 40> Si        -2.276543    0.000187   -0.781957
| 41> H        -0.263358   -2.142945   -0.435914
| 42> Cl        -3.300981   -0.000229    1.002877
| 43> H         2.151097   -2.137988    0.013420
| 44> C         3.702493   -0.000077    0.301226
| 45> N         4.829377   -0.000124    0.507450
| 46> H        -2.661320   -1.218474   -1.514621
| 47> H        -2.661302    1.219196   -1.514054
| 48> *
| 49>
| 50> $new_job
| 51> ! ri-mp2 aug-cc-pvqz aug-cc-pvqz/c tightscf
| 52> %pal nprocs 16 end
| 53> %maxcore 3800
| 54> %base "QZ_Si-Cl_49_AB"
| 55>
| 56> *xyz 0 1
| 57> C         0.255511    1.197814   -0.336549
| 58> C         1.612894    1.205828   -0.084242
| 59> C         2.294173   -0.000014    0.042506
| 60> C         1.612851   -1.205795   -0.084590
| 61> C         0.255469   -1.197661   -0.336896
| 62> C        -0.445119    0.000108   -0.464993
| 63> H        -0.263283    2.143145   -0.435295
| 64> H         2.151173    2.137973    0.014038
| 65> Si        -2.276543    0.000187   -0.781957
| 66> H        -0.263358   -2.142945   -0.435914
| 67> Cl        -3.300981   -0.000229    1.002877
| 68> H         2.151097   -2.137988    0.013420
| 69> C         3.702493   -0.000077    0.301226
| 70> N         4.829377   -0.000124    0.507450
| 71> H        -2.661320   -1.218474   -1.514621
| 72> H        -2.661302    1.219196   -1.514054
| 73> *
| 74>
| 75>
| 76>
| 77>
| 78>                          ****END OF INPUT****
 Total Charge           Charge          ....    0
 Multiplicity           Mult            ....    1
 Number of Electrons    NEL             ....   86
MP2 TOTAL ENERGY:    -1072.877818150 Eh
FINAL SINGLE POINT ENERGY     -1072.877818149536
MP2 TOTAL ENERGY:    -1073.250994071 Eh
FINAL SINGLE POINT ENERGY     -1073.250994071202

CARTESIAN COORDINATES (ANGSTROEM)
---------------------------------
  C      0.255511    1.197814   -0.336549
  C      1.612894    1.205828   -0.084242
  C      2.294173   -0.000014    0.042506
  C      1.612851   -1.205795   -0.084590
  C      0.255469   -1.197661   -0.336896
  C     -0.445119    0.000108   -0.464993
  H     -0.263283    2.143145   -0.435295
  H      2.151173    2.137973    0.014038
  Si    -2.276543    0.000187   -0.781957
  H     -0.263358   -2.142945   -0.435914
  Cl    -3.300981   -0.000229    1.002877
  H      2.151097   -2.137988    0.013420
  C      3.702493   -0.000077    0.301226
  N      4.829377   -0.000124    0.507450
  H     -2.661320   -1.218474   -1.514621
  H     -2.661302    1.219196   -1.514054

 Multiplicity           Mult            ....    1
 Number of Electrons    NEL             ....   86
 Basis Dimension        Dim             .... 1084

ORBITAL ENERGIES
----------------

  NO   OCC          E(Eh)            E(eV)
   0   2.0000    -104.834076     -2852.6802
   1   2.0000     -68.827653     -1872.8957
   2   2.0000     -15.576750      -423.8649
   3   2.0000     -11.299231      -307.4677
   4   2.0000     -11.279609      -306.9338
   5   2.0000     -11.274897      -306.8055
   6   2.0000     -11.274848      -306.8042
   7   2.0000     -11.271093      -306.7020
   8   2.0000     -11.271039      -306.7006
   9   2.0000     -11.258636      -306.3631
  10   2.0000     -10.561564      -287.3948
  11   2.0000      -8.028352      -218.4626
  12   2.0000      -8.027237      -218.4322
  13   2.0000      -8.027228      -218.4320
  14   2.0000      -6.173336      -167.9850
  15   2.0000      -4.280280      -116.4723
  16   2.0000      -4.279443      -116.4496
  17   2.0000      -4.279245      -116.4442
  18   2.0000      -1.237707       -33.6797
  19   2.0000      -1.195497       -32.5311
  20   2.0000      -1.105818       -30.0909
  21   2.0000      -1.070983       -29.1429
  22   2.0000      -1.058831       -28.8123
  23   2.0000      -0.896200       -24.3868
  24   2.0000      -0.870271       -23.6813
  25   2.0000      -0.778114       -21.1736
  26   2.0000      -0.742622       -20.2078
  27   2.0000      -0.676800       -18.4167
  28   2.0000      -0.664419       -18.0798
  29   2.0000      -0.628704       -17.1079
  30   2.0000      -0.627673       -17.0798
  31   2.0000      -0.569299       -15.4914
  32   2.0000      -0.565399       -15.3853
  33   2.0000      -0.541856       -14.7446
  34   2.0000      -0.538532       -14.6542
  35   2.0000      -0.533392       -14.5143
  36   2.0000      -0.512402       -13.9432
  37   2.0000      -0.490444       -13.3457
  38   2.0000      -0.478836       -13.0298
  39   2.0000      -0.459551       -12.5050
  40   2.0000      -0.457423       -12.4471
  41   2.0000      -0.376179       -10.2363
  42   2.0000      -0.370079       -10.0704
  43   0.0000       0.018107         0.4927
  44   0.0000       0.024594         0.6692
  45   0.0000       0.030051         0.8177
  46   0.0000       0.033047         0.8993
  47   0.0000       0.040726         1.1082

MULLIKEN ATOMIC CHARGES
-----------------------
   0 C :   -0.458650
   1 C :   -0.169066
   2 C :   -0.002747
   3 C :   -0.169029
   4 C :   -0.458589
   5 C :   -0.042546
   6 H :    0.265310
   7 H :    0.302416
   8 Si:    1.483590
   9 H :    0.265302
  10 Cl:   -0.606425
  11 H :    0.302421
  12 C :    0.584085
  13 N :   -0.794192
  14 H :   -0.250929
  15 H :   -0.250951
Sum of atomic charges:    0.0000000

LOEWDIN ATOMIC CHARGES
----------------------
   0 C :    0.263303
   1 C :    0.330000
   2 C :   -0.200033
   3 C :    0.330000
   4 C :    0.263302
   5 C :   -0.153080
   6 H :   -0.334023
   7 H :   -0.307694
   8 Si:   -0.022884
   9 H :   -0.334020
  10 Cl:    0.904711
  11 H :   -0.307694
  12 C :   -0.310867
  13 N :    0.421256
  14 H :   -0.271139
  15 H :   -0.271136

  Mayer bond orders larger than 0.100000
B(  0-C ,  1-C ) :   1.2687 B(  0-C ,  2-C ) :  -0.1604 B(  0-C ,  3-C ) :   0.1192
B(  0-C ,  5-C ) :   1.0846 B(  0-C ,  6-H ) :   0.9948 B(  0-C ,  7-H ) :  -0.1272
B(  1-C ,  2-C ) :   1.0107 B(  1-C ,  4-C ) :   0.1192 B(  1-C ,  5-C ) :  -0.2634
B(  1-C ,  6-H ) :  -0.1149 B(  1-C ,  7-H ) :   0.9844 B(  1-C , 12-C ) :  -0.2827
B(  2-C ,  3-C ) :   1.0107 B(  2-C ,  4-C ) :  -0.1604 B(  2-C , 12-C ) :   1.4658
B(  3-C ,  4-C ) :   1.2687 B(  3-C ,  5-C ) :  -0.2634 B(  3-C ,  9-H ) :  -0.1149
B(  3-C , 11-H ) :   0.9844 B(  3-C , 12-C ) :  -0.2827 B(  4-C ,  5-C ) :   1.0847
B(  4-C ,  9-H ) :   0.9948 B(  4-C , 11-H ) :  -0.1272 B(  5-C ,  6-H ) :  -0.1317
B(  5-C ,  8-Si) :   1.0372 B(  5-C ,  9-H ) :  -0.1317 B(  5-C , 14-H ) :  -0.1181
B(  5-C , 15-H ) :  -0.1181 B(  8-Si, 10-Cl) :   0.3330 B(  8-Si, 14-H ) :   0.7472
B(  8-Si, 15-H ) :   0.7472 B( 12-C , 13-N ) :   2.2362

MP2 TOTAL ENERGY:    -1073.372156620 Eh
FINAL SINGLE POINT ENERGY     -1073.372156619995

DIPOLE MOMENT
-------------
                                X             Y             Z
Electronic contribution:     -4.45079      -0.00100       4.31398
Nuclear contribution   :      3.21940       0.00118      -5.06373
                        -----------------------------------------
Total Dipole Moment    :     -1.23138       0.00017      -0.74974
                        -----------------------------------------
Magnitude (a.u.)       :      1.44167
Magnitude (Debye)      :      3.66444

Rotational constants in cm-1:     0.106294     0.013546     0.013299
Rotational constants in MHz :  3186.626628   406.113819   398.705902

                             ****ORCA TERMINATED NORMALLY****
TOTAL RUN TIME: 0 days 0 hours 34 minutes 1 seconds 780 msec
