                         Program Version 5.0.4 -  RELEASE  -
|  1> ! ri-mp2 aug-cc-pvdz aug-cc-pvdz/c tightscf
|  2> %pal nprocs 16 end
|  3> %maxcore 3800
|  4> %base "DZ_B-S_17_AB"
|  5>
|  6> *xyz 0 1
|  7> S        -0.540621   -1.952298   -0.395515
|  8> O        -2.463284    2.407979    0.625456
|  9> S         1.773825    1.645471   -0.858361
| 10> S         2.592057   -0.851280    0.780954
| 11> C        -2.224866   -1.687729   -0.318173
| 12> H        -2.914185   -2.495816   -0.500418
| 13> C        -2.512168   -0.397278   -0.024991
| 14> H        -3.506981    0.004911    0.088510
| 15> C        -1.344006    0.395705    0.129684
| 16> C        -0.172226   -0.313386   -0.045076
| 17> C        -1.420800    1.815463    0.508479
| 18> H        -0.461057    2.322586    0.697159
| 19> B         1.311537    0.132111   -0.007596
| 20> H         1.800210   -1.778718    1.335138
| 21> H         3.070808    1.675705   -0.518849
| 22> *
| 23>
| 24> $new_job
| 25> ! ri-mp2 aug-cc-pvtz aug-cc-pvtz/c tightscf
| 26> %pal nprocs 16 end
| 27> %maxcore 3800
| 28> %base "TZ_B-S_17_AB"
| 29>
| 30> *xyz 0 1
| 31> S        -0.540621   -1.952298   -0.395515
| 32> O        -2.463284    2.407979    0.625456
| 33> S         1.773825    1.645471   -0.858361
| 34> S         2.592057   -0.851280    0.780954
| 35> C        -2.224866   -1.687729   -0.318173
| 36> H        -2.914185   -2.495816   -0.500418
| 37> C        -2.512168   -0.397278   -0.024991
| 38> H        -3.506981    0.004911    0.088510
| 39> C        -1.344006    0.395705    0.129684
| 40> C        -0.172226   -0.313386   -0.045076
| 41> C        -1.420800    1.815463    0.508479
| 42> H        -0.461057    2.322586    0.697159
| 43> B         1.311537    0.132111   -0.007596
| 44> H         1.800210   -1.778718    1.335138
| 45> H         3.070808    1.675705   -0.518849
| 46> *
| 47>
| 48> $new_job
| 49> ! ri-mp2 aug-cc-pvqz aug-cc-pvqz/c tightscf
| 50> %pal nprocs 16 end
| 51> %maxcore 3800
| 52> %base "QZ_B-S_17_AB"
| 53>
| 54> *xyz 0 1
| 55> S        -0.540621   -1.952298   -0.395515
| 56> O        -2.463284    2.407979    0.625456
| 57> S         1.773825    1.645471   -0.858361
| 58> S         2.592057   -0.851280    0.780954
| 59> C        -2.224866   -1.687729   -0.318173
| 60> H        -2.914185   -2.495816   -0.500418
| 61> C        -2.512168   -0.397278   -0.024991
| 62> H        -3.506981    0.004911    0.088510
| 63> C        -1.344006    0.395705    0.129684
| 64> C        -0.172226   -0.313386   -0.045076
| 65> C        -1.420800    1.815463    0.508479
| 66> H        -0.461057    2.322586    0.697159
| 67> B         1.311537    0.132111   -0.007596
| 68> H         1.800210   -1.778718    1.335138
| 69> H         3.070808    1.675705   -0.518849
| 70> *
| 71>
| 72>
| 73>
| 74>
| 75>                          ****END OF INPUT****
 Total Charge           Charge          ....    0
 Multiplicity           Mult            ....    1
 Number of Electrons    NEL             ....   96
MP2 TOTAL ENERGY:    -1485.863645915 Eh
FINAL SINGLE POINT ENERGY     -1485.863645915154
MP2 TOTAL ENERGY:    -1486.262133253 Eh
FINAL SINGLE POINT ENERGY     -1486.262133252929

CARTESIAN COORDINATES (ANGSTROEM)
---------------------------------
  S     -0.540621   -1.952298   -0.395515
  O     -2.463284    2.407979    0.625456
  S      1.773825    1.645471   -0.858361
  S      2.592057   -0.851280    0.780954
  C     -2.224866   -1.687729   -0.318173
  H     -2.914185   -2.495816   -0.500418
  C     -2.512168   -0.397278   -0.024991
  H     -3.506981    0.004911    0.088510
  C     -1.344006    0.395705    0.129684
  C     -0.172226   -0.313386   -0.045076
  C     -1.420800    1.815463    0.508479
  H     -0.461057    2.322586    0.697159
  B      1.311537    0.132111   -0.007596
  H      1.800210   -1.778718    1.335138
  H      3.070808    1.675705   -0.518849

 Multiplicity           Mult            ....    1
 Number of Electrons    NEL             ....   96
 Basis Dimension        Dim             .... 1042

ORBITAL ENERGIES
----------------

  NO   OCC          E(Eh)            E(eV)
   0   2.0000     -92.006309     -2503.6190
   1   2.0000     -91.972637     -2502.7027
   2   2.0000     -91.972395     -2502.6961
   3   2.0000     -20.557535      -559.3990
   4   2.0000     -11.335965      -308.4673
   5   2.0000     -11.280784      -306.9657
   6   2.0000     -11.280711      -306.9637
   7   2.0000     -11.265141      -306.5401
   8   2.0000     -11.253194      -306.2150
   9   2.0000      -9.008534      -245.1347
  10   2.0000      -8.977786      -244.2980
  11   2.0000      -8.977607      -244.2931
  12   2.0000      -7.676059      -208.8762
  13   2.0000      -6.689774      -182.0380
  14   2.0000      -6.689176      -182.0217
  15   2.0000      -6.688628      -182.0068
  16   2.0000      -6.659311      -181.2091
  17   2.0000      -6.659104      -181.2034
  18   2.0000      -6.658357      -181.1831
  19   2.0000      -6.658134      -181.1770
  20   2.0000      -6.657917      -181.1711
  21   2.0000      -6.657689      -181.1649
  22   2.0000      -1.400010       -38.0962
  23   2.0000      -1.203168       -32.7399
  24   2.0000      -1.045940       -28.4615
  25   2.0000      -1.032244       -28.0888
  26   2.0000      -1.000969       -27.2377
  27   2.0000      -0.978649       -26.6304
  28   2.0000      -0.867684       -23.6109
  29   2.0000      -0.801370       -21.8064
  30   2.0000      -0.755186       -20.5496
  31   2.0000      -0.724632       -19.7183
  32   2.0000      -0.655593       -17.8396
  33   2.0000      -0.645593       -17.5675
  34   2.0000      -0.609686       -16.5904
  35   2.0000      -0.602846       -16.4043
  36   2.0000      -0.577429       -15.7127
  37   2.0000      -0.565438       -15.3863
  38   2.0000      -0.539493       -14.6803
  39   2.0000      -0.523370       -14.2416
  40   2.0000      -0.507174       -13.8009
  41   2.0000      -0.483188       -13.1482
  42   2.0000      -0.469464       -12.7748
  43   2.0000      -0.452868       -12.3232
  44   2.0000      -0.429018       -11.6742
  45   2.0000      -0.384434       -10.4610
  46   2.0000      -0.367354        -9.9962
  47   2.0000      -0.350270        -9.5313
  48   0.0000       0.020151         0.5483
  49   0.0000       0.026052         0.7089
  50   0.0000       0.032952         0.8967
  51   0.0000       0.034151         0.9293
  52   0.0000       0.039589         1.0773

MULLIKEN ATOMIC CHARGES
-----------------------
   0 S :    0.168495
   1 O :   -0.792899
   2 S :   -0.055906
   3 S :   -0.151405
   4 C :   -0.903194
   5 H :    0.477655
   6 C :   -0.103818
   7 H :    0.351274
   8 C :   -0.317993
   9 C :    0.138564
  10 C :    0.419450
  11 H :    0.287658
  12 B :    0.458393
  13 H :    0.020268
  14 H :    0.003458
Sum of atomic charges:    0.0000000

LOEWDIN ATOMIC CHARGES
----------------------
   0 S :    1.378446
   1 O :    0.719403
   2 S :    1.707201
   3 S :    1.687126
   4 C :   -0.030806
   5 H :   -0.393135
   6 C :    0.195943
   7 H :   -0.321978
   8 C :   -0.308369
   9 C :   -0.540203
  10 C :   -0.294406
  11 H :   -0.422334
  12 B :   -1.797880
  13 H :   -0.794453
  14 H :   -0.784555

  Mayer bond orders larger than 0.100000
B(  0-S ,  4-C ) :   1.3554 B(  0-S ,  9-C ) :   0.9312 B(  1-O ,  8-C ) :   0.2774
B(  1-O , 10-C ) :   1.1959 B(  2-S , 12-B ) :   1.0823 B(  2-S , 14-H ) :   1.0893
B(  3-S , 12-B ) :   1.0783 B(  3-S , 13-H ) :   1.0636 B(  4-C ,  5-H ) :   0.7771
B(  4-C ,  6-C ) :   1.5165 B(  4-C ,  9-C ) :  -0.2732 B(  6-C ,  7-H ) :   0.8987
B(  6-C ,  8-C ) :   0.9643 B(  6-C ,  9-C ) :  -0.2222 B(  6-C , 10-C ) :  -0.1425
B(  8-C ,  9-C ) :   0.8608 B(  8-C , 10-C ) :   1.0890 B(  8-C , 11-H ) :  -0.2070
B(  9-C , 10-C ) :  -0.1501 B(  9-C , 12-B ) :   0.9504 B( 10-C , 11-H ) :   0.9995

MP2 TOTAL ENERGY:    -1486.393422090 Eh
FINAL SINGLE POINT ENERGY     -1486.393422090450

DIPOLE MOMENT
-------------
                                X             Y             Z
Electronic contribution:      3.65577      -0.80897      -1.05373
Nuclear contribution   :     -3.09136      -0.29150       1.08523
                        -----------------------------------------
Total Dipole Moment    :      0.56441      -1.10047       0.03150
                        -----------------------------------------
Magnitude (a.u.)       :      1.23717
Magnitude (Debye)      :      3.14464

Rotational constants in cm-1:     0.034885     0.023451     0.015631
Rotational constants in MHz :  1045.825668   703.048645   468.615709

                             ****ORCA TERMINATED NORMALLY****
TOTAL RUN TIME: 0 days 0 hours 33 minutes 45 seconds 27 msec
