                         Program Version 5.0.4 -  RELEASE  -
|  1> ! ri-mp2 aug-cc-pvdz aug-cc-pvdz/c tightscf
|  2> %pal nprocs 16 end
|  3> %maxcore 3800
|  4> %base "DZ_B-F_26_A"
|  5> %scf
|  6> STABPerform true
|  7> STABRestartUHFifUnstable true
|  8> end
|  9>
| 10> *xyz 0 2
| 11> F         2.456583   -0.370656    0.301562
| 12> B         1.493631   -0.176895   -0.543988
| 13> C         0.027347    0.267080   -0.148230
| 14> O        -0.237455    1.424919    0.048743
| 15> O        -0.861457   -0.727069   -0.132615
| 16> C        -2.216782   -0.355980    0.151444
| 17> H        -2.787397   -1.277796    0.110698
| 18> H        -2.575826    0.352882   -0.592009
| 19> H        -2.286277    0.095887    1.138876
| 20> *
| 21>
| 22> $new_job
| 23> ! ri-mp2 aug-cc-pvtz aug-cc-pvtz/c tightscf
| 24> %pal nprocs 16 end
| 25> %maxcore 3800
| 26> %base "TZ_B-F_26_A"
| 27>
| 28> *xyz 0 2
| 29> F         2.456583   -0.370656    0.301562
| 30> B         1.493631   -0.176895   -0.543988
| 31> C         0.027347    0.267080   -0.148230
| 32> O        -0.237455    1.424919    0.048743
| 33> O        -0.861457   -0.727069   -0.132615
| 34> C        -2.216782   -0.355980    0.151444
| 35> H        -2.787397   -1.277796    0.110698
| 36> H        -2.575826    0.352882   -0.592009
| 37> H        -2.286277    0.095887    1.138876
| 38> *
| 39>
| 40> $new_job
| 41> ! ri-mp2 aug-cc-pvqz aug-cc-pvqz/c tightscf
| 42> %pal nprocs 16 end
| 43> %maxcore 3800
| 44> %base "QZ_B-F_26_A"
| 45>
| 46> *xyz 0 2
| 47> F         2.456583   -0.370656    0.301562
| 48> B         1.493631   -0.176895   -0.543988
| 49> C         0.027347    0.267080   -0.148230
| 50> O        -0.237455    1.424919    0.048743
| 51> O        -0.861457   -0.727069   -0.132615
| 52> C        -2.216782   -0.355980    0.151444
| 53> H        -2.787397   -1.277796    0.110698
| 54> H        -2.575826    0.352882   -0.592009
| 55> H        -2.286277    0.095887    1.138876
| 56> *
| 57>
| 58>
| 59>
| 60>
| 61>                          ****END OF INPUT****
 Total Charge           Charge          ....    0
 Multiplicity           Mult            ....    2
 Number of Electrons    NEL             ....   45
MP2 TOTAL ENERGY:     -352.287817021 Eh
FINAL SINGLE POINT ENERGY      -352.287817021112
MP2 TOTAL ENERGY:     -352.589286916 Eh
FINAL SINGLE POINT ENERGY      -352.589286915506

CARTESIAN COORDINATES (ANGSTROEM)
---------------------------------
  F      2.456583   -0.370656    0.301562
  B      1.493631   -0.176895   -0.543988
  C      0.027347    0.267080   -0.148230
  O     -0.237455    1.424919    0.048743
  O     -0.861457   -0.727069   -0.132615
  C     -2.216782   -0.355980    0.151444
  H     -2.787397   -1.277796    0.110698
  H     -2.575826    0.352882   -0.592009
  H     -2.286277    0.095887    1.138876

 Multiplicity           Mult            ....    2
 Number of Electrons    NEL             ....   45
 Basis Dimension        Dim             ....  618

ORBITAL ENERGIES
----------------
                 SPIN UP ORBITALS
  NO   OCC          E(Eh)            E(eV)
   0   1.0000     -26.344695      -716.8756
   1   1.0000     -20.618358      -561.0540
   2   1.0000     -20.562620      -559.5373
   3   1.0000     -11.379330      -309.6473
   4   1.0000     -11.295275      -307.3601
   5   1.0000      -7.714833      -209.9313
   6   1.0000      -1.663965       -45.2788
   7   1.0000      -1.478788       -40.2399
   8   1.0000      -1.379521       -37.5387
   9   1.0000      -0.999818       -27.2064
  10   1.0000      -0.856869       -23.3166
  11   1.0000      -0.804571       -21.8935
  12   1.0000      -0.759753       -20.6739
  13   1.0000      -0.725793       -19.7498
  14   1.0000      -0.713044       -19.4029
  15   1.0000      -0.689757       -18.7693
  16   1.0000      -0.684757       -18.6332
  17   1.0000      -0.604526       -16.4500
  18   1.0000      -0.568669       -15.4743
  19   1.0000      -0.542602       -14.7649
  20   1.0000      -0.485870       -13.2212
  21   1.0000      -0.477576       -12.9955
  22   1.0000      -0.375900       -10.2288
  23   0.0000       0.024632         0.6703
  24   0.0000       0.034235         0.9316
  25   0.0000       0.035256         0.9594
  26   0.0000       0.037071         1.0088
  27   0.0000       0.048019         1.3067

                 SPIN DOWN ORBITALS
  NO   OCC          E(Eh)            E(eV)
   0   1.0000     -26.341395      -716.7858
   1   1.0000     -20.618285      -561.0521
   2   1.0000     -20.560081      -559.4683
   3   1.0000     -11.376789      -309.5782
   4   1.0000     -11.295250      -307.3594
   5   1.0000      -7.695119      -209.3948
   6   1.0000      -1.655026       -45.0355
   7   1.0000      -1.476521       -40.1782
   8   1.0000      -1.374872       -37.4122
   9   1.0000      -0.996372       -27.1127
  10   1.0000      -0.838560       -22.8184
  11   1.0000      -0.797264       -21.6947
  12   1.0000      -0.745267       -20.2797
  13   1.0000      -0.713781       -19.4230
  14   1.0000      -0.700655       -19.0658
  15   1.0000      -0.687085       -18.6965
  16   1.0000      -0.681171       -18.5356
  17   1.0000      -0.596936       -16.2435
  18   1.0000      -0.558432       -15.1957
  19   1.0000      -0.539960       -14.6931
  20   1.0000      -0.473671       -12.8893
  21   1.0000      -0.460850       -12.5404
  22   0.0000       0.022840         0.6215
  23   0.0000       0.030368         0.8264
  24   0.0000       0.035412         0.9636
  25   0.0000       0.036661         0.9976
  26   0.0000       0.048630         1.3233

MULLIKEN ATOMIC CHARGES AND SPIN POPULATIONS
--------------------------------------------
   0 F :   -0.682050   -0.014852
   1 B :    0.982380    0.990048
   2 C :    0.724290   -0.021697
   3 O :   -0.720711    0.052983
   4 O :   -0.665085   -0.005807
   5 C :   -0.633385   -0.000944
   6 H :    0.421460    0.000296
   7 H :    0.285883   -0.000439
   8 H :    0.287218    0.000412
Sum of atomic charges         :    0.0000000

LOEWDIN ATOMIC CHARGES AND SPIN POPULATIONS
-------------------------------------------
   0 F :    0.729545    0.153826
   1 B :   -0.724892    0.585175
   2 C :   -1.060080    0.182541
   3 O :    0.655598    0.055528
   4 O :    0.784119    0.018620
   5 C :    0.572500    0.002432
   6 H :   -0.323576    0.000819
   7 H :   -0.317746    0.000788
   8 H :   -0.315467    0.000272

  Mayer bond orders larger than 0.100000
B(  0-F ,  1-B ) :   0.4696 B(  1-B ,  2-C ) :   0.8663 B(  2-C ,  3-O ) :   1.5659
B(  2-C ,  4-O ) :   0.9965 B(  4-O ,  5-C ) :   0.8474 B(  5-C ,  6-H ) :   0.8233
B(  5-C ,  7-H ) :   0.9136 B(  5-C ,  8-H ) :   0.9162

MP2 TOTAL ENERGY:     -352.686958274 Eh
FINAL SINGLE POINT ENERGY      -352.686958274182

DIPOLE MOMENT
-------------
                                X             Y             Z
Electronic contribution:     10.16381      -0.36978      -0.83130
Nuclear contribution   :    -10.74487      -0.29432       0.75786
                        -----------------------------------------
Total Dipole Moment    :     -0.58106      -0.66410      -0.07344
                        -----------------------------------------
Magnitude (a.u.)       :      0.88547
Magnitude (Debye)      :      2.25069

Rotational constants in cm-1:     0.304187     0.071291     0.060857
Rotational constants in MHz :  9119.293363  2137.241754  1824.449115

                             ****ORCA TERMINATED NORMALLY****
TOTAL RUN TIME: 0 days 0 hours 52 minutes 52 seconds 23 msec
