                         Program Version 5.0.4 -  RELEASE  -
|  1> ! ri-mp2 aug-cc-pvdz aug-cc-pvdz/c tightscf
|  2> %pal nprocs 16 end
|  3> %maxcore 3800
|  4> %base "DZ_B-S_34_AB"
|  5> %scf
|  6> STABPerform true
|  7> STABRestartUHFifUnstable true
|  8> end
|  9>
| 10> *xyz 0 1
| 11> S        -0.672408   -1.132026   -0.020313
| 12> B         0.708491    0.048089   -0.003792
| 13> S         0.595228    1.830867   -0.004914
| 14> S         2.359220   -0.678911    0.014146
| 15> S        -2.417655   -0.033399   -0.064497
| 16> H         1.982995   -1.966135    0.028821
| 17> H        -0.746560    1.886170   -0.061817
| 18> H        -2.609047    0.055033    1.261187
| 19> *
| 20>
| 21> $new_job
| 22> ! ri-mp2 aug-cc-pvtz aug-cc-pvtz/c tightscf
| 23> %pal nprocs 16 end
| 24> %maxcore 3800
| 25> %base "TZ_B-S_34_AB"
| 26>
| 27> *xyz 0 1
| 28> S        -0.672408   -1.132026   -0.020313
| 29> B         0.708491    0.048089   -0.003792
| 30> S         0.595228    1.830867   -0.004914
| 31> S         2.359220   -0.678911    0.014146
| 32> S        -2.417655   -0.033399   -0.064497
| 33> H         1.982995   -1.966135    0.028821
| 34> H        -0.746560    1.886170   -0.061817
| 35> H        -2.609047    0.055033    1.261187
| 36> *
| 37>
| 38> $new_job
| 39> ! ri-mp2 aug-cc-pvqz aug-cc-pvqz/c tightscf
| 40> %pal nprocs 16 end
| 41> %maxcore 3800
| 42> %base "QZ_B-S_34_AB"
| 43>
| 44> *xyz 0 1
| 45> S        -0.672408   -1.132026   -0.020313
| 46> B         0.708491    0.048089   -0.003792
| 47> S         0.595228    1.830867   -0.004914
| 48> S         2.359220   -0.678911    0.014146
| 49> S        -2.417655   -0.033399   -0.064497
| 50> H         1.982995   -1.966135    0.028821
| 51> H        -0.746560    1.886170   -0.061817
| 52> H        -2.609047    0.055033    1.261187
| 53> *
| 54>
| 55>
| 56>
| 57>
| 58>                          ****END OF INPUT****
 Total Charge           Charge          ....    0
 Multiplicity           Mult            ....    1
 Number of Electrons    NEL             ....   72
MP2 TOTAL ENERGY:    -1617.314618695 Eh
FINAL SINGLE POINT ENERGY     -1617.314618695390
MP2 TOTAL ENERGY:    -1617.543784037 Eh
FINAL SINGLE POINT ENERGY     -1617.543784037031

CARTESIAN COORDINATES (ANGSTROEM)
---------------------------------
  S     -0.672408   -1.132026   -0.020313
  B      0.708491    0.048089   -0.003792
  S      0.595228    1.830867   -0.004914
  S      2.359220   -0.678911    0.014146
  S     -2.417655   -0.033399   -0.064497
  H      1.982995   -1.966135    0.028821
  H     -0.746560    1.886170   -0.061817
  H     -2.609047    0.055033    1.261187

 Multiplicity           Mult            ....    1
 Number of Electrons    NEL             ....   72
 Basis Dimension        Dim             ....  554

ORBITAL ENERGIES
----------------

  NO   OCC          E(Eh)            E(eV)
   0   2.0000     -92.000732     -2503.4672
   1   2.0000     -91.990939     -2503.2007
   2   2.0000     -91.966415     -2502.5334
   3   2.0000     -91.963378     -2502.4507
   4   2.0000      -9.001674      -244.9480
   5   2.0000      -8.993192      -244.7172
   6   2.0000      -8.971303      -244.1216
   7   2.0000      -8.968693      -244.0505
   8   2.0000      -7.685187      -209.1246
   9   2.0000      -6.682925      -181.8516
  10   2.0000      -6.681967      -181.8256
  11   2.0000      -6.680981      -181.7987
  12   2.0000      -6.674604      -181.6252
  13   2.0000      -6.673167      -181.5861
  14   2.0000      -6.672813      -181.5765
  15   2.0000      -6.652815      -181.0323
  16   2.0000      -6.651934      -181.0083
  17   2.0000      -6.651343      -180.9922
  18   2.0000      -6.650177      -180.9605
  19   2.0000      -6.649376      -180.9387
  20   2.0000      -6.648835      -180.9240
  21   2.0000      -1.078678       -29.3523
  22   2.0000      -1.015607       -27.6361
  23   2.0000      -0.976085       -26.5606
  24   2.0000      -0.894656       -24.3448
  25   2.0000      -0.663507       -18.0549
  26   2.0000      -0.612330       -16.6624
  27   2.0000      -0.573719       -15.6117
  28   2.0000      -0.538485       -14.6529
  29   2.0000      -0.521855       -14.2004
  30   2.0000      -0.466773       -12.7015
  31   2.0000      -0.457941       -12.4612
  32   2.0000      -0.450659       -12.2631
  33   2.0000      -0.388997       -10.5852
  34   2.0000      -0.383546       -10.4368
  35   2.0000      -0.377195       -10.2640
  36   0.0000       0.024115         0.6562
  37   0.0000       0.031825         0.8660
  38   0.0000       0.039369         1.0713
  39   0.0000       0.040154         1.0926
  40   0.0000       0.051442         1.3998

MULLIKEN ATOMIC CHARGES
-----------------------
   0 S :    0.079798
   1 B :   -0.019201
   2 S :   -0.023123
   3 S :   -0.030155
   4 S :   -0.262112
   5 H :    0.040935
   6 H :    0.079171
   7 H :    0.134687
Sum of atomic charges:   -0.0000000

LOEWDIN ATOMIC CHARGES
----------------------
   0 S :    0.751877
   1 B :   -2.301693
   2 S :    1.570643
   3 S :    1.535077
   4 S :    1.050447
   5 H :   -0.829995
   6 H :   -0.922500
   7 H :   -0.853856

  Mayer bond orders larger than 0.100000
B(  0-S ,  1-B ) :   1.2212 B(  0-S ,  4-S ) :   1.0591 B(  1-B ,  2-S ) :   1.2306
B(  1-B ,  3-S ) :   1.1140 B(  2-S ,  6-H ) :   0.9986 B(  3-S ,  5-H ) :   1.0610
B(  4-S ,  7-H ) :   0.9726

MP2 TOTAL ENERGY:    -1617.619588123 Eh
FINAL SINGLE POINT ENERGY     -1617.619588122582

DIPOLE MOMENT
-------------
                                X             Y             Z
Electronic contribution:      1.31799      -0.05723      -0.84754
Nuclear contribution   :     -1.84579      -0.06022       1.17408
                        -----------------------------------------
Total Dipole Moment    :     -0.52780      -0.11745       0.32654
                        -----------------------------------------
Magnitude (a.u.)       :      0.63166
Magnitude (Debye)      :      1.60555

Rotational constants in cm-1:     0.097739     0.041081     0.029096
Rotational constants in MHz :  2930.132160  1231.570778   872.280043

                             ****ORCA TERMINATED NORMALLY****
TOTAL RUN TIME: 0 days 0 hours 18 minutes 54 seconds 482 msec
