                         Program Version 5.0.4 -  RELEASE  -
|  1> ! ri-mp2 aug-cc-pvdz aug-cc-pvdz/c tightscf
|  2> %pal nprocs 16 end
|  3> %maxcore 3800
|  4> %base "DZ_B-P_56_A"
|  5> %scf
|  6> STABPerform true
|  7> STABRestartUHFifUnstable true
|  8> end
|  9>
| 10> *xyz 0 2
| 11> C         0.114533    0.284549   -0.000003
| 12> O        -0.126529    1.467867   -0.000005
| 13> C        -0.972988   -0.764782   -0.000006
| 14> C        -2.372701   -0.182586    0.000001
| 15> H        -0.807109   -1.409022    0.868636
| 16> H        -0.807115   -1.409015   -0.868654
| 17> H        -2.535081    0.442307    0.876875
| 18> H        -3.116924   -0.978364    0.000002
| 19> H        -2.535088    0.442310   -0.876869
| 20> P         1.902150   -0.215801    0.000006
| 21> H         1.668227   -1.617212    0.000018
| 22> *
| 23>
| 24> $new_job
| 25> ! ri-mp2 aug-cc-pvtz aug-cc-pvtz/c tightscf
| 26> %pal nprocs 16 end
| 27> %maxcore 3800
| 28> %base "TZ_B-P_56_A"
| 29>
| 30> *xyz 0 2
| 31> C         0.114533    0.284549   -0.000003
| 32> O        -0.126529    1.467867   -0.000005
| 33> C        -0.972988   -0.764782   -0.000006
| 34> C        -2.372701   -0.182586    0.000001
| 35> H        -0.807109   -1.409022    0.868636
| 36> H        -0.807115   -1.409015   -0.868654
| 37> H        -2.535081    0.442307    0.876875
| 38> H        -3.116924   -0.978364    0.000002
| 39> H        -2.535088    0.442310   -0.876869
| 40> P         1.902150   -0.215801    0.000006
| 41> H         1.668227   -1.617212    0.000018
| 42> *
| 43>
| 44> $new_job
| 45> ! ri-mp2 aug-cc-pvqz aug-cc-pvqz/c tightscf
| 46> %pal nprocs 16 end
| 47> %maxcore 3800
| 48> %base "QZ_B-P_56_A"
| 49>
| 50> *xyz 0 2
| 51> C         0.114533    0.284549   -0.000003
| 52> O        -0.126529    1.467867   -0.000005
| 53> C        -0.972988   -0.764782   -0.000006
| 54> C        -2.372701   -0.182586    0.000001
| 55> H        -0.807109   -1.409022    0.868636
| 56> H        -0.807115   -1.409015   -0.868654
| 57> H        -2.535081    0.442307    0.876875
| 58> H        -3.116924   -0.978364    0.000002
| 59> H        -2.535088    0.442310   -0.876869
| 60> P         1.902150   -0.215801    0.000006
| 61> H         1.668227   -1.617212    0.000018
| 62> *
| 63>
| 64>
| 65>
| 66>
| 67>                          ****END OF INPUT****
 Total Charge           Charge          ....    0
 Multiplicity           Mult            ....    2
 Number of Electrons    NEL             ....   47
MP2 TOTAL ENERGY:     -533.417557134 Eh
FINAL SINGLE POINT ENERGY      -533.417557134018
MP2 TOTAL ENERGY:     -533.625459611 Eh
FINAL SINGLE POINT ENERGY      -533.625459610729

CARTESIAN COORDINATES (ANGSTROEM)
---------------------------------
  C      0.114533    0.284549   -0.000003
  O     -0.126529    1.467867   -0.000005
  C     -0.972988   -0.764782   -0.000006
  C     -2.372701   -0.182586    0.000001
  H     -0.807109   -1.409022    0.868636
  H     -0.807115   -1.409015   -0.868654
  H     -2.535081    0.442307    0.876875
  H     -3.116924   -0.978364    0.000002
  H     -2.535088    0.442310   -0.876869
  P      1.902150   -0.215801    0.000006
  H      1.668227   -1.617212    0.000018

 Multiplicity           Mult            ....    2
 Number of Electrons    NEL             ....   47
 Basis Dimension        Dim             ....  680

ORBITAL ENERGIES
----------------
                 SPIN UP ORBITALS
  NO   OCC          E(Eh)            E(eV)
   0   1.0000     -79.967860     -2176.0361
   1   1.0000     -20.574640      -559.8644
   2   1.0000     -11.331399      -308.3430
   3   1.0000     -11.245965      -306.0183
   4   1.0000     -11.221229      -305.3452
   5   1.0000      -7.511300      -204.3929
   6   1.0000      -5.415369      -147.3597
   7   1.0000      -5.402035      -146.9968
   8   1.0000      -5.400347      -146.9509
   9   1.0000      -1.422088       -38.6970
  10   1.0000      -1.065706       -28.9993
  11   1.0000      -0.936424       -25.4814
  12   1.0000      -0.855524       -23.2800
  13   1.0000      -0.735573       -20.0160
  14   1.0000      -0.661117       -17.9899
  15   1.0000      -0.642665       -17.4878
  16   1.0000      -0.605911       -16.4877
  17   1.0000      -0.568956       -15.4821
  18   1.0000      -0.551164       -14.9979
  19   1.0000      -0.523659       -14.2495
  20   1.0000      -0.506677       -13.7874
  21   1.0000      -0.458610       -12.4794
  22   1.0000      -0.391054       -10.6411
  23   1.0000      -0.385469       -10.4891
  24   0.0000       0.022120         0.6019
  25   0.0000       0.032820         0.8931
  26   0.0000       0.035807         0.9744
  27   0.0000       0.041475         1.1286
  28   0.0000       0.051158         1.3921

                 SPIN DOWN ORBITALS
  NO   OCC          E(Eh)            E(eV)
   0   1.0000     -79.961013     -2175.8498
   1   1.0000     -20.561725      -559.5130
   2   1.0000     -11.338637      -308.5400
   3   1.0000     -11.245419      -306.0034
   4   1.0000     -11.221296      -305.3470
   5   1.0000      -7.502917      -204.1648
   6   1.0000      -5.397223      -146.8659
   7   1.0000      -5.396579      -146.8484
   8   1.0000      -5.383580      -146.4947
   9   1.0000      -1.394573       -37.9483
  10   1.0000      -1.064412       -28.9641
  11   1.0000      -0.921978       -25.0883
  12   1.0000      -0.821860       -22.3639
  13   1.0000      -0.723656       -19.6917
  14   1.0000      -0.655633       -17.8407
  15   1.0000      -0.639565       -17.4034
  16   1.0000      -0.597785       -16.2665
  17   1.0000      -0.549054       -14.9405
  18   1.0000      -0.526596       -14.3294
  19   1.0000      -0.523171       -14.2362
  20   1.0000      -0.479617       -13.0510
  21   1.0000      -0.439236       -11.9522
  22   1.0000      -0.382582       -10.4106
  23   0.0000       0.009524         0.2592
  24   0.0000       0.022494         0.6121
  25   0.0000       0.033100         0.9007
  26   0.0000       0.038564         1.0494
  27   0.0000       0.041626         1.1327

MULLIKEN ATOMIC CHARGES AND SPIN POPULATIONS
--------------------------------------------
   0 C :    0.361675   -0.336881
   1 O :   -0.720526    0.311772
   2 C :   -0.435913    0.012151
   3 C :   -0.749101   -0.006824
   4 H :    0.255357   -0.009728
   5 H :    0.255360   -0.009728
   6 H :    0.234063    0.001647
   7 H :    0.297060    0.000116
   8 H :    0.234064    0.001647
   9 P :    0.381113    1.092102
  10 H :   -0.113150   -0.056274
Sum of atomic charges         :    0.0000000

LOEWDIN ATOMIC CHARGES AND SPIN POPULATIONS
-------------------------------------------
   0 C :   -1.003940    0.110274
   1 O :    0.619473    0.186331
   2 C :    0.340315   -0.013233
   3 C :    0.885294   -0.003117
   4 H :   -0.315138   -0.000651
   5 H :   -0.315136   -0.000651
   6 H :   -0.292451   -0.000608
   7 H :   -0.284054   -0.000088
   8 H :   -0.292451   -0.000608
   9 P :    1.270121    0.546746
  10 H :   -0.612032    0.175605

  Mayer bond orders larger than 0.100000
B(  0-C ,  1-O ) :   1.3303 B(  0-C ,  2-C ) :   0.9224 B(  0-C ,  9-P ) :   0.9664
B(  1-O ,  2-C ) :   0.1676 B(  2-C ,  3-C ) :   0.9364 B(  2-C ,  4-H ) :   0.8946
B(  2-C ,  5-H ) :   0.8946 B(  3-C ,  6-H ) :   0.9525 B(  3-C ,  7-H ) :   0.9589
B(  3-C ,  8-H ) :   0.9525 B(  9-P , 10-H ) :   0.9187

MP2 TOTAL ENERGY:     -533.691840973 Eh
FINAL SINGLE POINT ENERGY      -533.691840973368

DIPOLE MOMENT
-------------
                                X             Y             Z
Electronic contribution:      9.61661       3.05020       0.00000
Nuclear contribution   :     -9.85901      -4.26245       0.00000
                        -----------------------------------------
Total Dipole Moment    :     -0.24240      -1.21224       0.00000
                        -----------------------------------------
Magnitude (a.u.)       :      1.23624
Magnitude (Debye)      :      3.14227

Rotational constants in cm-1:     0.305573     0.076513     0.062587
Rotational constants in MHz :  9160.847950  2293.808977  1876.306477

                             ****ORCA TERMINATED NORMALLY****
TOTAL RUN TIME: 0 days 1 hours 29 minutes 25 seconds 578 msec
