                         Program Version 5.0.4 -  RELEASE  -
|  1> ! ri-mp2 aug-cc-pvdz aug-cc-pvdz/c tightscf
|  2> %pal nprocs 16 end
|  3> %maxcore 3800
|  4> %base "DZ_P-Cl_3_AB"
|  5>
|  6> *xyz 0 1
|  7> Cl        -2.193502   -1.780670   -0.203404
|  8> H         0.868780    1.235452   -2.037558
|  9> H         3.243384    1.302987   -1.434410
| 10> P        -1.418563   -0.007256   -0.954521
| 11> C        -1.953379    1.242499    0.348975
| 12> C         0.329896   -0.111758   -0.458367
| 13> C         3.049741   -0.047505    0.213325
| 14> C        -2.926304    0.904978    1.434065
| 15> H        -2.512825    0.126914    2.076838
| 16> H        -3.843735    0.500022    1.005260
| 17> C         1.222229    0.655806   -1.194510
| 18> O        -1.483773    2.338152    0.193102
| 19> C         4.507087   -0.037068    0.567780
| 20> C         2.563567    0.692614   -0.853437
| 21> H         0.133879   -1.472305    1.191132
| 22> H         2.508502   -1.410963    1.775195
| 23> H        -3.140650    1.799884    2.013612
| 24> C         0.809517   -0.856361    0.613764
| 25> C         2.150081   -0.824050    0.938155
| 26> H         4.988123   -0.967529    0.259635
| 27> H         4.649919    0.061385    1.644103
| 28> H         5.028159    0.784233    0.078567
| 29> *
| 30>
| 31> $new_job
| 32> ! ri-mp2 aug-cc-pvtz aug-cc-pvtz/c tightscf
| 33> %pal nprocs 16 end
| 34> %maxcore 3800
| 35> %base "TZ_P-Cl_3_AB"
| 36>
| 37> *xyz 0 1
| 38> Cl        -2.193502   -1.780670   -0.203404
| 39> H         0.868780    1.235452   -2.037558
| 40> H         3.243384    1.302987   -1.434410
| 41> P        -1.418563   -0.007256   -0.954521
| 42> C        -1.953379    1.242499    0.348975
| 43> C         0.329896   -0.111758   -0.458367
| 44> C         3.049741   -0.047505    0.213325
| 45> C        -2.926304    0.904978    1.434065
| 46> H        -2.512825    0.126914    2.076838
| 47> H        -3.843735    0.500022    1.005260
| 48> C         1.222229    0.655806   -1.194510
| 49> O        -1.483773    2.338152    0.193102
| 50> C         4.507087   -0.037068    0.567780
| 51> C         2.563567    0.692614   -0.853437
| 52> H         0.133879   -1.472305    1.191132
| 53> H         2.508502   -1.410963    1.775195
| 54> H        -3.140650    1.799884    2.013612
| 55> C         0.809517   -0.856361    0.613764
| 56> C         2.150081   -0.824050    0.938155
| 57> H         4.988123   -0.967529    0.259635
| 58> H         4.649919    0.061385    1.644103
| 59> H         5.028159    0.784233    0.078567
| 60> *
| 61>
| 62> $new_job
| 63> ! ri-mp2 aug-cc-pvqz aug-cc-pvqz/c tightscf
| 64> %pal nprocs 16 end
| 65> %maxcore 3800
| 66> %base "QZ_P-Cl_3_AB"
| 67>
| 68> *xyz 0 1
| 69> Cl        -2.193502   -1.780670   -0.203404
| 70> H         0.868780    1.235452   -2.037558
| 71> H         3.243384    1.302987   -1.434410
| 72> P        -1.418563   -0.007256   -0.954521
| 73> C        -1.953379    1.242499    0.348975
| 74> C         0.329896   -0.111758   -0.458367
| 75> C         3.049741   -0.047505    0.213325
| 76> C        -2.926304    0.904978    1.434065
| 77> H        -2.512825    0.126914    2.076838
| 78> H        -3.843735    0.500022    1.005260
| 79> C         1.222229    0.655806   -1.194510
| 80> O        -1.483773    2.338152    0.193102
| 81> C         4.507087   -0.037068    0.567780
| 82> C         2.563567    0.692614   -0.853437
| 83> H         0.133879   -1.472305    1.191132
| 84> H         2.508502   -1.410963    1.775195
| 85> H        -3.140650    1.799884    2.013612
| 86> C         0.809517   -0.856361    0.613764
| 87> C         2.150081   -0.824050    0.938155
| 88> H         4.988123   -0.967529    0.259635
| 89> H         4.649919    0.061385    1.644103
| 90> H         5.028159    0.784233    0.078567
| 91> *
| 92>
| 93>
| 94>
| 95>
| 96>                          ****END OF INPUT****
 Total Charge           Charge          ....    0
 Multiplicity           Mult            ....    1
 Number of Electrons    NEL             ....  104
MP2 TOTAL ENERGY:    -1223.517317086 Eh
FINAL SINGLE POINT ENERGY     -1223.517317086146
MP2 TOTAL ENERGY:    -1223.991442251 Eh
FINAL SINGLE POINT ENERGY     -1223.991442251246

CARTESIAN COORDINATES (ANGSTROEM)
---------------------------------
  Cl    -2.193502   -1.780670   -0.203404
  H      0.868780    1.235452   -2.037558
  H      3.243384    1.302987   -1.434410
  P     -1.418563   -0.007256   -0.954521
  C     -1.953379    1.242499    0.348975
  C      0.329896   -0.111758   -0.458367
  C      3.049741   -0.047505    0.213325
  C     -2.926304    0.904978    1.434065
  H     -2.512825    0.126914    2.076838
  H     -3.843735    0.500022    1.005260
  C      1.222229    0.655806   -1.194510
  O     -1.483773    2.338152    0.193102
  C      4.507087   -0.037068    0.567780
  C      2.563567    0.692614   -0.853437
  H      0.133879   -1.472305    1.191132
  H      2.508502   -1.410963    1.775195
  H     -3.140650    1.799884    2.013612
  C      0.809517   -0.856361    0.613764
  C      2.150081   -0.824050    0.938155
  H      4.988123   -0.967529    0.259635
  H      4.649919    0.061385    1.644103
  H      5.028159    0.784233    0.078567

 Multiplicity           Mult            ....    1
 Number of Electrons    NEL             ....  104
 Basis Dimension        Dim             .... 1428

ORBITAL ENERGIES
----------------

  NO   OCC          E(Eh)            E(eV)
   0   2.0000    -104.835886     -2852.7295
   1   2.0000     -80.000065     -2176.9124
   2   2.0000     -20.563014      -559.5480
   3   2.0000     -11.343126      -308.6622
   4   2.0000     -11.253099      -306.2124
   5   2.0000     -11.249188      -306.1060
   6   2.0000     -11.247737      -306.0665
   7   2.0000     -11.247015      -306.0468
   8   2.0000     -11.240362      -305.8658
   9   2.0000     -11.237184      -305.7793
  10   2.0000     -11.236290      -305.7550
  11   2.0000     -11.230835      -305.6066
  12   2.0000     -10.562497      -287.4202
  13   2.0000      -8.029332      -218.4892
  14   2.0000      -8.027982      -218.4525
  15   2.0000      -8.027887      -218.4499
  16   2.0000      -7.537886      -205.1163
  17   2.0000      -5.431702      -147.8041
  18   2.0000      -5.430323      -147.7666
  19   2.0000      -5.429592      -147.7467
  20   2.0000      -1.409612       -38.3575
  21   2.0000      -1.174892       -31.9704
  22   2.0000      -1.118317       -30.4309
  23   2.0000      -1.062682       -28.9170
  24   2.0000      -1.029268       -28.0078
  25   2.0000      -1.022755       -27.8306
  26   2.0000      -0.955064       -25.9886
  27   2.0000      -0.867046       -23.5935
  28   2.0000      -0.843314       -22.9477
  29   2.0000      -0.800949       -21.7949
  30   2.0000      -0.735406       -20.0114
  31   2.0000      -0.684139       -18.6164
  32   2.0000      -0.657180       -17.8828
  33   2.0000      -0.648076       -17.6351
  34   2.0000      -0.637383       -17.3441
  35   2.0000      -0.625015       -17.0075
  36   2.0000      -0.612958       -16.6794
  37   2.0000      -0.598547       -16.2873
  38   2.0000      -0.587698       -15.9921
  39   2.0000      -0.560044       -15.2396
  40   2.0000      -0.555737       -15.1224
  41   2.0000      -0.551541       -15.0082
  42   2.0000      -0.523553       -14.2466
  43   2.0000      -0.504661       -13.7325
  44   2.0000      -0.501487       -13.6462
  45   2.0000      -0.494181       -13.4473
  46   2.0000      -0.488405       -13.2902
  47   2.0000      -0.477982       -13.0066
  48   2.0000      -0.413911       -11.2631
  49   2.0000      -0.374853       -10.2003
  50   2.0000      -0.349881        -9.5207
  51   2.0000      -0.330392        -8.9904
  52   0.0000       0.021843         0.5944
  53   0.0000       0.026408         0.7186
  54   0.0000       0.030343         0.8257
  55   0.0000       0.035615         0.9691
  56   0.0000       0.038168         1.0386

MULLIKEN ATOMIC CHARGES
-----------------------
   0 Cl:   -0.619614
   1 H :    0.292309
   2 H :    0.215574
   3 P :    0.915911
   4 C :    0.701400
   5 C :   -0.251245
   6 C :    0.416632
   7 C :   -0.991269
   8 H :    0.279693
   9 H :    0.310169
  10 C :   -0.143598
  11 O :   -0.869235
  12 C :   -0.833586
  13 C :   -0.399314
  14 H :    0.342943
  15 H :    0.241267
  16 H :    0.354918
  17 C :   -0.435701
  18 C :   -0.264335
  19 H :    0.281773
  20 H :    0.227023
  21 H :    0.228285
Sum of atomic charges:   -0.0000000

LOEWDIN ATOMIC CHARGES
----------------------
   0 Cl:    0.813015
   1 H :   -0.337812
   2 H :   -0.316188
   3 P :    0.180399
   4 C :   -0.876356
   5 C :   -0.360958
   6 C :   -0.072979
   7 C :    0.784145
   8 H :   -0.334224
   9 H :   -0.328665
  10 C :    0.241089
  11 O :    0.654001
  12 C :    0.913243
  13 C :    0.356581
  14 H :   -0.395057
  15 H :   -0.311965
  16 H :   -0.321537
  17 C :    0.230778
  18 C :    0.351277
  19 H :   -0.276539
  20 H :   -0.288301
  21 H :   -0.303949

  Mayer bond orders larger than 0.100000
B(  0-Cl,  3-P ) :   0.7383 B(  0-Cl,  5-C ) :  -0.2151 B(  0-Cl, 14-H ) :  -0.1070
B(  0-Cl, 17-C ) :   0.1616 B(  1-H ,  5-C ) :  -0.1807 B(  1-H , 10-C ) :   1.0337
B(  1-H , 13-C ) :  -0.1461 B(  2-H ,  6-C ) :  -0.1139 B(  2-H , 10-C ) :  -0.1270
B(  2-H , 13-C ) :   1.0895 B(  3-P ,  4-C ) :   0.7079 B(  3-P ,  5-C ) :   0.9742
B(  3-P , 10-C ) :  -0.2871 B(  3-P , 11-O ) :   0.1346 B(  4-C ,  7-C ) :   0.9554
B(  4-C , 11-O ) :   1.1715 B(  5-C ,  6-C ) :  -0.1013 B(  5-C , 10-C ) :   0.7719
B(  5-C , 13-C ) :  -0.1165 B(  5-C , 14-H ) :  -0.1269 B(  5-C , 17-C ) :   0.8584
B(  5-C , 18-C ) :  -0.2101 B(  6-C , 10-C ) :  -0.1498 B(  6-C , 12-C ) :   0.6632
B(  6-C , 13-C ) :   0.9902 B(  6-C , 17-C ) :  -0.1053 B(  6-C , 18-C ) :   0.9514
B(  6-C , 20-H ) :  -0.1147 B(  6-C , 21-H ) :  -0.1123 B(  7-C ,  8-H ) :   0.9271
B(  7-C ,  9-H ) :   0.9274 B(  7-C , 11-O ) :   0.1113 B(  7-C , 16-H ) :   0.9201
B( 10-C , 13-C ) :   1.3814 B( 10-C , 18-C ) :   0.1675 B( 12-C , 19-H ) :   0.9747
B( 12-C , 20-H ) :   1.0332 B( 12-C , 21-H ) :   1.0512 B( 13-C , 17-C ) :   0.1534
B( 13-C , 18-C ) :  -0.1317 B( 14-H , 17-C ) :   0.9896 B( 14-H , 18-C ) :  -0.1155
B( 15-H , 17-C ) :  -0.1480 B( 15-H , 18-C ) :   1.0607 B( 17-C , 18-C ) :   1.3114

MP2 TOTAL ENERGY:    -1224.144025934 Eh
FINAL SINGLE POINT ENERGY     -1224.144025933802

DIPOLE MOMENT
-------------
                                X             Y             Z
Electronic contribution:    -15.37949      -4.85061      -7.00666
Nuclear contribution   :     15.95748       4.43146       7.57061
                        -----------------------------------------
Total Dipole Moment    :      0.57799      -0.41915       0.56395
                        -----------------------------------------
Magnitude (a.u.)       :      0.90983
Magnitude (Debye)      :      2.31261

Rotational constants in cm-1:     0.042602     0.014270     0.012741
Rotational constants in MHz :  1277.175414   427.816840   381.970535

                             ****ORCA TERMINATED NORMALLY****
TOTAL RUN TIME: 0 days 1 hours 18 minutes 17 seconds 81 msec
