                         Program Version 5.0.4 -  RELEASE  -
|  1> ! ri-mp2 aug-cc-pvdz aug-cc-pvdz/c tightscf
|  2> %pal nprocs 16 end
|  3> %maxcore 3800
|  4> %base "DZ_B-F_63_AB"
|  5>
|  6> *xyz 0 1
|  7> F        -2.404899   -1.118705    0.000001
|  8> B        -1.712535    0.006263   -0.000005
|  9> F        -2.406558    1.131894    0.000004
| 10> C        -0.171538    0.013746   -0.000002
| 11> C         0.554351    1.202696    0.000001
| 12> C         0.554813   -1.176359   -0.000003
| 13> N         1.878318   -1.239123   -0.000002
| 14> C         1.932784    1.152547    0.000003
| 15> C         2.544869   -0.090817    0.000001
| 16> H         0.036604    2.153470    0.000001
| 17> H         2.530082    2.053539    0.000005
| 18> H         0.032475   -2.126863   -0.000006
| 19> H         3.626724   -0.167187    0.000003
| 20> *
| 21>
| 22> $new_job
| 23> ! ri-mp2 aug-cc-pvtz aug-cc-pvtz/c tightscf
| 24> %pal nprocs 16 end
| 25> %maxcore 3800
| 26> %base "TZ_B-F_63_AB"
| 27>
| 28> *xyz 0 1
| 29> F        -2.404899   -1.118705    0.000001
| 30> B        -1.712535    0.006263   -0.000005
| 31> F        -2.406558    1.131894    0.000004
| 32> C        -0.171538    0.013746   -0.000002
| 33> C         0.554351    1.202696    0.000001
| 34> C         0.554813   -1.176359   -0.000003
| 35> N         1.878318   -1.239123   -0.000002
| 36> C         1.932784    1.152547    0.000003
| 37> C         2.544869   -0.090817    0.000001
| 38> H         0.036604    2.153470    0.000001
| 39> H         2.530082    2.053539    0.000005
| 40> H         0.032475   -2.126863   -0.000006
| 41> H         3.626724   -0.167187    0.000003
| 42> *
| 43>
| 44> $new_job
| 45> ! ri-mp2 aug-cc-pvqz aug-cc-pvqz/c tightscf
| 46> %pal nprocs 16 end
| 47> %maxcore 3800
| 48> %base "QZ_B-F_63_AB"
| 49>
| 50> *xyz 0 1
| 51> F        -2.404899   -1.118705    0.000001
| 52> B        -1.712535    0.006263   -0.000005
| 53> F        -2.406558    1.131894    0.000004
| 54> C        -0.171538    0.013746   -0.000002
| 55> C         0.554351    1.202696    0.000001
| 56> C         0.554813   -1.176359   -0.000003
| 57> N         1.878318   -1.239123   -0.000002
| 58> C         1.932784    1.152547    0.000003
| 59> C         2.544869   -0.090817    0.000001
| 60> H         0.036604    2.153470    0.000001
| 61> H         2.530082    2.053539    0.000005
| 62> H         0.032475   -2.126863   -0.000006
| 63> H         3.626724   -0.167187    0.000003
| 64> *
| 65>
| 66>
| 67>
| 68>
| 69>                          ****END OF INPUT****
 Total Charge           Charge          ....    0
 Multiplicity           Mult            ....    1
 Number of Electrons    NEL             ....   64
MP2 TOTAL ENERGY:     -471.178324926 Eh
FINAL SINGLE POINT ENERGY      -471.178324926482
MP2 TOTAL ENERGY:     -471.583176290 Eh
FINAL SINGLE POINT ENERGY      -471.583176289798

CARTESIAN COORDINATES (ANGSTROEM)
---------------------------------
  F     -2.404899   -1.118705    0.000001
  B     -1.712535    0.006263   -0.000005
  F     -2.406558    1.131894    0.000004
  C     -0.171538    0.013746   -0.000002
  C      0.554351    1.202696    0.000001
  C      0.554813   -1.176359   -0.000003
  N      1.878318   -1.239123   -0.000002
  C      1.932784    1.152547    0.000003
  C      2.544869   -0.090817    0.000001
  H      0.036604    2.153470    0.000001
  H      2.530082    2.053539    0.000005
  H      0.032475   -2.126863   -0.000006
  H      3.626724   -0.167187    0.000003

 Multiplicity           Mult            ....    1
 Number of Electrons    NEL             ....   64
 Basis Dimension        Dim             ....  904

ORBITAL ENERGIES
----------------

  NO   OCC          E(Eh)            E(eV)
   0   2.0000     -26.312589      -716.0020
   1   2.0000     -26.311953      -715.9846
   2   2.0000     -15.573381      -423.7732
   3   2.0000     -11.292971      -307.2974
   4   2.0000     -11.291985      -307.2705
   5   2.0000     -11.275671      -306.8266
   6   2.0000     -11.250112      -306.1311
   7   2.0000     -11.235333      -305.7289
   8   2.0000      -7.709244      -209.7792
   9   2.0000      -1.646481       -44.8030
  10   2.0000      -1.614220       -43.9252
  11   2.0000      -1.279760       -34.8240
  12   2.0000      -1.107852       -30.1462
  13   2.0000      -1.053185       -28.6586
  14   2.0000      -0.882828       -24.0230
  15   2.0000      -0.875863       -23.8334
  16   2.0000      -0.818547       -22.2738
  17   2.0000      -0.762797       -20.7568
  18   2.0000      -0.755702       -20.5637
  19   2.0000      -0.716033       -19.4843
  20   2.0000      -0.713382       -19.4121
  21   2.0000      -0.681037       -18.5320
  22   2.0000      -0.661965       -18.0130
  23   2.0000      -0.651789       -17.7361
  24   2.0000      -0.644186       -17.5292
  25   2.0000      -0.591306       -16.0903
  26   2.0000      -0.588427       -16.0119
  27   2.0000      -0.560420       -15.2498
  28   2.0000      -0.522580       -14.2201
  29   2.0000      -0.428861       -11.6699
  30   2.0000      -0.403287       -10.9740
  31   2.0000      -0.368576       -10.0295
  32   0.0000       0.019167         0.5216
  33   0.0000       0.029530         0.8036
  34   0.0000       0.031552         0.8586
  35   0.0000       0.036841         1.0025
  36   0.0000       0.042532         1.1574

MULLIKEN ATOMIC CHARGES
-----------------------
   0 F :   -0.876006
   1 B :    1.897956
   2 F :   -0.868694
   3 C :    0.024552
   4 C :   -0.345565
   5 C :   -0.165541
   6 N :   -0.624225
   7 C :   -0.314131
   8 C :   -0.338316
   9 H :    0.316891
  10 H :    0.303592
  11 H :    0.475403
  12 H :    0.514084
Sum of atomic charges:    0.0000000

LOEWDIN ATOMIC CHARGES
----------------------
   0 F :    0.834762
   1 B :   -1.740439
   2 F :    0.832793
   3 C :   -0.005788
   4 C :    0.303220
   5 C :    0.049680
   6 N :    0.612869
   7 C :    0.351678
   8 C :    0.082832
   9 H :   -0.308972
  10 H :   -0.322893
  11 H :   -0.347632
  12 H :   -0.342110

  Mayer bond orders larger than 0.100000
B(  0-F ,  1-B ) :   0.1378 B(  1-B ,  2-F ) :   0.1702 B(  1-B ,  3-C ) :   1.0084
B(  3-C ,  4-C ) :   0.9064 B(  3-C ,  5-C ) :   1.1578 B(  3-C ,  7-C ) :  -0.2849
B(  4-C ,  7-C ) :   1.3059 B(  4-C ,  9-H ) :   0.9237 B(  5-C ,  6-N ) :   1.2028
B(  5-C ,  7-C ) :   0.1143 B(  5-C , 11-H ) :   0.8215 B(  6-N ,  8-C ) :   1.3299
B(  6-N , 11-H ) :  -0.1192 B(  7-C ,  8-C ) :   1.2382 B(  7-C , 10-H ) :   1.0167
B(  8-C , 12-H ) :   0.8052

MP2 TOTAL ENERGY:     -471.713181935 Eh
FINAL SINGLE POINT ENERGY      -471.713181934657

DIPOLE MOMENT
-------------
                                X             Y             Z
Electronic contribution:    -11.14644      -1.01206      -0.00001
Nuclear contribution   :     11.71526       1.78790       0.00000
                        -----------------------------------------
Total Dipole Moment    :      0.56882       0.77584      -0.00001
                        -----------------------------------------
Magnitude (a.u.)       :      0.96202
Magnitude (Debye)      :      2.44527

Rotational constants in cm-1:     0.126666     0.037460     0.028910
Rotational constants in MHz :  3797.348610  1123.023226   866.704962

                             ****ORCA TERMINATED NORMALLY****
TOTAL RUN TIME: 0 days 0 hours 17 minutes 49 seconds 50 msec
