                         Program Version 5.0.4 -  RELEASE  -
|  1> ! ri-mp2 aug-cc-pvdz aug-cc-pvdz/c tightscf
|  2> %pal nprocs 16 end
|  3> %maxcore 3800
|  4> %base "DZ_Si-S_27_AB"
|  5> %scf
|  6> STABPerform true
|  7> STABRestartUHFifUnstable true
|  8> end
|  9>
| 10> *xyz 0 1
| 11> C         1.527773    0.110174    0.331975
| 12> C         1.878908    1.390942   -0.404430
| 13> H         2.110099    1.179532   -1.448954
| 14> H         2.754139    1.857730    0.053008
| 15> S         0.058649   -0.723788   -0.398682
| 16> Si        -1.535959    0.499391    0.306890
| 17> C        -3.130871   -0.358327   -0.122787
| 18> H        -3.219761   -0.494245   -1.200792
| 19> H        -3.982573    0.234034    0.214170
| 20> H        -3.186403   -1.338291    0.350549
| 21> C         2.677762   -0.882905    0.316587
| 22> H         1.274838    0.340690    1.367744
| 23> H         2.922013   -1.174501   -0.706182
| 24> H         2.432370   -1.783470    0.877340
| 25> H         3.566694   -0.430566    0.759681
| 26> H         1.061827    2.110423   -0.380685
| 27> H        -1.499668    1.849612   -0.302932
| 28> H        -1.389956    0.678863    1.771439
| 29> *
| 30>
| 31> $new_job
| 32> ! ri-mp2 aug-cc-pvtz aug-cc-pvtz/c tightscf
| 33> %pal nprocs 16 end
| 34> %maxcore 3800
| 35> %base "TZ_Si-S_27_AB"
| 36>
| 37> *xyz 0 1
| 38> C         1.527773    0.110174    0.331975
| 39> C         1.878908    1.390942   -0.404430
| 40> H         2.110099    1.179532   -1.448954
| 41> H         2.754139    1.857730    0.053008
| 42> S         0.058649   -0.723788   -0.398682
| 43> Si        -1.535959    0.499391    0.306890
| 44> C        -3.130871   -0.358327   -0.122787
| 45> H        -3.219761   -0.494245   -1.200792
| 46> H        -3.982573    0.234034    0.214170
| 47> H        -3.186403   -1.338291    0.350549
| 48> C         2.677762   -0.882905    0.316587
| 49> H         1.274838    0.340690    1.367744
| 50> H         2.922013   -1.174501   -0.706182
| 51> H         2.432370   -1.783470    0.877340
| 52> H         3.566694   -0.430566    0.759681
| 53> H         1.061827    2.110423   -0.380685
| 54> H        -1.499668    1.849612   -0.302932
| 55> H        -1.389956    0.678863    1.771439
| 56> *
| 57>
| 58> $new_job
| 59> ! ri-mp2 aug-cc-pvqz aug-cc-pvqz/c tightscf
| 60> %pal nprocs 16 end
| 61> %maxcore 3800
| 62> %base "QZ_Si-S_27_AB"
| 63>
| 64> *xyz 0 1
| 65> C         1.527773    0.110174    0.331975
| 66> C         1.878908    1.390942   -0.404430
| 67> H         2.110099    1.179532   -1.448954
| 68> H         2.754139    1.857730    0.053008
| 69> S         0.058649   -0.723788   -0.398682
| 70> Si        -1.535959    0.499391    0.306890
| 71> C        -3.130871   -0.358327   -0.122787
| 72> H        -3.219761   -0.494245   -1.200792
| 73> H        -3.982573    0.234034    0.214170
| 74> H        -3.186403   -1.338291    0.350549
| 75> C         2.677762   -0.882905    0.316587
| 76> H         1.274838    0.340690    1.367744
| 77> H         2.922013   -1.174501   -0.706182
| 78> H         2.432370   -1.783470    0.877340
| 79> H         3.566694   -0.430566    0.759681
| 80> H         1.061827    2.110423   -0.380685
| 81> H        -1.499668    1.849612   -0.302932
| 82> H        -1.389956    0.678863    1.771439
| 83> *
| 84>
| 85>
| 86>
| 87>
| 88>                          ****END OF INPUT****
 Total Charge           Charge          ....    0
 Multiplicity           Mult            ....    1
 Number of Electrons    NEL             ....   66
MP2 TOTAL ENERGY:     -845.835631802 Eh
FINAL SINGLE POINT ENERGY      -845.835631802042
MP2 TOTAL ENERGY:     -846.084153596 Eh
FINAL SINGLE POINT ENERGY      -846.084153596229

CARTESIAN COORDINATES (ANGSTROEM)
---------------------------------
  C      1.527773    0.110174    0.331975
  C      1.878908    1.390942   -0.404430
  H      2.110099    1.179532   -1.448954
  H      2.754139    1.857730    0.053008
  S      0.058649   -0.723788   -0.398682
  Si    -1.535959    0.499391    0.306890
  C     -3.130871   -0.358327   -0.122787
  H     -3.219761   -0.494245   -1.200792
  H     -3.982573    0.234034    0.214170
  H     -3.186403   -1.338291    0.350549
  C      2.677762   -0.882905    0.316587
  H      1.274838    0.340690    1.367744
  H      2.922013   -1.174501   -0.706182
  H      2.432370   -1.783470    0.877340
  H      3.566694   -0.430566    0.759681
  H      1.061827    2.110423   -0.380685
  H     -1.499668    1.849612   -0.302932
  H     -1.389956    0.678863    1.771439

 Multiplicity           Mult            ....    1
 Number of Electrons    NEL             ....   66
 Basis Dimension        Dim             .... 1040

ORBITAL ENERGIES
----------------

  NO   OCC          E(Eh)            E(eV)
   0   2.0000     -91.925186     -2501.4115
   1   2.0000     -68.779522     -1871.5859
   2   2.0000     -11.265984      -306.5630
   3   2.0000     -11.219910      -305.3093
   4   2.0000     -11.219159      -305.2888
   5   2.0000     -11.207539      -304.9726
   6   2.0000      -8.930041      -242.9988
   7   2.0000      -6.611471      -179.9073
   8   2.0000      -6.610794      -179.8889
   9   2.0000      -6.610101      -179.8700
  10   2.0000      -6.127022      -166.7248
  11   2.0000      -4.233684      -115.2044
  12   2.0000      -4.233134      -115.1894
  13   2.0000      -4.233052      -115.1872
  14   2.0000      -1.094647       -29.7869
  15   2.0000      -0.959741       -26.1159
  16   2.0000      -0.941600       -25.6222
  17   2.0000      -0.924657       -25.1612
  18   2.0000      -0.778845       -21.1935
  19   2.0000      -0.683988       -18.6123
  20   2.0000      -0.626512       -17.0483
  21   2.0000      -0.601977       -16.3806
  22   2.0000      -0.575389       -15.6571
  23   2.0000      -0.567014       -15.4292
  24   2.0000      -0.559947       -15.2369
  25   2.0000      -0.544724       -14.8227
  26   2.0000      -0.505562       -13.7570
  27   2.0000      -0.498551       -13.5663
  28   2.0000      -0.472974       -12.8703
  29   2.0000      -0.470912       -12.8142
  30   2.0000      -0.438659       -11.9365
  31   2.0000      -0.409421       -11.1409
  32   2.0000      -0.348743        -9.4898
  33   0.0000       0.023272         0.6333
  34   0.0000       0.030318         0.8250
  35   0.0000       0.033338         0.9072
  36   0.0000       0.035046         0.9537
  37   0.0000       0.045632         1.2417

MULLIKEN ATOMIC CHARGES
-----------------------
   0 C :    0.170156
   1 C :   -0.947784
   2 H :    0.244097
   3 H :    0.262358
   4 S :   -0.504620
   5 Si:    1.170683
   6 C :   -1.084951
   7 H :    0.237601
   8 H :    0.287065
   9 H :    0.240847
  10 C :   -0.936466
  11 H :    0.267351
  12 H :    0.231815
  13 H :    0.289995
  14 H :    0.292659
  15 H :    0.325303
  16 H :   -0.282531
  17 H :   -0.263578
Sum of atomic charges:   -0.0000000

LOEWDIN ATOMIC CHARGES
----------------------
   0 C :   -0.340807
   1 C :    0.822606
   2 H :   -0.293141
   3 H :   -0.278183
   4 S :    1.229120
   5 Si:    0.339162
   6 C :    0.857998
   7 H :   -0.363784
   8 H :   -0.362061
   9 H :   -0.364914
  10 C :    0.813450
  11 H :   -0.375249
  12 H :   -0.297877
  13 H :   -0.299106
  14 H :   -0.282613
  15 H :   -0.323763
  16 H :   -0.242736
  17 H :   -0.238102

  Mayer bond orders larger than 0.100000
B(  0-C ,  1-C ) :   0.8372 B(  0-C ,  4-S ) :   0.6332 B(  0-C , 10-C ) :   0.7045
B(  0-C , 11-H ) :   0.8962 B(  1-C ,  2-H ) :   0.9607 B(  1-C ,  3-H ) :   0.9458
B(  1-C , 15-H ) :   0.9221 B(  4-S ,  5-Si) :   0.8193 B(  5-Si,  6-C ) :   0.9523
B(  5-Si, 16-H ) :   0.7802 B(  5-Si, 17-H ) :   0.7989 B(  6-C ,  7-H ) :   0.9532
B(  6-C ,  8-H ) :   0.9460 B(  6-C ,  9-H ) :   0.9649 B( 10-C , 12-H ) :   0.9830
B( 10-C , 13-H ) :   0.9643 B( 10-C , 14-H ) :   0.9608

MP2 TOTAL ENERGY:     -846.160255450 Eh
FINAL SINGLE POINT ENERGY      -846.160255450373

DIPOLE MOMENT
-------------
                                X             Y             Z
Electronic contribution:     -2.91858      -2.78307      -1.10865
Nuclear contribution   :      3.02452       3.11395       1.38915
                        -----------------------------------------
Total Dipole Moment    :      0.10594       0.33088       0.28050
                        -----------------------------------------
Magnitude (a.u.)       :      0.44653
Magnitude (Debye)      :      1.13498

Rotational constants in cm-1:     0.165962     0.037712     0.033569
Rotational constants in MHz :  4975.407470  1130.590327  1006.377224

                             ****ORCA TERMINATED NORMALLY****
TOTAL RUN TIME: 0 days 2 hours 19 minutes 4 seconds 537 msec
