                         Program Version 5.0.4 -  RELEASE  -
|  1> ! ri-mp2 aug-cc-pvdz aug-cc-pvdz/c tightscf
|  2> %pal nprocs 16 end
|  3> %maxcore 3800
|  4> %base "DZ_P-O_13_AB"
|  5> %scf
|  6> STABPerform true
|  7> STABRestartUHFifUnstable true
|  8> end
|  9>
| 10> *xyz 0 1
| 11> P        -0.113868   -0.580473   -0.113702
| 12> C         1.410813    0.419812    0.002092
| 13> H         1.367689    1.121971    0.833700
| 14> H         1.561654    0.971112   -0.925180
| 15> H         2.260797   -0.250565    0.143388
| 16> O        -1.240333    0.612071    0.116363
| 17> H        -0.059871   -1.070288    1.217166
| 18> H        -1.964469    0.519420   -0.507001
| 19> *
| 20>
| 21> $new_job
| 22> ! ri-mp2 aug-cc-pvtz aug-cc-pvtz/c tightscf
| 23> %pal nprocs 16 end
| 24> %maxcore 3800
| 25> %base "TZ_P-O_13_AB"
| 26>
| 27> *xyz 0 1
| 28> P        -0.113868   -0.580473   -0.113702
| 29> C         1.410813    0.419812    0.002092
| 30> H         1.367689    1.121971    0.833700
| 31> H         1.561654    0.971112   -0.925180
| 32> H         2.260797   -0.250565    0.143388
| 33> O        -1.240333    0.612071    0.116363
| 34> H        -0.059871   -1.070288    1.217166
| 35> H        -1.964469    0.519420   -0.507001
| 36> *
| 37>
| 38> $new_job
| 39> ! ri-mp2 aug-cc-pvqz aug-cc-pvqz/c tightscf
| 40> %pal nprocs 16 end
| 41> %maxcore 3800
| 42> %base "QZ_P-O_13_AB"
| 43>
| 44> *xyz 0 1
| 45> P        -0.113868   -0.580473   -0.113702
| 46> C         1.410813    0.419812    0.002092
| 47> H         1.367689    1.121971    0.833700
| 48> H         1.561654    0.971112   -0.925180
| 49> H         2.260797   -0.250565    0.143388
| 50> O        -1.240333    0.612071    0.116363
| 51> H        -0.059871   -1.070288    1.217166
| 52> H        -1.964469    0.519420   -0.507001
| 53> *
| 54>
| 55>
| 56>
| 57>
| 58>                          ****END OF INPUT****
 Total Charge           Charge          ....    0
 Multiplicity           Mult            ....    1
 Number of Electrons    NEL             ....   34
MP2 TOTAL ENERGY:     -456.888107640 Eh
FINAL SINGLE POINT ENERGY      -456.888107640210
MP2 TOTAL ENERGY:     -457.045314877 Eh
FINAL SINGLE POINT ENERGY      -457.045314876913

CARTESIAN COORDINATES (ANGSTROEM)
---------------------------------
  P     -0.113868   -0.580473   -0.113702
  C      1.410813    0.419812    0.002092
  H      1.367689    1.121971    0.833700
  H      1.561654    0.971112   -0.925180
  H      2.260797   -0.250565    0.143388
  O     -1.240333    0.612071    0.116363
  H     -0.059871   -1.070288    1.217166
  H     -1.964469    0.519420   -0.507001

 Multiplicity           Mult            ....    1
 Number of Electrons    NEL             ....   34
 Basis Dimension        Dim             ....  474

ORBITAL ENERGIES
----------------

  NO   OCC          E(Eh)            E(eV)
   0   2.0000     -79.969948     -2176.0929
   1   2.0000     -20.569100      -559.7137
   2   2.0000     -11.221192      -305.3442
   3   2.0000      -7.506382      -204.2590
   4   2.0000      -5.400806      -146.9634
   5   2.0000      -5.400118      -146.9447
   6   2.0000      -5.399242      -146.9208
   7   2.0000      -1.360075       -37.0095
   8   2.0000      -0.980847       -26.6902
   9   2.0000      -0.799091       -21.7444
  10   2.0000      -0.662308       -18.0223
  11   2.0000      -0.604848       -16.4588
  12   2.0000      -0.567192       -15.4341
  13   2.0000      -0.561835       -15.2883
  14   2.0000      -0.544302       -14.8112
  15   2.0000      -0.454237       -12.3604
  16   2.0000      -0.353868        -9.6292
  17   0.0000       0.026857         0.7308
  18   0.0000       0.034091         0.9277
  19   0.0000       0.038968         1.0604
  20   0.0000       0.044908         1.2220
  21   0.0000       0.056781         1.5451

MULLIKEN ATOMIC CHARGES
-----------------------
   0 P :    0.813394
   1 C :   -0.956384
   2 H :    0.247465
   3 H :    0.270268
   4 H :    0.275330
   5 O :   -0.865646
   6 H :   -0.110131
   7 H :    0.325702
Sum of atomic charges:   -0.0000000

LOEWDIN ATOMIC CHARGES
----------------------
   0 P :    0.894399
   1 C :    0.710890
   2 H :   -0.366134
   3 H :   -0.379785
   4 H :   -0.382541
   5 O :    0.926282
   6 H :   -0.447022
   7 H :   -0.956088

  Mayer bond orders larger than 0.100000
B(  0-P ,  1-C ) :   0.8994 B(  0-P ,  5-O ) :   0.7152 B(  0-P ,  6-H ) :   0.9309
B(  1-C ,  2-H ) :   0.9288 B(  1-C ,  3-H ) :   0.9239 B(  1-C ,  4-H ) :   0.9225
B(  5-O ,  7-H ) :   0.9362

MP2 TOTAL ENERGY:     -457.094719583 Eh
FINAL SINGLE POINT ENERGY      -457.094719583407

DIPOLE MOMENT
-------------
                                X             Y             Z
Electronic contribution:     -3.15864      -1.82315      -1.03085
Nuclear contribution   :      3.24608       1.84922       0.86988
                        -----------------------------------------
Total Dipole Moment    :      0.08743       0.02607      -0.16096
                        -----------------------------------------
Magnitude (a.u.)       :      0.18502
Magnitude (Debye)      :      0.47028

Rotational constants in cm-1:     0.646670     0.255352     0.199497
Rotational constants in MHz : 19386.679166  7655.266614  5980.768810

                             ****ORCA TERMINATED NORMALLY****
TOTAL RUN TIME: 0 days 0 hours 6 minutes 20 seconds 815 msec
