                         Program Version 5.0.4 -  RELEASE  -
|  1> ! ri-mp2 aug-cc-pvdz aug-cc-pvdz/c tightscf
|  2> %pal nprocs 16 end
|  3> %maxcore 3800
|  4> %base "DZ_B-Cl_54_AB"
|  5>
|  6> *xyz 0 1
|  7> Cl        -0.862178    1.529196   -0.024380
|  8> B        -0.024136    0.000001    0.048625
|  9> Cl        -0.862126   -1.529223   -0.024379
| 10> N         1.353332    0.000024    0.329319
| 11> N         2.396310    0.000034   -0.298408
| 12> H         3.186362    0.000048    0.369396
| 13> *
| 14>
| 15> $new_job
| 16> ! ri-mp2 aug-cc-pvtz aug-cc-pvtz/c tightscf
| 17> %pal nprocs 16 end
| 18> %maxcore 3800
| 19> %base "TZ_B-Cl_54_AB"
| 20>
| 21> *xyz 0 1
| 22> Cl        -0.862178    1.529196   -0.024380
| 23> B        -0.024136    0.000001    0.048625
| 24> Cl        -0.862126   -1.529223   -0.024379
| 25> N         1.353332    0.000024    0.329319
| 26> N         2.396310    0.000034   -0.298408
| 27> H         3.186362    0.000048    0.369396
| 28> *
| 29>
| 30> $new_job
| 31> ! ri-mp2 aug-cc-pvqz aug-cc-pvqz/c tightscf
| 32> %pal nprocs 16 end
| 33> %maxcore 3800
| 34> %base "QZ_B-Cl_54_AB"
| 35>
| 36> *xyz 0 1
| 37> Cl        -0.862178    1.529196   -0.024380
| 38> B        -0.024136    0.000001    0.048625
| 39> Cl        -0.862126   -1.529223   -0.024379
| 40> N         1.353332    0.000024    0.329319
| 41> N         2.396310    0.000034   -0.298408
| 42> H         3.186362    0.000048    0.369396
| 43> *
| 44>
| 45>
| 46>
| 47>
| 48>                          ****END OF INPUT****
 Total Charge           Charge          ....    0
 Multiplicity           Mult            ....    1
 Number of Electrons    NEL             ....   54
MP2 TOTAL ENERGY:    -1053.944487139 Eh
FINAL SINGLE POINT ENERGY     -1053.944487138728
MP2 TOTAL ENERGY:    -1054.174563904 Eh
FINAL SINGLE POINT ENERGY     -1054.174563904265

CARTESIAN COORDINATES (ANGSTROEM)
---------------------------------
  Cl    -0.862178    1.529196   -0.024380
  B     -0.024136    0.000001    0.048625
  Cl    -0.862126   -1.529223   -0.024379
  N      1.353332    0.000024    0.329319
  N      2.396310    0.000034   -0.298408
  H      3.186362    0.000048    0.369396

 Multiplicity           Mult            ....    1
 Number of Electrons    NEL             ....   54
 Basis Dimension        Dim             ....  454

ORBITAL ENERGIES
----------------

  NO   OCC          E(Eh)            E(eV)
   0   2.0000    -104.850492     -2853.1269
   1   2.0000    -104.850492     -2853.1269
   2   2.0000     -15.665215      -426.2722
   3   2.0000     -15.642430      -425.6522
   4   2.0000     -10.578089      -287.8444
   5   2.0000     -10.578081      -287.8442
   6   2.0000      -8.044977      -218.9150
   7   2.0000      -8.044976      -218.9149
   8   2.0000      -8.043766      -218.8820
   9   2.0000      -8.043765      -218.8820
  10   2.0000      -8.043587      -218.8771
  11   2.0000      -8.043586      -218.8771
  12   2.0000      -7.733460      -210.4381
  13   2.0000      -1.393259       -37.9125
  14   2.0000      -1.154677       -31.4204
  15   2.0000      -1.111338       -30.2410
  16   2.0000      -0.987672       -26.8759
  17   2.0000      -0.760185       -20.6857
  18   2.0000      -0.672594       -18.3022
  19   2.0000      -0.639254       -17.3950
  20   2.0000      -0.616173       -16.7669
  21   2.0000      -0.528520       -14.3818
  22   2.0000      -0.526295       -14.3212
  23   2.0000      -0.496453       -13.5092
  24   2.0000      -0.477648       -12.9975
  25   2.0000      -0.463921       -12.6239
  26   2.0000      -0.394002       -10.7214
  27   0.0000       0.025494         0.6937
  28   0.0000       0.039186         1.0663
  29   0.0000       0.040468         1.1012
  30   0.0000       0.041906         1.1403
  31   0.0000       0.058722         1.5979

MULLIKEN ATOMIC CHARGES
-----------------------
   0 Cl:   -0.199062
   1 B :    0.792752
   2 Cl:   -0.199062
   3 N :   -0.362468
   4 N :   -0.337377
   5 H :    0.305217
Sum of atomic charges:   -0.0000000

LOEWDIN ATOMIC CHARGES
----------------------
   0 Cl:    1.222230
   1 B :   -2.648699
   2 Cl:    1.222230
   3 N :    0.160608
   4 N :    0.708227
   5 H :   -0.664597

  Mayer bond orders larger than 0.100000
B(  0-Cl,  1-B ) :   1.0831 B(  1-B ,  2-Cl) :   1.0831 B(  1-B ,  3-N ) :   0.9151
B(  3-N ,  4-N ) :   1.9108 B(  4-N ,  5-H ) :   0.8936

MP2 TOTAL ENERGY:    -1054.252818970 Eh
FINAL SINGLE POINT ENERGY     -1054.252818970268

DIPOLE MOMENT
-------------
                                X             Y             Z
Electronic contribution:     -4.63904      -0.00007      -0.09197
Nuclear contribution   :      5.21532       0.00008       0.36647
                        -----------------------------------------
Total Dipole Moment    :      0.57627       0.00001       0.27449
                        -----------------------------------------
Magnitude (a.u.)       :      0.63831
Magnitude (Debye)      :      1.62245

Rotational constants in cm-1:     0.099882     0.098174     0.050387
Rotational constants in MHz :  2994.400166  2943.171329  1510.568394

                             ****ORCA TERMINATED NORMALLY****
TOTAL RUN TIME: 0 days 0 hours 2 minutes 41 seconds 876 msec
