                         Program Version 5.0.4 -  RELEASE  -
|  1> ! ri-mp2 aug-cc-pvdz aug-cc-pvdz/c tightscf
|  2> %pal nprocs 16 end
|  3> %maxcore 3800
|  4> %base "DZ_B-Si_33_AB"
|  5> %scf
|  6> STABPerform true
|  7> STABRestartUHFifUnstable true
|  8> end
|  9>
| 10> *xyz 0 1
| 11> B        -2.557140    0.000197    1.327056
| 12> C         0.055215   -0.000099   -0.631581
| 13> C         0.732102   -1.192367    0.054722
| 14> C         0.732086    1.192394    0.054356
| 15> C         2.203493    0.772938    0.200557
| 16> H         0.291558    1.345647    1.044058
| 17> H         0.612471    2.124997   -0.497160
| 18> C         2.203518   -0.772880    0.200586
| 19> H         2.652550    1.185733    1.103457
| 20> H         2.785070    1.150955   -0.640690
| 21> H         2.784880   -1.150897   -0.640810
| 22> H         2.652822   -1.185646    1.103377
| 23> H         0.612405   -2.125174   -0.496433
| 24> H         0.291680   -1.345230    1.044533
| 25> Si        -1.819173   -0.000088   -0.539481
| 26> H         0.345796   -0.000267   -1.688432
| 27> H        -2.360004   -1.193923   -1.244592
| 28> H        -2.360003    1.193555   -1.244921
| 29> H        -1.876907    0.000400    2.305970
| 30> H        -3.736682    0.000174    1.497259
| 31> *
| 32>
| 33> $new_job
| 34> ! ri-mp2 aug-cc-pvtz aug-cc-pvtz/c tightscf
| 35> %pal nprocs 16 end
| 36> %maxcore 3800
| 37> %base "TZ_B-Si_33_AB"
| 38>
| 39> *xyz 0 1
| 40> B        -2.557140    0.000197    1.327056
| 41> C         0.055215   -0.000099   -0.631581
| 42> C         0.732102   -1.192367    0.054722
| 43> C         0.732086    1.192394    0.054356
| 44> C         2.203493    0.772938    0.200557
| 45> H         0.291558    1.345647    1.044058
| 46> H         0.612471    2.124997   -0.497160
| 47> C         2.203518   -0.772880    0.200586
| 48> H         2.652550    1.185733    1.103457
| 49> H         2.785070    1.150955   -0.640690
| 50> H         2.784880   -1.150897   -0.640810
| 51> H         2.652822   -1.185646    1.103377
| 52> H         0.612405   -2.125174   -0.496433
| 53> H         0.291680   -1.345230    1.044533
| 54> Si        -1.819173   -0.000088   -0.539481
| 55> H         0.345796   -0.000267   -1.688432
| 56> H        -2.360004   -1.193923   -1.244592
| 57> H        -2.360003    1.193555   -1.244921
| 58> H        -1.876907    0.000400    2.305970
| 59> H        -3.736682    0.000174    1.497259
| 60> *
| 61>
| 62> $new_job
| 63> ! ri-mp2 aug-cc-pvqz aug-cc-pvqz/c tightscf
| 64> %pal nprocs 16 end
| 65> %maxcore 3800
| 66> %base "QZ_B-Si_33_AB"
| 67>
| 68> *xyz 0 1
| 69> B        -2.557140    0.000197    1.327056
| 70> C         0.055215   -0.000099   -0.631581
| 71> C         0.732102   -1.192367    0.054722
| 72> C         0.732086    1.192394    0.054356
| 73> C         2.203493    0.772938    0.200557
| 74> H         0.291558    1.345647    1.044058
| 75> H         0.612471    2.124997   -0.497160
| 76> C         2.203518   -0.772880    0.200586
| 77> H         2.652550    1.185733    1.103457
| 78> H         2.785070    1.150955   -0.640690
| 79> H         2.784880   -1.150897   -0.640810
| 80> H         2.652822   -1.185646    1.103377
| 81> H         0.612405   -2.125174   -0.496433
| 82> H         0.291680   -1.345230    1.044533
| 83> Si        -1.819173   -0.000088   -0.539481
| 84> H         0.345796   -0.000267   -1.688432
| 85> H        -2.360004   -1.193923   -1.244592
| 86> H        -2.360003    1.193555   -1.244921
| 87> H        -1.876907    0.000400    2.305970
| 88> H        -3.736682    0.000174    1.497259
| 89> *
| 90>
| 91>
| 92>
| 93>
| 94>                          ****END OF INPUT****
 Total Charge           Charge          ....    0
 Multiplicity           Mult            ....    1
 Number of Electrons    NEL             ....   62
MP2 TOTAL ENERGY:     -511.434670893 Eh
FINAL SINGLE POINT ENERGY      -511.434670892700
MP2 TOTAL ENERGY:     -511.680155596 Eh
FINAL SINGLE POINT ENERGY      -511.680155595966

CARTESIAN COORDINATES (ANGSTROEM)
---------------------------------
  B     -2.557140    0.000197    1.327056
  C      0.055215   -0.000099   -0.631581
  C      0.732102   -1.192367    0.054722
  C      0.732086    1.192394    0.054356
  C      2.203493    0.772938    0.200557
  H      0.291558    1.345647    1.044058
  H      0.612471    2.124997   -0.497160
  C      2.203518   -0.772880    0.200586
  H      2.652550    1.185733    1.103457
  H      2.785070    1.150955   -0.640690
  H      2.784880   -1.150897   -0.640810
  H      2.652822   -1.185646    1.103377
  H      0.612405   -2.125174   -0.496433
  H      0.291680   -1.345230    1.044533
  Si    -1.819173   -0.000088   -0.539481
  H      0.345796   -0.000267   -1.688432
  H     -2.360004   -1.193923   -1.244592
  H     -2.360003    1.193555   -1.244921
  H     -1.876907    0.000400    2.305970
  H     -3.736682    0.000174    1.497259

 Multiplicity           Mult            ....    1
 Number of Electrons    NEL             ....   62
 Basis Dimension        Dim             .... 1162

ORBITAL ENERGIES
----------------

  NO   OCC          E(Eh)            E(eV)
   0   2.0000     -68.742621     -1870.5818
   1   2.0000     -11.217570      -305.2456
   2   2.0000     -11.217567      -305.2455
   3   2.0000     -11.213079      -305.1234
   4   2.0000     -11.212508      -305.1079
   5   2.0000     -11.205222      -304.9096
   6   2.0000      -7.605253      -206.9495
   7   2.0000      -6.094676      -165.8446
   8   2.0000      -4.201102      -114.3178
   9   2.0000      -4.200823      -114.3102
  10   2.0000      -4.200251      -114.2946
  11   2.0000      -1.119643       -30.4670
  12   2.0000      -0.963162       -26.2090
  13   2.0000      -0.960036       -26.1239
  14   2.0000      -0.783536       -21.3211
  15   2.0000      -0.773421       -21.0459
  16   2.0000      -0.730291       -19.8722
  17   2.0000      -0.656022       -17.8513
  18   2.0000      -0.651048       -17.7159
  19   2.0000      -0.603075       -16.4105
  20   2.0000      -0.575039       -15.6476
  21   2.0000      -0.569390       -15.4939
  22   2.0000      -0.495596       -13.4859
  23   2.0000      -0.490367       -13.3436
  24   2.0000      -0.478878       -13.0309
  25   2.0000      -0.472305       -12.8521
  26   2.0000      -0.466848       -12.7036
  27   2.0000      -0.453147       -12.3308
  28   2.0000      -0.446953       -12.1622
  29   2.0000      -0.415989       -11.3196
  30   2.0000      -0.399020       -10.8579
  31   0.0000       0.023354         0.6355
  32   0.0000       0.027611         0.7513
  33   0.0000       0.027946         0.7605
  34   0.0000       0.029243         0.7957
  35   0.0000       0.037708         1.0261

MULLIKEN ATOMIC CHARGES
-----------------------
   0 B :    0.404619
   1 C :   -0.009911
   2 C :   -0.660921
   3 C :   -0.660915
   4 C :   -0.490609
   5 H :    0.168934
   6 H :    0.348746
   7 C :   -0.490880
   8 H :    0.290081
   9 H :    0.180610
  10 H :    0.180585
  11 H :    0.290197
  12 H :    0.348832
  13 H :    0.168916
  14 Si:    0.714598
  15 H :    0.356495
  16 H :   -0.307901
  17 H :   -0.307888
  18 H :   -0.175954
  19 H :   -0.347634
Sum of atomic charges:    0.0000000

LOEWDIN ATOMIC CHARGES
----------------------
   0 B :    0.381530
   1 C :    0.083556
   2 C :    0.462830
   3 C :    0.462845
   4 C :    0.556790
   5 H :   -0.285192
   6 H :   -0.254471
   7 C :    0.556773
   8 H :   -0.261167
   9 H :   -0.267462
  10 H :   -0.267465
  11 H :   -0.261159
  12 H :   -0.254467
  13 H :   -0.285179
  14 Si:    0.883133
  15 H :   -0.315900
  16 H :   -0.221687
  17 H :   -0.221685
  18 H :   -0.237244
  19 H :   -0.254378

  Mayer bond orders larger than 0.100000
B(  0-B , 14-Si) :   0.8375 B(  0-B , 18-H ) :   0.8972 B(  0-B , 19-H ) :   0.8604
B(  1-C ,  2-C ) :   0.7777 B(  1-C ,  3-C ) :   0.7778 B(  1-C ,  4-C ) :  -0.1224
B(  1-C ,  7-C ) :  -0.1224 B(  1-C , 14-Si) :   0.7267 B(  1-C , 15-H ) :   0.8571
B(  2-C ,  7-C ) :   1.0065 B(  2-C , 12-H ) :   0.8268 B(  2-C , 13-H ) :   1.0055
B(  3-C ,  4-C ) :   1.0064 B(  3-C ,  5-H ) :   1.0055 B(  3-C ,  6-H ) :   0.8270
B(  4-C ,  7-C ) :   0.9562 B(  4-C ,  8-H ) :   0.9063 B(  4-C ,  9-H ) :   1.0070
B(  7-C , 10-H ) :   1.0070 B(  7-C , 11-H ) :   0.9062 B( 14-Si, 16-H ) :   0.7771
B( 14-Si, 17-H ) :   0.7771

MP2 TOTAL ENERGY:     -511.755261041 Eh
FINAL SINGLE POINT ENERGY      -511.755261040634

DIPOLE MOMENT
-------------
                                X             Y             Z
Electronic contribution:     -4.73263      -0.00018      -0.54134
Nuclear contribution   :      5.05709       0.00018       0.63286
                        -----------------------------------------
Total Dipole Moment    :      0.32446       0.00000       0.09151
                        -----------------------------------------
Magnitude (a.u.)       :      0.33712
Magnitude (Debye)      :      0.85688

Rotational constants in cm-1:     0.137875     0.041590     0.039915
Rotational constants in MHz :  4133.396680  1246.833170  1196.635107

                             ****ORCA TERMINATED NORMALLY****
TOTAL RUN TIME: 0 days 3 hours 38 minutes 44 seconds 29 msec
