                         Program Version 5.0.4 -  RELEASE  -
|  1> ! ri-mp2 aug-cc-pvdz aug-cc-pvdz/c tightscf
|  2> %pal nprocs 16 end
|  3> %maxcore 3800
|  4> %base "DZ_Si-Si_149_A"
|  5> %scf
|  6> STABPerform true
|  7> STABRestartUHFifUnstable true
|  8> end
|  9>
| 10> *xyz 0 2
| 11> Si        -1.482066   -0.027676   -0.075022
| 12> B         0.521411   -0.006971    0.008503
| 13> H        -2.179389   -1.203278    0.484762
| 14> H        -2.148346    1.228726    0.344666
| 15> O         1.268710    1.136473    0.013128
| 16> H         0.770928    1.956439    0.031137
| 17> O         1.176607   -1.194713    0.003813
| 18> H         2.136139   -1.093651    0.011705
| 19> *
| 20>
| 21> $new_job
| 22> ! ri-mp2 aug-cc-pvtz aug-cc-pvtz/c tightscf
| 23> %pal nprocs 16 end
| 24> %maxcore 3800
| 25> %base "TZ_Si-Si_149_A"
| 26>
| 27> *xyz 0 2
| 28> Si        -1.482066   -0.027676   -0.075022
| 29> B         0.521411   -0.006971    0.008503
| 30> H        -2.179389   -1.203278    0.484762
| 31> H        -2.148346    1.228726    0.344666
| 32> O         1.268710    1.136473    0.013128
| 33> H         0.770928    1.956439    0.031137
| 34> O         1.176607   -1.194713    0.003813
| 35> H         2.136139   -1.093651    0.011705
| 36> *
| 37>
| 38> $new_job
| 39> ! ri-mp2 aug-cc-pvqz aug-cc-pvqz/c tightscf
| 40> %pal nprocs 16 end
| 41> %maxcore 3800
| 42> %base "QZ_Si-Si_149_A"
| 43>
| 44> *xyz 0 2
| 45> Si        -1.482066   -0.027676   -0.075022
| 46> B         0.521411   -0.006971    0.008503
| 47> H        -2.179389   -1.203278    0.484762
| 48> H        -2.148346    1.228726    0.344666
| 49> O         1.268710    1.136473    0.013128
| 50> H         0.770928    1.956439    0.031137
| 51> O         1.176607   -1.194713    0.003813
| 52> H         2.136139   -1.093651    0.011705
| 53> *
| 54>
| 55>
| 56>
| 57>
| 58>                          ****END OF INPUT****
 Total Charge           Charge          ....    0
 Multiplicity           Mult            ....    2
 Number of Electrons    NEL             ....   39
MP2 TOTAL ENERGY:     -466.334506231 Eh
FINAL SINGLE POINT ENERGY      -466.334506230918
MP2 TOTAL ENERGY:     -466.520151423 Eh
FINAL SINGLE POINT ENERGY      -466.520151423027

CARTESIAN COORDINATES (ANGSTROEM)
---------------------------------
  Si    -1.482066   -0.027676   -0.075022
  B      0.521411   -0.006971    0.008503
  H     -2.179389   -1.203278    0.484762
  H     -2.148346    1.228726    0.344666
  O      1.268710    1.136473    0.013128
  H      0.770928    1.956439    0.031137
  O      1.176607   -1.194713    0.003813
  H      2.136139   -1.093651    0.011705

 Multiplicity           Mult            ....    2
 Number of Electrons    NEL             ....   39
 Basis Dimension        Dim             ....  508

ORBITAL ENERGIES
----------------
                 SPIN UP ORBITALS
  NO   OCC          E(Eh)            E(eV)
   0   1.0000     -68.767105     -1871.2480
   1   1.0000     -20.580081      -560.0125
   2   1.0000     -20.571353      -559.7750
   3   1.0000      -7.650789      -208.1886
   4   1.0000      -6.119892      -166.5307
   5   1.0000      -4.233375      -115.1960
   6   1.0000      -4.223030      -114.9145
   7   1.0000      -4.222474      -114.8994
   8   1.0000      -1.395070       -37.9618
   9   1.0000      -1.354192       -36.8494
  10   1.0000      -0.787551       -21.4304
  11   1.0000      -0.753521       -20.5043
  12   1.0000      -0.706127       -19.2147
  13   1.0000      -0.613849       -16.7037
  14   1.0000      -0.585272       -15.9261
  15   1.0000      -0.571376       -15.5479
  16   1.0000      -0.513150       -13.9635
  17   1.0000      -0.486197       -13.2301
  18   1.0000      -0.439285       -11.9535
  19   1.0000      -0.316147        -8.6028
  20   0.0000       0.023471         0.6387
  21   0.0000       0.030981         0.8430
  22   0.0000       0.038523         1.0483
  23   0.0000       0.042952         1.1688
  24   0.0000       0.052022         1.4156

                 SPIN DOWN ORBITALS
  NO   OCC          E(Eh)            E(eV)
   0   1.0000     -68.761674     -1871.1003
   1   1.0000     -20.579557      -559.9982
   2   1.0000     -20.570809      -559.7602
   3   1.0000      -7.651094      -208.1968
   4   1.0000      -6.111927      -166.3140
   5   1.0000      -4.219143      -114.8087
   6   1.0000      -4.218831      -114.8002
   7   1.0000      -4.210589      -114.5759
   8   1.0000      -1.393775       -37.9266
   9   1.0000      -1.352765       -36.8106
  10   1.0000      -0.783054       -21.3080
  11   1.0000      -0.747136       -20.3306
  12   1.0000      -0.674719       -18.3600
  13   1.0000      -0.607756       -16.5379
  14   1.0000      -0.579861       -15.7788
  15   1.0000      -0.570834       -15.5332
  16   1.0000      -0.508072       -13.8253
  17   1.0000      -0.483422       -13.1546
  18   1.0000      -0.432115       -11.7584
  19   0.0000       0.023005         0.6260
  20   0.0000       0.024180         0.6580
  21   0.0000       0.032163         0.8752
  22   0.0000       0.038730         1.0539
  23   0.0000       0.049111         1.3364

MULLIKEN ATOMIC CHARGES AND SPIN POPULATIONS
--------------------------------------------
   0 Si:    0.434799    1.058173
   1 B :    1.236157   -0.032305
   2 H :   -0.180121   -0.016894
   3 H :   -0.230901   -0.016015
   4 O :   -1.014698    0.002142
   5 H :    0.357079    0.000077
   6 O :   -0.950648    0.005912
   7 H :    0.348333   -0.001091
Sum of atomic charges         :   -0.0000000

LOEWDIN ATOMIC CHARGES AND SPIN POPULATIONS
-------------------------------------------
   0 Si:    1.190798    0.500955
   1 B :   -1.335263    0.195950
   2 H :   -0.374591    0.129919
   3 H :   -0.378338    0.132707
   4 O :    1.284411    0.016182
   5 H :   -0.828908    0.004905
   6 O :    1.250195    0.018701
   7 H :   -0.808304    0.000681

  Mayer bond orders larger than 0.100000
B(  0-Si,  1-B ) :   0.8963 B(  0-Si,  2-H ) :   0.9105 B(  0-Si,  3-H ) :   0.8792
B(  1-B ,  4-O ) :   0.5253 B(  1-B ,  6-O ) :   0.4923 B(  4-O ,  5-H ) :   0.9125
B(  6-O ,  7-H ) :   0.9176

MP2 TOTAL ENERGY:     -466.581448746 Eh
FINAL SINGLE POINT ENERGY      -466.581448745862

DIPOLE MOMENT
-------------
                                X             Y             Z
Electronic contribution:      1.87312      -0.32804      -0.78250
Nuclear contribution   :     -1.67388       0.87454       0.85071
                        -----------------------------------------
Total Dipole Moment    :      0.19924       0.54650       0.06821
                        -----------------------------------------
Magnitude (a.u.)       :      0.58567
Magnitude (Debye)      :      1.48866

Rotational constants in cm-1:     0.323988     0.132060     0.094328
Rotational constants in MHz :  9712.912924  3959.067275  2827.879055

                             ****ORCA TERMINATED NORMALLY****
TOTAL RUN TIME: 0 days 0 hours 21 minutes 56 seconds 15 msec
