                         Program Version 5.0.4 -  RELEASE  -
|  1> ! ri-mp2 aug-cc-pvdz aug-cc-pvdz/c tightscf
|  2> %pal nprocs 16 end
|  3> %maxcore 3800
|  4> %base "DZ_B-F_10_AB"
|  5> %scf
|  6> STABPerform true
|  7> STABRestartUHFifUnstable true
|  8> end
|  9>
| 10> *xyz 0 1
| 11> F        -2.028966    1.123988   -0.000002
| 12> F        -2.011833   -1.123264    0.000018
| 13> B        -1.342172    0.006081   -0.000010
| 14> Si         0.677505    0.003508   -0.000004
| 15> F         1.236601   -0.737885   -1.273091
| 16> F         1.259360    1.466150   -0.000036
| 17> F         1.236592   -0.737825    1.273123
| 18> *
| 19>
| 20> $new_job
| 21> ! ri-mp2 aug-cc-pvtz aug-cc-pvtz/c tightscf
| 22> %pal nprocs 16 end
| 23> %maxcore 3800
| 24> %base "TZ_B-F_10_AB"
| 25>
| 26> *xyz 0 1
| 27> F        -2.028966    1.123988   -0.000002
| 28> F        -2.011833   -1.123264    0.000018
| 29> B        -1.342172    0.006081   -0.000010
| 30> Si         0.677505    0.003508   -0.000004
| 31> F         1.236601   -0.737885   -1.273091
| 32> F         1.259360    1.466150   -0.000036
| 33> F         1.236592   -0.737825    1.273123
| 34> *
| 35>
| 36> $new_job
| 37> ! ri-mp2 aug-cc-pvqz aug-cc-pvqz/c tightscf
| 38> %pal nprocs 16 end
| 39> %maxcore 3800
| 40> %base "QZ_B-F_10_AB"
| 41>
| 42> *xyz 0 1
| 43> F        -2.028966    1.123988   -0.000002
| 44> F        -2.011833   -1.123264    0.000018
| 45> B        -1.342172    0.006081   -0.000010
| 46> Si         0.677505    0.003508   -0.000004
| 47> F         1.236601   -0.737885   -1.273091
| 48> F         1.259360    1.466150   -0.000036
| 49> F         1.236592   -0.737825    1.273123
| 50> *
| 51>
| 52>
| 53>
| 54>
| 55>                          ****END OF INPUT****
 Total Charge           Charge          ....    0
 Multiplicity           Mult            ....    1
 Number of Electrons    NEL             ....   64
MP2 TOTAL ENERGY:     -812.359291177 Eh
FINAL SINGLE POINT ENERGY      -812.359291176546
MP2 TOTAL ENERGY:     -812.855523064 Eh
FINAL SINGLE POINT ENERGY      -812.855523063927

CARTESIAN COORDINATES (ANGSTROEM)
---------------------------------
  F     -2.028966    1.123988   -0.000002
  F     -2.011833   -1.123264    0.000018
  B     -1.342172    0.006081   -0.000010
  Si     0.677505    0.003508   -0.000004
  F      1.236601   -0.737885   -1.273091
  F      1.259360    1.466150   -0.000036
  F      1.236592   -0.737825    1.273123

 Multiplicity           Mult            ....    1
 Number of Electrons    NEL             ....   64
 Basis Dimension        Dim             ....  564

ORBITAL ENERGIES
----------------

  NO   OCC          E(Eh)            E(eV)
   0   2.0000     -68.897014     -1874.7831
   1   2.0000     -26.343158      -716.8338
   2   2.0000     -26.343123      -716.8328
   3   2.0000     -26.324540      -716.3272
   4   2.0000     -26.324531      -716.3269
   5   2.0000     -26.323669      -716.3034
   6   2.0000      -7.746079      -210.7815
   7   2.0000      -6.232952      -169.6072
   8   2.0000      -4.341546      -118.1395
   9   2.0000      -4.341533      -118.1391
  10   2.0000      -4.339928      -118.0954
  11   2.0000      -1.677569       -45.6490
  12   2.0000      -1.649715       -44.8910
  13   2.0000      -1.645557       -44.7779
  14   2.0000      -1.621762       -44.1304
  15   2.0000      -1.621251       -44.1165
  16   2.0000      -0.860213       -23.4076
  17   2.0000      -0.836770       -22.7697
  18   2.0000      -0.793638       -21.5960
  19   2.0000      -0.772940       -21.0328
  20   2.0000      -0.761146       -20.7118
  21   2.0000      -0.759697       -20.6724
  22   2.0000      -0.742898       -20.2153
  23   2.0000      -0.725103       -19.7310
  24   2.0000      -0.709415       -19.3042
  25   2.0000      -0.709405       -19.3039
  26   2.0000      -0.687914       -18.7191
  27   2.0000      -0.686546       -18.6819
  28   2.0000      -0.682690       -18.5769
  29   2.0000      -0.678240       -18.4559
  30   2.0000      -0.665999       -18.1228
  31   2.0000      -0.521563       -14.1924
  32   0.0000       0.031023         0.8442
  33   0.0000       0.031713         0.8630
  34   0.0000       0.037182         1.0118
  35   0.0000       0.039646         1.0788
  36   0.0000       0.054062         1.4711

MULLIKEN ATOMIC CHARGES
-----------------------
   0 F :   -0.736679
   1 F :   -0.738576
   2 B :    1.328814
   3 Si:    2.146201
   4 F :   -0.669234
   5 F :   -0.661292
   6 F :   -0.669234
Sum of atomic charges:   -0.0000000

LOEWDIN ATOMIC CHARGES
----------------------
   0 F :    0.754026
   1 F :    0.753451
   2 B :   -1.638805
   3 Si:   -1.161772
   4 F :    0.430156
   5 F :    0.432788
   6 F :    0.430156

  Mayer bond orders larger than 0.100000
B(  0-F ,  2-B ) :   0.3727 B(  1-F ,  2-B ) :   0.3718 B(  2-B ,  3-Si) :   0.9989
B(  3-Si,  4-F ) :   0.4962 B(  3-Si,  5-F ) :   0.4755 B(  3-Si,  6-F ) :   0.4962

MP2 TOTAL ENERGY:     -813.019001692 Eh
FINAL SINGLE POINT ENERGY      -813.019001691822

DIPOLE MOMENT
-------------
                                X             Y             Z
Electronic contribution:     -1.46906       0.01280      -0.00002
Nuclear contribution   :      1.20731       0.00324      -0.00000
                        -----------------------------------------
Total Dipole Moment    :     -0.26175       0.01604      -0.00002
                        -----------------------------------------
Magnitude (a.u.)       :      0.26224
Magnitude (Debye)      :      0.66656

Rotational constants in cm-1:     0.098537     0.049982     0.043765
Rotational constants in MHz :  2954.050091  1498.433628  1312.046557

                             ****ORCA TERMINATED NORMALLY****
TOTAL RUN TIME: 0 days 0 hours 19 minutes 31 seconds 993 msec
