                         Program Version 5.0.4 -  RELEASE  -
|  1> ! ri-mp2 aug-cc-pvdz aug-cc-pvdz/c tightscf
|  2> %pal nprocs 16 end
|  3> %maxcore 3800
|  4> %base "DZ_B-P_67_AB"
|  5> %scf
|  6> STABPerform true
|  7> STABRestartUHFifUnstable true
|  8> end
|  9>
| 10> *xyz 0 1
| 11> P         1.406738   -0.000000   -0.118498
| 12> B        -0.537168    0.000000    0.007975
| 13> O        -1.261965   -1.147276    0.005471
| 14> O        -1.261965    1.147276    0.005471
| 15> H        -0.749640    1.957446    0.014671
| 16> H        -0.749639   -1.957446    0.014669
| 17> H         1.637744   -1.039554    0.810358
| 18> H         1.637745    1.039559    0.810351
| 19> *
| 20>
| 21> $new_job
| 22> ! ri-mp2 aug-cc-pvtz aug-cc-pvtz/c tightscf
| 23> %pal nprocs 16 end
| 24> %maxcore 3800
| 25> %base "TZ_B-P_67_AB"
| 26>
| 27> *xyz 0 1
| 28> P         1.406738   -0.000000   -0.118498
| 29> B        -0.537168    0.000000    0.007975
| 30> O        -1.261965   -1.147276    0.005471
| 31> O        -1.261965    1.147276    0.005471
| 32> H        -0.749640    1.957446    0.014671
| 33> H        -0.749639   -1.957446    0.014669
| 34> H         1.637744   -1.039554    0.810358
| 35> H         1.637745    1.039559    0.810351
| 36> *
| 37>
| 38> $new_job
| 39> ! ri-mp2 aug-cc-pvqz aug-cc-pvqz/c tightscf
| 40> %pal nprocs 16 end
| 41> %maxcore 3800
| 42> %base "QZ_B-P_67_AB"
| 43>
| 44> *xyz 0 1
| 45> P         1.406738   -0.000000   -0.118498
| 46> B        -0.537168    0.000000    0.007975
| 47> O        -1.261965   -1.147276    0.005471
| 48> O        -1.261965    1.147276    0.005471
| 49> H        -0.749640    1.957446    0.014671
| 50> H        -0.749639   -1.957446    0.014669
| 51> H         1.637744   -1.039554    0.810358
| 52> H         1.637745    1.039559    0.810351
| 53> *
| 54>
| 55>
| 56>
| 57>
| 58>                          ****END OF INPUT****
 Total Charge           Charge          ....    0
 Multiplicity           Mult            ....    1
 Number of Electrons    NEL             ....   40
MP2 TOTAL ENERGY:     -518.227536277 Eh
FINAL SINGLE POINT ENERGY      -518.227536277053
MP2 TOTAL ENERGY:     -518.425848817 Eh
FINAL SINGLE POINT ENERGY      -518.425848816863

CARTESIAN COORDINATES (ANGSTROEM)
---------------------------------
  P      1.406738   -0.000000   -0.118498
  B     -0.537168    0.000000    0.007975
  O     -1.261965   -1.147276    0.005471
  O     -1.261965    1.147276    0.005471
  H     -0.749640    1.957446    0.014671
  H     -0.749639   -1.957446    0.014669
  H      1.637744   -1.039554    0.810358
  H      1.637745    1.039559    0.810351

 Multiplicity           Mult            ....    1
 Number of Electrons    NEL             ....   40
 Basis Dimension        Dim             ....  508

ORBITAL ENERGIES
----------------

  NO   OCC          E(Eh)            E(eV)
   0   2.0000     -79.934405     -2175.1257
   1   2.0000     -20.574618      -559.8638
   2   2.0000     -20.574605      -559.8635
   3   2.0000      -7.659677      -208.4304
   4   2.0000      -7.480199      -203.5466
   5   2.0000      -5.374394      -146.2447
   6   2.0000      -5.373928      -146.2320
   7   2.0000      -5.373376      -146.2170
   8   2.0000      -1.392918       -37.9032
   9   2.0000      -1.357097       -36.9285
  10   2.0000      -0.862671       -23.4745
  11   2.0000      -0.802879       -21.8475
  12   2.0000      -0.689514       -18.7626
  13   2.0000      -0.628173       -17.0935
  14   2.0000      -0.601426       -16.3656
  15   2.0000      -0.584050       -15.8928
  16   2.0000      -0.525499       -14.2996
  17   2.0000      -0.509942       -13.8762
  18   2.0000      -0.463351       -12.6084
  19   2.0000      -0.374861       -10.2005
  20   0.0000       0.020533         0.5587
  21   0.0000       0.032429         0.8824
  22   0.0000       0.039555         1.0763
  23   0.0000       0.041735         1.1357
  24   0.0000       0.056728         1.5437

MULLIKEN ATOMIC CHARGES
-----------------------
   0 P :    0.141122
   1 B :    1.298071
   2 O :   -1.016107
   3 O :   -1.016107
   4 H :    0.371705
   5 H :    0.371705
   6 H :   -0.075195
   7 H :   -0.075195
Sum of atomic charges:    0.0000000

LOEWDIN ATOMIC CHARGES
----------------------
   0 P :    1.599383
   1 B :   -1.474448
   2 O :    1.283670
   3 O :    1.283670
   4 H :   -0.832183
   5 H :   -0.832182
   6 H :   -0.513954
   7 H :   -0.513955

  Mayer bond orders larger than 0.100000
B(  0-P ,  1-B ) :   1.0087 B(  0-P ,  6-H ) :   0.9023 B(  0-P ,  7-H ) :   0.9023
B(  1-B ,  2-O ) :   0.5298 B(  1-B ,  3-O ) :   0.5298 B(  2-O ,  5-H ) :   0.8922
B(  3-O ,  4-H ) :   0.8922

MP2 TOTAL ENERGY:     -518.490955072 Eh
FINAL SINGLE POINT ENERGY      -518.490955071775

DIPOLE MOMENT
-------------
                                X             Y             Z
Electronic contribution:     -0.10365      -0.00000      -1.42011
Nuclear contribution   :      0.80085       0.00000       1.69590
                        -----------------------------------------
Total Dipole Moment    :      0.69719       0.00000       0.27578
                        -----------------------------------------
Magnitude (a.u.)       :      0.74976
Magnitude (Debye)      :      1.90573

Rotational constants in cm-1:     0.314057     0.136360     0.096889
Rotational constants in MHz :  9415.202804  4087.976437  2904.656913

                             ****ORCA TERMINATED NORMALLY****
TOTAL RUN TIME: 0 days 0 hours 14 minutes 45 seconds 113 msec
