                         Program Version 5.0.4 -  RELEASE  -
|  1> ! ri-mp2 aug-cc-pvdz aug-cc-pvdz/c tightscf
|  2> %pal nprocs 16 end
|  3> %maxcore 3800
|  4> %base "DZ_B-F_38_A"
|  5> %scf
|  6> STABPerform true
|  7> STABRestartUHFifUnstable true
|  8> end
|  9>
| 10> *xyz 0 2
| 11> F        -2.447089   -0.906936   -0.073833
| 12> B        -1.183167   -1.042909   -0.263962
| 13> S        -0.020207    0.425349    0.059097
| 14> O         0.210185    0.419631    1.472237
| 15> O         1.308975    0.012256   -0.682410
| 16> C         2.153498   -0.980162   -0.074524
| 17> H         3.022778   -1.049943   -0.720252
| 18> H         1.640550   -1.941409   -0.037861
| 19> H         2.440064   -0.665802    0.925218
| 20> O        -0.489339    1.581801   -0.624979
| 21> *
| 22>
| 23> $new_job
| 24> ! ri-mp2 aug-cc-pvtz aug-cc-pvtz/c tightscf
| 25> %pal nprocs 16 end
| 26> %maxcore 3800
| 27> %base "TZ_B-F_38_A"
| 28>
| 29> *xyz 0 2
| 30> F        -2.447089   -0.906936   -0.073833
| 31> B        -1.183167   -1.042909   -0.263962
| 32> S        -0.020207    0.425349    0.059097
| 33> O         0.210185    0.419631    1.472237
| 34> O         1.308975    0.012256   -0.682410
| 35> C         2.153498   -0.980162   -0.074524
| 36> H         3.022778   -1.049943   -0.720252
| 37> H         1.640550   -1.941409   -0.037861
| 38> H         2.440064   -0.665802    0.925218
| 39> O        -0.489339    1.581801   -0.624979
| 40> *
| 41>
| 42> $new_job
| 43> ! ri-mp2 aug-cc-pvqz aug-cc-pvqz/c tightscf
| 44> %pal nprocs 16 end
| 45> %maxcore 3800
| 46> %base "QZ_B-F_38_A"
| 47>
| 48> *xyz 0 2
| 49> F        -2.447089   -0.906936   -0.073833
| 50> B        -1.183167   -1.042909   -0.263962
| 51> S        -0.020207    0.425349    0.059097
| 52> O         0.210185    0.419631    1.472237
| 53> O         1.308975    0.012256   -0.682410
| 54> C         2.153498   -0.980162   -0.074524
| 55> H         3.022778   -1.049943   -0.720252
| 56> H         1.640550   -1.941409   -0.037861
| 57> H         2.440064   -0.665802    0.925218
| 58> O        -0.489339    1.581801   -0.624979
| 59> *
| 60>
| 61>
| 62>
| 63>
| 64>                          ****END OF INPUT****
 Total Charge           Charge          ....    0
 Multiplicity           Mult            ....    2
 Number of Electrons    NEL             ....   63
MP2 TOTAL ENERGY:     -786.940548023 Eh
FINAL SINGLE POINT ENERGY      -786.940548022629
MP2 TOTAL ENERGY:     -787.374456665 Eh
FINAL SINGLE POINT ENERGY      -787.374456664637

CARTESIAN COORDINATES (ANGSTROEM)
---------------------------------
  F     -2.447089   -0.906936   -0.073833
  B     -1.183167   -1.042909   -0.263962
  S     -0.020207    0.425349    0.059097
  O      0.210185    0.419631    1.472237
  O      1.308975    0.012256   -0.682410
  C      2.153498   -0.980162   -0.074524
  H      3.022778   -1.049943   -0.720252
  H      1.640550   -1.941409   -0.037861
  H      2.440064   -0.665802    0.925218
  O     -0.489339    1.581801   -0.624979

 Multiplicity           Mult            ....    2
 Number of Electrons    NEL             ....   63
 Basis Dimension        Dim             ....  702

ORBITAL ENERGIES
----------------
                 SPIN UP ORBITALS
  NO   OCC          E(Eh)            E(eV)
   0   1.0000     -92.210513     -2509.1756
   1   1.0000     -26.373804      -717.6677
   2   1.0000     -20.634368      -561.4897
   3   1.0000     -20.571725      -559.7851
   4   1.0000     -20.568138      -559.6875
   5   1.0000     -11.316842      -307.9469
   6   1.0000      -9.177294      -249.7269
   7   1.0000      -7.760374      -211.1705
   8   1.0000      -6.863632      -186.7689
   9   1.0000      -6.862436      -186.7364
  10   1.0000      -6.861322      -186.7061
  11   1.0000      -1.694951       -46.1220
  12   1.0000      -1.526671       -41.5428
  13   1.0000      -1.410202       -38.3736
  14   1.0000      -1.377312       -37.4786
  15   1.0000      -1.011454       -27.5231
  16   1.0000      -0.912230       -24.8230
  17   1.0000      -0.844508       -22.9802
  18   1.0000      -0.787851       -21.4385
  19   1.0000      -0.749126       -20.3848
  20   1.0000      -0.740784       -20.1577
  21   1.0000      -0.729796       -19.8588
  22   1.0000      -0.703225       -19.1357
  23   1.0000      -0.660582       -17.9754
  24   1.0000      -0.642112       -17.4728
  25   1.0000      -0.579222       -15.7614
  26   1.0000      -0.546622       -14.8744
  27   1.0000      -0.535933       -14.5835
  28   1.0000      -0.523074       -14.2336
  29   1.0000      -0.521182       -14.1821
  30   1.0000      -0.499061       -13.5801
  31   1.0000      -0.401470       -10.9246
  32   0.0000       0.019022         0.5176
  33   0.0000       0.023516         0.6399
  34   0.0000       0.029939         0.8147
  35   0.0000       0.039904         1.0858
  36   0.0000       0.044754         1.2178

                 SPIN DOWN ORBITALS
  NO   OCC          E(Eh)            E(eV)
   0   1.0000     -92.209199     -2509.1399
   1   1.0000     -26.370895      -717.5885
   2   1.0000     -20.634720      -561.4993
   3   1.0000     -20.570735      -559.7582
   4   1.0000     -20.565941      -559.6277
   5   1.0000     -11.316693      -307.9429
   6   1.0000      -9.175399      -249.6753
   7   1.0000      -7.739630      -210.6060
   8   1.0000      -6.862078      -186.7266
   9   1.0000      -6.860748      -186.6905
  10   1.0000      -6.858859      -186.6390
  11   1.0000      -1.686954       -45.9043
  12   1.0000      -1.523942       -41.4686
  13   1.0000      -1.408581       -38.3294
  14   1.0000      -1.372506       -37.3478
  15   1.0000      -1.009249       -27.4631
  16   1.0000      -0.894295       -24.3350
  17   1.0000      -0.836214       -22.7545
  18   1.0000      -0.772877       -21.0310
  19   1.0000      -0.742045       -20.1921
  20   1.0000      -0.726643       -19.7730
  21   1.0000      -0.725617       -19.7451
  22   1.0000      -0.701825       -19.0976
  23   1.0000      -0.656313       -17.8592
  24   1.0000      -0.637321       -17.3424
  25   1.0000      -0.577509       -15.7148
  26   1.0000      -0.545437       -14.8421
  27   1.0000      -0.523548       -14.2465
  28   1.0000      -0.518696       -14.1144
  29   1.0000      -0.497752       -13.5445
  30   1.0000      -0.481636       -13.1060
  31   0.0000       0.008805         0.2396
  32   0.0000       0.026595         0.7237
  33   0.0000       0.030630         0.8335
  34   0.0000       0.039321         1.0700
  35   0.0000       0.042735         1.1629

MULLIKEN ATOMIC CHARGES AND SPIN POPULATIONS
--------------------------------------------
   0 F :   -0.700649    0.000647
   1 B :    0.858474    0.930510
   2 S :    2.598098    0.031927
   3 O :   -1.140909    0.019491
   4 O :   -0.780879   -0.013150
   5 C :   -0.673217   -0.002557
   6 H :    0.447450    0.001805
   7 H :    0.296919   -0.009177
   8 H :    0.306132   -0.001869
   9 O :   -1.211418    0.042372
Sum of atomic charges         :    0.0000000

LOEWDIN ATOMIC CHARGES AND SPIN POPULATIONS
-------------------------------------------
   0 F :    0.722589    0.146941
   1 B :   -0.805253    0.587494
   2 S :   -0.570734    0.146473
   3 O :    0.291853    0.025908
   4 O :    0.572066    0.007105
   5 C :    0.525158    0.019871
   6 H :   -0.322596    0.001269
   7 H :   -0.333729    0.020972
   8 H :   -0.341868    0.001030
   9 O :    0.262512    0.042937

  Mayer bond orders larger than 0.100000
B(  0-F ,  1-B ) :   0.4002 B(  1-B ,  2-S ) :   0.8485 B(  2-S ,  3-O ) :   1.2165
B(  2-S ,  4-O ) :   0.7220 B(  2-S ,  9-O ) :   1.0678 B(  4-O ,  5-C ) :   0.8509
B(  5-C ,  6-H ) :   0.8052 B(  5-C ,  7-H ) :   0.8990 B(  5-C ,  8-H ) :   0.8892

MP2 TOTAL ENERGY:     -787.515041956 Eh
FINAL SINGLE POINT ENERGY      -787.515041955656

DIPOLE MOMENT
-------------
                                X             Y             Z
Electronic contribution:     -9.28162       0.09041      -0.74709
Nuclear contribution   :      9.93760      -1.80223       0.42960
                        -----------------------------------------
Total Dipole Moment    :      0.65598      -1.71182      -0.31749
                        -----------------------------------------
Magnitude (a.u.)       :      1.86049
Magnitude (Debye)      :      4.72899

Rotational constants in cm-1:     0.118048     0.059085     0.051628
Rotational constants in MHz :  3538.980783  1771.320529  1547.769235

                             ****ORCA TERMINATED NORMALLY****
TOTAL RUN TIME: 0 days 1 hours 26 minutes 32 seconds 917 msec
