                         Program Version 5.0.4 -  RELEASE  -
|  1> ! ri-mp2 aug-cc-pvdz aug-cc-pvdz/c tightscf
|  2> %pal nprocs 16 end
|  3> %maxcore 3800
|  4> %base "DZ_B-S_43_A"
|  5> %scf
|  6> STABPerform true
|  7> STABRestartUHFifUnstable true
|  8> end
|  9>
| 10> *xyz 0 2
| 11> C        -0.216992    0.826879    0.305857
| 12> S        -1.511272   -0.353190   -0.073810
| 13> C         1.128911    0.567288   -0.352709
| 14> H        -0.122658    0.869268    1.394921
| 15> H        -0.620316    1.800696    0.010779
| 16> C         1.796957   -0.705055    0.140219
| 17> H         1.777146    1.425716   -0.154020
| 18> H         0.990701    0.520988   -1.434725
| 19> H         1.976582   -0.662178    1.216545
| 20> H         2.756262   -0.863825   -0.351838
| 21> H         1.169382   -1.574293   -0.060910
| 22> *
| 23>
| 24> $new_job
| 25> ! ri-mp2 aug-cc-pvtz aug-cc-pvtz/c tightscf
| 26> %pal nprocs 16 end
| 27> %maxcore 3800
| 28> %base "TZ_B-S_43_A"
| 29>
| 30> *xyz 0 2
| 31> C        -0.216992    0.826879    0.305857
| 32> S        -1.511272   -0.353190   -0.073810
| 33> C         1.128911    0.567288   -0.352709
| 34> H        -0.122658    0.869268    1.394921
| 35> H        -0.620316    1.800696    0.010779
| 36> C         1.796957   -0.705055    0.140219
| 37> H         1.777146    1.425716   -0.154020
| 38> H         0.990701    0.520988   -1.434725
| 39> H         1.976582   -0.662178    1.216545
| 40> H         2.756262   -0.863825   -0.351838
| 41> H         1.169382   -1.574293   -0.060910
| 42> *
| 43>
| 44> $new_job
| 45> ! ri-mp2 aug-cc-pvqz aug-cc-pvqz/c tightscf
| 46> %pal nprocs 16 end
| 47> %maxcore 3800
| 48> %base "QZ_B-S_43_A"
| 49>
| 50> *xyz 0 2
| 51> C        -0.216992    0.826879    0.305857
| 52> S        -1.511272   -0.353190   -0.073810
| 53> C         1.128911    0.567288   -0.352709
| 54> H        -0.122658    0.869268    1.394921
| 55> H        -0.620316    1.800696    0.010779
| 56> C         1.796957   -0.705055    0.140219
| 57> H         1.777146    1.425716   -0.154020
| 58> H         0.990701    0.520988   -1.434725
| 59> H         1.976582   -0.662178    1.216545
| 60> H         2.756262   -0.863825   -0.351838
| 61> H         1.169382   -1.574293   -0.060910
| 62> *
| 63>
| 64>
| 65>
| 66>
| 67>                          ****END OF INPUT****
 Total Charge           Charge          ....    0
 Multiplicity           Mult            ....    2
 Number of Electrons    NEL             ....   41
MP2 TOTAL ENERGY:     -515.773424456 Eh
FINAL SINGLE POINT ENERGY      -515.773424455977
MP2 TOTAL ENERGY:     -515.937174703 Eh
FINAL SINGLE POINT ENERGY      -515.937174703198

CARTESIAN COORDINATES (ANGSTROEM)
---------------------------------
  C     -0.216992    0.826879    0.305857
  S     -1.511272   -0.353190   -0.073810
  C      1.128911    0.567288   -0.352709
  H     -0.122658    0.869268    1.394921
  H     -0.620316    1.800696    0.010779
  C      1.796957   -0.705055    0.140219
  H      1.777146    1.425716   -0.154020
  H      0.990701    0.520988   -1.434725
  H      1.976582   -0.662178    1.216545
  H      2.756262   -0.863825   -0.351838
  H      1.169382   -1.574293   -0.060910

 Multiplicity           Mult            ....    2
 Number of Electrons    NEL             ....   41
 Basis Dimension        Dim             ....  646

ORBITAL ENERGIES
----------------
                 SPIN UP ORBITALS
  NO   OCC          E(Eh)            E(eV)
   0   1.0000     -91.963796     -2502.4621
   1   1.0000     -11.260485      -306.4134
   2   1.0000     -11.229165      -305.5611
   3   1.0000     -11.215262      -305.1828
   4   1.0000      -8.966043      -243.9784
   5   1.0000      -6.661950      -181.2809
   6   1.0000      -6.643514      -180.7792
   7   1.0000      -6.642101      -180.7408
   8   1.0000      -1.095426       -29.8080
   9   1.0000      -0.996765       -27.1233
  10   1.0000      -0.887014       -24.1369
  11   1.0000      -0.790515       -21.5110
  12   1.0000      -0.638089       -17.3633
  13   1.0000      -0.626647       -17.0519
  14   1.0000      -0.576780       -15.6950
  15   1.0000      -0.525679       -14.3045
  16   1.0000      -0.507829       -13.8187
  17   1.0000      -0.495238       -13.4761
  18   1.0000      -0.463453       -12.6112
  19   1.0000      -0.423020       -11.5109
  20   1.0000      -0.365941        -9.9578
  21   0.0000       0.026074         0.7095
  22   0.0000       0.033260         0.9050
  23   0.0000       0.035484         0.9656
  24   0.0000       0.040451         1.1007
  25   0.0000       0.054145         1.4734

                 SPIN DOWN ORBITALS
  NO   OCC          E(Eh)            E(eV)
   0   1.0000     -91.954710     -2502.2149
   1   1.0000     -11.261500      -306.4410
   2   1.0000     -11.229119      -305.5599
   3   1.0000     -11.215200      -305.1811
   4   1.0000      -8.956039      -243.7062
   5   1.0000      -6.638463      -180.6418
   6   1.0000      -6.636841      -180.5976
   7   1.0000      -6.620954      -180.1653
   8   1.0000      -1.085064       -29.5261
   9   1.0000      -0.971936       -26.4477
  10   1.0000      -0.852993       -23.2111
  11   1.0000      -0.762007       -20.7353
  12   1.0000      -0.626811       -17.0564
  13   1.0000      -0.621304       -16.9065
  14   1.0000      -0.569899       -15.5077
  15   1.0000      -0.519539       -14.1374
  16   1.0000      -0.501744       -13.6531
  17   1.0000      -0.491274       -13.3683
  18   1.0000      -0.454758       -12.3746
  19   1.0000      -0.347101        -9.4451
  20   0.0000       0.022071         0.6006
  21   0.0000       0.026191         0.7127
  22   0.0000       0.033899         0.9224
  23   0.0000       0.037604         1.0232
  24   0.0000       0.040800         1.1102

MULLIKEN ATOMIC CHARGES AND SPIN POPULATIONS
--------------------------------------------
   0 C :   -0.410996   -0.183118
   1 S :   -0.168972    1.107684
   2 C :   -0.357646    0.018960
   3 H :    0.221362    0.023589
   4 H :    0.236469    0.040165
   5 C :   -0.827289    0.000693
   6 H :    0.262159   -0.001579
   7 H :    0.266772   -0.001456
   8 H :    0.231629   -0.000929
   9 H :    0.285713   -0.000524
  10 H :    0.260798   -0.003484
Sum of atomic charges         :   -0.0000000

LOEWDIN ATOMIC CHARGES AND SPIN POPULATIONS
-------------------------------------------
   0 C :   -0.072514    0.187403
   1 S :    1.085432    0.739456
   2 C :    0.381093    0.009536
   3 H :   -0.395920    0.017725
   4 H :   -0.399182    0.029247
   5 C :    0.878523    0.007411
   6 H :   -0.282916    0.000163
   7 H :   -0.304710    0.000229
   8 H :   -0.287023    0.000450
   9 H :   -0.282854    0.000394
  10 H :   -0.319928    0.007987

  Mayer bond orders larger than 0.100000
B(  0-C ,  1-S ) :   0.9140 B(  0-C ,  2-C ) :   0.9620 B(  0-C ,  3-H ) :   0.9168
B(  0-C ,  4-H ) :   0.9396 B(  2-C ,  5-C ) :   0.9525 B(  2-C ,  6-H ) :   0.8566
B(  2-C ,  7-H ) :   0.8722 B(  5-C ,  8-H ) :   0.9491 B(  5-C ,  9-H ) :   0.9472
B(  5-C , 10-H ) :   0.9328

MP2 TOTAL ENERGY:     -515.986960036 Eh
FINAL SINGLE POINT ENERGY      -515.986960035717

DIPOLE MOMENT
-------------
                                X             Y             Z
Electronic contribution:     -7.60989      -1.12352      -0.52901
Nuclear contribution   :      8.17024       1.56491       0.63838
                        -----------------------------------------
Total Dipole Moment    :      0.56035       0.44139       0.10938
                        -----------------------------------------
Magnitude (a.u.)       :      0.72165
Magnitude (Debye)      :      1.83430

Rotational constants in cm-1:     0.414666     0.109887     0.095425
Rotational constants in MHz : 12431.386738  3294.317013  2860.767382

                             ****ORCA TERMINATED NORMALLY****
TOTAL RUN TIME: 0 days 1 hours 13 minutes 55 seconds 44 msec
