                         Program Version 5.0.4 -  RELEASE  -
|  1> ! ri-mp2 aug-cc-pvdz aug-cc-pvdz/c tightscf
|  2> %pal nprocs 16 end
|  3> %maxcore 3800
|  4> %base "DZ_B-S_34_B"
|  5> %scf
|  6> STABPerform true
|  7> STABRestartUHFifUnstable true
|  8> end
|  9>
| 10> *xyz 0 2
| 11> S         0.040051    1.019689    0.000000
| 12> S         0.040051   -0.943582    0.000000
| 13> H        -1.281628   -1.217715    0.000000
| 14> *
| 15>
| 16> $new_job
| 17> ! ri-mp2 aug-cc-pvtz aug-cc-pvtz/c tightscf
| 18> %pal nprocs 16 end
| 19> %maxcore 3800
| 20> %base "TZ_B-S_34_B"
| 21>
| 22> *xyz 0 2
| 23> S         0.040051    1.019689    0.000000
| 24> S         0.040051   -0.943582    0.000000
| 25> H        -1.281628   -1.217715    0.000000
| 26> *
| 27>
| 28> $new_job
| 29> ! ri-mp2 aug-cc-pvqz aug-cc-pvqz/c tightscf
| 30> %pal nprocs 16 end
| 31> %maxcore 3800
| 32> %base "QZ_B-S_34_B"
| 33>
| 34> *xyz 0 2
| 35> S         0.040051    1.019689    0.000000
| 36> S         0.040051   -0.943582    0.000000
| 37> H        -1.281628   -1.217715    0.000000
| 38> *
| 39>
| 40>
| 41>
| 42>
| 43>                          ****END OF INPUT****
 Total Charge           Charge          ....    0
 Multiplicity           Mult            ....    2
 Number of Electrons    NEL             ....   33
MP2 TOTAL ENERGY:     -795.899814238 Eh
FINAL SINGLE POINT ENERGY      -795.899814238161
MP2 TOTAL ENERGY:     -796.003991306 Eh
FINAL SINGLE POINT ENERGY      -796.003991306224

CARTESIAN COORDINATES (ANGSTROEM)
---------------------------------
  S      0.040051    1.019689    0.000000
  S      0.040051   -0.943582    0.000000
  H     -1.281628   -1.217715    0.000000

 Multiplicity           Mult            ....    2
 Number of Electrons    NEL             ....   33
 Basis Dimension        Dim             ....  214

ORBITAL ENERGIES
----------------
                 SPIN UP ORBITALS
  NO   OCC          E(Eh)            E(eV)
   0   1.0000     -92.012503     -2503.7875
   1   1.0000     -91.993745     -2503.2771
   2   1.0000      -9.012648      -245.2466
   3   1.0000      -8.994703      -244.7583
   4   1.0000      -6.696489      -182.2207
   5   1.0000      -6.693121      -182.1291
   6   1.0000      -6.691812      -182.0934
   7   1.0000      -6.688229      -181.9960
   8   1.0000      -6.672700      -181.5734
   9   1.0000      -6.670764      -181.5207
  10   1.0000      -1.089755       -29.6537
  11   1.0000      -0.876242       -23.8438
  12   1.0000      -0.593945       -16.1621
  13   1.0000      -0.521525       -14.1914
  14   1.0000      -0.505482       -13.7549
  15   1.0000      -0.386558       -10.5188
  16   1.0000      -0.374593       -10.1932
  17   0.0000       0.026916         0.7324
  18   0.0000       0.044121         1.2006
  19   0.0000       0.074528         2.0280
  20   0.0000       0.078008         2.1227
  21   0.0000       0.086597         2.3564

                 SPIN DOWN ORBITALS
  NO   OCC          E(Eh)            E(eV)
   0   1.0000     -92.010109     -2503.7223
   1   1.0000     -91.985518     -2503.0532
   2   1.0000      -9.009963      -245.1736
   3   1.0000      -8.985660      -244.5122
   4   1.0000      -6.692010      -182.0988
   5   1.0000      -6.691013      -182.0717
   6   1.0000      -6.685503      -181.9218
   7   1.0000      -6.668375      -181.4557
   8   1.0000      -6.665908      -181.3886
   9   1.0000      -6.651336      -180.9921
  10   1.0000      -1.058949       -28.8155
  11   1.0000      -0.810046       -22.0425
  12   1.0000      -0.584902       -15.9160
  13   1.0000      -0.490553       -13.3486
  14   1.0000      -0.419407       -11.4126
  15   1.0000      -0.370266       -10.0754
  16   0.0000       0.009187         0.2500
  17   0.0000       0.027188         0.7398
  18   0.0000       0.045672         1.2428
  19   0.0000       0.074701         2.0327
  20   0.0000       0.080312         2.1854

MULLIKEN ATOMIC CHARGES AND SPIN POPULATIONS
--------------------------------------------
   0 S :   -0.048984    0.861357
   1 S :   -0.066817    0.155634
   2 H :    0.115801   -0.016992
Sum of atomic charges         :    0.0000000

LOEWDIN ATOMIC CHARGES AND SPIN POPULATIONS
-------------------------------------------
   0 S :    0.244426    0.682424
   1 S :    0.668058    0.279597
   2 H :   -0.912483    0.037979

  Mayer bond orders larger than 0.100000
B(  0-S ,  1-S ) :   1.3514 B(  1-S ,  2-H ) :   0.9522

MP2 TOTAL ENERGY:     -796.038178665 Eh
FINAL SINGLE POINT ENERGY      -796.038178665092

DIPOLE MOMENT
-------------
                                X             Y             Z
Electronic contribution:      0.85301       0.82610      -0.00000
Nuclear contribution   :     -1.22196      -1.16102       0.00000
                        -----------------------------------------
Total Dipole Moment    :     -0.36895      -0.33493      -0.00000
                        -----------------------------------------
Magnitude (a.u.)       :      0.49830
Magnitude (Debye)      :      1.26657

Rotational constants in cm-1:     9.977534     0.265912     0.259009
Rotational constants in MHz : 299118.937492  7971.847639  7764.904423

                             ****ORCA TERMINATED NORMALLY****
TOTAL RUN TIME: 0 days 0 hours 2 minutes 32 seconds 189 msec
