                         Program Version 5.0.4 -  RELEASE  -
|  1> ! ri-mp2 aug-cc-pvdz aug-cc-pvdz/c tightscf
|  2> %pal nprocs 16 end
|  3> %maxcore 3800
|  4> %base "DZ_Si-F_20_AB"
|  5>
|  6> *xyz 0 1
|  7> C         0.091200    0.000001   -0.207294
|  8> C        -0.617884   -1.197030   -0.110895
|  9> Si         1.925348    0.000003   -0.442954
| 10> C        -0.617885    1.197031   -0.110893
| 11> C        -1.988085   -1.199597    0.081876
| 12> C        -2.673399   -0.000001    0.179164
| 13> C        -1.988087    1.199596    0.081878
| 14> H        -0.094277    2.142335   -0.190434
| 15> H        -3.745229   -0.000002    0.328107
| 16> H        -2.522956    2.137288    0.154308
| 17> H        -0.094274   -2.142334   -0.190439
| 18> H        -2.522953   -2.137290    0.154303
| 19> F         2.675574   -0.000004    0.973918
| 20> H         2.354741    1.221593   -1.151376
| 21> H         2.354742   -1.221581   -1.151388
| 22> *
| 23>
| 24> $new_job
| 25> ! ri-mp2 aug-cc-pvtz aug-cc-pvtz/c tightscf
| 26> %pal nprocs 16 end
| 27> %maxcore 3800
| 28> %base "TZ_Si-F_20_AB"
| 29>
| 30> *xyz 0 1
| 31> C         0.091200    0.000001   -0.207294
| 32> C        -0.617884   -1.197030   -0.110895
| 33> Si         1.925348    0.000003   -0.442954
| 34> C        -0.617885    1.197031   -0.110893
| 35> C        -1.988085   -1.199597    0.081876
| 36> C        -2.673399   -0.000001    0.179164
| 37> C        -1.988087    1.199596    0.081878
| 38> H        -0.094277    2.142335   -0.190434
| 39> H        -3.745229   -0.000002    0.328107
| 40> H        -2.522956    2.137288    0.154308
| 41> H        -0.094274   -2.142334   -0.190439
| 42> H        -2.522953   -2.137290    0.154303
| 43> F         2.675574   -0.000004    0.973918
| 44> H         2.354741    1.221593   -1.151376
| 45> H         2.354742   -1.221581   -1.151388
| 46> *
| 47>
| 48> $new_job
| 49> ! ri-mp2 aug-cc-pvqz aug-cc-pvqz/c tightscf
| 50> %pal nprocs 16 end
| 51> %maxcore 3800
| 52> %base "QZ_Si-F_20_AB"
| 53>
| 54> *xyz 0 1
| 55> C         0.091200    0.000001   -0.207294
| 56> C        -0.617884   -1.197030   -0.110895
| 57> Si         1.925348    0.000003   -0.442954
| 58> C        -0.617885    1.197031   -0.110893
| 59> C        -1.988085   -1.199597    0.081876
| 60> C        -2.673399   -0.000001    0.179164
| 61> C        -1.988087    1.199596    0.081878
| 62> H        -0.094277    2.142335   -0.190434
| 63> H        -3.745229   -0.000002    0.328107
| 64> H        -2.522956    2.137288    0.154308
| 65> H        -0.094274   -2.142334   -0.190439
| 66> H        -2.522953   -2.137290    0.154303
| 67> F         2.675574   -0.000004    0.973918
| 68> H         2.354741    1.221593   -1.151376
| 69> H         2.354742   -1.221581   -1.151388
| 70> *
| 71>
| 72>
| 73>
| 74>
| 75>                          ****END OF INPUT****
 Total Charge           Charge          ....    0
 Multiplicity           Mult            ....    1
 Number of Electrons    NEL             ....   66
MP2 TOTAL ENERGY:     -620.869188844 Eh
FINAL SINGLE POINT ENERGY      -620.869188843988
MP2 TOTAL ENERGY:     -621.198900792 Eh
FINAL SINGLE POINT ENERGY      -621.198900791523

CARTESIAN COORDINATES (ANGSTROEM)
---------------------------------
  C      0.091200    0.000001   -0.207294
  C     -0.617884   -1.197030   -0.110895
  Si     1.925348    0.000003   -0.442954
  C     -0.617885    1.197031   -0.110893
  C     -1.988085   -1.199597    0.081876
  C     -2.673399   -0.000001    0.179164
  C     -1.988087    1.199596    0.081878
  H     -0.094277    2.142335   -0.190434
  H     -3.745229   -0.000002    0.328107
  H     -2.522956    2.137288    0.154308
  H     -0.094274   -2.142334   -0.190439
  H     -2.522953   -2.137290    0.154303
  F      2.675574   -0.000004    0.973918
  H      2.354741    1.221593   -1.151376
  H      2.354742   -1.221581   -1.151388

 Multiplicity           Mult            ....    1
 Number of Electrons    NEL             ....   66
 Basis Dimension        Dim             ....  966

ORBITAL ENERGIES
----------------

  NO   OCC          E(Eh)            E(eV)
   0   2.0000     -68.804537     -1872.2666
   1   2.0000     -26.272385      -714.9079
   2   2.0000     -11.247390      -306.0570
   3   2.0000     -11.247363      -306.0563
   4   2.0000     -11.246193      -306.0245
   5   2.0000     -11.240087      -305.8583
   6   2.0000     -11.239947      -305.8545
   7   2.0000     -11.227349      -305.5117
   8   2.0000      -6.148941      -167.3212
   9   2.0000      -4.256149      -115.8157
  10   2.0000      -4.255547      -115.7993
  11   2.0000      -4.255246      -115.7911
  12   2.0000      -1.575075       -42.8600
  13   2.0000      -1.164841       -31.6969
  14   2.0000      -1.028219       -27.9793
  15   2.0000      -1.026670       -27.9371
  16   2.0000      -0.838240       -22.8097
  17   2.0000      -0.836562       -22.7640
  18   2.0000      -0.761768       -20.7288
  19   2.0000      -0.712031       -19.3753
  20   2.0000      -0.660219       -17.9655
  21   2.0000      -0.658778       -17.9262
  22   2.0000      -0.643933       -17.5223
  23   2.0000      -0.634847       -17.2751
  24   2.0000      -0.618403       -16.8276
  25   2.0000      -0.598691       -16.2912
  26   2.0000      -0.551445       -15.0056
  27   2.0000      -0.516061       -14.0427
  28   2.0000      -0.503710       -13.7067
  29   2.0000      -0.482152       -13.1200
  30   2.0000      -0.456594       -12.4245
  31   2.0000      -0.352709        -9.5977
  32   2.0000      -0.348872        -9.4933
  33   0.0000       0.021548         0.5864
  34   0.0000       0.028056         0.7634
  35   0.0000       0.029623         0.8061
  36   0.0000       0.040501         1.1021
  37   0.0000       0.041382         1.1261

MULLIKEN ATOMIC CHARGES
-----------------------
   0 C :   -0.131361
   1 C :   -0.406326
   2 Si:    1.538887
   3 C :   -0.406324
   4 C :   -0.302723
   5 C :   -0.352916
   6 C :   -0.302725
   7 H :    0.352873
   8 H :    0.337458
   9 H :    0.268466
  10 H :    0.352871
  11 H :    0.268467
  12 F :   -0.715447
  13 H :   -0.250601
  14 H :   -0.250600
Sum of atomic charges:    0.0000000

LOEWDIN ATOMIC CHARGES
----------------------
   0 C :   -0.112171
   1 C :    0.247971
   2 Si:    0.299431
   3 C :    0.247972
   4 C :    0.340817
   5 C :    0.337533
   6 C :    0.340818
   7 H :   -0.339216
   8 H :   -0.317084
   9 H :   -0.319630
  10 H :   -0.339215
  11 H :   -0.319630
  12 F :    0.409000
  13 H :   -0.238298
  14 H :   -0.238298

  Mayer bond orders larger than 0.100000
B(  0-C ,  1-C ) :   0.9818 B(  0-C ,  2-Si) :   1.1409 B(  0-C ,  3-C ) :   0.9818
B(  0-C ,  4-C ) :  -0.2472 B(  0-C ,  6-C ) :  -0.2472 B(  0-C ,  7-H ) :  -0.1445
B(  0-C , 10-H ) :  -0.1445 B(  1-C ,  2-Si) :  -0.1032 B(  1-C ,  4-C ) :   1.2879
B(  1-C ,  6-C ) :   0.1228 B(  1-C , 10-H ) :   0.9174 B(  1-C , 11-H ) :  -0.1330
B(  2-Si,  3-C ) :  -0.1032 B(  2-Si, 12-F ) :   0.3201 B(  2-Si, 13-H ) :   0.7549
B(  2-Si, 14-H ) :   0.7549 B(  3-C ,  4-C ) :   0.1228 B(  3-C ,  6-C ) :   1.2879
B(  3-C ,  7-H ) :   0.9174 B(  3-C ,  9-H ) :  -0.1330 B(  4-C ,  5-C ) :   1.1585
B(  4-C ,  6-C ) :  -0.1032 B(  4-C , 11-H ) :   1.0841 B(  5-C ,  6-C ) :   1.1585
B(  5-C ,  8-H ) :   0.9864 B(  6-C ,  9-H ) :   1.0841

MP2 TOTAL ENERGY:     -621.305434540 Eh
FINAL SINGLE POINT ENERGY      -621.305434539762

DIPOLE MOMENT
-------------
                                X             Y             Z
Electronic contribution:      6.13198      -0.00001       2.51993
Nuclear contribution   :     -6.90396       0.00001      -2.92862
                        -----------------------------------------
Total Dipole Moment    :     -0.77198       0.00000      -0.40869
                        -----------------------------------------
Magnitude (a.u.)       :      0.87348
Magnitude (Debye)      :      2.22022

Rotational constants in cm-1:     0.142901     0.034009     0.030177
Rotational constants in MHz :  4284.059936  1019.572043   904.677946

                             ****ORCA TERMINATED NORMALLY****
TOTAL RUN TIME: 0 days 0 hours 22 minutes 29 seconds 469 msec
