                         Program Version 5.0.4 -  RELEASE  -
|  1> ! ri-mp2 aug-cc-pvdz aug-cc-pvdz/c tightscf
|  2> %pal nprocs 16 end
|  3> %maxcore 3800
|  4> %base "DZ_B-F_81_AB"
|  5> %scf
|  6> STABPerform true
|  7> STABRestartUHFifUnstable true
|  8> end
|  9>
| 10> *xyz 0 1
| 11> F         1.625355   -1.131490   -0.010543
| 12> F         1.625358    1.131491   -0.010544
| 13> F        -1.145812    1.080779   -0.612272
| 14> F        -1.145810   -1.080713   -0.612390
| 15> F        -1.078750   -0.000069    1.263047
| 16> C        -0.634282    0.000001   -0.009729
| 17> B         0.976526    0.000001   -0.019462
| 18> *
| 19>
| 20> $new_job
| 21> ! ri-mp2 aug-cc-pvtz aug-cc-pvtz/c tightscf
| 22> %pal nprocs 16 end
| 23> %maxcore 3800
| 24> %base "TZ_B-F_81_AB"
| 25>
| 26> *xyz 0 1
| 27> F         1.625355   -1.131490   -0.010543
| 28> F         1.625358    1.131491   -0.010544
| 29> F        -1.145812    1.080779   -0.612272
| 30> F        -1.145810   -1.080713   -0.612390
| 31> F        -1.078750   -0.000069    1.263047
| 32> C        -0.634282    0.000001   -0.009729
| 33> B         0.976526    0.000001   -0.019462
| 34> *
| 35>
| 36> $new_job
| 37> ! ri-mp2 aug-cc-pvqz aug-cc-pvqz/c tightscf
| 38> %pal nprocs 16 end
| 39> %maxcore 3800
| 40> %base "QZ_B-F_81_AB"
| 41>
| 42> *xyz 0 1
| 43> F         1.625355   -1.131490   -0.010543
| 44> F         1.625358    1.131491   -0.010544
| 45> F        -1.145812    1.080779   -0.612272
| 46> F        -1.145810   -1.080713   -0.612390
| 47> F        -1.078750   -0.000069    1.263047
| 48> C        -0.634282    0.000001   -0.009729
| 49> B         0.976526    0.000001   -0.019462
| 50> *
| 51>
| 52>
| 53>
| 54>
| 55>                          ****END OF INPUT****
 Total Charge           Charge          ....    0
 Multiplicity           Mult            ....    1
 Number of Electrons    NEL             ....   56
MP2 TOTAL ENERGY:     -561.154134802 Eh
FINAL SINGLE POINT ENERGY      -561.154134801967
MP2 TOTAL ENERGY:     -561.629644033 Eh
FINAL SINGLE POINT ENERGY      -561.629644033415

CARTESIAN COORDINATES (ANGSTROEM)
---------------------------------
  F      1.625355   -1.131490   -0.010543
  F      1.625358    1.131491   -0.010544
  F     -1.145812    1.080779   -0.612272
  F     -1.145810   -1.080713   -0.612390
  F     -1.078750   -0.000069    1.263047
  C     -0.634282    0.000001   -0.009729
  B      0.976526    0.000001   -0.019462

 Multiplicity           Mult            ....    1
 Number of Electrons    NEL             ....   56
 Basis Dimension        Dim             ....  560

ORBITAL ENERGIES
----------------

  NO   OCC          E(Eh)            E(eV)
   0   2.0000     -26.355199      -717.1614
   1   2.0000     -26.355182      -717.1610
   2   2.0000     -26.352002      -717.0744
   3   2.0000     -26.350993      -717.0470
   4   2.0000     -26.350972      -717.0464
   5   2.0000     -11.508720      -313.1682
   6   2.0000      -7.763105      -211.2448
   7   2.0000      -1.743061       -47.4311
   8   2.0000      -1.689673       -45.9783
   9   2.0000      -1.661249       -45.2049
  10   2.0000      -1.648030       -44.8452
  11   2.0000      -1.647757       -44.8377
  12   2.0000      -1.002286       -27.2736
  13   2.0000      -0.880717       -23.9655
  14   2.0000      -0.843380       -22.9495
  15   2.0000      -0.839391       -22.8410
  16   2.0000      -0.835686       -22.7402
  17   2.0000      -0.803456       -21.8631
  18   2.0000      -0.756804       -20.5937
  19   2.0000      -0.742979       -20.2175
  20   2.0000      -0.725011       -19.7286
  21   2.0000      -0.721602       -19.6358
  22   2.0000      -0.699933       -19.0461
  23   2.0000      -0.697092       -18.9688
  24   2.0000      -0.678630       -18.4665
  25   2.0000      -0.675742       -18.3879
  26   2.0000      -0.663531       -18.0556
  27   2.0000      -0.565317       -15.3830
  28   0.0000       0.032850         0.8939
  29   0.0000       0.035237         0.9588
  30   0.0000       0.038991         1.0610
  31   0.0000       0.040182         1.0934
  32   0.0000       0.080177         2.1817

MULLIKEN ATOMIC CHARGES
-----------------------
   0 F :   -0.740563
   1 F :   -0.740565
   2 F :   -0.581495
   3 F :   -0.581496
   4 F :   -0.571172
   5 C :    1.593460
   6 B :    1.621831
Sum of atomic charges:    0.0000000

LOEWDIN ATOMIC CHARGES
----------------------
   0 F :    0.830552
   1 F :    0.830551
   2 F :    0.736574
   3 F :    0.736574
   4 F :    0.731036
   5 C :   -2.029545
   6 B :   -1.835742

  Mayer bond orders larger than 0.100000
B(  0-F ,  6-B ) :   0.4362 B(  1-F ,  6-B ) :   0.4362 B(  2-F ,  5-C ) :   0.6041
B(  3-F ,  5-C ) :   0.6041 B(  4-F ,  5-C ) :   0.5528 B(  5-C ,  6-B ) :   0.8919

MP2 TOTAL ENERGY:     -561.784888139 Eh
FINAL SINGLE POINT ENERGY      -561.784888138681

DIPOLE MOMENT
-------------
                                X             Y             Z
Electronic contribution:      0.97346       0.00000      -0.04765
Nuclear contribution   :     -0.59697       0.00000      -0.00125
                        -----------------------------------------
Total Dipole Moment    :      0.37648       0.00000      -0.04890
                        -----------------------------------------
Magnitude (a.u.)       :      0.37965
Magnitude (Debye)      :      0.96498

Rotational constants in cm-1:     0.122522     0.072640     0.060092
Rotational constants in MHz :  3673.129612  2177.705514  1801.508016

                             ****ORCA TERMINATED NORMALLY****
TOTAL RUN TIME: 0 days 0 hours 15 minutes 49 seconds 247 msec
