                         Program Version 5.0.4 -  RELEASE  -
|  1> ! ri-mp2 aug-cc-pvdz aug-cc-pvdz/c tightscf
|  2> %pal nprocs 16 end
|  3> %maxcore 3800
|  4> %base "DZ_P-N_86_AB"
|  5>
|  6> *xyz 0 1
|  7> C         0.394010    0.414774    0.342280
|  8> N        -1.936682    0.067496    0.746012
|  9> P        -2.847833   -0.378049   -0.615854
| 10> C         1.367472    1.281874   -0.147158
| 11> C         2.624706    0.809628   -0.468350
| 12> C         2.933488   -0.533037   -0.316440
| 13> C         1.962210   -1.393993    0.164047
| 14> C         0.699826   -0.932125    0.493532
| 15> H        -0.054265   -1.607067    0.870271
| 16> H         1.133687    2.332789   -0.270651
| 17> H         3.369260    1.497954   -0.846538
| 18> H         3.917167   -0.901828   -0.571735
| 19> H         2.186403   -2.445760    0.286520
| 20> N        -0.851436    0.934654    0.711473
| 21> H        -1.064101    1.817503    0.266014
| 22> H        -1.797630   -0.842250   -1.441180
| 23> H        -2.943473    0.866804   -1.301514
| 24> H        -2.403007    0.054820    1.636764
| 25> *
| 26>
| 27> $new_job
| 28> ! ri-mp2 aug-cc-pvtz aug-cc-pvtz/c tightscf
| 29> %pal nprocs 16 end
| 30> %maxcore 3800
| 31> %base "TZ_P-N_86_AB"
| 32>
| 33> *xyz 0 1
| 34> C         0.394010    0.414774    0.342280
| 35> N        -1.936682    0.067496    0.746012
| 36> P        -2.847833   -0.378049   -0.615854
| 37> C         1.367472    1.281874   -0.147158
| 38> C         2.624706    0.809628   -0.468350
| 39> C         2.933488   -0.533037   -0.316440
| 40> C         1.962210   -1.393993    0.164047
| 41> C         0.699826   -0.932125    0.493532
| 42> H        -0.054265   -1.607067    0.870271
| 43> H         1.133687    2.332789   -0.270651
| 44> H         3.369260    1.497954   -0.846538
| 45> H         3.917167   -0.901828   -0.571735
| 46> H         2.186403   -2.445760    0.286520
| 47> N        -0.851436    0.934654    0.711473
| 48> H        -1.064101    1.817503    0.266014
| 49> H        -1.797630   -0.842250   -1.441180
| 50> H        -2.943473    0.866804   -1.301514
| 51> H        -2.403007    0.054820    1.636764
| 52> *
| 53>
| 54> $new_job
| 55> ! ri-mp2 aug-cc-pvqz aug-cc-pvqz/c tightscf
| 56> %pal nprocs 16 end
| 57> %maxcore 3800
| 58> %base "QZ_P-N_86_AB"
| 59>
| 60> *xyz 0 1
| 61> C         0.394010    0.414774    0.342280
| 62> N        -1.936682    0.067496    0.746012
| 63> P        -2.847833   -0.378049   -0.615854
| 64> C         1.367472    1.281874   -0.147158
| 65> C         2.624706    0.809628   -0.468350
| 66> C         2.933488   -0.533037   -0.316440
| 67> C         1.962210   -1.393993    0.164047
| 68> C         0.699826   -0.932125    0.493532
| 69> H        -0.054265   -1.607067    0.870271
| 70> H         1.133687    2.332789   -0.270651
| 71> H         3.369260    1.497954   -0.846538
| 72> H         3.917167   -0.901828   -0.571735
| 73> H         2.186403   -2.445760    0.286520
| 74> N        -0.851436    0.934654    0.711473
| 75> H        -1.064101    1.817503    0.266014
| 76> H        -1.797630   -0.842250   -1.441180
| 77> H        -2.943473    0.866804   -1.301514
| 78> H        -2.403007    0.054820    1.636764
| 79> *
| 80>
| 81>
| 82>
| 83>
| 84>                          ****END OF INPUT****
 Total Charge           Charge          ....    0
 Multiplicity           Mult            ....    1
 Number of Electrons    NEL             ....   74
MP2 TOTAL ENERGY:     -683.375324619 Eh
FINAL SINGLE POINT ENERGY      -683.375324619163
MP2 TOTAL ENERGY:     -683.723748748 Eh
FINAL SINGLE POINT ENERGY      -683.723748748216

CARTESIAN COORDINATES (ANGSTROEM)
---------------------------------
  C      0.394010    0.414774    0.342280
  N     -1.936682    0.067496    0.746012
  P     -2.847833   -0.378049   -0.615854
  C      1.367472    1.281874   -0.147158
  C      2.624706    0.809628   -0.468350
  C      2.933488   -0.533037   -0.316440
  C      1.962210   -1.393993    0.164047
  C      0.699826   -0.932125    0.493532
  H     -0.054265   -1.607067    0.870271
  H      1.133687    2.332789   -0.270651
  H      3.369260    1.497954   -0.846538
  H      3.917167   -0.901828   -0.571735
  H      2.186403   -2.445760    0.286520
  N     -0.851436    0.934654    0.711473
  H     -1.064101    1.817503    0.266014
  H     -1.797630   -0.842250   -1.441180
  H     -2.943473    0.866804   -1.301514
  H     -2.403007    0.054820    1.636764

 Multiplicity           Mult            ....    1
 Number of Electrons    NEL             ....   74
 Basis Dimension        Dim             .... 1138

ORBITAL ENERGIES
----------------

  NO   OCC          E(Eh)            E(eV)
   0   2.0000     -79.962213     -2175.8824
   1   2.0000     -15.599585      -424.4863
   2   2.0000     -15.587924      -424.1690
   3   2.0000     -11.273469      -306.7667
   4   2.0000     -11.232583      -305.6541
   5   2.0000     -11.231130      -305.6146
   6   2.0000     -11.223644      -305.4109
   7   2.0000     -11.218528      -305.2717
   8   2.0000     -11.217290      -305.2380
   9   2.0000      -7.501628      -204.1297
  10   2.0000      -5.395761      -146.8261
  11   2.0000      -5.395285      -146.8132
  12   2.0000      -5.394849      -146.8013
  13   2.0000      -1.314557       -35.7709
  14   2.0000      -1.158189       -31.5159
  15   2.0000      -1.084393       -29.5078
  16   2.0000      -1.015516       -27.6336
  17   2.0000      -0.978075       -26.6148
  18   2.0000      -0.847806       -23.0700
  19   2.0000      -0.833011       -22.6674
  20   2.0000      -0.807653       -21.9773
  21   2.0000      -0.720553       -19.6072
  22   2.0000      -0.700992       -19.0750
  23   2.0000      -0.661734       -18.0067
  24   2.0000      -0.632561       -17.2129
  25   2.0000      -0.608258       -16.5516
  26   2.0000      -0.605152       -16.4670
  27   2.0000      -0.584460       -15.9040
  28   2.0000      -0.541528       -14.7357
  29   2.0000      -0.528215       -14.3735
  30   2.0000      -0.509800       -13.8724
  31   2.0000      -0.491030       -13.3616
  32   2.0000      -0.448180       -12.1956
  33   2.0000      -0.408052       -11.1037
  34   2.0000      -0.379159       -10.3174
  35   2.0000      -0.338977        -9.2240
  36   2.0000      -0.297654        -8.0996
  37   0.0000       0.023129         0.6294
  38   0.0000       0.029507         0.8029
  39   0.0000       0.029961         0.8153
  40   0.0000       0.036779         1.0008
  41   0.0000       0.041577         1.1314

MULLIKEN ATOMIC CHARGES
-----------------------
   0 C :    0.622588
   1 N :   -0.556808
   2 P :    0.511623
   3 C :   -0.499504
   4 C :   -0.340948
   5 C :   -0.366951
   6 C :   -0.337544
   7 C :   -0.254349
   8 H :    0.373306
   9 H :    0.264017
  10 H :    0.246373
  11 H :    0.315731
  12 H :    0.221884
  13 N :   -0.578834
  14 H :    0.307968
  15 H :   -0.052783
  16 H :   -0.116551
  17 H :    0.240783
Sum of atomic charges:   -0.0000000

LOEWDIN ATOMIC CHARGES
----------------------
   0 C :   -0.288765
   1 N :    0.382733
   2 P :    1.369082
   3 C :    0.329501
   4 C :    0.327408
   5 C :    0.328507
   6 C :    0.330759
   7 C :    0.311891
   8 H :   -0.345066
   9 H :   -0.320268
  10 H :   -0.320306
  11 H :   -0.330224
  12 H :   -0.319708
  13 N :    0.644136
  14 H :   -0.553943
  15 H :   -0.467443
  16 H :   -0.463996
  17 H :   -0.614299

  Mayer bond orders larger than 0.100000
B(  0-C ,  3-C ) :   1.1181 B(  0-C ,  4-C ) :  -0.3537 B(  0-C ,  6-C ) :  -0.3289
B(  0-C ,  7-C ) :   1.1882 B(  0-C , 13-N ) :   0.7723 B(  1-N ,  2-P ) :   0.8479
B(  1-N , 13-N ) :   0.6246 B(  1-N , 17-H ) :   1.0489 B(  2-P , 15-H ) :   0.8907
B(  2-P , 16-H ) :   0.8774 B(  3-C ,  4-C ) :   1.3953 B(  3-C ,  6-C ) :   0.1598
B(  3-C ,  9-H ) :   0.9715 B(  3-C , 10-H ) :  -0.1313 B(  4-C ,  5-C ) :   1.1764
B(  4-C ,  7-C ) :   0.1175 B(  4-C , 10-H ) :   1.1185 B(  5-C ,  6-C ) :   1.2000
B(  5-C , 11-H ) :   1.0178 B(  6-C ,  7-C ) :   1.2520 B(  6-C , 12-H ) :   1.1613
B(  7-C ,  8-H ) :   0.8750 B(  7-C , 12-H ) :  -0.1481 B( 13-N , 14-H ) :   0.8729

MP2 TOTAL ENERGY:     -683.834606041 Eh
FINAL SINGLE POINT ENERGY      -683.834606040864

DIPOLE MOMENT
-------------
                                X             Y             Z
Electronic contribution:     -5.16037      -0.72044       0.68989
Nuclear contribution   :      4.99856       1.12955      -0.77060
                        -----------------------------------------
Total Dipole Moment    :     -0.16180       0.40912      -0.08071
                        -----------------------------------------
Magnitude (a.u.)       :      0.44729
Magnitude (Debye)      :      1.13693

Rotational constants in cm-1:     0.112812     0.025083     0.022966
Rotational constants in MHz :  3382.012818   751.957005   688.513303

                             ****ORCA TERMINATED NORMALLY****
TOTAL RUN TIME: 0 days 0 hours 41 minutes 25 seconds 599 msec
