                         Program Version 5.0.4 -  RELEASE  -
|  1> ! ri-mp2 aug-cc-pvdz aug-cc-pvdz/c tightscf
|  2> %pal nprocs 16 end
|  3> %maxcore 3800
|  4> %base "DZ_B-Cl_30_A"
|  5> %scf
|  6> STABPerform true
|  7> STABRestartUHFifUnstable true
|  8> end
|  9>
| 10> *xyz 0 2
| 11> Cl        -1.503679   -0.131099   -0.000000
| 12> B        -0.009096    0.663496    0.000001
| 13> C         1.376288    0.094097   -0.000001
| 14> N         2.478613   -0.236197    0.000000
| 15> *
| 16>
| 17> $new_job
| 18> ! ri-mp2 aug-cc-pvtz aug-cc-pvtz/c tightscf
| 19> %pal nprocs 16 end
| 20> %maxcore 3800
| 21> %base "TZ_B-Cl_30_A"
| 22>
| 23> *xyz 0 2
| 24> Cl        -1.503679   -0.131099   -0.000000
| 25> B        -0.009096    0.663496    0.000001
| 26> C         1.376288    0.094097   -0.000001
| 27> N         2.478613   -0.236197    0.000000
| 28> *
| 29>
| 30> $new_job
| 31> ! ri-mp2 aug-cc-pvqz aug-cc-pvqz/c tightscf
| 32> %pal nprocs 16 end
| 33> %maxcore 3800
| 34> %base "QZ_B-Cl_30_A"
| 35>
| 36> *xyz 0 2
| 37> Cl        -1.503679   -0.131099   -0.000000
| 38> B        -0.009096    0.663496    0.000001
| 39> C         1.376288    0.094097   -0.000001
| 40> N         2.478613   -0.236197    0.000000
| 41> *
| 42>
| 43>
| 44>
| 45>
| 46>                          ****END OF INPUT****
 Total Charge           Charge          ....    0
 Multiplicity           Mult            ....    2
 Number of Electrons    NEL             ....   35
MP2 TOTAL ENERGY:     -576.974289098 Eh
FINAL SINGLE POINT ENERGY      -576.974289098050
MP2 TOTAL ENERGY:     -577.124186775 Eh
FINAL SINGLE POINT ENERGY      -577.124186775294

CARTESIAN COORDINATES (ANGSTROEM)
---------------------------------
  Cl    -1.503679   -0.131099   -0.000000
  B     -0.009096    0.663496    0.000001
  C      1.376288    0.094097   -0.000001
  N      2.478613   -0.236197    0.000000

 Multiplicity           Mult            ....    2
 Number of Electrons    NEL             ....   35
 Basis Dimension        Dim             ....  324

ORBITAL ENERGIES
----------------
                 SPIN UP ORBITALS
  NO   OCC          E(Eh)            E(eV)
   0   1.0000    -104.885052     -2854.0674
   1   1.0000     -15.616276      -424.9405
   2   1.0000     -11.272418      -306.7381
   3   1.0000     -10.612363      -288.7771
   4   1.0000      -8.080019      -219.8685
   5   1.0000      -8.077925      -219.8115
   6   1.0000      -8.077374      -219.7965
   7   1.0000      -7.736467      -210.5200
   8   1.0000      -1.261339       -34.3228
   9   1.0000      -1.169481       -31.8232
  10   1.0000      -0.836814       -22.7709
  11   1.0000      -0.654521       -17.8104
  12   1.0000      -0.600079       -16.3290
  13   1.0000      -0.571456       -15.5501
  14   1.0000      -0.540299       -14.7023
  15   1.0000      -0.518729       -14.1153
  16   1.0000      -0.505566       -13.7572
  17   1.0000      -0.382486       -10.4080
  18   0.0000       0.004357         0.1186
  19   0.0000       0.028744         0.7822
  20   0.0000       0.034410         0.9363
  21   0.0000       0.035532         0.9669
  22   0.0000       0.039656         1.0791

                 SPIN DOWN ORBITALS
  NO   OCC          E(Eh)            E(eV)
   0   1.0000    -104.884513     -2854.0527
   1   1.0000     -15.602097      -424.5546
   2   1.0000     -11.280346      -306.9538
   3   1.0000     -10.611722      -288.7596
   4   1.0000      -8.078973      -219.8400
   5   1.0000      -8.078196      -219.8189
   6   1.0000      -8.075526      -219.7462
   7   1.0000      -7.714804      -209.9305
   8   1.0000      -1.236333       -33.6423
   9   1.0000      -1.162214       -31.6254
  10   1.0000      -0.817338       -22.2409
  11   1.0000      -0.638825       -17.3833
  12   1.0000      -0.577580       -15.7168
  13   1.0000      -0.540554       -14.7092
  14   1.0000      -0.528690       -14.3864
  15   1.0000      -0.493797       -13.4369
  16   1.0000      -0.485798       -13.2192
  17   0.0000       0.019884         0.5411
  18   0.0000       0.029203         0.7947
  19   0.0000       0.034605         0.9416
  20   0.0000       0.038790         1.0555
  21   0.0000       0.041429         1.1273

MULLIKEN ATOMIC CHARGES AND SPIN POPULATIONS
--------------------------------------------
   0 Cl:   -0.137172    0.016393
   1 B :    0.453983    0.936553
   2 C :    0.133538   -0.399558
   3 N :   -0.450349    0.446612
Sum of atomic charges         :    0.0000000

LOEWDIN ATOMIC CHARGES AND SPIN POPULATIONS
-------------------------------------------
   0 Cl:    1.217235    0.162901
   1 B :   -1.201590    0.503530
   2 C :   -0.375256    0.112810
   3 N :    0.359611    0.220759

  Mayer bond orders larger than 0.100000
B(  0-Cl,  1-B ) :   1.2963 B(  1-B ,  2-C ) :   1.0146 B(  2-C ,  3-N ) :   2.4898

MP2 TOTAL ENERGY:     -577.174569801 Eh
FINAL SINGLE POINT ENERGY      -577.174569800719

DIPOLE MOMENT
-------------
                                X             Y             Z
Electronic contribution:     -2.94187       0.54351       0.00000
Nuclear contribution   :      1.97625      -0.31690      -0.00000
                        -----------------------------------------
Total Dipole Moment    :     -0.96562       0.22661      -0.00000
                        -----------------------------------------
Magnitude (a.u.)       :      0.99186
Magnitude (Debye)      :      2.52110

Rotational constants in cm-1:     2.695563     0.089241     0.086381
Rotational constants in MHz : 80810.937173  2675.366559  2589.632901

                             ****ORCA TERMINATED NORMALLY****
TOTAL RUN TIME: 0 days 0 hours 6 minutes 24 seconds 639 msec
