                         Program Version 5.0.4 -  RELEASE  -
|  1> ! ri-mp2 aug-cc-pvdz aug-cc-pvdz/c tightscf
|  2> %pal nprocs 16 end
|  3> %maxcore 3800
|  4> %base "DZ_S-F_29_AB"
|  5> %scf
|  6> STABPerform true
|  7> STABRestartUHFifUnstable true
|  8> end
|  9>
| 10> *xyz 0 1
| 11> F         2.015995   -0.711229   -0.040043
| 12> S         1.237804    0.691847    0.084994
| 13> S        -0.702157    0.028023   -0.116386
| 14> O        -1.416153    1.249335   -0.018512
| 15> O        -0.823644   -0.876848   -1.205469
| 16> O        -0.979895   -0.794308    1.206137
| 17> H        -0.956783   -1.742284    1.005412
| 18> *
| 19>
| 20> $new_job
| 21> ! ri-mp2 aug-cc-pvtz aug-cc-pvtz/c tightscf
| 22> %pal nprocs 16 end
| 23> %maxcore 3800
| 24> %base "TZ_S-F_29_AB"
| 25>
| 26> *xyz 0 1
| 27> F         2.015995   -0.711229   -0.040043
| 28> S         1.237804    0.691847    0.084994
| 29> S        -0.702157    0.028023   -0.116386
| 30> O        -1.416153    1.249335   -0.018512
| 31> O        -0.823644   -0.876848   -1.205469
| 32> O        -0.979895   -0.794308    1.206137
| 33> H        -0.956783   -1.742284    1.005412
| 34> *
| 35>
| 36> $new_job
| 37> ! ri-mp2 aug-cc-pvqz aug-cc-pvqz/c tightscf
| 38> %pal nprocs 16 end
| 39> %maxcore 3800
| 40> %base "QZ_S-F_29_AB"
| 41>
| 42> *xyz 0 1
| 43> F         2.015995   -0.711229   -0.040043
| 44> S         1.237804    0.691847    0.084994
| 45> S        -0.702157    0.028023   -0.116386
| 46> O        -1.416153    1.249335   -0.018512
| 47> O        -0.823644   -0.876848   -1.205469
| 48> O        -0.979895   -0.794308    1.206137
| 49> H        -0.956783   -1.742284    1.005412
| 50> *
| 51>
| 52>
| 53>
| 54>
| 55>                          ****END OF INPUT****
 Total Charge           Charge          ....    0
 Multiplicity           Mult            ....    1
 Number of Electrons    NEL             ....   66
MP2 TOTAL ENERGY:    -1120.673790413 Eh
FINAL SINGLE POINT ENERGY     -1120.673790413169
MP2 TOTAL ENERGY:    -1121.102188221 Eh
FINAL SINGLE POINT ENERGY     -1121.102188221124

CARTESIAN COORDINATES (ANGSTROEM)
---------------------------------
  F      2.015995   -0.711229   -0.040043
  S      1.237804    0.691847    0.084994
  S     -0.702157    0.028023   -0.116386
  O     -1.416153    1.249335   -0.018512
  O     -0.823644   -0.876848   -1.205469
  O     -0.979895   -0.794308    1.206137
  H     -0.956783   -1.742284    1.005412

 Multiplicity           Mult            ....    1
 Number of Electrons    NEL             ....   66
 Basis Dimension        Dim             ....  534

ORBITAL ENERGIES
----------------

  NO   OCC          E(Eh)            E(eV)
   0   2.0000     -92.255661     -2510.4042
   1   2.0000     -92.093153     -2505.9821
   2   2.0000     -26.357006      -717.2106
   3   2.0000     -20.664047      -562.2973
   4   2.0000     -20.596365      -560.4556
   5   2.0000     -20.595382      -560.4288
   6   2.0000      -9.218765      -250.8553
   7   2.0000      -9.087060      -247.2715
   8   2.0000      -6.904958      -187.8934
   9   2.0000      -6.904362      -187.8772
  10   2.0000      -6.903338      -187.8494
  11   2.0000      -6.768023      -184.1673
  12   2.0000      -6.766366      -184.1222
  13   2.0000      -6.764695      -184.0767
  14   2.0000      -1.658110       -45.1195
  15   2.0000      -1.555111       -42.3167
  16   2.0000      -1.432675       -38.9851
  17   2.0000      -1.405666       -38.2501
  18   2.0000      -1.057211       -28.7682
  19   2.0000      -0.907134       -24.6844
  20   2.0000      -0.803349       -21.8602
  21   2.0000      -0.762327       -20.7440
  22   2.0000      -0.739162       -20.1136
  23   2.0000      -0.735257       -20.0074
  24   2.0000      -0.713772       -19.4227
  25   2.0000      -0.673522       -18.3275
  26   2.0000      -0.654052       -17.7977
  27   2.0000      -0.602706       -16.4005
  28   2.0000      -0.569762       -15.5040
  29   2.0000      -0.551560       -15.0087
  30   2.0000      -0.527295       -14.3484
  31   2.0000      -0.493451       -13.4275
  32   2.0000      -0.433337       -11.7917
  33   0.0000       0.021107         0.5744
  34   0.0000       0.040286         1.0962
  35   0.0000       0.050206         1.3662
  36   0.0000       0.064818         1.7638
  37   0.0000       0.072760         1.9799

MULLIKEN ATOMIC CHARGES
-----------------------
   0 F :   -0.583700
   1 S :    0.631270
   2 S :    2.441254
   3 O :   -1.054721
   4 O :   -1.065029
   5 O :   -0.722031
   6 H :    0.352957
Sum of atomic charges:    0.0000000

LOEWDIN ATOMIC CHARGES
----------------------
   0 F :    0.039565
   1 S :    0.455970
   2 S :   -1.040421
   3 O :    0.209127
   4 O :    0.242999
   5 O :    0.982197
   6 H :   -0.889437

  Mayer bond orders larger than 0.100000
B(  0-F ,  1-S ) :   0.6758 B(  1-S ,  2-S ) :   0.9730 B(  2-S ,  3-O ) :   1.3082
B(  2-S ,  4-O ) :   1.2645 B(  2-S ,  5-O ) :   0.6912 B(  5-O ,  6-H ) :   0.8955

MP2 TOTAL ENERGY:    -1121.244545510 Eh
FINAL SINGLE POINT ENERGY     -1121.244545510023

DIPOLE MOMENT
-------------
                                X             Y             Z
Electronic contribution:      3.37342       0.50041      -0.33999
Nuclear contribution   :     -2.82860      -1.00266       0.98099
                        -----------------------------------------
Total Dipole Moment    :      0.54482      -0.50224       0.64100
                        -----------------------------------------
Magnitude (a.u.)       :      0.97977
Magnitude (Debye)      :      2.49039

Rotational constants in cm-1:     0.136437     0.067569     0.060898
Rotational constants in MHz :  4090.270739  2025.668367  1825.667008

                             ****ORCA TERMINATED NORMALLY****
TOTAL RUN TIME: 0 days 0 hours 14 minutes 40 seconds 140 msec
