                         Program Version 5.0.4 -  RELEASE  -
|  1> ! ri-mp2 aug-cc-pvdz aug-cc-pvdz/c tightscf
|  2> %pal nprocs 16 end
|  3> %maxcore 3800
|  4> %base "DZ_P-N_25_A"
|  5> %scf
|  6> STABPerform true
|  7> STABRestartUHFifUnstable true
|  8> end
|  9>
| 10> *xyz 0 2
| 11> P        -0.689633   -0.810895   -0.220323
| 12> C        -1.940235    0.449271    0.191186
| 13> H        -2.923725    0.029475   -0.018022
| 14> H        -1.806136    1.350776   -0.406895
| 15> H        -1.888012    0.718834    1.246751
| 16> N         0.676111    0.118603    0.434188
| 17> F         0.828991    1.313904   -0.286491
| 18> F         1.823342   -0.587406    0.097221
| 19> *
| 20>
| 21> $new_job
| 22> ! ri-mp2 aug-cc-pvtz aug-cc-pvtz/c tightscf
| 23> %pal nprocs 16 end
| 24> %maxcore 3800
| 25> %base "TZ_P-N_25_A"
| 26>
| 27> *xyz 0 2
| 28> P        -0.689633   -0.810895   -0.220323
| 29> C        -1.940235    0.449271    0.191186
| 30> H        -2.923725    0.029475   -0.018022
| 31> H        -1.806136    1.350776   -0.406895
| 32> H        -1.888012    0.718834    1.246751
| 33> N         0.676111    0.118603    0.434188
| 34> F         0.828991    1.313904   -0.286491
| 35> F         1.823342   -0.587406    0.097221
| 36> *
| 37>
| 38> $new_job
| 39> ! ri-mp2 aug-cc-pvqz aug-cc-pvqz/c tightscf
| 40> %pal nprocs 16 end
| 41> %maxcore 3800
| 42> %base "QZ_P-N_25_A"
| 43>
| 44> *xyz 0 2
| 45> P        -0.689633   -0.810895   -0.220323
| 46> C        -1.940235    0.449271    0.191186
| 47> H        -2.923725    0.029475   -0.018022
| 48> H        -1.806136    1.350776   -0.406895
| 49> H        -1.888012    0.718834    1.246751
| 50> N         0.676111    0.118603    0.434188
| 51> F         0.828991    1.313904   -0.286491
| 52> F         1.823342   -0.587406    0.097221
| 53> *
| 54>
| 55>
| 56>
| 57>
| 58>                          ****END OF INPUT****
 Total Charge           Charge          ....    0
 Multiplicity           Mult            ....    2
 Number of Electrons    NEL             ....   49
MP2 TOTAL ENERGY:     -634.380102468 Eh
FINAL SINGLE POINT ENERGY      -634.380102468297
MP2 TOTAL ENERGY:     -634.667091588 Eh
FINAL SINGLE POINT ENERGY      -634.667091588437

CARTESIAN COORDINATES (ANGSTROEM)
---------------------------------
  P     -0.689633   -0.810895   -0.220323
  C     -1.940235    0.449271    0.191186
  H     -2.923725    0.029475   -0.018022
  H     -1.806136    1.350776   -0.406895
  H     -1.888012    0.718834    1.246751
  N      0.676111    0.118603    0.434188
  F      0.828991    1.313904   -0.286491
  F      1.823342   -0.587406    0.097221

 Multiplicity           Mult            ....    2
 Number of Electrons    NEL             ....   49
 Basis Dimension        Dim             ....  542

ORBITAL ENERGIES
----------------
                 SPIN UP ORBITALS
  NO   OCC          E(Eh)            E(eV)
   0   1.0000     -79.999938     -2176.9090
   1   1.0000     -26.336842      -716.6619
   2   1.0000     -26.336512      -716.6529
   3   1.0000     -15.753160      -428.6653
   4   1.0000     -11.250844      -306.1510
   5   1.0000      -7.541040      -205.2021
   6   1.0000      -5.445616      -148.1827
   7   1.0000      -5.431434      -147.7968
   8   1.0000      -5.429229      -147.7368
   9   1.0000      -1.684743       -45.8442
  10   1.0000      -1.601906       -43.5901
  11   1.0000      -1.124744       -30.6058
  12   1.0000      -1.001769       -27.2595
  13   1.0000      -0.836724       -22.7684
  14   1.0000      -0.762212       -20.7408
  15   1.0000      -0.757519       -20.6131
  16   1.0000      -0.712333       -19.3836
  17   1.0000      -0.682231       -18.5644
  18   1.0000      -0.639965       -17.4143
  19   1.0000      -0.621836       -16.9210
  20   1.0000      -0.601573       -16.3696
  21   1.0000      -0.568343       -15.4654
  22   1.0000      -0.492865       -13.4115
  23   1.0000      -0.438608       -11.9351
  24   1.0000      -0.372636       -10.1399
  25   0.0000       0.022539         0.6133
  26   0.0000       0.038382         1.0444
  27   0.0000       0.040681         1.1070
  28   0.0000       0.047754         1.2995
  29   0.0000       0.067908         1.8479

                 SPIN DOWN ORBITALS
  NO   OCC          E(Eh)            E(eV)
   0   1.0000     -79.992768     -2176.7139
   1   1.0000     -26.336615      -716.6557
   2   1.0000     -26.333639      -716.5747
   3   1.0000     -15.753007      -428.6611
   4   1.0000     -11.251905      -306.1799
   5   1.0000      -7.532172      -204.9608
   6   1.0000      -5.427377      -147.6864
   7   1.0000      -5.425995      -147.6488
   8   1.0000      -5.411144      -147.2447
   9   1.0000      -1.681020       -45.7429
  10   1.0000      -1.596366       -43.4393
  11   1.0000      -1.115293       -30.3487
  12   1.0000      -0.995284       -27.0831
  13   1.0000      -0.811873       -22.0922
  14   1.0000      -0.755445       -20.5567
  15   1.0000      -0.754042       -20.5185
  16   1.0000      -0.683998       -18.6125
  17   1.0000      -0.680411       -18.5149
  18   1.0000      -0.636935       -17.3319
  19   1.0000      -0.610300       -16.6071
  20   1.0000      -0.588594       -16.0165
  21   1.0000      -0.561683       -15.2842
  22   1.0000      -0.480401       -13.0724
  23   1.0000      -0.418151       -11.3785
  24   0.0000       0.020949         0.5701
  25   0.0000       0.023364         0.6358
  26   0.0000       0.038956         1.0600
  27   0.0000       0.043942         1.1957
  28   0.0000       0.048490         1.3195

MULLIKEN ATOMIC CHARGES AND SPIN POPULATIONS
--------------------------------------------
   0 P :    0.655241    1.064894
   1 C :   -0.971234   -0.103305
   2 H :    0.338534   -0.002647
   3 H :    0.264041    0.022759
   4 H :    0.235194    0.026413
   5 N :    0.269721   -0.053753
   6 F :   -0.397373    0.043415
   7 F :   -0.394125    0.002225
Sum of atomic charges         :   -0.0000000

LOEWDIN ATOMIC CHARGES AND SPIN POPULATIONS
-------------------------------------------
   0 P :    0.800193    0.595296
   1 C :    0.619119    0.163428
   2 H :   -0.404091    0.008601
   3 H :   -0.393349    0.021785
   4 H :   -0.382872    0.020066
   5 N :   -0.987430    0.135884
   6 F :    0.383352    0.051556
   7 F :    0.365077    0.003383

  Mayer bond orders larger than 0.100000
B(  0-P ,  1-C ) :   0.9605 B(  0-P ,  5-N ) :   0.7700 B(  1-C ,  2-H ) :   0.8965
B(  1-C ,  3-H ) :   0.9268 B(  1-C ,  4-H ) :   0.9305 B(  5-N ,  6-F ) :   0.7129
B(  5-N ,  7-F ) :   0.7144

MP2 TOTAL ENERGY:     -634.760184081 Eh
FINAL SINGLE POINT ENERGY      -634.760184081180

DIPOLE MOMENT
-------------
                                X             Y             Z
Electronic contribution:      6.81652      -2.05105      -1.12609
Nuclear contribution   :     -8.05269       2.02298       1.14655
                        -----------------------------------------
Total Dipole Moment    :     -1.23618      -0.02807       0.02046
                        -----------------------------------------
Magnitude (a.u.)       :      1.23666
Magnitude (Debye)      :      3.14335

Rotational constants in cm-1:     0.232682     0.101809     0.075933
Rotational constants in MHz :  6975.638280  3052.150711  2276.425099

                             ****ORCA TERMINATED NORMALLY****
TOTAL RUN TIME: 0 days 0 hours 36 minutes 30 seconds 281 msec
