                         Program Version 5.0.4 -  RELEASE  -
|  1> ! ri-mp2 aug-cc-pvdz aug-cc-pvdz/c tightscf
|  2> %pal nprocs 16 end
|  3> %maxcore 3800
|  4> %base "DZ_Si-Si_134_AB"
|  5> %scf
|  6> STABPerform true
|  7> STABRestartUHFifUnstable true
|  8> end
|  9>
| 10> *xyz 0 1
| 11> Si         1.128315    1.802111   -0.296681
| 12> Si        -1.128315    1.802111    0.296679
| 13> C        -1.773174    0.073298   -0.153773
| 14> H        -1.895616    2.773390   -0.514152
| 15> H        -1.352580    2.083975    1.729270
| 16> S        -1.395076   -0.581888   -1.597421
| 17> O        -2.508233   -0.493508    0.784813
| 18> C        -3.017279   -1.812459    0.574389
| 19> H        -3.564648   -2.057571    1.478769
| 20> H        -2.193936   -2.506782    0.415111
| 21> H        -3.670837   -1.829324   -0.296089
| 22> C         1.773175    0.073298    0.153773
| 23> H         1.895616    2.773390    0.514150
| 24> H         1.352580    2.083974   -1.729271
| 25> S         1.395079   -0.581887    1.597422
| 26> O         2.508232   -0.493509   -0.784814
| 27> C         3.017276   -1.812460   -0.574388
| 28> H         3.564643   -2.057574   -1.478769
| 29> H         2.193933   -2.506782   -0.415108
| 30> H         3.670835   -1.829325    0.296088
| 31> *
| 32>
| 33> $new_job
| 34> ! ri-mp2 aug-cc-pvtz aug-cc-pvtz/c tightscf
| 35> %pal nprocs 16 end
| 36> %maxcore 3800
| 37> %base "TZ_Si-Si_134_AB"
| 38>
| 39> *xyz 0 1
| 40> Si         1.128315    1.802111   -0.296681
| 41> Si        -1.128315    1.802111    0.296679
| 42> C        -1.773174    0.073298   -0.153773
| 43> H        -1.895616    2.773390   -0.514152
| 44> H        -1.352580    2.083975    1.729270
| 45> S        -1.395076   -0.581888   -1.597421
| 46> O        -2.508233   -0.493508    0.784813
| 47> C        -3.017279   -1.812459    0.574389
| 48> H        -3.564648   -2.057571    1.478769
| 49> H        -2.193936   -2.506782    0.415111
| 50> H        -3.670837   -1.829324   -0.296089
| 51> C         1.773175    0.073298    0.153773
| 52> H         1.895616    2.773390    0.514150
| 53> H         1.352580    2.083974   -1.729271
| 54> S         1.395079   -0.581887    1.597422
| 55> O         2.508232   -0.493509   -0.784814
| 56> C         3.017276   -1.812460   -0.574388
| 57> H         3.564643   -2.057574   -1.478769
| 58> H         2.193933   -2.506782   -0.415108
| 59> H         3.670835   -1.829325    0.296088
| 60> *
| 61>
| 62> $new_job
| 63> ! ri-mp2 aug-cc-pvqz aug-cc-pvqz/c tightscf
| 64> %pal nprocs 16 end
| 65> %maxcore 3800
| 66> %base "QZ_Si-Si_134_AB"
| 67>
| 68> *xyz 0 1
| 69> Si         1.128315    1.802111   -0.296681
| 70> Si        -1.128315    1.802111    0.296679
| 71> C        -1.773174    0.073298   -0.153773
| 72> H        -1.895616    2.773390   -0.514152
| 73> H        -1.352580    2.083975    1.729270
| 74> S        -1.395076   -0.581888   -1.597421
| 75> O        -2.508233   -0.493508    0.784813
| 76> C        -3.017279   -1.812459    0.574389
| 77> H        -3.564648   -2.057571    1.478769
| 78> H        -2.193936   -2.506782    0.415111
| 79> H        -3.670837   -1.829324   -0.296089
| 80> C         1.773175    0.073298    0.153773
| 81> H         1.895616    2.773390    0.514150
| 82> H         1.352580    2.083974   -1.729271
| 83> S         1.395079   -0.581887    1.597422
| 84> O         2.508232   -0.493509   -0.784814
| 85> C         3.017276   -1.812460   -0.574388
| 86> H         3.564643   -2.057574   -1.478769
| 87> H         2.193933   -2.506782   -0.415108
| 88> H         3.670835   -1.829325    0.296088
| 89> *
| 90>
| 91>
| 92>
| 93>
| 94>                          ****END OF INPUT****
 Total Charge           Charge          ....    0
 Multiplicity           Mult            ....    1
 Number of Electrons    NEL             ....  110
MP2 TOTAL ENERGY:    -1681.397616912 Eh
FINAL SINGLE POINT ENERGY     -1681.397616911684
MP2 TOTAL ENERGY:    -1681.834518570 Eh
FINAL SINGLE POINT ENERGY     -1681.834518569949

CARTESIAN COORDINATES (ANGSTROEM)
---------------------------------
  Si     1.128315    1.802111   -0.296681
  Si    -1.128315    1.802111    0.296679
  C     -1.773174    0.073298   -0.153773
  H     -1.895616    2.773390   -0.514152
  H     -1.352580    2.083975    1.729270
  S     -1.395076   -0.581888   -1.597421
  O     -2.508233   -0.493508    0.784813
  C     -3.017279   -1.812459    0.574389
  H     -3.564648   -2.057571    1.478769
  H     -2.193936   -2.506782    0.415111
  H     -3.670837   -1.829324   -0.296089
  C      1.773175    0.073298    0.153773
  H      1.895616    2.773390    0.514150
  H      1.352580    2.083974   -1.729271
  S      1.395079   -0.581887    1.597422
  O      2.508232   -0.493509   -0.784814
  C      3.017276   -1.812460   -0.574388
  H      3.564643   -2.057574   -1.478769
  H      2.193933   -2.506782   -0.415108
  H      3.670835   -1.829325    0.296088

 Multiplicity           Mult            ....    1
 Number of Electrons    NEL             ....  110
 Basis Dimension        Dim             .... 1276

ORBITAL ENERGIES
----------------

  NO   OCC          E(Eh)            E(eV)
   0   2.0000     -91.923586     -2501.3679
   1   2.0000     -91.923586     -2501.3679
   2   2.0000     -68.782669     -1871.6716
   3   2.0000     -68.782668     -1871.6715
   4   2.0000     -20.625747      -561.2551
   5   2.0000     -20.625747      -561.2551
   6   2.0000     -11.358597      -309.0831
   7   2.0000     -11.358596      -309.0831
   8   2.0000     -11.291500      -307.2573
   9   2.0000     -11.291500      -307.2573
  10   2.0000      -8.928837      -242.9660
  11   2.0000      -8.928837      -242.9660
  12   2.0000      -6.610173      -179.8720
  13   2.0000      -6.610173      -179.8720
  14   2.0000      -6.609123      -179.8434
  15   2.0000      -6.609123      -179.8434
  16   2.0000      -6.608114      -179.8159
  17   2.0000      -6.608114      -179.8159
  18   2.0000      -6.133218      -166.8934
  19   2.0000      -6.133066      -166.8892
  20   2.0000      -4.239477      -115.3620
  21   2.0000      -4.239222      -115.3551
  22   2.0000      -4.239159      -115.3534
  23   2.0000      -4.239080      -115.3512
  24   2.0000      -4.238997      -115.3490
  25   2.0000      -4.238699      -115.3409
  26   2.0000      -1.455214       -39.5984
  27   2.0000      -1.455068       -39.5944
  28   2.0000      -1.049074       -28.5467
  29   2.0000      -1.043076       -28.3835
  30   2.0000      -0.974302       -26.5121
  31   2.0000      -0.974087       -26.5063
  32   2.0000      -0.802279       -21.8311
  33   2.0000      -0.786217       -21.3941
  34   2.0000      -0.757703       -20.6182
  35   2.0000      -0.724903       -19.7256
  36   2.0000      -0.676054       -18.3964
  37   2.0000      -0.673080       -18.3154
  38   2.0000      -0.665698       -18.1146
  39   2.0000      -0.645622       -17.5683
  40   2.0000      -0.613978       -16.7072
  41   2.0000      -0.603158       -16.4128
  42   2.0000      -0.552359       -15.0305
  43   2.0000      -0.546407       -14.8685
  44   2.0000      -0.533711       -14.5230
  45   2.0000      -0.527944       -14.3661
  46   2.0000      -0.502788       -13.6816
  47   2.0000      -0.482078       -13.1180
  48   2.0000      -0.473821       -12.8933
  49   2.0000      -0.464221       -12.6321
  50   2.0000      -0.424146       -11.5416
  51   2.0000      -0.378167       -10.2904
  52   2.0000      -0.368234       -10.0201
  53   2.0000      -0.345347        -9.3974
  54   2.0000      -0.341343        -9.2884
  55   0.0000       0.023135         0.6295
  56   0.0000       0.027340         0.7440
  57   0.0000       0.030936         0.8418
  58   0.0000       0.037070         1.0087
  59   0.0000       0.038832         1.0567

MULLIKEN ATOMIC CHARGES
-----------------------
   0 Si:    1.039656
   1 Si:    1.039657
   2 C :    0.116241
   3 H :   -0.328050
   4 H :   -0.227499
   5 S :   -0.159924
   6 O :   -0.792544
   7 C :   -0.803371
   8 H :    0.443684
   9 H :    0.368362
  10 H :    0.343445
  11 C :    0.116240
  12 H :   -0.328050
  13 H :   -0.227499
  14 S :   -0.159924
  15 O :   -0.792544
  16 C :   -0.803371
  17 H :    0.443684
  18 H :    0.368363
  19 H :    0.343446
Sum of atomic charges:    0.0000000

LOEWDIN ATOMIC CHARGES
----------------------
   0 Si:    0.512344
   1 Si:    0.512343
   2 C :   -1.312362
   3 H :   -0.268359
   4 H :   -0.259365
   5 S :    1.096172
   6 O :    0.711725
   7 C :    0.519436
   8 H :   -0.318072
   9 H :   -0.341704
  10 H :   -0.339814
  11 C :   -1.312362
  12 H :   -0.268359
  13 H :   -0.259366
  14 S :    1.096172
  15 O :    0.711726
  16 C :    0.519435
  17 H :   -0.318071
  18 H :   -0.341704
  19 H :   -0.339815

  Mayer bond orders larger than 0.100000
B(  0-Si,  1-Si) :   0.7753 B(  0-Si, 11-C ) :   0.6930 B(  0-Si, 12-H ) :   0.7234
B(  0-Si, 13-H ) :   0.8200 B(  1-Si,  2-C ) :   0.6930 B(  1-Si,  3-H ) :   0.7234
B(  1-Si,  4-H ) :   0.8200 B(  2-C ,  5-S ) :   1.6237 B(  2-C ,  6-O ) :   0.7277
B(  6-O ,  7-C ) :   0.9037 B(  7-C ,  8-H ) :   0.7928 B(  7-C ,  9-H ) :   0.8614
B(  7-C , 10-H ) :   0.8804 B( 11-C , 14-S ) :   1.6237 B( 11-C , 15-O ) :   0.7277
B( 15-O , 16-C ) :   0.9037 B( 16-C , 17-H ) :   0.7928 B( 16-C , 18-H ) :   0.8614
B( 16-C , 19-H ) :   0.8804

MP2 TOTAL ENERGY:    -1681.976873907 Eh
FINAL SINGLE POINT ENERGY     -1681.976873907433

DIPOLE MOMENT
-------------
                                X             Y             Z
Electronic contribution:      0.00001       2.85277      -0.00000
Nuclear contribution   :     -0.00001      -3.21160       0.00000
                        -----------------------------------------
Total Dipole Moment    :     -0.00000      -0.35883      -0.00000
                        -----------------------------------------
Magnitude (a.u.)       :      0.35883
Magnitude (Debye)      :      0.91208

Rotational constants in cm-1:     0.030590     0.017316     0.015205
Rotational constants in MHz :   917.059453   519.129324   455.835239

                             ****ORCA TERMINATED NORMALLY****
TOTAL RUN TIME: 0 days 4 hours 5 minutes 56 seconds 271 msec
