                         Program Version 5.0.4 -  RELEASE  -
|  1> ! ri-mp2 aug-cc-pvdz aug-cc-pvdz/c tightscf
|  2> %pal nprocs 16 end
|  3> %maxcore 3800
|  4> %base "DZ_S-F_61_AB"
|  5>
|  6> *xyz 0 1
|  7> F        -2.164961    0.389021   -0.480156
|  8> S        -1.213129   -0.684215    0.285119
|  9> C         0.339172    0.073474    0.032829
| 10> N         1.257520   -0.778558   -0.177465
| 11> O         2.514758   -0.198223   -0.119947
| 12> H         3.103959   -0.930675   -0.327285
| 13> C         0.518220    1.541493    0.215131
| 14> H        -0.434440    2.058585    0.142078
| 15> H         1.204710    1.926321   -0.536654
| 16> H         0.955438    1.737902    1.195431
| 17> *
| 18>
| 19> $new_job
| 20> ! ri-mp2 aug-cc-pvtz aug-cc-pvtz/c tightscf
| 21> %pal nprocs 16 end
| 22> %maxcore 3800
| 23> %base "TZ_S-F_61_AB"
| 24>
| 25> *xyz 0 1
| 26> F        -2.164961    0.389021   -0.480156
| 27> S        -1.213129   -0.684215    0.285119
| 28> C         0.339172    0.073474    0.032829
| 29> N         1.257520   -0.778558   -0.177465
| 30> O         2.514758   -0.198223   -0.119947
| 31> H         3.103959   -0.930675   -0.327285
| 32> C         0.518220    1.541493    0.215131
| 33> H        -0.434440    2.058585    0.142078
| 34> H         1.204710    1.926321   -0.536654
| 35> H         0.955438    1.737902    1.195431
| 36> *
| 37>
| 38> $new_job
| 39> ! ri-mp2 aug-cc-pvqz aug-cc-pvqz/c tightscf
| 40> %pal nprocs 16 end
| 41> %maxcore 3800
| 42> %base "QZ_S-F_61_AB"
| 43>
| 44> *xyz 0 1
| 45> F        -2.164961    0.389021   -0.480156
| 46> S        -1.213129   -0.684215    0.285119
| 47> C         0.339172    0.073474    0.032829
| 48> N         1.257520   -0.778558   -0.177465
| 49> O         2.514758   -0.198223   -0.119947
| 50> H         3.103959   -0.930675   -0.327285
| 51> C         0.518220    1.541493    0.215131
| 52> H        -0.434440    2.058585    0.142078
| 53> H         1.204710    1.926321   -0.536654
| 54> H         0.955438    1.737902    1.195431
| 55> *
| 56>
| 57>
| 58>
| 59>
| 60>                          ****END OF INPUT****
 Total Charge           Charge          ....    0
 Multiplicity           Mult            ....    1
 Number of Electrons    NEL             ....   56
MP2 TOTAL ENERGY:     -705.287678721 Eh
FINAL SINGLE POINT ENERGY      -705.287678720968
MP2 TOTAL ENERGY:     -705.603496246 Eh
FINAL SINGLE POINT ENERGY      -705.603496245747

CARTESIAN COORDINATES (ANGSTROEM)
---------------------------------
  F     -2.164961    0.389021   -0.480156
  S     -1.213129   -0.684215    0.285119
  C      0.339172    0.073474    0.032829
  N      1.257520   -0.778558   -0.177465
  O      2.514758   -0.198223   -0.119947
  H      3.103959   -0.930675   -0.327285
  C      0.518220    1.541493    0.215131
  H     -0.434440    2.058585    0.142078
  H      1.204710    1.926321   -0.536654
  H      0.955438    1.737902    1.195431

 Multiplicity           Mult            ....    1
 Number of Electrons    NEL             ....   56
 Basis Dimension        Dim             ....  668

ORBITAL ENERGIES
----------------

  NO   OCC          E(Eh)            E(eV)
   0   2.0000     -92.043977     -2504.6439
   1   2.0000     -26.314975      -716.0669
   2   2.0000     -20.616298      -560.9980
   3   2.0000     -15.641781      -425.6345
   4   2.0000     -11.321116      -308.0632
   5   2.0000     -11.245656      -306.0099
   6   2.0000      -9.038574      -245.9521
   7   2.0000      -6.720081      -182.8627
   8   2.0000      -6.718143      -182.8100
   9   2.0000      -6.716825      -182.7741
  10   2.0000      -1.614314       -43.9277
  11   2.0000      -1.452799       -39.5327
  12   2.0000      -1.202703       -32.7272
  13   2.0000      -1.017202       -27.6795
  14   2.0000      -0.979923       -26.6651
  15   2.0000      -0.781127       -21.2555
  16   2.0000      -0.723382       -19.6842
  17   2.0000      -0.707403       -19.2494
  18   2.0000      -0.697221       -18.9723
  19   2.0000      -0.670679       -18.2501
  20   2.0000      -0.646839       -17.6014
  21   2.0000      -0.630778       -17.1644
  22   2.0000      -0.579875       -15.7792
  23   2.0000      -0.573516       -15.6062
  24   2.0000      -0.514860       -14.0100
  25   2.0000      -0.458378       -12.4731
  26   2.0000      -0.443353       -12.0643
  27   2.0000      -0.363116        -9.8809
  28   0.0000       0.024793         0.6747
  29   0.0000       0.034852         0.9484
  30   0.0000       0.041267         1.1229
  31   0.0000       0.047537         1.2935
  32   0.0000       0.056846         1.5469

MULLIKEN ATOMIC CHARGES
-----------------------
   0 F :   -0.632267
   1 S :    0.680568
   2 C :    0.165159
   3 N :   -0.183390
   4 O :   -0.537096
   5 H :    0.308186
   6 C :   -0.749175
   7 H :    0.400265
   8 H :    0.268079
   9 H :    0.279670
Sum of atomic charges:    0.0000000

LOEWDIN ATOMIC CHARGES
----------------------
   0 F :    0.097321
   1 S :    0.691096
   2 C :   -0.895472
   3 N :    0.139864
   4 O :    1.002684
   5 H :   -0.859281
   6 C :    0.784558
   7 H :   -0.351560
   8 H :   -0.314684
   9 H :   -0.294526

  Mayer bond orders larger than 0.100000
B(  0-F ,  1-S ) :   0.6196 B(  0-F ,  2-C ) :  -0.1062 B(  1-S ,  2-C ) :   0.8272
B(  2-C ,  3-N ) :   1.6270 B(  2-C ,  6-C ) :   0.8399 B(  3-N ,  4-O ) :   0.7947
B(  4-O ,  5-H ) :   0.9489 B(  6-C ,  7-H ) :   0.8927 B(  6-C ,  8-H ) :   0.9580
B(  6-C ,  9-H ) :   0.9017

MP2 TOTAL ENERGY:     -705.707773215 Eh
FINAL SINGLE POINT ENERGY      -705.707773215290

DIPOLE MOMENT
-------------
                                X             Y             Z
Electronic contribution:     -6.13906      -4.05503      -0.72951
Nuclear contribution   :      6.79720       4.26147       0.90219
                        -----------------------------------------
Total Dipole Moment    :      0.65813       0.20645       0.17268
                        -----------------------------------------
Magnitude (a.u.)       :      0.71104
Magnitude (Debye)      :      1.80732

Rotational constants in cm-1:     0.217737     0.058938     0.049087
Rotational constants in MHz :  6527.598074  1766.922750  1471.579782

                             ****ORCA TERMINATED NORMALLY****
TOTAL RUN TIME: 0 days 0 hours 6 minutes 4 seconds 362 msec
