                         Program Version 5.0.4 -  RELEASE  -
|  1> ! ri-mp2 aug-cc-pvdz aug-cc-pvdz/c tightscf
|  2> %pal nprocs 16 end
|  3> %maxcore 3800
|  4> %base "DZ_Si-Si_59_AB"
|  5> %scf
|  6> STABPerform true
|  7> STABRestartUHFifUnstable true
|  8> end
|  9>
| 10> *xyz 0 1
| 11> Si        -0.978040    1.714964   -0.647928
| 12> Si         0.978037    1.714965    0.647929
| 13> C        -1.511715   -0.122566   -0.563218
| 14> O        -1.133392   -0.962401   -1.337241
| 15> H        -0.701913    2.033684   -2.060670
| 16> H        -2.022655    2.604626   -0.102820
| 17> O        -2.240403   -0.395522    0.524526
| 18> C        -2.478711   -1.783593    0.793016
| 19> H        -3.084554   -1.808407    1.692842
| 20> H        -1.530361   -2.292538    0.954434
| 21> H        -3.004737   -2.246566   -0.039208
| 22> C         1.511714   -0.122565    0.563218
| 23> H         0.701909    2.033683    2.060671
| 24> H         2.022652    2.604628    0.102823
| 25> O         1.133389   -0.962401    1.337238
| 26> O         2.240406   -0.395519   -0.524524
| 27> C         2.478717   -1.783588   -0.793016
| 28> H         1.530368   -2.292535   -0.954438
| 29> H         3.004741   -2.246562    0.039209
| 30> H         3.084563   -1.808400   -1.692840
| 31> *
| 32>
| 33> $new_job
| 34> ! ri-mp2 aug-cc-pvtz aug-cc-pvtz/c tightscf
| 35> %pal nprocs 16 end
| 36> %maxcore 3800
| 37> %base "TZ_Si-Si_59_AB"
| 38>
| 39> *xyz 0 1
| 40> Si        -0.978040    1.714964   -0.647928
| 41> Si         0.978037    1.714965    0.647929
| 42> C        -1.511715   -0.122566   -0.563218
| 43> O        -1.133392   -0.962401   -1.337241
| 44> H        -0.701913    2.033684   -2.060670
| 45> H        -2.022655    2.604626   -0.102820
| 46> O        -2.240403   -0.395522    0.524526
| 47> C        -2.478711   -1.783593    0.793016
| 48> H        -3.084554   -1.808407    1.692842
| 49> H        -1.530361   -2.292538    0.954434
| 50> H        -3.004737   -2.246566   -0.039208
| 51> C         1.511714   -0.122565    0.563218
| 52> H         0.701909    2.033683    2.060671
| 53> H         2.022652    2.604628    0.102823
| 54> O         1.133389   -0.962401    1.337238
| 55> O         2.240406   -0.395519   -0.524524
| 56> C         2.478717   -1.783588   -0.793016
| 57> H         1.530368   -2.292535   -0.954438
| 58> H         3.004741   -2.246562    0.039209
| 59> H         3.084563   -1.808400   -1.692840
| 60> *
| 61>
| 62> $new_job
| 63> ! ri-mp2 aug-cc-pvqz aug-cc-pvqz/c tightscf
| 64> %pal nprocs 16 end
| 65> %maxcore 3800
| 66> %base "QZ_Si-Si_59_AB"
| 67>
| 68> *xyz 0 1
| 69> Si        -0.978040    1.714964   -0.647928
| 70> Si         0.978037    1.714965    0.647929
| 71> C        -1.511715   -0.122566   -0.563218
| 72> O        -1.133392   -0.962401   -1.337241
| 73> H        -0.701913    2.033684   -2.060670
| 74> H        -2.022655    2.604626   -0.102820
| 75> O        -2.240403   -0.395522    0.524526
| 76> C        -2.478711   -1.783593    0.793016
| 77> H        -3.084554   -1.808407    1.692842
| 78> H        -1.530361   -2.292538    0.954434
| 79> H        -3.004737   -2.246566   -0.039208
| 80> C         1.511714   -0.122565    0.563218
| 81> H         0.701909    2.033683    2.060671
| 82> H         2.022652    2.604628    0.102823
| 83> O         1.133389   -0.962401    1.337238
| 84> O         2.240406   -0.395519   -0.524524
| 85> C         2.478717   -1.783588   -0.793016
| 86> H         1.530368   -2.292535   -0.954438
| 87> H         3.004741   -2.246562    0.039209
| 88> H         3.084563   -1.808400   -1.692840
| 89> *
| 90>
| 91>
| 92>
| 93>
| 94>                          ****END OF INPUT****
 Total Charge           Charge          ....    0
 Multiplicity           Mult            ....    1
 Number of Electrons    NEL             ....   94
MP2 TOTAL ENERGY:    -1036.218144473 Eh
FINAL SINGLE POINT ENERGY     -1036.218144473309
MP2 TOTAL ENERGY:    -1036.681595905 Eh
FINAL SINGLE POINT ENERGY     -1036.681595905392

CARTESIAN COORDINATES (ANGSTROEM)
---------------------------------
  Si    -0.978040    1.714964   -0.647928
  Si     0.978037    1.714965    0.647929
  C     -1.511715   -0.122566   -0.563218
  O     -1.133392   -0.962401   -1.337241
  H     -0.701913    2.033684   -2.060670
  H     -2.022655    2.604626   -0.102820
  O     -2.240403   -0.395522    0.524526
  C     -2.478711   -1.783593    0.793016
  H     -3.084554   -1.808407    1.692842
  H     -1.530361   -2.292538    0.954434
  H     -3.004737   -2.246566   -0.039208
  C      1.511714   -0.122565    0.563218
  H      0.701909    2.033683    2.060671
  H      2.022652    2.604628    0.102823
  O      1.133389   -0.962401    1.337238
  O      2.240406   -0.395519   -0.524524
  C      2.478717   -1.783588   -0.793016
  H      1.530368   -2.292535   -0.954438
  H      3.004741   -2.246562    0.039209
  H      3.084563   -1.808400   -1.692840

 Multiplicity           Mult            ....    1
 Number of Electrons    NEL             ....   94
 Basis Dimension        Dim             .... 1268

ORBITAL ENERGIES
----------------

  NO   OCC          E(Eh)            E(eV)
   0   2.0000     -68.789408     -1871.8550
   1   2.0000     -68.789407     -1871.8549
   2   2.0000     -20.602818      -560.6312
   3   2.0000     -20.602818      -560.6312
   4   2.0000     -20.549209      -559.1724
   5   2.0000     -20.549208      -559.1724
   6   2.0000     -11.364776      -309.2513
   7   2.0000     -11.364775      -309.2513
   8   2.0000     -11.279567      -306.9326
   9   2.0000     -11.279567      -306.9326
  10   2.0000      -6.140457      -167.0903
  11   2.0000      -6.140311      -167.0864
  12   2.0000      -4.246803      -115.5614
  13   2.0000      -4.246451      -115.5518
  14   2.0000      -4.246424      -115.5511
  15   2.0000      -4.246325      -115.5484
  16   2.0000      -4.246271      -115.5469
  17   2.0000      -4.246068      -115.5414
  18   2.0000      -1.463795       -39.8319
  19   2.0000      -1.461987       -39.7827
  20   2.0000      -1.363094       -37.0917
  21   2.0000      -1.362998       -37.0891
  22   2.0000      -0.981289       -26.7022
  23   2.0000      -0.978925       -26.6379
  24   2.0000      -0.826557       -22.4918
  25   2.0000      -0.800487       -21.7824
  26   2.0000      -0.760087       -20.6830
  27   2.0000      -0.735975       -20.0269
  28   2.0000      -0.681980       -18.5576
  29   2.0000      -0.677934       -18.4475
  30   2.0000      -0.676187       -18.4000
  31   2.0000      -0.664741       -18.0885
  32   2.0000      -0.663734       -18.0611
  33   2.0000      -0.634461       -17.2646
  34   2.0000      -0.571070       -15.5396
  35   2.0000      -0.562021       -15.2934
  36   2.0000      -0.555650       -15.1200
  37   2.0000      -0.545641       -14.8476
  38   2.0000      -0.525431       -14.2977
  39   2.0000      -0.522923       -14.2295
  40   2.0000      -0.510036       -13.8788
  41   2.0000      -0.488542       -13.2939
  42   2.0000      -0.466647       -12.6981
  43   2.0000      -0.462660       -12.5896
  44   2.0000      -0.449736       -12.2379
  45   2.0000      -0.422375       -11.4934
  46   2.0000      -0.403271       -10.9736
  47   0.0000       0.023248         0.6326
  48   0.0000       0.027842         0.7576
  49   0.0000       0.031369         0.8536
  50   0.0000       0.033225         0.9041
  51   0.0000       0.043003         1.1702

MULLIKEN ATOMIC CHARGES
-----------------------
   0 Si:    0.930441
   1 Si:    0.930441
   2 C :    0.950859
   3 O :   -0.909629
   4 H :   -0.214188
   5 H :   -0.260696
   6 O :   -0.807089
   7 C :   -0.847730
   8 H :    0.469803
   9 H :    0.375721
  10 H :    0.312510
  11 C :    0.950858
  12 H :   -0.214188
  13 H :   -0.260697
  14 O :   -0.909629
  15 O :   -0.807090
  16 C :   -0.847729
  17 H :    0.375720
  18 H :    0.312509
  19 H :    0.469804
Sum of atomic charges:   -0.0000000

LOEWDIN ATOMIC CHARGES
----------------------
   0 Si:    0.743141
   1 Si:    0.743141
   2 C :   -1.195182
   3 O :    0.630810
   4 H :   -0.269104
   5 H :   -0.271503
   6 O :    0.760342
   7 C :    0.565229
   8 H :   -0.320550
   9 H :   -0.324432
  10 H :   -0.318753
  11 C :   -1.195181
  12 H :   -0.269104
  13 H :   -0.271503
  14 O :    0.630811
  15 O :    0.760342
  16 C :    0.565227
  17 H :   -0.324431
  18 H :   -0.318753
  19 H :   -0.320550

  Mayer bond orders larger than 0.100000
B(  0-Si,  1-Si) :   0.7738 B(  0-Si,  2-C ) :   0.6923 B(  0-Si,  4-H ) :   0.8102
B(  0-Si,  5-H ) :   0.7961 B(  1-Si, 11-C ) :   0.6923 B(  1-Si, 12-H ) :   0.8102
B(  1-Si, 13-H ) :   0.7961 B(  2-C ,  3-O ) :   1.3118 B(  2-C ,  6-O ) :   0.8322
B(  3-O ,  6-O ) :   0.1068 B(  6-O ,  7-C ) :   0.9021 B(  7-C ,  8-H ) :   0.8034
B(  7-C ,  9-H ) :   0.8352 B(  7-C , 10-H ) :   0.9090 B( 11-C , 14-O ) :   1.3118
B( 11-C , 15-O ) :   0.8322 B( 14-O , 15-O ) :   0.1068 B( 15-O , 16-C ) :   0.9021
B( 16-C , 17-H ) :   0.8352 B( 16-C , 18-H ) :   0.9090 B( 16-C , 19-H ) :   0.8034

MP2 TOTAL ENERGY:    -1036.832805903 Eh
FINAL SINGLE POINT ENERGY     -1036.832805903308

DIPOLE MOMENT
-------------
                                X             Y             Z
Electronic contribution:     -0.00001       4.10388       0.00000
Nuclear contribution   :      0.00001      -3.63334       0.00000
                        -----------------------------------------
Total Dipole Moment    :      0.00000       0.47054       0.00000
                        -----------------------------------------
Magnitude (a.u.)       :      0.47054
Magnitude (Debye)      :      1.19601

Rotational constants in cm-1:     0.037114     0.026430     0.020178
Rotational constants in MHz :  1112.656152   792.366024   604.906384

                             ****ORCA TERMINATED NORMALLY****
TOTAL RUN TIME: 0 days 4 hours 42 minutes 14 seconds 835 msec
