                         Program Version 5.0.4 -  RELEASE  -
|  1> ! ri-mp2 aug-cc-pvdz aug-cc-pvdz/c tightscf
|  2> %pal nprocs 16 end
|  3> %maxcore 3800
|  4> %base "DZ_B-F_48_AB"
|  5> %scf
|  6> STABPerform true
|  7> STABRestartUHFifUnstable true
|  8> end
|  9>
| 10> *xyz 0 1
| 11> F         1.958480    1.506520   -0.392530
| 12> B         1.878537    0.252338   -0.030100
| 13> F         2.971798   -0.432971    0.162387
| 14> C         0.460858   -0.468087    0.176051
| 15> O         0.330796   -1.629320    0.396867
| 16> O        -0.576977    0.425313    0.120966
| 17> C        -1.878399    0.009256   -0.170694
| 18> O        -2.101455   -0.874485   -0.925218
| 19> C        -2.864921    0.868964    0.543606
| 20> H        -2.777864    0.696692    1.616919
| 21> H        -3.868516    0.627201    0.208665
| 22> H        -2.642935    1.919617    0.361500
| 23> *
| 24>
| 25> $new_job
| 26> ! ri-mp2 aug-cc-pvtz aug-cc-pvtz/c tightscf
| 27> %pal nprocs 16 end
| 28> %maxcore 3800
| 29> %base "TZ_B-F_48_AB"
| 30>
| 31> *xyz 0 1
| 32> F         1.958480    1.506520   -0.392530
| 33> B         1.878537    0.252338   -0.030100
| 34> F         2.971798   -0.432971    0.162387
| 35> C         0.460858   -0.468087    0.176051
| 36> O         0.330796   -1.629320    0.396867
| 37> O        -0.576977    0.425313    0.120966
| 38> C        -1.878399    0.009256   -0.170694
| 39> O        -2.101455   -0.874485   -0.925218
| 40> C        -2.864921    0.868964    0.543606
| 41> H        -2.777864    0.696692    1.616919
| 42> H        -3.868516    0.627201    0.208665
| 43> H        -2.642935    1.919617    0.361500
| 44> *
| 45>
| 46> $new_job
| 47> ! ri-mp2 aug-cc-pvqz aug-cc-pvqz/c tightscf
| 48> %pal nprocs 16 end
| 49> %maxcore 3800
| 50> %base "QZ_B-F_48_AB"
| 51>
| 52> *xyz 0 1
| 53> F         1.958480    1.506520   -0.392530
| 54> B         1.878537    0.252338   -0.030100
| 55> F         2.971798   -0.432971    0.162387
| 56> C         0.460858   -0.468087    0.176051
| 57> O         0.330796   -1.629320    0.396867
| 58> O        -0.576977    0.425313    0.120966
| 59> C        -1.878399    0.009256   -0.170694
| 60> O        -2.101455   -0.874485   -0.925218
| 61> C        -2.864921    0.868964    0.543606
| 62> H        -2.777864    0.696692    1.616919
| 63> H        -3.868516    0.627201    0.208665
| 64> H        -2.642935    1.919617    0.361500
| 65> *
| 66>
| 67>
| 68>
| 69>
| 70>                          ****END OF INPUT****
 Total Charge           Charge          ....    0
 Multiplicity           Mult            ....    1
 Number of Electrons    NEL             ....   68
MP2 TOTAL ENERGY:     -565.169352372 Eh
FINAL SINGLE POINT ENERGY      -565.169352371605
MP2 TOTAL ENERGY:     -565.651709716 Eh
FINAL SINGLE POINT ENERGY      -565.651709715975

CARTESIAN COORDINATES (ANGSTROEM)
---------------------------------
  F      1.958480    1.506520   -0.392530
  B      1.878537    0.252338   -0.030100
  F      2.971798   -0.432971    0.162387
  C      0.460858   -0.468087    0.176051
  O      0.330796   -1.629320    0.396867
  O     -0.576977    0.425313    0.120966
  C     -1.878399    0.009256   -0.170694
  O     -2.101455   -0.874485   -0.925218
  C     -2.864921    0.868964    0.543606
  H     -2.777864    0.696692    1.616919
  H     -3.868516    0.627201    0.208665
  H     -2.642935    1.919617    0.361500

 Multiplicity           Mult            ....    1
 Number of Electrons    NEL             ....   68
 Basis Dimension        Dim             ....  858

ORBITAL ENERGIES
----------------

  NO   OCC          E(Eh)            E(eV)
   0   2.0000     -26.344237      -716.8631
   1   2.0000     -26.340847      -716.7709
   2   2.0000     -20.637703      -561.5805
   3   2.0000     -20.589567      -560.2706
   4   2.0000     -20.574849      -559.8701
   5   2.0000     -11.409170      -310.4593
   6   2.0000     -11.401068      -310.2388
   7   2.0000     -11.260269      -306.4075
   8   2.0000      -7.751416      -210.9268
   9   2.0000      -1.677777       -45.6546
  10   2.0000      -1.647009       -44.8174
  11   2.0000      -1.513013       -41.1712
  12   2.0000      -1.437468       -39.1155
  13   2.0000      -1.390543       -37.8386
  14   2.0000      -1.056908       -28.7599
  15   2.0000      -0.938811       -25.5463
  16   2.0000      -0.852604       -23.2005
  17   2.0000      -0.803368       -21.8608
  18   2.0000      -0.791125       -21.5276
  19   2.0000      -0.754234       -20.5238
  20   2.0000      -0.745525       -20.2868
  21   2.0000      -0.716323       -19.4921
  22   2.0000      -0.706199       -19.2167
  23   2.0000      -0.696163       -18.9436
  24   2.0000      -0.687967       -18.7205
  25   2.0000      -0.682335       -18.5673
  26   2.0000      -0.640001       -17.4153
  27   2.0000      -0.621584       -16.9142
  28   2.0000      -0.602976       -16.4078
  29   2.0000      -0.585239       -15.9252
  30   2.0000      -0.545773       -14.8512
  31   2.0000      -0.502691       -13.6789
  32   2.0000      -0.497597       -13.5403
  33   2.0000      -0.459615       -12.5067
  34   0.0000       0.019607         0.5335
  35   0.0000       0.030482         0.8295
  36   0.0000       0.032970         0.8971
  37   0.0000       0.037984         1.0336
  38   0.0000       0.044033         1.1982

MULLIKEN ATOMIC CHARGES
-----------------------
   0 F :   -0.762178
   1 B :    1.761698
   2 F :   -0.759050
   3 C :    0.740473
   4 O :   -0.657110
   5 O :   -0.664335
   6 C :    0.887505
   7 O :   -0.676981
   8 C :   -0.771216
   9 H :    0.282118
  10 H :    0.316647
  11 H :    0.302429
Sum of atomic charges:    0.0000000

LOEWDIN ATOMIC CHARGES
----------------------
   0 F :    0.826214
   1 B :   -1.769389
   2 F :    0.828755
   3 C :   -0.968376
   4 O :    0.691173
   5 O :    0.762037
   6 C :   -1.054217
   7 O :    0.721046
   8 C :    0.874674
   9 H :   -0.295518
  10 H :   -0.315074
  11 H :   -0.301325

  Mayer bond orders larger than 0.100000
B(  0-F ,  1-B ) :   0.4233 B(  1-B ,  2-F ) :   0.3972 B(  1-B ,  3-C ) :   0.8343
B(  3-C ,  4-O ) :   1.5592 B(  3-C ,  5-O ) :   1.0028 B(  5-O ,  6-C ) :   0.8920
B(  6-C ,  7-O ) :   1.5109 B(  6-C ,  8-C ) :   0.9528 B(  8-C ,  9-H ) :   0.9009
B(  8-C , 10-H ) :   0.9567 B(  8-C , 11-H ) :   0.9067

MP2 TOTAL ENERGY:     -565.808993000 Eh
FINAL SINGLE POINT ENERGY      -565.808993000041

DIPOLE MOMENT
-------------
                                X             Y             Z
Electronic contribution:     14.33431      -0.50715      -1.70826
Nuclear contribution   :    -14.76666       1.83036       2.28628
                        -----------------------------------------
Total Dipole Moment    :     -0.43235       1.32321       0.57802
                        -----------------------------------------
Magnitude (a.u.)       :      1.50729
Magnitude (Debye)      :      3.83123

Rotational constants in cm-1:     0.114082     0.030356     0.025953
Rotational constants in MHz :  3420.100381   910.056613   778.040300

                             ****ORCA TERMINATED NORMALLY****
TOTAL RUN TIME: 0 days 0 hours 55 minutes 27 seconds 918 msec
