                         Program Version 5.0.4 -  RELEASE  -
|  1> ! ri-mp2 aug-cc-pvdz aug-cc-pvdz/c tightscf
|  2> %pal nprocs 16 end
|  3> %maxcore 3800
|  4> %base "DZ_B-Si_2_AB"
|  5>
|  6> *xyz 0 1
|  7> C        -0.444882   -1.537671   -0.251860
|  8> C        -1.668257   -2.133962   -0.169738
|  9> C        -2.824514   -1.359834    0.036764
| 10> C        -2.723943   -0.006321    0.154581
| 11> C        -1.469896    0.638635    0.074353
| 12> C        -0.300467   -0.135868   -0.131984
| 13> H         0.432533   -2.148844   -0.417029
| 14> H        -1.752625   -3.208274   -0.265241
| 15> H        -3.790394   -1.842863    0.100079
| 16> H        -3.608116    0.598666    0.312502
| 17> C         0.968501    0.512617   -0.214698
| 18> C         1.020122    1.877471   -0.086006
| 19> C        -1.355716    2.041294    0.198325
| 20> C        -0.140347    2.647488    0.120078
| 21> H        -2.254416    2.624392    0.356619
| 22> H        -0.057774    3.722212    0.213500
| 23> H         1.973306    2.387447   -0.148716
| 24> B         2.900794   -1.433083    1.268714
| 25> Si         2.579573   -0.429757   -0.440802
| 26> H         2.500730   -1.338938   -1.610626
| 27> H         3.628337    0.579703   -0.715493
| 28> H         2.418577   -2.504322    1.464740
| 29> H         3.528239   -0.950252    2.158428
| 30> *
| 31>
| 32> $new_job
| 33> ! ri-mp2 aug-cc-pvtz aug-cc-pvtz/c tightscf
| 34> %pal nprocs 16 end
| 35> %maxcore 3800
| 36> %base "TZ_B-Si_2_AB"
| 37>
| 38> *xyz 0 1
| 39> C        -0.444882   -1.537671   -0.251860
| 40> C        -1.668257   -2.133962   -0.169738
| 41> C        -2.824514   -1.359834    0.036764
| 42> C        -2.723943   -0.006321    0.154581
| 43> C        -1.469896    0.638635    0.074353
| 44> C        -0.300467   -0.135868   -0.131984
| 45> H         0.432533   -2.148844   -0.417029
| 46> H        -1.752625   -3.208274   -0.265241
| 47> H        -3.790394   -1.842863    0.100079
| 48> H        -3.608116    0.598666    0.312502
| 49> C         0.968501    0.512617   -0.214698
| 50> C         1.020122    1.877471   -0.086006
| 51> C        -1.355716    2.041294    0.198325
| 52> C        -0.140347    2.647488    0.120078
| 53> H        -2.254416    2.624392    0.356619
| 54> H        -0.057774    3.722212    0.213500
| 55> H         1.973306    2.387447   -0.148716
| 56> B         2.900794   -1.433083    1.268714
| 57> Si         2.579573   -0.429757   -0.440802
| 58> H         2.500730   -1.338938   -1.610626
| 59> H         3.628337    0.579703   -0.715493
| 60> H         2.418577   -2.504322    1.464740
| 61> H         3.528239   -0.950252    2.158428
| 62> *
| 63>
| 64> $new_job
| 65> ! ri-mp2 aug-cc-pvqz aug-cc-pvqz/c tightscf
| 66> %pal nprocs 16 end
| 67> %maxcore 3800
| 68> %base "QZ_B-Si_2_AB"
| 69>
| 70> *xyz 0 1
| 71> C        -0.444882   -1.537671   -0.251860
| 72> C        -1.668257   -2.133962   -0.169738
| 73> C        -2.824514   -1.359834    0.036764
| 74> C        -2.723943   -0.006321    0.154581
| 75> C        -1.469896    0.638635    0.074353
| 76> C        -0.300467   -0.135868   -0.131984
| 77> H         0.432533   -2.148844   -0.417029
| 78> H        -1.752625   -3.208274   -0.265241
| 79> H        -3.790394   -1.842863    0.100079
| 80> H        -3.608116    0.598666    0.312502
| 81> C         0.968501    0.512617   -0.214698
| 82> C         1.020122    1.877471   -0.086006
| 83> C        -1.355716    2.041294    0.198325
| 84> C        -0.140347    2.647488    0.120078
| 85> H        -2.254416    2.624392    0.356619
| 86> H        -0.057774    3.722212    0.213500
| 87> H         1.973306    2.387447   -0.148716
| 88> B         2.900794   -1.433083    1.268714
| 89> Si         2.579573   -0.429757   -0.440802
| 90> H         2.500730   -1.338938   -1.610626
| 91> H         3.628337    0.579703   -0.715493
| 92> H         2.418577   -2.504322    1.464740
| 93> H         3.528239   -0.950252    2.158428
| 94> *
| 95>
| 96>
| 97>
| 98>
| 99>                          ****END OF INPUT****
 Total Charge           Charge          ....    0
 Multiplicity           Mult            ....    1
 Number of Electrons    NEL             ....   90
MP2 TOTAL ENERGY:     -700.250642684 Eh
FINAL SINGLE POINT ENERGY      -700.250642684020
MP2 TOTAL ENERGY:     -700.642664586 Eh
FINAL SINGLE POINT ENERGY      -700.642664586181

CARTESIAN COORDINATES (ANGSTROEM)
---------------------------------
  C     -0.444882   -1.537671   -0.251860
  C     -1.668257   -2.133962   -0.169738
  C     -2.824514   -1.359834    0.036764
  C     -2.723943   -0.006321    0.154581
  C     -1.469896    0.638635    0.074353
  C     -0.300467   -0.135868   -0.131984
  H      0.432533   -2.148844   -0.417029
  H     -1.752625   -3.208274   -0.265241
  H     -3.790394   -1.842863    0.100079
  H     -3.608116    0.598666    0.312502
  C      0.968501    0.512617   -0.214698
  C      1.020122    1.877471   -0.086006
  C     -1.355716    2.041294    0.198325
  C     -0.140347    2.647488    0.120078
  H     -2.254416    2.624392    0.356619
  H     -0.057774    3.722212    0.213500
  H      1.973306    2.387447   -0.148716
  B      2.900794   -1.433083    1.268714
  Si     2.579573   -0.429757   -0.440802
  H      2.500730   -1.338938   -1.610626
  H      3.628337    0.579703   -0.715493
  H      2.418577   -2.504322    1.464740
  H      3.528239   -0.950252    2.158428

 Multiplicity           Mult            ....    1
 Number of Electrons    NEL             ....   90
 Basis Dimension        Dim             .... 1470

ORBITAL ENERGIES
----------------

  NO   OCC          E(Eh)            E(eV)
   0   2.0000     -68.753021     -1870.8648
   1   2.0000     -11.246300      -306.0274
   2   2.0000     -11.242515      -305.9244
   3   2.0000     -11.239144      -305.8327
   4   2.0000     -11.238810      -305.8236
   5   2.0000     -11.236627      -305.7642
   6   2.0000     -11.236214      -305.7529
   7   2.0000     -11.234646      -305.7103
   8   2.0000     -11.234154      -305.6969
   9   2.0000     -11.233819      -305.6878
  10   2.0000     -11.225423      -305.4593
  11   2.0000      -7.606995      -206.9969
  12   2.0000      -6.104388      -166.1088
  13   2.0000      -4.210775      -114.5810
  14   2.0000      -4.210564      -114.5753
  15   2.0000      -4.210280      -114.5675
  16   2.0000      -1.183515       -32.2051
  17   2.0000      -1.116717       -30.3874
  18   2.0000      -1.055204       -28.7136
  19   2.0000      -1.014020       -27.5929
  20   2.0000      -0.986414       -26.8417
  21   2.0000      -0.857054       -23.3216
  22   2.0000      -0.841976       -22.9113
  23   2.0000      -0.820858       -22.3367
  24   2.0000      -0.736515       -20.0416
  25   2.0000      -0.708193       -19.2709
  26   2.0000      -0.697813       -18.9885
  27   2.0000      -0.681946       -18.5567
  28   2.0000      -0.646400       -17.5894
  29   2.0000      -0.620162       -16.8755
  30   2.0000      -0.605533       -16.4774
  31   2.0000      -0.588626       -16.0173
  32   2.0000      -0.569778       -15.5044
  33   2.0000      -0.551911       -15.0183
  34   2.0000      -0.541942       -14.7470
  35   2.0000      -0.515163       -14.0183
  36   2.0000      -0.504871       -13.7382
  37   2.0000      -0.490652       -13.3513
  38   2.0000      -0.462329       -12.5806
  39   2.0000      -0.460025       -12.5179
  40   2.0000      -0.446596       -12.1525
  41   2.0000      -0.417035       -11.3481
  42   2.0000      -0.380810       -10.3624
  43   2.0000      -0.324539        -8.8312
  44   2.0000      -0.294600        -8.0165
  45   0.0000       0.021259         0.5785
  46   0.0000       0.024233         0.6594
  47   0.0000       0.025679         0.6988
  48   0.0000       0.031806         0.8655
  49   0.0000       0.033060         0.8996

MULLIKEN ATOMIC CHARGES
-----------------------
   0 C :   -0.457447
   1 C :   -0.572413
   2 C :   -0.364101
   3 C :   -0.543169
   4 C :    0.938913
   5 C :    1.032869
   6 H :    0.265170
   7 H :    0.204919
   8 H :    0.295107
   9 H :    0.165338
  10 C :    0.007277
  11 C :   -0.921998
  12 C :   -0.769594
  13 C :   -0.285540
  14 H :    0.208174
  15 H :    0.270757
  16 H :    0.286418
  17 B :    0.366378
  18 Si:    1.134073
  19 H :   -0.245078
  20 H :   -0.551402
  21 H :   -0.219376
  22 H :   -0.245272
Sum of atomic charges:   -0.0000000

LOEWDIN ATOMIC CHARGES
----------------------
   0 C :    0.320956
   1 C :    0.365201
   2 C :    0.356625
   3 C :    0.355167
   4 C :   -0.113157
   5 C :   -0.163234
   6 H :   -0.377744
   7 H :   -0.316162
   8 H :   -0.320659
   9 H :   -0.318588
  10 C :   -0.081443
  11 C :    0.266060
  12 C :    0.358712
  13 C :    0.365089
  14 H :   -0.315846
  15 H :   -0.318509
  16 H :   -0.351000
  17 B :    0.386412
  18 Si:    0.834920
  19 H :   -0.216888
  20 H :   -0.226462
  21 H :   -0.242323
  22 H :   -0.247125

  Mayer bond orders larger than 0.100000
B(  0-C ,  1-C ) :   1.3097 B(  0-C ,  3-C ) :   0.1150 B(  0-C ,  4-C ) :  -0.2339
B(  0-C ,  5-C ) :   0.6243 B(  0-C ,  6-H ) :   0.9772 B(  0-C ,  7-H ) :  -0.1783
B(  1-C ,  2-C ) :   1.1526 B(  1-C ,  3-C ) :   0.1314 B(  1-C ,  5-C ) :  -0.2752
B(  1-C ,  7-H ) :   1.1954 B(  2-C ,  3-C ) :   1.2756 B(  2-C ,  4-C ) :  -0.2948
B(  2-C ,  8-H ) :   1.1009 B(  3-C ,  4-C ) :   0.7256 B(  3-C ,  5-C ) :  -0.3643
B(  3-C ,  8-H ) :  -0.2155 B(  3-C ,  9-H ) :   1.1539 B(  3-C , 12-C ) :  -0.1402
B(  4-C ,  5-C ) :   0.7813 B(  4-C ,  9-H ) :  -0.1659 B(  4-C , 10-C ) :  -0.5865
B(  4-C , 12-C ) :   0.5233 B(  4-C , 13-C ) :  -0.3647 B(  4-C , 14-H ) :  -0.1463
B(  5-C ,  6-H ) :  -0.2250 B(  5-C , 11-C ) :   0.1555 B(  5-C , 18-Si) :  -0.3778
B(  6-H , 10-C ) :   0.1499 B( 10-C , 11-C ) :   0.9368 B( 10-C , 13-C ) :  -0.3178
B( 10-C , 16-H ) :  -0.1529 B( 10-C , 17-B ) :  -0.1020 B( 10-C , 18-Si) :   1.1925
B( 10-C , 20-H ) :  -0.1464 B( 11-C , 12-C ) :   0.4653 B( 11-C , 13-C ) :   1.1902
B( 11-C , 15-H ) :  -0.1787 B( 11-C , 16-H ) :   0.9356 B( 11-C , 18-Si) :  -0.1096
B( 12-C , 13-C ) :   1.3249 B( 12-C , 14-H ) :   1.0927 B( 12-C , 15-H ) :  -0.2445
B( 13-C , 15-H ) :   1.1637 B( 17-B , 18-Si) :   0.8898 B( 17-B , 21-H ) :   0.9125
B( 17-B , 22-H ) :   0.9252 B( 18-Si, 19-H ) :   0.7019 B( 18-Si, 20-H ) :   0.4218

MP2 TOTAL ENERGY:     -700.767050272 Eh
FINAL SINGLE POINT ENERGY      -700.767050271914

DIPOLE MOMENT
-------------
                                X             Y             Z
Electronic contribution:     -0.77474       0.96587      -0.33757
Nuclear contribution   :      0.52104      -0.89455       0.45035
                        -----------------------------------------
Total Dipole Moment    :     -0.25370       0.07132       0.11278
                        -----------------------------------------
Magnitude (a.u.)       :      0.28665
Magnitude (Debye)      :      0.72861

Rotational constants in cm-1:     0.041242     0.024572     0.016494
Rotational constants in MHz :  1236.392300   736.658516   494.473312

                             ****ORCA TERMINATED NORMALLY****
TOTAL RUN TIME: 0 days 1 hours 44 minutes 51 seconds 665 msec
