                         Program Version 5.0.4 -  RELEASE  -
|  1> ! ri-mp2 aug-cc-pvdz aug-cc-pvdz/c tightscf
|  2> %pal nprocs 16 end
|  3> %maxcore 3800
|  4> %base "DZ_P-Si_32_AB"
|  5>
|  6> *xyz 0 1
|  7> Si        -0.608816   -1.137822   -0.213750
|  8> N        -1.950788    0.155827    0.016994
|  9> P         1.332201   -0.003196   -0.033641
| 10> O        -1.667840    1.333965   -0.176521
| 11> O        -3.056152   -0.230529    0.316506
| 12> O         2.503536   -0.768952   -0.447395
| 13> O         1.082104    1.325989   -0.843491
| 14> H         0.203482    1.712945   -0.665779
| 15> O         1.329453    0.429055    1.504558
| 16> H         2.159177    0.221684    1.953438
| 17> H        -0.854991   -1.629397   -1.575257
| 18> H        -0.840550   -2.134802    0.836495
| 19> *
| 20>
| 21> $new_job
| 22> ! ri-mp2 aug-cc-pvtz aug-cc-pvtz/c tightscf
| 23> %pal nprocs 16 end
| 24> %maxcore 3800
| 25> %base "TZ_P-Si_32_AB"
| 26>
| 27> *xyz 0 1
| 28> Si        -0.608816   -1.137822   -0.213750
| 29> N        -1.950788    0.155827    0.016994
| 30> P         1.332201   -0.003196   -0.033641
| 31> O        -1.667840    1.333965   -0.176521
| 32> O        -3.056152   -0.230529    0.316506
| 33> O         2.503536   -0.768952   -0.447395
| 34> O         1.082104    1.325989   -0.843491
| 35> H         0.203482    1.712945   -0.665779
| 36> O         1.329453    0.429055    1.504558
| 37> H         2.159177    0.221684    1.953438
| 38> H        -0.854991   -1.629397   -1.575257
| 39> H        -0.840550   -2.134802    0.836495
| 40> *
| 41>
| 42> $new_job
| 43> ! ri-mp2 aug-cc-pvqz aug-cc-pvqz/c tightscf
| 44> %pal nprocs 16 end
| 45> %maxcore 3800
| 46> %base "QZ_P-Si_32_AB"
| 47>
| 48> *xyz 0 1
| 49> Si        -0.608816   -1.137822   -0.213750
| 50> N        -1.950788    0.155827    0.016994
| 51> P         1.332201   -0.003196   -0.033641
| 52> O        -1.667840    1.333965   -0.176521
| 53> O        -3.056152   -0.230529    0.316506
| 54> O         2.503536   -0.768952   -0.447395
| 55> O         1.082104    1.325989   -0.843491
| 56> H         0.203482    1.712945   -0.665779
| 57> O         1.329453    0.429055    1.504558
| 58> H         2.159177    0.221684    1.953438
| 59> H        -0.854991   -1.629397   -1.575257
| 60> H        -0.840550   -2.134802    0.836495
| 61> *
| 62>
| 63>
| 64>
| 65>
| 66>                          ****END OF INPUT****
 Total Charge           Charge          ....    0
 Multiplicity           Mult            ....    1
 Number of Electrons    NEL             ....   80
MP2 TOTAL ENERGY:    -1062.192030678 Eh
FINAL SINGLE POINT ENERGY     -1062.192030677706
MP2 TOTAL ENERGY:    -1062.662311471 Eh
FINAL SINGLE POINT ENERGY     -1062.662311471128

CARTESIAN COORDINATES (ANGSTROEM)
---------------------------------
  Si    -0.608816   -1.137822   -0.213750
  N     -1.950788    0.155827    0.016994
  P      1.332201   -0.003196   -0.033641
  O     -1.667840    1.333965   -0.176521
  O     -3.056152   -0.230529    0.316506
  O      2.503536   -0.768952   -0.447395
  O      1.082104    1.325989   -0.843491
  H      0.203482    1.712945   -0.665779
  O      1.329453    0.429055    1.504558
  H      2.159177    0.221684    1.953438
  H     -0.854991   -1.629397   -1.575257
  H     -0.840550   -2.134802    0.836495

 Multiplicity           Mult            ....    1
 Number of Electrons    NEL             ....   80
 Basis Dimension        Dim             ....  832

ORBITAL ENERGIES
----------------

  NO   OCC          E(Eh)            E(eV)
   0   2.0000     -80.090141     -2179.3635
   1   2.0000     -68.864649     -1873.9024
   2   2.0000     -20.635505      -561.5206
   3   2.0000     -20.626729      -561.2818
   4   2.0000     -20.621423      -561.1374
   5   2.0000     -20.611014      -560.8542
   6   2.0000     -20.529084      -558.6248
   7   2.0000     -15.845635      -431.1817
   8   2.0000      -7.613147      -207.1643
   9   2.0000      -6.212947      -169.0629
  10   2.0000      -5.511176      -149.9667
  11   2.0000      -5.510713      -149.9541
  12   2.0000      -5.509914      -149.9324
  13   2.0000      -4.319580      -117.5418
  14   2.0000      -4.318266      -117.5060
  15   2.0000      -4.318199      -117.5042
  16   2.0000      -1.628483       -44.3133
  17   2.0000      -1.455735       -39.6126
  18   2.0000      -1.426854       -38.8267
  19   2.0000      -1.403003       -38.1776
  20   2.0000      -1.321223       -35.9523
  21   2.0000      -0.986266       -26.8377
  22   2.0000      -0.872359       -23.7381
  23   2.0000      -0.834908       -22.7190
  24   2.0000      -0.775991       -21.1158
  25   2.0000      -0.751701       -20.4548
  26   2.0000      -0.735938       -20.0259
  27   2.0000      -0.727877       -19.8065
  28   2.0000      -0.676359       -18.4047
  29   2.0000      -0.661605       -18.0032
  30   2.0000      -0.637154       -17.3378
  31   2.0000      -0.588487       -16.0135
  32   2.0000      -0.568066       -15.4579
  33   2.0000      -0.550410       -14.9774
  34   2.0000      -0.531422       -14.4607
  35   2.0000      -0.529009       -14.3951
  36   2.0000      -0.496730       -13.5167
  37   2.0000      -0.491148       -13.3648
  38   2.0000      -0.483423       -13.1546
  39   2.0000      -0.448347       -12.2001
  40   0.0000       0.019159         0.5214
  41   0.0000       0.028093         0.7644
  42   0.0000       0.034704         0.9443
  43   0.0000       0.037538         1.0215
  44   0.0000       0.044877         1.2212

MULLIKEN ATOMIC CHARGES
-----------------------
   0 Si:    0.894919
   1 N :    0.679601
   2 P :    2.122028
   3 O :   -0.626040
   4 O :   -0.570041
   5 O :   -1.188560
   6 O :   -0.887849
   7 H :    0.374200
   8 O :   -0.884752
   9 H :    0.376463
  10 H :   -0.147484
  11 H :   -0.142485
Sum of atomic charges:   -0.0000000

LOEWDIN ATOMIC CHARGES
----------------------
   0 Si:    0.660935
   1 N :   -0.892288
   2 P :   -0.662691
   3 O :    0.511135
   4 O :    0.455873
   5 O :    0.240972
   6 O :    1.059455
   7 H :   -1.076965
   8 O :    1.056526
   9 H :   -0.865709
  10 H :   -0.242688
  11 H :   -0.244555

  Mayer bond orders larger than 0.100000
B(  0-Si,  1-N ) :   0.3612 B(  0-Si,  2-P ) :   0.9366 B(  0-Si, 10-H ) :   0.8659
B(  0-Si, 11-H ) :   0.8901 B(  1-N ,  3-O ) :   1.2358 B(  1-N ,  4-O ) :   1.3789
B(  2-P ,  5-O ) :   1.3335 B(  2-P ,  6-O ) :   0.6972 B(  2-P ,  8-O ) :   0.6620
B(  3-O ,  4-O ) :   0.1471 B(  5-O ,  6-O ) :  -0.1066 B(  6-O ,  7-H ) :   0.8543
B(  8-O ,  9-H ) :   0.9095

MP2 TOTAL ENERGY:    -1062.818447366 Eh
FINAL SINGLE POINT ENERGY     -1062.818447366300

DIPOLE MOMENT
-------------
                                X             Y             Z
Electronic contribution:      0.39428       0.97822       0.00521
Nuclear contribution   :     -0.54813      -1.64846       0.57345
                        -----------------------------------------
Total Dipole Moment    :     -0.15384      -0.67024       0.57866
                        -----------------------------------------
Magnitude (a.u.)       :      0.89874
Magnitude (Debye)      :      2.28442

Rotational constants in cm-1:     0.094473     0.031935     0.028917
Rotational constants in MHz :  2832.217696   957.401075   866.905959

                             ****ORCA TERMINATED NORMALLY****
TOTAL RUN TIME: 0 days 0 hours 14 minutes 15 seconds 559 msec
