                         Program Version 5.0.4 -  RELEASE  -
|  1> ! ri-mp2 aug-cc-pvdz aug-cc-pvdz/c tightscf
|  2> %pal nprocs 16 end
|  3> %maxcore 3800
|  4> %base "DZ_B-Cl_75_AB"
|  5> %scf
|  6> STABPerform true
|  7> STABRestartUHFifUnstable true
|  8> end
|  9>
| 10> *xyz 0 1
| 11> C         1.890048   -1.187893   -0.781708
| 12> C         3.238097   -0.478109   -0.807490
| 13> C         3.553785    0.165116    0.537377
| 14> C         2.433483    1.099762    0.976723
| 15> C         1.088458    0.384463    0.996337
| 16> C        -0.578555   -0.992014   -0.302280
| 17> C         0.759295   -0.256745   -0.350671
| 18> B        -1.867622   -0.142636   -0.122949
| 19> Cl        -1.994206    1.495210   -0.735772
| 20> Cl        -3.290461   -0.827176    0.638312
| 21> H         1.937538   -2.032152   -0.084503
| 22> H         1.665849   -1.609643   -1.764649
| 23> H         3.220988    0.296503   -1.581042
| 24> H         4.026374   -1.179554   -1.087572
| 25> H         4.500539    0.706181    0.485838
| 26> H         3.682718   -0.619907    1.289842
| 27> H         2.378293    1.946703    0.285330
| 28> H         2.650745    1.516496    1.962033
| 29> H         0.298759    1.083054    1.282658
| 30> H         1.105479   -0.399659    1.762053
| 31> H        -0.550216   -1.778058    0.457223
| 32> H        -0.733326   -1.525662   -1.252228
| 33> H         0.686046    0.544825   -1.093150
| 34> *
| 35>
| 36> $new_job
| 37> ! ri-mp2 aug-cc-pvtz aug-cc-pvtz/c tightscf
| 38> %pal nprocs 16 end
| 39> %maxcore 3800
| 40> %base "TZ_B-Cl_75_AB"
| 41>
| 42> *xyz 0 1
| 43> C         1.890048   -1.187893   -0.781708
| 44> C         3.238097   -0.478109   -0.807490
| 45> C         3.553785    0.165116    0.537377
| 46> C         2.433483    1.099762    0.976723
| 47> C         1.088458    0.384463    0.996337
| 48> C        -0.578555   -0.992014   -0.302280
| 49> C         0.759295   -0.256745   -0.350671
| 50> B        -1.867622   -0.142636   -0.122949
| 51> Cl        -1.994206    1.495210   -0.735772
| 52> Cl        -3.290461   -0.827176    0.638312
| 53> H         1.937538   -2.032152   -0.084503
| 54> H         1.665849   -1.609643   -1.764649
| 55> H         3.220988    0.296503   -1.581042
| 56> H         4.026374   -1.179554   -1.087572
| 57> H         4.500539    0.706181    0.485838
| 58> H         3.682718   -0.619907    1.289842
| 59> H         2.378293    1.946703    0.285330
| 60> H         2.650745    1.516496    1.962033
| 61> H         0.298759    1.083054    1.282658
| 62> H         1.105479   -0.399659    1.762053
| 63> H        -0.550216   -1.778058    0.457223
| 64> H        -0.733326   -1.525662   -1.252228
| 65> H         0.686046    0.544825   -1.093150
| 66> *
| 67>
| 68> $new_job
| 69> ! ri-mp2 aug-cc-pvqz aug-cc-pvqz/c tightscf
| 70> %pal nprocs 16 end
| 71> %maxcore 3800
| 72> %base "QZ_B-Cl_75_AB"
| 73>
| 74> *xyz 0 1
| 75> C         1.890048   -1.187893   -0.781708
| 76> C         3.238097   -0.478109   -0.807490
| 77> C         3.553785    0.165116    0.537377
| 78> C         2.433483    1.099762    0.976723
| 79> C         1.088458    0.384463    0.996337
| 80> C        -0.578555   -0.992014   -0.302280
| 81> C         0.759295   -0.256745   -0.350671
| 82> B        -1.867622   -0.142636   -0.122949
| 83> Cl        -1.994206    1.495210   -0.735772
| 84> Cl        -3.290461   -0.827176    0.638312
| 85> H         1.937538   -2.032152   -0.084503
| 86> H         1.665849   -1.609643   -1.764649
| 87> H         3.220988    0.296503   -1.581042
| 88> H         4.026374   -1.179554   -1.087572
| 89> H         4.500539    0.706181    0.485838
| 90> H         3.682718   -0.619907    1.289842
| 91> H         2.378293    1.946703    0.285330
| 92> H         2.650745    1.516496    1.962033
| 93> H         0.298759    1.083054    1.282658
| 94> H         1.105479   -0.399659    1.762053
| 95> H        -0.550216   -1.778058    0.457223
| 96> H        -0.733326   -1.525662   -1.252228
| 97> H         0.686046    0.544825   -1.093150
| 98> *
| 99>
|100>
|101>
|102>
|103>                          ****END OF INPUT****
 Total Charge           Charge          ....    0
 Multiplicity           Mult            ....    1
 Number of Electrons    NEL             ....   94
MP2 TOTAL ENERGY:    -1217.890872630 Eh
FINAL SINGLE POINT ENERGY     -1217.890872629814
MP2 TOTAL ENERGY:    -1218.287261179 Eh
FINAL SINGLE POINT ENERGY     -1218.287261178889

CARTESIAN COORDINATES (ANGSTROEM)
---------------------------------
  C      1.890048   -1.187893   -0.781708
  C      3.238097   -0.478109   -0.807490
  C      3.553785    0.165116    0.537377
  C      2.433483    1.099762    0.976723
  C      1.088458    0.384463    0.996337
  C     -0.578555   -0.992014   -0.302280
  C      0.759295   -0.256745   -0.350671
  B     -1.867622   -0.142636   -0.122949
  Cl    -1.994206    1.495210   -0.735772
  Cl    -3.290461   -0.827176    0.638312
  H      1.937538   -2.032152   -0.084503
  H      1.665849   -1.609643   -1.764649
  H      3.220988    0.296503   -1.581042
  H      4.026374   -1.179554   -1.087572
  H      4.500539    0.706181    0.485838
  H      3.682718   -0.619907    1.289842
  H      2.378293    1.946703    0.285330
  H      2.650745    1.516496    1.962033
  H      0.298759    1.083054    1.282658
  H      1.105479   -0.399659    1.762053
  H     -0.550216   -1.778058    0.457223
  H     -0.733326   -1.525662   -1.252228
  H      0.686046    0.544825   -1.093150

 Multiplicity           Mult            ....    1
 Number of Electrons    NEL             ....   94
 Basis Dimension        Dim             .... 1406

ORBITAL ENERGIES
----------------

  NO   OCC          E(Eh)            E(eV)
   0   2.0000    -104.837335     -2852.7689
   1   2.0000    -104.836672     -2852.7509
   2   2.0000     -11.228113      -305.5325
   3   2.0000     -11.217291      -305.2380
   4   2.0000     -11.216681      -305.2214
   5   2.0000     -11.215969      -305.2020
   6   2.0000     -11.215556      -305.1908
   7   2.0000     -11.215345      -305.1850
   8   2.0000     -11.214475      -305.1614
   9   2.0000     -10.565325      -287.4971
  10   2.0000     -10.564568      -287.4765
  11   2.0000      -8.032143      -218.5657
  12   2.0000      -8.031384      -218.5451
  13   2.0000      -8.031117      -218.5378
  14   2.0000      -8.030852      -218.5306
  15   2.0000      -8.030353      -218.5170
  16   2.0000      -8.030085      -218.5097
  17   2.0000      -7.703930      -209.6346
  18   2.0000      -1.146000       -31.1843
  19   2.0000      -1.127847       -30.6903
  20   2.0000      -1.095951       -29.8224
  21   2.0000      -1.041948       -28.3528
  22   2.0000      -1.008639       -27.4465
  23   2.0000      -0.934993       -25.4424
  24   2.0000      -0.837476       -22.7889
  25   2.0000      -0.811949       -22.0942
  26   2.0000      -0.758861       -20.6497
  27   2.0000      -0.674707       -18.3597
  28   2.0000      -0.653107       -17.7719
  29   2.0000      -0.620603       -16.8875
  30   2.0000      -0.609988       -16.5986
  31   2.0000      -0.605594       -16.4790
  32   2.0000      -0.581389       -15.8204
  33   2.0000      -0.576029       -15.6745
  34   2.0000      -0.543075       -14.7778
  35   2.0000      -0.530632       -14.4392
  36   2.0000      -0.520619       -14.1668
  37   2.0000      -0.511841       -13.9279
  38   2.0000      -0.496432       -13.5086
  39   2.0000      -0.486056       -13.2263
  40   2.0000      -0.475324       -12.9342
  41   2.0000      -0.465423       -12.6648
  42   2.0000      -0.460303       -12.5255
  43   2.0000      -0.455194       -12.3865
  44   2.0000      -0.448578       -12.2064
  45   2.0000      -0.430798       -11.7226
  46   2.0000      -0.422936       -11.5087
  47   0.0000       0.022680         0.6171
  48   0.0000       0.027769         0.7556
  49   0.0000       0.028850         0.7850
  50   0.0000       0.029914         0.8140
  51   0.0000       0.041730         1.1355

MULLIKEN ATOMIC CHARGES
-----------------------
   0 C :   -0.514133
   1 C :   -0.515290
   2 C :   -0.456002
   3 C :   -0.487356
   4 C :   -0.363281
   5 C :   -0.682359
   6 C :    0.437555
   7 B :    0.726194
   8 Cl:   -0.346648
   9 Cl:   -0.303923
  10 H :    0.135391
  11 H :    0.232999
  12 H :    0.135463
  13 H :    0.224798
  14 H :    0.250611
  15 H :    0.093376
  16 H :    0.129340
  17 H :    0.219090
  18 H :    0.241222
  19 H :    0.190480
  20 H :    0.219149
  21 H :    0.214097
  22 H :    0.219226
Sum of atomic charges:    0.0000000

LOEWDIN ATOMIC CHARGES
----------------------
   0 C :    0.533202
   1 C :    0.544385
   2 C :    0.536817
   3 C :    0.547360
   4 C :    0.513443
   5 C :    0.444948
   6 C :    0.059145
   7 B :   -2.274923
   8 Cl:    1.328439
   9 Cl:    1.283864
  10 H :   -0.256476
  11 H :   -0.253671
  12 H :   -0.259922
  13 H :   -0.256637
  14 H :   -0.257998
  15 H :   -0.261773
  16 H :   -0.258289
  17 H :   -0.255237
  18 H :   -0.278380
  19 H :   -0.253957
  20 H :   -0.323021
  21 H :   -0.299626
  22 H :   -0.301693

  Mayer bond orders larger than 0.100000
B(  0-C ,  1-C ) :   0.8919 B(  0-C ,  5-C ) :   0.1228 B(  0-C ,  6-C ) :   0.4762
B(  0-C , 10-H ) :   1.0590 B(  0-C , 11-H ) :   0.9902 B(  1-C ,  2-C ) :   0.8752
B(  1-C ,  6-C ) :  -0.1067 B(  1-C , 12-H ) :   1.0476 B(  1-C , 13-H ) :   1.0149
B(  2-C ,  3-C ) :   0.8693 B(  2-C , 14-H ) :   0.9546 B(  2-C , 15-H ) :   1.0790
B(  3-C ,  4-C ) :   0.7997 B(  3-C , 16-H ) :   1.0517 B(  3-C , 17-H ) :   1.0240
B(  4-C ,  6-C ) :   0.7287 B(  4-C , 18-H ) :   0.9344 B(  4-C , 19-H ) :   0.9680
B(  5-C ,  6-C ) :   0.7060 B(  5-C ,  7-B ) :   1.1500 B(  5-C , 20-H ) :   0.9104
B(  5-C , 21-H ) :   0.9727 B(  6-C , 10-H ) :  -0.1079 B(  6-C , 22-H ) :   0.9546
B(  7-B ,  8-Cl) :   0.8944 B(  7-B ,  9-Cl) :   0.8271

MP2 TOTAL ENERGY:    -1218.412753363 Eh
FINAL SINGLE POINT ENERGY     -1218.412753363417

DIPOLE MOMENT
-------------
                                X             Y             Z
Electronic contribution:    -32.80593       3.57361      -0.97127
Nuclear contribution   :     33.48794      -3.84037       0.88847
                        -----------------------------------------
Total Dipole Moment    :      0.68200      -0.26676      -0.08280
                        -----------------------------------------
Magnitude (a.u.)       :      0.73698
Magnitude (Debye)      :      1.87326

Rotational constants in cm-1:     0.061534     0.014615     0.013679
Rotational constants in MHz :  1844.728567   438.139644   410.086184

                             ****ORCA TERMINATED NORMALLY****
TOTAL RUN TIME: 0 days 7 hours 59 minutes 17 seconds 404 msec
