                         Program Version 5.0.4 -  RELEASE  -
|  1> ! ri-mp2 aug-cc-pvdz aug-cc-pvdz/c tightscf
|  2> %pal nprocs 16 end
|  3> %maxcore 3800
|  4> %base "DZ_B-F_78_A"
|  5> %scf
|  6> STABPerform true
|  7> STABRestartUHFifUnstable true
|  8> end
|  9>
| 10> *xyz 0 2
| 11> B         1.281974    0.042616   -0.000011
| 12> F         2.546682   -0.245678    0.000037
| 13> N         0.073863    0.329809   -0.000004
| 14> C        -1.239592    0.593378   -0.000041
| 15> C        -2.231052   -0.511597   -0.000024
| 16> H        -2.113995   -1.154831    0.878814
| 17> H        -2.113337   -1.155401   -0.878344
| 18> H        -3.247426   -0.120990   -0.000512
| 19> H        -1.548435    1.629898    0.000181
| 20> *
| 21>
| 22> $new_job
| 23> ! ri-mp2 aug-cc-pvtz aug-cc-pvtz/c tightscf
| 24> %pal nprocs 16 end
| 25> %maxcore 3800
| 26> %base "TZ_B-F_78_A"
| 27>
| 28> *xyz 0 2
| 29> B         1.281974    0.042616   -0.000011
| 30> F         2.546682   -0.245678    0.000037
| 31> N         0.073863    0.329809   -0.000004
| 32> C        -1.239592    0.593378   -0.000041
| 33> C        -2.231052   -0.511597   -0.000024
| 34> H        -2.113995   -1.154831    0.878814
| 35> H        -2.113337   -1.155401   -0.878344
| 36> H        -3.247426   -0.120990   -0.000512
| 37> H        -1.548435    1.629898    0.000181
| 38> *
| 39>
| 40> $new_job
| 41> ! ri-mp2 aug-cc-pvqz aug-cc-pvqz/c tightscf
| 42> %pal nprocs 16 end
| 43> %maxcore 3800
| 44> %base "QZ_B-F_78_A"
| 45>
| 46> *xyz 0 2
| 47> B         1.281974    0.042616   -0.000011
| 48> F         2.546682   -0.245678    0.000037
| 49> N         0.073863    0.329809   -0.000004
| 50> C        -1.239592    0.593378   -0.000041
| 51> C        -2.231052   -0.511597   -0.000024
| 52> H        -2.113995   -1.154831    0.878814
| 53> H        -2.113337   -1.155401   -0.878344
| 54> H        -3.247426   -0.120990   -0.000512
| 55> H        -1.548435    1.629898    0.000181
| 56> *
| 57>
| 58>
| 59>
| 60>
| 61>                          ****END OF INPUT****
 Total Charge           Charge          ....    0
 Multiplicity           Mult            ....    2
 Number of Electrons    NEL             ....   37
MP2 TOTAL ENERGY:     -257.390943565 Eh
FINAL SINGLE POINT ENERGY      -257.390943565156
MP2 TOTAL ENERGY:     -257.618821719 Eh
FINAL SINGLE POINT ENERGY      -257.618821718788

CARTESIAN COORDINATES (ANGSTROEM)
---------------------------------
  B      1.281974    0.042616   -0.000011
  F      2.546682   -0.245678    0.000037
  N      0.073863    0.329809   -0.000004
  C     -1.239592    0.593378   -0.000041
  C     -2.231052   -0.511597   -0.000024
  H     -2.113995   -1.154831    0.878814
  H     -2.113337   -1.155401   -0.878344
  H     -3.247426   -0.120990   -0.000512
  H     -1.548435    1.629898    0.000181

 Multiplicity           Mult            ....    2
 Number of Electrons    NEL             ....   37
 Basis Dimension        Dim             ....  584

ORBITAL ENERGIES
----------------
                 SPIN UP ORBITALS
  NO   OCC          E(Eh)            E(eV)
   0   1.0000     -26.348814      -716.9877
   1   1.0000     -15.544608      -422.9903
   2   1.0000     -11.260240      -306.4067
   3   1.0000     -11.216095      -305.2055
   4   1.0000      -7.675535      -208.8619
   5   1.0000      -1.662113       -45.2284
   6   1.0000      -1.190870       -32.4052
   7   1.0000      -1.002401       -27.2767
   8   1.0000      -0.860221       -23.4078
   9   1.0000      -0.807765       -21.9804
  10   1.0000      -0.732168       -19.9233
  11   1.0000      -0.726541       -19.7702
  12   1.0000      -0.681646       -18.5485
  13   1.0000      -0.594401       -16.1745
  14   1.0000      -0.592888       -16.1333
  15   1.0000      -0.532206       -14.4821
  16   1.0000      -0.487032       -13.2528
  17   1.0000      -0.406528       -11.0622
  18   1.0000      -0.283678        -7.7193
  19   0.0000       0.024213         0.6589
  20   0.0000       0.033281         0.9056
  21   0.0000       0.034773         0.9462
  22   0.0000       0.037382         1.0172
  23   0.0000       0.048943         1.3318

                 SPIN DOWN ORBITALS
  NO   OCC          E(Eh)            E(eV)
   0   1.0000     -26.347664      -716.9564
   1   1.0000     -15.553017      -423.2191
   2   1.0000     -11.237048      -305.7756
   3   1.0000     -11.219392      -305.2952
   4   1.0000      -7.670681      -208.7299
   5   1.0000      -1.659455       -45.1561
   6   1.0000      -1.185209       -32.2512
   7   1.0000      -0.985510       -26.8171
   8   1.0000      -0.830619       -22.6023
   9   1.0000      -0.805601       -21.9215
  10   1.0000      -0.723883       -19.6978
  11   1.0000      -0.718939       -19.5633
  12   1.0000      -0.666147       -18.1268
  13   1.0000      -0.585186       -15.9237
  14   1.0000      -0.556184       -15.1345
  15   1.0000      -0.529423       -14.4063
  16   1.0000      -0.465117       -12.6565
  17   1.0000      -0.414992       -11.2925
  18   0.0000       0.024739         0.6732
  19   0.0000       0.033447         0.9101
  20   0.0000       0.034948         0.9510
  21   0.0000       0.037347         1.0163
  22   0.0000       0.049114         1.3365

MULLIKEN ATOMIC CHARGES AND SPIN POPULATIONS
--------------------------------------------
   0 B :    0.893652    0.278532
   1 F :   -0.900720    0.000529
   2 N :   -0.252294   -0.186016
   3 C :   -0.273959    1.034110
   4 C :   -0.751308   -0.156569
   5 H :    0.256592    0.049209
   6 H :    0.256540    0.049137
   7 H :    0.282554    0.002487
   8 H :    0.488944   -0.071419
Sum of atomic charges         :    0.0000000

LOEWDIN ATOMIC CHARGES AND SPIN POPULATIONS
-------------------------------------------
   0 B :   -0.970173    0.127478
   1 F :    0.793164    0.046498
   2 N :    0.523607    0.117862
   3 C :    0.087816    0.405738
   4 C :    0.851869    0.121409
   5 H :   -0.306381    0.022966
   6 H :   -0.306409    0.022944
   7 H :   -0.318199    0.007236
   8 H :   -0.355294    0.127869

  Mayer bond orders larger than 0.100000
B(  0-B ,  1-F ) :   0.3017 B(  0-B ,  2-N ) :   2.2426 B(  1-F ,  2-N ) :  -0.1620
B(  2-N ,  3-C ) :   0.7481 B(  3-C ,  4-C ) :   1.0097 B(  3-C ,  8-H ) :   0.7849
B(  4-C ,  5-H ) :   0.9115 B(  4-C ,  6-H ) :   0.9117 B(  4-C ,  7-H ) :   0.9684

MP2 TOTAL ENERGY:     -257.691223360 Eh
FINAL SINGLE POINT ENERGY      -257.691223359564

DIPOLE MOMENT
-------------
                                X             Y             Z
Electronic contribution:     12.03716       0.54407      -0.00007
Nuclear contribution   :    -12.15451      -0.57152       0.00011
                        -----------------------------------------
Total Dipole Moment    :     -0.11735      -0.02745       0.00003
                        -----------------------------------------
Magnitude (a.u.)       :      0.12052
Magnitude (Debye)      :      0.30633

Rotational constants in cm-1:     0.994870     0.070011     0.066207
Rotational constants in MHz : 29825.447735  2098.864028  1984.842683

                             ****ORCA TERMINATED NORMALLY****
TOTAL RUN TIME: 0 days 0 hours 40 minutes 6 seconds 92 msec
