                         Program Version 5.0.4 -  RELEASE  -
|  1> ! ri-mp2 aug-cc-pvdz aug-cc-pvdz/c tightscf
|  2> %pal nprocs 16 end
|  3> %maxcore 3800
|  4> %base "DZ_B-Cl_31_AB"
|  5> %scf
|  6> STABPerform true
|  7> STABRestartUHFifUnstable true
|  8> end
|  9>
| 10> *xyz 0 1
| 11> Cl         2.230215   -0.548028   -0.000003
| 12> Cl         0.246823    1.742686    0.000002
| 13> B         0.598766    0.054355   -0.000004
| 14> C        -2.103475   -0.346199    0.000004
| 15> N        -3.110994    0.201692   -0.000002
| 16> S        -0.669104   -1.244726    0.000002
| 17> *
| 18>
| 19> $new_job
| 20> ! ri-mp2 aug-cc-pvtz aug-cc-pvtz/c tightscf
| 21> %pal nprocs 16 end
| 22> %maxcore 3800
| 23> %base "TZ_B-Cl_31_AB"
| 24>
| 25> *xyz 0 1
| 26> Cl         2.230215   -0.548028   -0.000003
| 27> Cl         0.246823    1.742686    0.000002
| 28> B         0.598766    0.054355   -0.000004
| 29> C        -2.103475   -0.346199    0.000004
| 30> N        -3.110994    0.201692   -0.000002
| 31> S        -0.669104   -1.244726    0.000002
| 32> *
| 33>
| 34> $new_job
| 35> ! ri-mp2 aug-cc-pvqz aug-cc-pvqz/c tightscf
| 36> %pal nprocs 16 end
| 37> %maxcore 3800
| 38> %base "QZ_B-Cl_31_AB"
| 39>
| 40> *xyz 0 1
| 41> Cl         2.230215   -0.548028   -0.000003
| 42> Cl         0.246823    1.742686    0.000002
| 43> B         0.598766    0.054355   -0.000004
| 44> C        -2.103475   -0.346199    0.000004
| 45> N        -3.110994    0.201692   -0.000002
| 46> S        -0.669104   -1.244726    0.000002
| 47> *
| 48>
| 49>
| 50>
| 51>
| 52>                          ****END OF INPUT****
 Total Charge           Charge          ....    0
 Multiplicity           Mult            ....    1
 Number of Electrons    NEL             ....   68
MP2 TOTAL ENERGY:    -1434.446321445 Eh
FINAL SINGLE POINT ENERGY     -1434.446321445293
MP2 TOTAL ENERGY:    -1434.710145311 Eh
FINAL SINGLE POINT ENERGY     -1434.710145310674

CARTESIAN COORDINATES (ANGSTROEM)
---------------------------------
  Cl     2.230215   -0.548028   -0.000003
  Cl     0.246823    1.742686    0.000002
  B      0.598766    0.054355   -0.000004
  C     -2.103475   -0.346199    0.000004
  N     -3.110994    0.201692   -0.000002
  S     -0.669104   -1.244726    0.000002

 Multiplicity           Mult            ....    1
 Number of Electrons    NEL             ....   68
 Basis Dimension        Dim             ....  492

ORBITAL ENERGIES
----------------

  NO   OCC          E(Eh)            E(eV)
   0   2.0000    -104.874440     -2853.7786
   1   2.0000    -104.873456     -2853.7518
   2   2.0000     -92.035793     -2504.4212
   3   2.0000     -15.595330      -424.3705
   4   2.0000     -11.308768      -307.7272
   5   2.0000     -10.602060      -288.4967
   6   2.0000     -10.601123      -288.4712
   7   2.0000      -9.039082      -245.9659
   8   2.0000      -8.068904      -219.5660
   9   2.0000      -8.067961      -219.5404
  10   2.0000      -8.067694      -219.5331
  11   2.0000      -8.067494      -219.5277
  12   2.0000      -8.066740      -219.5072
  13   2.0000      -8.066500      -219.5006
  14   2.0000      -7.770454      -211.4448
  15   2.0000      -6.720830      -182.8831
  16   2.0000      -6.719187      -182.8384
  17   2.0000      -6.718766      -182.8269
  18   2.0000      -1.250194       -34.0195
  19   2.0000      -1.182689       -32.1826
  20   2.0000      -1.135949       -30.9108
  21   2.0000      -1.073941       -29.2234
  22   2.0000      -0.759942       -20.6791
  23   2.0000      -0.674948       -18.3663
  24   2.0000      -0.619346       -16.8533
  25   2.0000      -0.595737       -16.2108
  26   2.0000      -0.571306       -15.5460
  27   2.0000      -0.564423       -15.3587
  28   2.0000      -0.532832       -14.4991
  29   2.0000      -0.511113       -13.9081
  30   2.0000      -0.498121       -13.5546
  31   2.0000      -0.483350       -13.1526
  32   2.0000      -0.467853       -12.7309
  33   2.0000      -0.420439       -11.4407
  34   0.0000       0.027255         0.7416
  35   0.0000       0.035944         0.9781
  36   0.0000       0.036740         0.9998
  37   0.0000       0.038725         1.0538
  38   0.0000       0.054554         1.4845

MULLIKEN ATOMIC CHARGES
-----------------------
   0 Cl:   -0.116026
   1 Cl:   -0.093743
   2 B :    0.284939
   3 C :   -0.175566
   4 N :   -0.464200
   5 S :    0.564595
Sum of atomic charges:   -0.0000000

LOEWDIN ATOMIC CHARGES
----------------------
   0 Cl:    1.185531
   1 Cl:    1.258745
   2 B :   -2.910281
   3 C :   -0.945532
   4 N :    0.286251
   5 S :    1.125285

  Mayer bond orders larger than 0.100000
B(  0-Cl,  2-B ) :   1.1719 B(  1-Cl,  2-B ) :   1.2040 B(  2-B ,  3-C ) :  -0.1025
B(  2-B ,  5-S ) :   1.1884 B(  3-C ,  4-N ) :   2.6409 B(  3-C ,  5-S ) :   0.8860

MP2 TOTAL ENERGY:    -1434.799772361 Eh
FINAL SINGLE POINT ENERGY     -1434.799772361180

DIPOLE MOMENT
-------------
                                X             Y             Z
Electronic contribution:      4.77764       1.14938      -0.00000
Nuclear contribution   :     -3.67603      -1.56523       0.00000
                        -----------------------------------------
Total Dipole Moment    :      1.10161      -0.41586       0.00000
                        -----------------------------------------
Magnitude (a.u.)       :      1.17749
Magnitude (Debye)      :      2.99294

Rotational constants in cm-1:     0.099161     0.043749     0.030356
Rotational constants in MHz :  2972.757834  1311.563244   910.053154

                             ****ORCA TERMINATED NORMALLY****
TOTAL RUN TIME: 0 days 0 hours 12 minutes 48 seconds 880 msec
