                         Program Version 5.0.4 -  RELEASE  -
|  1> ! ri-mp2 aug-cc-pvdz aug-cc-pvdz/c tightscf
|  2> %pal nprocs 16 end
|  3> %maxcore 3800
|  4> %base "DZ_P-C_58_AB"
|  5>
|  6> *xyz 0 1
|  7> C        -1.735377    1.849429    0.030168
|  8> C        -0.387846    1.543698    0.015412
|  9> C        -2.689966    0.848266    0.025657
| 10> C        -2.314004   -0.492058    0.004663
| 11> C        -0.955414   -0.801346   -0.010153
| 12> C        -0.006109    0.206681   -0.006487
| 13> H        -0.628684   -1.833498   -0.024769
| 14> H        -3.742161    1.105293    0.042391
| 15> H        -2.052783    2.883699    0.045224
| 16> H         0.355833    2.327732    0.019112
| 17> P         1.711676   -0.273281   -0.016611
| 18> O         1.953694   -1.715669    0.011475
| 19> O         2.421589    0.502222    1.192082
| 20> N        -3.263781   -1.499568    0.048613
| 21> H        -4.186824   -1.255889   -0.267631
| 22> H        -2.962377   -2.405568   -0.267799
| 23> H         2.550804   -0.075359    1.952834
| 24> O         2.270752    0.533677   -1.265663
| 25> H         3.201527    0.359925   -1.449210
| 26> *
| 27>
| 28> $new_job
| 29> ! ri-mp2 aug-cc-pvtz aug-cc-pvtz/c tightscf
| 30> %pal nprocs 16 end
| 31> %maxcore 3800
| 32> %base "TZ_P-C_58_AB"
| 33>
| 34> *xyz 0 1
| 35> C        -1.735377    1.849429    0.030168
| 36> C        -0.387846    1.543698    0.015412
| 37> C        -2.689966    0.848266    0.025657
| 38> C        -2.314004   -0.492058    0.004663
| 39> C        -0.955414   -0.801346   -0.010153
| 40> C        -0.006109    0.206681   -0.006487
| 41> H        -0.628684   -1.833498   -0.024769
| 42> H        -3.742161    1.105293    0.042391
| 43> H        -2.052783    2.883699    0.045224
| 44> H         0.355833    2.327732    0.019112
| 45> P         1.711676   -0.273281   -0.016611
| 46> O         1.953694   -1.715669    0.011475
| 47> O         2.421589    0.502222    1.192082
| 48> N        -3.263781   -1.499568    0.048613
| 49> H        -4.186824   -1.255889   -0.267631
| 50> H        -2.962377   -2.405568   -0.267799
| 51> H         2.550804   -0.075359    1.952834
| 52> O         2.270752    0.533677   -1.265663
| 53> H         3.201527    0.359925   -1.449210
| 54> *
| 55>
| 56> $new_job
| 57> ! ri-mp2 aug-cc-pvqz aug-cc-pvqz/c tightscf
| 58> %pal nprocs 16 end
| 59> %maxcore 3800
| 60> %base "QZ_P-C_58_AB"
| 61>
| 62> *xyz 0 1
| 63> C        -1.735377    1.849429    0.030168
| 64> C        -0.387846    1.543698    0.015412
| 65> C        -2.689966    0.848266    0.025657
| 66> C        -2.314004   -0.492058    0.004663
| 67> C        -0.955414   -0.801346   -0.010153
| 68> C        -0.006109    0.206681   -0.006487
| 69> H        -0.628684   -1.833498   -0.024769
| 70> H        -3.742161    1.105293    0.042391
| 71> H        -2.052783    2.883699    0.045224
| 72> H         0.355833    2.327732    0.019112
| 73> P         1.711676   -0.273281   -0.016611
| 74> O         1.953694   -1.715669    0.011475
| 75> O         2.421589    0.502222    1.192082
| 76> N        -3.263781   -1.499568    0.048613
| 77> H        -4.186824   -1.255889   -0.267631
| 78> H        -2.962377   -2.405568   -0.267799
| 79> H         2.550804   -0.075359    1.952834
| 80> O         2.270752    0.533677   -1.265663
| 81> H         3.201527    0.359925   -1.449210
| 82> *
| 83>
| 84>
| 85>
| 86>
| 87>                          ****END OF INPUT****
 Total Charge           Charge          ....    0
 Multiplicity           Mult            ....    1
 Number of Electrons    NEL             ....   90
MP2 TOTAL ENERGY:     -853.507145261 Eh
FINAL SINGLE POINT ENERGY      -853.507145261107
MP2 TOTAL ENERGY:     -854.024304572 Eh
FINAL SINGLE POINT ENERGY      -854.024304571996

CARTESIAN COORDINATES (ANGSTROEM)
---------------------------------
  C     -1.735377    1.849429    0.030168
  C     -0.387846    1.543698    0.015412
  C     -2.689966    0.848266    0.025657
  C     -2.314004   -0.492058    0.004663
  C     -0.955414   -0.801346   -0.010153
  C     -0.006109    0.206681   -0.006487
  H     -0.628684   -1.833498   -0.024769
  H     -3.742161    1.105293    0.042391
  H     -2.052783    2.883699    0.045224
  H      0.355833    2.327732    0.019112
  P      1.711676   -0.273281   -0.016611
  O      1.953694   -1.715669    0.011475
  O      2.421589    0.502222    1.192082
  N     -3.263781   -1.499568    0.048613
  H     -4.186824   -1.255889   -0.267631
  H     -2.962377   -2.405568   -0.267799
  H      2.550804   -0.075359    1.952834
  O      2.270752    0.533677   -1.265663
  H      3.201527    0.359925   -1.449210

 Multiplicity           Mult            ....    1
 Number of Electrons    NEL             ....   90
 Basis Dimension        Dim             .... 1252

ORBITAL ENERGIES
----------------

  NO   OCC          E(Eh)            E(eV)
   0   2.0000     -80.064478     -2178.6652
   1   2.0000     -20.595722      -560.4381
   2   2.0000     -20.592870      -560.3605
   3   2.0000     -20.499541      -557.8209
   4   2.0000     -15.569911      -423.6788
   5   2.0000     -11.285402      -307.0914
   6   2.0000     -11.244080      -305.9670
   7   2.0000     -11.242152      -305.9145
   8   2.0000     -11.237172      -305.7790
   9   2.0000     -11.236043      -305.7483
  10   2.0000     -11.234343      -305.7020
  11   2.0000      -7.587178      -206.4576
  12   2.0000      -5.485555      -149.2695
  13   2.0000      -5.484882      -149.2512
  14   2.0000      -5.483938      -149.2255
  15   2.0000      -1.433812       -39.0160
  16   2.0000      -1.379392       -37.5352
  17   2.0000      -1.294685       -35.2302
  18   2.0000      -1.237738       -33.6806
  19   2.0000      -1.146380       -31.1946
  20   2.0000      -1.034649       -28.1542
  21   2.0000      -1.003682       -27.3116
  22   2.0000      -0.881866       -23.9968
  23   2.0000      -0.834353       -22.7039
  24   2.0000      -0.815288       -22.1851
  25   2.0000      -0.746938       -20.3252
  26   2.0000      -0.720225       -19.5983
  27   2.0000      -0.700308       -19.0563
  28   2.0000      -0.677981       -18.4488
  29   2.0000      -0.657545       -17.8927
  30   2.0000      -0.641858       -17.4658
  31   2.0000      -0.617205       -16.7950
  32   2.0000      -0.608833       -16.5672
  33   2.0000      -0.599945       -16.3253
  34   2.0000      -0.569529       -15.4977
  35   2.0000      -0.561953       -15.2915
  36   2.0000      -0.549260       -14.9461
  37   2.0000      -0.539534       -14.6815
  38   2.0000      -0.518427       -14.1071
  39   2.0000      -0.494432       -13.4542
  40   2.0000      -0.467573       -12.7233
  41   2.0000      -0.458031       -12.4637
  42   2.0000      -0.453297       -12.3348
  43   2.0000      -0.356200        -9.6927
  44   2.0000      -0.305239        -8.3060
  45   0.0000       0.020296         0.5523
  46   0.0000       0.027196         0.7400
  47   0.0000       0.030097         0.8190
  48   0.0000       0.039116         1.0644
  49   0.0000       0.039742         1.0814

MULLIKEN ATOMIC CHARGES
-----------------------
   0 C :   -0.306836
   1 C :   -0.479923
   2 C :   -0.297819
   3 C :    0.637946
   4 C :   -0.600968
   5 C :   -0.150489
   6 H :    0.354135
   7 H :    0.322410
   8 H :    0.168612
   9 H :    0.287328
  10 P :    2.817031
  11 O :   -1.314706
  12 O :   -0.955096
  13 N :   -0.827933
  14 H :    0.271333
  15 H :    0.276976
  16 H :    0.390282
  17 O :   -0.988950
  18 H :    0.396667
Sum of atomic charges:    0.0000000

LOEWDIN ATOMIC CHARGES
----------------------
   0 C :    0.344431
   1 C :    0.281643
   2 C :    0.346094
   3 C :   -0.231691
   4 C :    0.278072
   5 C :   -0.156690
   6 H :   -0.351161
   7 H :   -0.317120
   8 H :   -0.316909
   9 H :   -0.330703
  10 P :   -0.657708
  11 O :    0.329157
  12 O :    1.106943
  13 N :    1.276767
  14 H :   -0.503311
  15 H :   -0.502405
  16 H :   -0.863237
  17 O :    1.108039
  18 H :   -0.840208

  Mayer bond orders larger than 0.100000
B(  0-C ,  1-C ) :   1.2870 B(  0-C ,  2-C ) :   1.2219 B(  0-C ,  3-C ) :  -0.2330
B(  0-C ,  4-C ) :   0.1156 B(  0-C ,  5-C ) :  -0.3972 B(  0-C ,  8-H ) :   1.2525
B(  1-C ,  2-C ) :   0.1622 B(  1-C ,  3-C ) :   0.1230 B(  1-C ,  5-C ) :   0.8408
B(  1-C ,  8-H ) :  -0.1527 B(  1-C ,  9-H ) :   0.9821 B(  2-C ,  3-C ) :   1.1340
B(  2-C ,  4-C ) :   0.1033 B(  2-C ,  5-C ) :  -0.1125 B(  2-C ,  7-H ) :   0.9234
B(  2-C ,  8-H ) :  -0.1730 B(  2-C , 13-N ) :  -0.1037 B(  3-C ,  4-C ) :   1.4950
B(  3-C ,  5-C ) :  -0.5070 B(  3-C ,  7-H ) :  -0.1246 B(  3-C , 13-N ) :   0.7042
B(  4-C ,  5-C ) :   0.8273 B(  4-C ,  6-H ) :   0.8645 B(  4-C , 10-P ) :  -0.1376
B(  5-C ,  6-H ) :  -0.1295 B(  5-C ,  9-H ) :  -0.1185 B(  5-C , 10-P ) :   0.9987
B(  5-C , 11-O ) :  -0.1222 B(  5-C , 12-O ) :  -0.1045 B( 10-P , 11-O ) :   1.1666
B( 10-P , 12-O ) :   0.5553 B( 10-P , 17-O ) :   0.4883 B( 12-O , 16-H ) :   0.9007
B( 13-N , 14-H ) :   0.9455 B( 13-N , 15-H ) :   0.9309 B( 17-O , 18-H ) :   0.9230

MP2 TOTAL ENERGY:     -854.191880001 Eh
FINAL SINGLE POINT ENERGY      -854.191880000505

DIPOLE MOMENT
-------------
                                X             Y             Z
Electronic contribution:      8.07612      -0.78577      -0.11067
Nuclear contribution   :     -8.79679       1.31532       0.06374
                        -----------------------------------------
Total Dipole Moment    :     -0.72068       0.52955      -0.04693
                        -----------------------------------------
Magnitude (a.u.)       :      0.89555
Magnitude (Debye)      :      2.27630

Rotational constants in cm-1:     0.064970     0.021233     0.017851
Rotational constants in MHz :  1947.757417   636.549114   535.169169

                             ****ORCA TERMINATED NORMALLY****
TOTAL RUN TIME: 0 days 0 hours 56 minutes 52 seconds 9 msec
