                         Program Version 5.0.4 -  RELEASE  -
|  1> ! ri-mp2 aug-cc-pvdz aug-cc-pvdz/c tightscf
|  2> %pal nprocs 16 end
|  3> %maxcore 3800
|  4> %base "DZ_B-Si_80_AB"
|  5>
|  6> *xyz 0 1
|  7> Si         0.064837   -0.129906    0.481128
|  8> N         1.153179   -1.219903   -0.517199
|  9> B        -1.891228   -0.279620   -0.009300
| 10> N         0.704769    1.538795   -0.039070
| 11> F         0.491938   -0.253391    1.988727
| 12> O        -0.155109    2.337489   -0.403730
| 13> O        -2.541980    0.770692   -0.528343
| 14> O         0.877679   -1.000641   -1.693835
| 15> O        -2.466627   -1.474922    0.217159
| 16> O         1.964492   -2.009611   -0.113984
| 17> O         1.883806    1.781180    0.021983
| 18> H        -3.394423   -1.528007   -0.045027
| 19> H        -1.988329    1.559566   -0.642920
| 20> *
| 21>
| 22> $new_job
| 23> ! ri-mp2 aug-cc-pvtz aug-cc-pvtz/c tightscf
| 24> %pal nprocs 16 end
| 25> %maxcore 3800
| 26> %base "TZ_B-Si_80_AB"
| 27>
| 28> *xyz 0 1
| 29> Si         0.064837   -0.129906    0.481128
| 30> N         1.153179   -1.219903   -0.517199
| 31> B        -1.891228   -0.279620   -0.009300
| 32> N         0.704769    1.538795   -0.039070
| 33> F         0.491938   -0.253391    1.988727
| 34> O        -0.155109    2.337489   -0.403730
| 35> O        -2.541980    0.770692   -0.528343
| 36> O         0.877679   -1.000641   -1.693835
| 37> O        -2.466627   -1.474922    0.217159
| 38> O         1.964492   -2.009611   -0.113984
| 39> O         1.883806    1.781180    0.021983
| 40> H        -3.394423   -1.528007   -0.045027
| 41> H        -1.988329    1.559566   -0.642920
| 42> *
| 43>
| 44> $new_job
| 45> ! ri-mp2 aug-cc-pvqz aug-cc-pvqz/c tightscf
| 46> %pal nprocs 16 end
| 47> %maxcore 3800
| 48> %base "QZ_B-Si_80_AB"
| 49>
| 50> *xyz 0 1
| 51> Si         0.064837   -0.129906    0.481128
| 52> N         1.153179   -1.219903   -0.517199
| 53> B        -1.891228   -0.279620   -0.009300
| 54> N         0.704769    1.538795   -0.039070
| 55> F         0.491938   -0.253391    1.988727
| 56> O        -0.155109    2.337489   -0.403730
| 57> O        -2.541980    0.770692   -0.528343
| 58> O         0.877679   -1.000641   -1.693835
| 59> O        -2.466627   -1.474922    0.217159
| 60> O         1.964492   -2.009611   -0.113984
| 61> O         1.883806    1.781180    0.021983
| 62> H        -3.394423   -1.528007   -0.045027
| 63> H        -1.988329    1.559566   -0.642920
| 64> *
| 65>
| 66>
| 67>
| 68>
| 69>                          ****END OF INPUT****
 Total Charge           Charge          ....    0
 Multiplicity           Mult            ....    1
 Number of Electrons    NEL             ....   92
MP2 TOTAL ENERGY:     -974.289733918 Eh
FINAL SINGLE POINT ENERGY      -974.289733918206
MP2 TOTAL ENERGY:     -974.895582083 Eh
FINAL SINGLE POINT ENERGY      -974.895582083126

CARTESIAN COORDINATES (ANGSTROEM)
---------------------------------
  Si     0.064837   -0.129906    0.481128
  N      1.153179   -1.219903   -0.517199
  B     -1.891228   -0.279620   -0.009300
  N      0.704769    1.538795   -0.039070
  F      0.491938   -0.253391    1.988727
  O     -0.155109    2.337489   -0.403730
  O     -2.541980    0.770692   -0.528343
  O      0.877679   -1.000641   -1.693835
  O     -2.466627   -1.474922    0.217159
  O      1.964492   -2.009611   -0.113984
  O      1.883806    1.781180    0.021983
  H     -3.394423   -1.528007   -0.045027
  H     -1.988329    1.559566   -0.642920

 Multiplicity           Mult            ....    1
 Number of Electrons    NEL             ....   92
 Basis Dimension        Dim             ....  976

ORBITAL ENERGIES
----------------

  NO   OCC          E(Eh)            E(eV)
   0   2.0000     -68.931663     -1875.7259
   1   2.0000     -26.360265      -717.2993
   2   2.0000     -20.647637      -561.8508
   3   2.0000     -20.644228      -561.7580
   4   2.0000     -20.637851      -561.5845
   5   2.0000     -20.633834      -561.4752
   6   2.0000     -20.619565      -561.0869
   7   2.0000     -20.612306      -560.8894
   8   2.0000     -15.857319      -431.4996
   9   2.0000     -15.853182      -431.3870
  10   2.0000      -7.706296      -209.6990
  11   2.0000      -6.272339      -170.6790
  12   2.0000      -4.379165      -119.1631
  13   2.0000      -4.379126      -119.1621
  14   2.0000      -4.377198      -119.1096
  15   2.0000      -1.667125       -45.3648
  16   2.0000      -1.640508       -44.6405
  17   2.0000      -1.636218       -44.5238
  18   2.0000      -1.441005       -39.2117
  19   2.0000      -1.438577       -39.1457
  20   2.0000      -1.434152       -39.0253
  21   2.0000      -1.399417       -38.0801
  22   2.0000      -1.023120       -27.8405
  23   2.0000      -0.970238       -26.4015
  24   2.0000      -0.853667       -23.2295
  25   2.0000      -0.830110       -22.5884
  26   2.0000      -0.810999       -22.0684
  27   2.0000      -0.796132       -21.6639
  28   2.0000      -0.786999       -21.4153
  29   2.0000      -0.764267       -20.7968
  30   2.0000      -0.758594       -20.6424
  31   2.0000      -0.751360       -20.4456
  32   2.0000      -0.743408       -20.2292
  33   2.0000      -0.732011       -19.9190
  34   2.0000      -0.723746       -19.6941
  35   2.0000      -0.676914       -18.4198
  36   2.0000      -0.624763       -17.0007
  37   2.0000      -0.619855       -16.8671
  38   2.0000      -0.561888       -15.2898
  39   2.0000      -0.549922       -14.9641
  40   2.0000      -0.542226       -14.7547
  41   2.0000      -0.532915       -14.5014
  42   2.0000      -0.497798       -13.5458
  43   2.0000      -0.493698       -13.4342
  44   2.0000      -0.489593       -13.3225
  45   2.0000      -0.481610       -13.1053
  46   0.0000       0.015270         0.4155
  47   0.0000       0.023776         0.6470
  48   0.0000       0.030825         0.8388
  49   0.0000       0.032757         0.8914
  50   0.0000       0.034748         0.9455

MULLIKEN ATOMIC CHARGES
-----------------------
   0 Si:    1.889221
   1 N :    0.618201
   2 B :    1.337819
   3 N :    0.699228
   4 F :   -0.767387
   5 O :   -0.644027
   6 O :   -1.158163
   7 O :   -0.599898
   8 O :   -0.984461
   9 O :   -0.560424
  10 O :   -0.555924
  11 H :    0.349115
  12 H :    0.376700
Sum of atomic charges:   -0.0000000

LOEWDIN ATOMIC CHARGES
----------------------
   0 Si:   -0.522810
   1 N :   -0.870560
   2 B :   -1.143413
   3 N :   -0.820632
   4 F :    0.496283
   5 O :    0.531814
   6 O :    1.335052
   7 O :    0.476121
   8 O :    1.301635
   9 O :    0.482987
  10 O :    0.491205
  11 H :   -0.773258
  12 H :   -0.984424

  Mayer bond orders larger than 0.100000
B(  0-Si,  1-N ) :   0.5560 B(  0-Si,  2-B ) :   0.9668 B(  0-Si,  3-N ) :   0.4838
B(  0-Si,  4-F ) :   0.3678 B(  0-Si,  8-O ) :  -0.1433 B(  1-N ,  7-O ) :   1.3003
B(  1-N ,  9-O ) :   1.3266 B(  2-B ,  6-O ) :   0.5365 B(  2-B ,  8-O ) :   0.4356
B(  3-N ,  5-O ) :   1.1836 B(  3-N , 10-O ) :   1.3562 B(  5-O , 10-O ) :   0.1430
B(  6-O ,  8-O ) :  -0.1298 B(  6-O , 12-H ) :   0.8801 B(  7-O ,  9-O ) :   0.1489
B(  8-O , 11-H ) :   0.9301

MP2 TOTAL ENERGY:     -975.099954350 Eh
FINAL SINGLE POINT ENERGY      -975.099954349709

DIPOLE MOMENT
-------------
                                X             Y             Z
Electronic contribution:      2.37411      -0.67350       3.13173
Nuclear contribution   :     -4.08152       0.49157      -2.55193
                        -----------------------------------------
Total Dipole Moment    :     -1.70741      -0.18193       0.57980
                        -----------------------------------------
Magnitude (a.u.)       :      1.81232
Magnitude (Debye)      :      4.60656

Rotational constants in cm-1:     0.036318     0.030310     0.022753
Rotational constants in MHz :  1088.786950   908.662155   682.130808

                             ****ORCA TERMINATED NORMALLY****
TOTAL RUN TIME: 0 days 0 hours 20 minutes 51 seconds 759 msec
