                         Program Version 5.0.4 -  RELEASE  -
|  1> ! ri-mp2 aug-cc-pvdz aug-cc-pvdz/c tightscf
|  2> %pal nprocs 16 end
|  3> %maxcore 3800
|  4> %base "DZ_Si-Si_18_AB"
|  5> %scf
|  6> STABPerform true
|  7> STABRestartUHFifUnstable true
|  8> end
|  9>
| 10> *xyz 0 1
| 11> Si         1.162471   -0.000001   -0.000005
| 12> Si        -1.162471    0.000001    0.000005
| 13> Cl        -1.837812   -1.399885    1.309804
| 14> Cl         1.837813    1.399883   -1.309806
| 15> Cl        -1.837850   -0.434367   -1.867220
| 16> Cl         1.837850    0.434368    1.867219
| 17> Cl        -1.837806    1.834267    0.557453
| 18> Cl         1.837805   -1.834267   -0.557451
| 19> *
| 20>
| 21> $new_job
| 22> ! ri-mp2 aug-cc-pvtz aug-cc-pvtz/c tightscf
| 23> %pal nprocs 16 end
| 24> %maxcore 3800
| 25> %base "TZ_Si-Si_18_AB"
| 26>
| 27> *xyz 0 1
| 28> Si         1.162471   -0.000001   -0.000005
| 29> Si        -1.162471    0.000001    0.000005
| 30> Cl        -1.837812   -1.399885    1.309804
| 31> Cl         1.837813    1.399883   -1.309806
| 32> Cl        -1.837850   -0.434367   -1.867220
| 33> Cl         1.837850    0.434368    1.867219
| 34> Cl        -1.837806    1.834267    0.557453
| 35> Cl         1.837805   -1.834267   -0.557451
| 36> *
| 37>
| 38> $new_job
| 39> ! ri-mp2 aug-cc-pvqz aug-cc-pvqz/c tightscf
| 40> %pal nprocs 16 end
| 41> %maxcore 3800
| 42> %base "QZ_Si-Si_18_AB"
| 43>
| 44> *xyz 0 1
| 45> Si         1.162471   -0.000001   -0.000005
| 46> Si        -1.162471    0.000001    0.000005
| 47> Cl        -1.837812   -1.399885    1.309804
| 48> Cl         1.837813    1.399883   -1.309806
| 49> Cl        -1.837850   -0.434367   -1.867220
| 50> Cl         1.837850    0.434368    1.867219
| 51> Cl        -1.837806    1.834267    0.557453
| 52> Cl         1.837805   -1.834267   -0.557451
| 53> *
| 54>
| 55>
| 56>
| 57>
| 58>                          ****END OF INPUT****
 Total Charge           Charge          ....    0
 Multiplicity           Mult            ....    1
 Number of Electrons    NEL             ....  130
MP2 TOTAL ENERGY:    -3336.277087104 Eh
FINAL SINGLE POINT ENERGY     -3336.277087103958
MP2 TOTAL ENERGY:    -3336.722141532 Eh
FINAL SINGLE POINT ENERGY     -3336.722141531945

CARTESIAN COORDINATES (ANGSTROEM)
---------------------------------
  Si     1.162471   -0.000001   -0.000005
  Si    -1.162471    0.000001    0.000005
  Cl    -1.837812   -1.399885    1.309804
  Cl     1.837813    1.399883   -1.309806
  Cl    -1.837850   -0.434367   -1.867220
  Cl     1.837850    0.434368    1.867219
  Cl    -1.837806    1.834267    0.557453
  Cl     1.837805   -1.834267   -0.557451

 Multiplicity           Mult            ....    1
 Number of Electrons    NEL             ....  130
 Basis Dimension        Dim             ....  672

ORBITAL ENERGIES
----------------

  NO   OCC          E(Eh)            E(eV)
   0   2.0000    -104.860194     -2853.3909
   1   2.0000    -104.860194     -2853.3909
   2   2.0000    -104.860194     -2853.3909
   3   2.0000    -104.860194     -2853.3909
   4   2.0000    -104.860193     -2853.3909
   5   2.0000    -104.860193     -2853.3909
   6   2.0000     -68.912915     -1875.2158
   7   2.0000     -68.912914     -1875.2157
   8   2.0000     -10.587704      -288.1061
   9   2.0000     -10.587703      -288.1061
  10   2.0000     -10.587703      -288.1060
  11   2.0000     -10.587703      -288.1060
  12   2.0000     -10.587695      -288.1058
  13   2.0000     -10.587695      -288.1058
  14   2.0000      -8.054447      -219.1727
  15   2.0000      -8.054447      -219.1727
  16   2.0000      -8.054447      -219.1726
  17   2.0000      -8.054447      -219.1726
  18   2.0000      -8.054445      -219.1726
  19   2.0000      -8.054445      -219.1726
  20   2.0000      -8.053222      -219.1393
  21   2.0000      -8.053222      -219.1393
  22   2.0000      -8.053222      -219.1393
  23   2.0000      -8.053222      -219.1393
  24   2.0000      -8.053221      -219.1393
  25   2.0000      -8.053221      -219.1393
  26   2.0000      -8.053213      -219.1391
  27   2.0000      -8.053213      -219.1391
  28   2.0000      -8.053213      -219.1391
  29   2.0000      -8.053213      -219.1391
  30   2.0000      -8.053212      -219.1390
  31   2.0000      -8.053212      -219.1390
  32   2.0000      -6.249221      -170.0500
  33   2.0000      -6.249074      -170.0459
  34   2.0000      -4.356259      -118.5398
  35   2.0000      -4.356259      -118.5398
  36   2.0000      -4.356165      -118.5373
  37   2.0000      -4.356165      -118.5373
  38   2.0000      -4.355457      -118.5180
  39   2.0000      -4.354636      -118.4957
  40   2.0000      -1.165250       -31.7081
  41   2.0000      -1.155887       -31.4533
  42   2.0000      -1.119518       -30.4636
  43   2.0000      -1.119517       -30.4636
  44   2.0000      -1.116857       -30.3912
  45   2.0000      -1.116857       -30.3912
  46   2.0000      -0.757743       -20.6192
  47   2.0000      -0.690600       -18.7922
  48   2.0000      -0.595182       -16.1957
  49   2.0000      -0.595182       -16.1957
  50   2.0000      -0.589991       -16.0545
  51   2.0000      -0.581399       -15.8207
  52   2.0000      -0.581398       -15.8207
  53   2.0000      -0.521881       -14.2011
  54   2.0000      -0.518907       -14.1202
  55   2.0000      -0.518907       -14.1202
  56   2.0000      -0.512537       -13.9468
  57   2.0000      -0.512536       -13.9468
  58   2.0000      -0.497044       -13.5253
  59   2.0000      -0.497044       -13.5253
  60   2.0000      -0.482758       -13.1365
  61   2.0000      -0.482757       -13.1365
  62   2.0000      -0.476924       -12.9778
  63   2.0000      -0.472447       -12.8559
  64   2.0000      -0.427009       -11.6195
  65   0.0000       0.032797         0.8925
  66   0.0000       0.033327         0.9069
  67   0.0000       0.040824         1.1109
  68   0.0000       0.040824         1.1109
  69   0.0000       0.054269         1.4767

MULLIKEN ATOMIC CHARGES
-----------------------
   0 Si:    1.882812
   1 Si:    1.882811
   2 Cl:   -0.627604
   3 Cl:   -0.627604
   4 Cl:   -0.627604
   5 Cl:   -0.627604
   6 Cl:   -0.627603
   7 Cl:   -0.627603
Sum of atomic charges:    0.0000000

LOEWDIN ATOMIC CHARGES
----------------------
   0 Si:   -2.593024
   1 Si:   -2.593023
   2 Cl:    0.864343
   3 Cl:    0.864342
   4 Cl:    0.864342
   5 Cl:    0.864343
   6 Cl:    0.864338
   7 Cl:    0.864339

  Mayer bond orders larger than 0.100000
B(  0-Si,  1-Si) :   0.9128 B(  0-Si,  3-Cl) :   0.5015 B(  0-Si,  5-Cl) :   0.5015
B(  0-Si,  7-Cl) :   0.5015 B(  1-Si,  2-Cl) :   0.5015 B(  1-Si,  4-Cl) :   0.5015
B(  1-Si,  6-Cl) :   0.5015

MP2 TOTAL ENERGY:    -3336.873805290 Eh
FINAL SINGLE POINT ENERGY     -3336.873805289550

DIPOLE MOMENT
-------------
                                X             Y             Z
Electronic contribution:      0.00000      -0.00000       0.00000
Nuclear contribution   :     -0.00000       0.00000       0.00000
                        -----------------------------------------
Total Dipole Moment    :      0.00000      -0.00000       0.00000
                        -----------------------------------------
Magnitude (a.u.)       :      0.00000
Magnitude (Debye)      :      0.00000

Rotational constants in cm-1:     0.021563     0.014223     0.014223
Rotational constants in MHz :   646.438206   426.381181   426.380282

                             ****ORCA TERMINATED NORMALLY****
TOTAL RUN TIME: 0 days 0 hours 34 minutes 35 seconds 14 msec
