                         Program Version 5.0.4 -  RELEASE  -
|  1> ! ri-mp2 aug-cc-pvdz aug-cc-pvdz/c tightscf
|  2> %pal nprocs 16 end
|  3> %maxcore 3800
|  4> %base "DZ_Si-Si_115_A"
|  5> %scf
|  6> STABPerform true
|  7> STABRestartUHFifUnstable true
|  8> end
|  9>
| 10> *xyz 0 2
| 11> Si        -1.660888   -0.350484   -0.000420
| 12> S         0.023442    0.962215    0.013301
| 13> H        -1.695567   -1.170854   -1.231622
| 14> H        -1.667608   -1.219037    1.199720
| 15> S         1.535603   -0.463602   -0.087801
| 16> H         1.670889   -0.681142    1.229783
| 17> *
| 18>
| 19> $new_job
| 20> ! ri-mp2 aug-cc-pvtz aug-cc-pvtz/c tightscf
| 21> %pal nprocs 16 end
| 22> %maxcore 3800
| 23> %base "TZ_Si-Si_115_A"
| 24>
| 25> *xyz 0 2
| 26> Si        -1.660888   -0.350484   -0.000420
| 27> S         0.023442    0.962215    0.013301
| 28> H        -1.695567   -1.170854   -1.231622
| 29> H        -1.667608   -1.219037    1.199720
| 30> S         1.535603   -0.463602   -0.087801
| 31> H         1.670889   -0.681142    1.229783
| 32> *
| 33>
| 34> $new_job
| 35> ! ri-mp2 aug-cc-pvqz aug-cc-pvqz/c tightscf
| 36> %pal nprocs 16 end
| 37> %maxcore 3800
| 38> %base "QZ_Si-Si_115_A"
| 39>
| 40> *xyz 0 2
| 41> Si        -1.660888   -0.350484   -0.000420
| 42> S         0.023442    0.962215    0.013301
| 43> H        -1.695567   -1.170854   -1.231622
| 44> H        -1.667608   -1.219037    1.199720
| 45> S         1.535603   -0.463602   -0.087801
| 46> H         1.670889   -0.681142    1.229783
| 47> *
| 48>
| 49>
| 50>
| 51>
| 52>                          ****END OF INPUT****
 Total Charge           Charge          ....    0
 Multiplicity           Mult            ....    2
 Number of Electrons    NEL             ....   49
MP2 TOTAL ENERGY:    -1086.097778051 Eh
FINAL SINGLE POINT ENERGY     -1086.097778050974
MP2 TOTAL ENERGY:    -1086.237865597 Eh
FINAL SINGLE POINT ENERGY     -1086.237865597111

CARTESIAN COORDINATES (ANGSTROEM)
---------------------------------
  Si    -1.660888   -0.350484   -0.000420
  S      0.023442    0.962215    0.013301
  H     -1.695567   -1.170854   -1.231622
  H     -1.667608   -1.219037    1.199720
  S      1.535603   -0.463602   -0.087801
  H      1.670889   -0.681142    1.229783

 Multiplicity           Mult            ....    2
 Number of Electrons    NEL             ....   49
 Basis Dimension        Dim             ....  390

ORBITAL ENERGIES
----------------
                 SPIN UP ORBITALS
  NO   OCC          E(Eh)            E(eV)
   0   1.0000     -91.992770     -2503.2505
   1   1.0000     -91.977738     -2502.8415
   2   1.0000     -68.812367     -1872.4797
   3   1.0000      -8.993214      -244.7178
   4   1.0000      -8.979666      -244.3491
   5   1.0000      -6.675423      -181.6475
   6   1.0000      -6.673408      -181.5927
   7   1.0000      -6.672310      -181.5628
   8   1.0000      -6.660383      -181.2382
   9   1.0000      -6.659827      -181.2231
  10   1.0000      -6.658918      -181.1984
  11   1.0000      -6.160204      -167.6277
  12   1.0000      -4.272898      -116.2715
  13   1.0000      -4.263111      -116.0051
  14   1.0000      -4.262423      -115.9864
  15   1.0000      -1.055329       -28.7170
  16   1.0000      -0.887636       -24.1538
  17   1.0000      -0.709358       -19.3026
  18   1.0000      -0.581362       -15.8197
  19   1.0000      -0.517972       -14.0947
  20   1.0000      -0.500270       -13.6130
  21   1.0000      -0.485994       -13.2246
  22   1.0000      -0.391525       -10.6539
  23   1.0000      -0.381495       -10.3810
  24   1.0000      -0.333917        -9.0864
  25   0.0000       0.025525         0.6946
  26   0.0000       0.035137         0.9561
  27   0.0000       0.037571         1.0224
  28   0.0000       0.041649         1.1333
  29   0.0000       0.053665         1.4603

                 SPIN DOWN ORBITALS
  NO   OCC          E(Eh)            E(eV)
   0   1.0000     -91.991958     -2503.2284
   1   1.0000     -91.977710     -2502.8407
   2   1.0000     -68.806611     -1872.3231
   3   1.0000      -8.992283      -244.6925
   4   1.0000      -8.979464      -244.3436
   5   1.0000      -6.673478      -181.5946
   6   1.0000      -6.672626      -181.5714
   7   1.0000      -6.670631      -181.5171
   8   1.0000      -6.661226      -181.2612
   9   1.0000      -6.659394      -181.2113
  10   1.0000      -6.658909      -181.1981
  11   1.0000      -6.151320      -167.3859
  12   1.0000      -4.259273      -115.9007
  13   1.0000      -4.258625      -115.8831
  14   1.0000      -4.250440      -115.6603
  15   1.0000      -1.049891       -28.5690
  16   1.0000      -0.878944       -23.9173
  17   1.0000      -0.671850       -18.2820
  18   1.0000      -0.579133       -15.7590
  19   1.0000      -0.509621       -13.8675
  20   1.0000      -0.494453       -13.4548
  21   1.0000      -0.472727       -12.8636
  22   1.0000      -0.382321       -10.4035
  23   1.0000      -0.372639       -10.1400
  24   0.0000       0.014080         0.3831
  25   0.0000       0.026447         0.7197
  26   0.0000       0.037383         1.0172
  27   0.0000       0.041714         1.1351
  28   0.0000       0.050793         1.3822

MULLIKEN ATOMIC CHARGES AND SPIN POPULATIONS
--------------------------------------------
   0 Si:    0.717219    0.949364
   1 S :   -0.309823   -0.039260
   2 H :   -0.177492    0.015141
   3 H :   -0.185222    0.014467
   4 S :   -0.160796    0.063871
   5 H :    0.116114   -0.003584
Sum of atomic charges         :    0.0000000

LOEWDIN ATOMIC CHARGES AND SPIN POPULATIONS
-------------------------------------------
   0 Si:    0.398042    0.559358
   1 S :    0.379111    0.121512
   2 H :   -0.404135    0.126072
   3 H :   -0.403043    0.126971
   4 S :    0.926631    0.053368
   5 H :   -0.896606    0.012720

  Mayer bond orders larger than 0.100000
B(  0-Si,  1-S ) :   0.8162 B(  0-Si,  2-H ) :   0.8843 B(  0-Si,  3-H ) :   0.8779
B(  1-S ,  4-S ) :   1.0606 B(  4-S ,  5-H ) :   0.9786

MP2 TOTAL ENERGY:    -1086.283964140 Eh
FINAL SINGLE POINT ENERGY     -1086.283964140341

DIPOLE MOMENT
-------------
                                X             Y             Z
Electronic contribution:      1.36160       2.62954      -0.84056
Nuclear contribution   :     -1.58439      -2.96200       1.15982
                        -----------------------------------------
Total Dipole Moment    :     -0.22280      -0.33246       0.31926
                        -----------------------------------------
Magnitude (a.u.)       :      0.51195
Magnitude (Debye)      :      1.30128

Rotational constants in cm-1:     0.351818     0.101322     0.082272
Rotational constants in MHz : 10547.246737  3037.564646  2466.437622

                             ****ORCA TERMINATED NORMALLY****
TOTAL RUN TIME: 0 days 0 hours 12 minutes 13 seconds 896 msec
