                         Program Version 5.0.4 -  RELEASE  -
|  1> ! ri-mp2 aug-cc-pvdz aug-cc-pvdz/c tightscf
|  2> %pal nprocs 16 end
|  3> %maxcore 3800
|  4> %base "DZ_B-S_40_A"
|  5> %scf
|  6> STABPerform true
|  7> STABRestartUHFifUnstable true
|  8> end
|  9>
| 10> *xyz 0 2
| 11> O         2.038148    0.398968    0.002290
| 12> O        -0.185090    1.281830    0.019370
| 13> C         1.554068   -0.949099   -0.040113
| 14> C         0.172530   -1.011779   -0.657073
| 15> C        -0.802231   -0.032134   -0.004390
| 16> C        -2.063260    0.107900   -0.832057
| 17> C        -1.133767   -0.410377    1.429571
| 18> B         1.152264    1.412284    0.028319
| 19> H         1.559741   -1.344335    0.977081
| 20> H         2.267689   -1.525743   -0.626457
| 21> H        -0.218412   -2.028123   -0.579803
| 22> H         0.246209   -0.770582   -1.719925
| 23> H        -2.592082   -0.844281   -0.889783
| 24> H        -1.819832    0.433781   -1.842653
| 25> H        -2.725078    0.847632   -0.383347
| 26> H        -0.236086   -0.482596    2.042500
| 27> H        -1.778986    0.348475    1.869749
| 28> H        -1.652980   -1.369096    1.462130
| 29> *
| 30>
| 31> $new_job
| 32> ! ri-mp2 aug-cc-pvtz aug-cc-pvtz/c tightscf
| 33> %pal nprocs 16 end
| 34> %maxcore 3800
| 35> %base "TZ_B-S_40_A"
| 36>
| 37> *xyz 0 2
| 38> O         2.038148    0.398968    0.002290
| 39> O        -0.185090    1.281830    0.019370
| 40> C         1.554068   -0.949099   -0.040113
| 41> C         0.172530   -1.011779   -0.657073
| 42> C        -0.802231   -0.032134   -0.004390
| 43> C        -2.063260    0.107900   -0.832057
| 44> C        -1.133767   -0.410377    1.429571
| 45> B         1.152264    1.412284    0.028319
| 46> H         1.559741   -1.344335    0.977081
| 47> H         2.267689   -1.525743   -0.626457
| 48> H        -0.218412   -2.028123   -0.579803
| 49> H         0.246209   -0.770582   -1.719925
| 50> H        -2.592082   -0.844281   -0.889783
| 51> H        -1.819832    0.433781   -1.842653
| 52> H        -2.725078    0.847632   -0.383347
| 53> H        -0.236086   -0.482596    2.042500
| 54> H        -1.778986    0.348475    1.869749
| 55> H        -1.652980   -1.369096    1.462130
| 56> *
| 57>
| 58> $new_job
| 59> ! ri-mp2 aug-cc-pvqz aug-cc-pvqz/c tightscf
| 60> %pal nprocs 16 end
| 61> %maxcore 3800
| 62> %base "QZ_B-S_40_A"
| 63>
| 64> *xyz 0 2
| 65> O         2.038148    0.398968    0.002290
| 66> O        -0.185090    1.281830    0.019370
| 67> C         1.554068   -0.949099   -0.040113
| 68> C         0.172530   -1.011779   -0.657073
| 69> C        -0.802231   -0.032134   -0.004390
| 70> C        -2.063260    0.107900   -0.832057
| 71> C        -1.133767   -0.410377    1.429571
| 72> B         1.152264    1.412284    0.028319
| 73> H         1.559741   -1.344335    0.977081
| 74> H         2.267689   -1.525743   -0.626457
| 75> H        -0.218412   -2.028123   -0.579803
| 76> H         0.246209   -0.770582   -1.719925
| 77> H        -2.592082   -0.844281   -0.889783
| 78> H        -1.819832    0.433781   -1.842653
| 79> H        -2.725078    0.847632   -0.383347
| 80> H        -0.236086   -0.482596    2.042500
| 81> H        -1.778986    0.348475    1.869749
| 82> H        -1.652980   -1.369096    1.462130
| 83> *
| 84>
| 85>
| 86>
| 87>
| 88>                          ****END OF INPUT****
 Total Charge           Charge          ....    0
 Multiplicity           Mult            ....    2
 Number of Electrons    NEL             ....   61
MP2 TOTAL ENERGY:     -370.837309382 Eh
FINAL SINGLE POINT ENERGY      -370.837309382329
MP2 TOTAL ENERGY:     -371.171289283 Eh
FINAL SINGLE POINT ENERGY      -371.171289283219

CARTESIAN COORDINATES (ANGSTROEM)
---------------------------------
  O      2.038148    0.398968    0.002290
  O     -0.185090    1.281830    0.019370
  C      1.554068   -0.949099   -0.040113
  C      0.172530   -1.011779   -0.657073
  C     -0.802231   -0.032134   -0.004390
  C     -2.063260    0.107900   -0.832057
  C     -1.133767   -0.410377    1.429571
  B      1.152264    1.412284    0.028319
  H      1.559741   -1.344335    0.977081
  H      2.267689   -1.525743   -0.626457
  H     -0.218412   -2.028123   -0.579803
  H      0.246209   -0.770582   -1.719925
  H     -2.592082   -0.844281   -0.889783
  H     -1.819832    0.433781   -1.842653
  H     -2.725078    0.847632   -0.383347
  H     -0.236086   -0.482596    2.042500
  H     -1.778986    0.348475    1.869749
  H     -1.652980   -1.369096    1.462130

 Multiplicity           Mult            ....    2
 Number of Electrons    NEL             ....   61
 Basis Dimension        Dim             .... 1100

ORBITAL ENERGIES
----------------
                 SPIN UP ORBITALS
  NO   OCC          E(Eh)            E(eV)
   0   1.0000     -20.563720      -559.5673
   1   1.0000     -20.559458      -559.4513
   2   1.0000     -11.302540      -307.5578
   3   1.0000     -11.290907      -307.2412
   4   1.0000     -11.236447      -305.7593
   5   1.0000     -11.223288      -305.4012
   6   1.0000     -11.219860      -305.3079
   7   1.0000      -7.646135      -208.0619
   8   1.0000      -1.401493       -38.1366
   9   1.0000      -1.356743       -36.9188
  10   1.0000      -1.100643       -29.9500
  11   1.0000      -1.011223       -27.5168
  12   1.0000      -0.953397       -25.9433
  13   1.0000      -0.886215       -24.1151
  14   1.0000      -0.806500       -21.9460
  15   1.0000      -0.707676       -19.2568
  16   1.0000      -0.685384       -18.6502
  17   1.0000      -0.675833       -18.3903
  18   1.0000      -0.638516       -17.3749
  19   1.0000      -0.624454       -16.9922
  20   1.0000      -0.597871       -16.2689
  21   1.0000      -0.580201       -15.7881
  22   1.0000      -0.553467       -15.0606
  23   1.0000      -0.542904       -14.7732
  24   1.0000      -0.534299       -14.5390
  25   1.0000      -0.530921       -14.4471
  26   1.0000      -0.517396       -14.0791
  27   1.0000      -0.469056       -12.7637
  28   1.0000      -0.453651       -12.3445
  29   1.0000      -0.449943       -12.2436
  30   1.0000      -0.331313        -9.0155
  31   0.0000       0.021237         0.5779
  32   0.0000       0.028864         0.7854
  33   0.0000       0.029247         0.7959
  34   0.0000       0.034498         0.9387
  35   0.0000       0.046064         1.2535

                 SPIN DOWN ORBITALS
  NO   OCC          E(Eh)            E(eV)
   0   1.0000     -20.562312      -559.5289
   1   1.0000     -20.558156      -559.4159
   2   1.0000     -11.301220      -307.5218
   3   1.0000     -11.289606      -307.2058
   4   1.0000     -11.236659      -305.7650
   5   1.0000     -11.223389      -305.4039
   6   1.0000     -11.219946      -305.3103
   7   1.0000      -7.624486      -207.4728
   8   1.0000      -1.396116       -37.9902
   9   1.0000      -1.352816       -36.8120
  10   1.0000      -1.097208       -29.8565
  11   1.0000      -1.008587       -27.4450
  12   1.0000      -0.953423       -25.9440
  13   1.0000      -0.881065       -23.9750
  14   1.0000      -0.793997       -21.6058
  15   1.0000      -0.705781       -19.2053
  16   1.0000      -0.678304       -18.4576
  17   1.0000      -0.669398       -18.2153
  18   1.0000      -0.635763       -17.3000
  19   1.0000      -0.621368       -16.9083
  20   1.0000      -0.596928       -16.2432
  21   1.0000      -0.578985       -15.7550
  22   1.0000      -0.549469       -14.9518
  23   1.0000      -0.539365       -14.6769
  24   1.0000      -0.532521       -14.4906
  25   1.0000      -0.528423       -14.3791
  26   1.0000      -0.512779       -13.9534
  27   1.0000      -0.468296       -12.7430
  28   1.0000      -0.455193       -12.3864
  29   1.0000      -0.450405       -12.2562
  30   0.0000       0.020877         0.5681
  31   0.0000       0.028803         0.7838
  32   0.0000       0.029331         0.7981
  33   0.0000       0.033414         0.9093
  34   0.0000       0.045498         1.2381

MULLIKEN ATOMIC CHARGES AND SPIN POPULATIONS
--------------------------------------------
   0 O :   -1.024691   -0.118445
   1 O :   -1.103123   -0.158200
   2 C :   -0.065658    0.052739
   3 C :   -0.913104   -0.022144
   4 C :    1.809427    0.043556
   5 C :   -1.020512   -0.004267
   6 C :   -1.083532   -0.008686
   7 B :    0.735395    1.212419
   8 H :    0.199212   -0.002954
   9 H :    0.391978   -0.002830
  10 H :    0.314441    0.007051
  11 H :    0.219158   -0.001908
  12 H :    0.248743    0.002219
  13 H :    0.245245    0.000552
  14 H :    0.252959    0.000138
  15 H :    0.228708   -0.000884
  16 H :    0.304420   -0.000294
  17 H :    0.260936    0.001937
Sum of atomic charges         :   -0.0000000

LOEWDIN ATOMIC CHARGES AND SPIN POPULATIONS
-------------------------------------------
   0 O :    0.883943    0.153943
   1 O :    0.891694    0.154693
   2 C :    0.193614    0.032773
   3 C :    0.483470    0.014445
   4 C :   -0.641754    0.033162
   5 C :    0.905661    0.004779
   6 C :    0.912777    0.006649
   7 B :   -0.885575    0.582660
   8 H :   -0.298274    0.003966
   9 H :   -0.286409    0.003881
  10 H :   -0.252339    0.002319
  11 H :   -0.270340    0.001582
  12 H :   -0.267763    0.001092
  13 H :   -0.274975    0.000607
  14 H :   -0.273853    0.000376
  15 H :   -0.286793    0.001368
  16 H :   -0.270132    0.000589
  17 H :   -0.262951    0.001117

  Mayer bond orders larger than 0.100000
B(  0-O ,  2-C ) :   0.5764 B(  0-O ,  3-C ) :   0.1176 B(  0-O ,  7-B ) :   0.4969
B(  1-O ,  3-C ) :   0.2048 B(  1-O ,  4-C ) :  -0.2423 B(  1-O ,  6-C ) :   0.1129
B(  1-O ,  7-B ) :   0.5407 B(  2-C ,  3-C ) :   1.0096 B(  2-C ,  8-H ) :   0.9591
B(  2-C ,  9-H ) :   0.8397 B(  3-C ,  4-C ) :   0.5800 B(  3-C , 10-H ) :   0.8748
B(  3-C , 11-H ) :   0.9479 B(  4-C ,  5-C ) :   0.3236 B(  4-C ,  6-C ) :   0.5707
B(  4-C , 12-H ) :  -0.1085 B(  4-C , 14-H ) :  -0.1278 B(  5-C ,  6-C ) :   0.1274
B(  5-C , 12-H ) :   1.0187 B(  5-C , 13-H ) :   1.0193 B(  5-C , 14-H ) :   1.0563
B(  6-C , 15-H ) :   1.0300 B(  6-C , 16-H ) :   0.9632 B(  6-C , 17-H ) :   0.9824

MP2 TOTAL ENERGY:     -371.275787328 Eh
FINAL SINGLE POINT ENERGY      -371.275787327692

DIPOLE MOMENT
-------------
                                X             Y             Z
Electronic contribution:      7.29577       6.63301      -0.33588
Nuclear contribution   :     -7.96165      -7.95890       0.29113
                        -----------------------------------------
Total Dipole Moment    :     -0.66588      -1.32589      -0.04475
                        -----------------------------------------
Magnitude (a.u.)       :      1.48438
Magnitude (Debye)      :      3.77299

Rotational constants in cm-1:     0.116467     0.061740     0.055492
Rotational constants in MHz :  3491.602064  1850.932554  1663.623020

                             ****ORCA TERMINATED NORMALLY****
TOTAL RUN TIME: 0 days 9 hours 39 minutes 22 seconds 390 msec
