                         Program Version 5.0.4 -  RELEASE  -
|  1> ! ri-mp2 aug-cc-pvdz aug-cc-pvdz/c tightscf
|  2> %pal nprocs 16 end
|  3> %maxcore 3800
|  4> %base "DZ_P-P_7_A"
|  5> %scf
|  6> STABPerform true
|  7> STABRestartUHFifUnstable true
|  8> end
|  9>
| 10> *xyz 0 2
| 11> C         1.055696   -1.215807    0.006220
| 12> N         0.289335    0.008076   -0.047138
| 13> H         1.763954   -1.264969   -0.826299
| 14> H         0.393382   -2.077157   -0.057332
| 15> H         1.624222   -1.287521    0.939845
| 16> C         1.082452    1.211569    0.010843
| 17> H         1.614905    1.289739    0.965729
| 18> H         0.450472    2.087637   -0.103192
| 19> H         1.829015    1.216613   -0.789461
| 20> P        -1.394498   -0.087199    0.008750
| 21> H        -1.612710    1.312537   -0.032945
| 22> *
| 23>
| 24> $new_job
| 25> ! ri-mp2 aug-cc-pvtz aug-cc-pvtz/c tightscf
| 26> %pal nprocs 16 end
| 27> %maxcore 3800
| 28> %base "TZ_P-P_7_A"
| 29>
| 30> *xyz 0 2
| 31> C         1.055696   -1.215807    0.006220
| 32> N         0.289335    0.008076   -0.047138
| 33> H         1.763954   -1.264969   -0.826299
| 34> H         0.393382   -2.077157   -0.057332
| 35> H         1.624222   -1.287521    0.939845
| 36> C         1.082452    1.211569    0.010843
| 37> H         1.614905    1.289739    0.965729
| 38> H         0.450472    2.087637   -0.103192
| 39> H         1.829015    1.216613   -0.789461
| 40> P        -1.394498   -0.087199    0.008750
| 41> H        -1.612710    1.312537   -0.032945
| 42> *
| 43>
| 44> $new_job
| 45> ! ri-mp2 aug-cc-pvqz aug-cc-pvqz/c tightscf
| 46> %pal nprocs 16 end
| 47> %maxcore 3800
| 48> %base "QZ_P-P_7_A"
| 49>
| 50> *xyz 0 2
| 51> C         1.055696   -1.215807    0.006220
| 52> N         0.289335    0.008076   -0.047138
| 53> H         1.763954   -1.264969   -0.826299
| 54> H         0.393382   -2.077157   -0.057332
| 55> H         1.624222   -1.287521    0.939845
| 56> C         1.082452    1.211569    0.010843
| 57> H         1.614905    1.289739    0.965729
| 58> H         0.450472    2.087637   -0.103192
| 59> H         1.829015    1.216613   -0.789461
| 60> P        -1.394498   -0.087199    0.008750
| 61> H        -1.612710    1.312537   -0.032945
| 62> *
| 63>
| 64>
| 65>
| 66>
| 67>                          ****END OF INPUT****
 Total Charge           Charge          ....    0
 Multiplicity           Mult            ....    2
 Number of Electrons    NEL             ....   41
MP2 TOTAL ENERGY:     -475.572495432 Eh
FINAL SINGLE POINT ENERGY      -475.572495432117
MP2 TOTAL ENERGY:     -475.744202696 Eh
FINAL SINGLE POINT ENERGY      -475.744202696469

CARTESIAN COORDINATES (ANGSTROEM)
---------------------------------
  C      1.055696   -1.215807    0.006220
  N      0.289335    0.008076   -0.047138
  H      1.763954   -1.264969   -0.826299
  H      0.393382   -2.077157   -0.057332
  H      1.624222   -1.287521    0.939845
  C      1.082452    1.211569    0.010843
  H      1.614905    1.289739    0.965729
  H      0.450472    2.087637   -0.103192
  H      1.829015    1.216613   -0.789461
  P     -1.394498   -0.087199    0.008750
  H     -1.612710    1.312537   -0.032945

 Multiplicity           Mult            ....    2
 Number of Electrons    NEL             ....   41
 Basis Dimension        Dim             ....  646

ORBITAL ENERGIES
----------------
                 SPIN UP ORBITALS
  NO   OCC          E(Eh)            E(eV)
   0   1.0000     -79.946190     -2175.4464
   1   1.0000     -15.571493      -423.7219
   2   1.0000     -11.257653      -306.3363
   3   1.0000     -11.256667      -306.3095
   4   1.0000      -7.486333      -203.7135
   5   1.0000      -5.389010      -146.6424
   6   1.0000      -5.377811      -146.3377
   7   1.0000      -5.375959      -146.2873
   8   1.0000      -1.237238       -33.6670
   9   1.0000      -0.970416       -26.4064
  10   1.0000      -0.909433       -24.7469
  11   1.0000      -0.773625       -21.0514
  12   1.0000      -0.651166       -17.7191
  13   1.0000      -0.637696       -17.3526
  14   1.0000      -0.617377       -16.7997
  15   1.0000      -0.555306       -15.1107
  16   1.0000      -0.532048       -14.4778
  17   1.0000      -0.518386       -14.1060
  18   1.0000      -0.439980       -11.9725
  19   1.0000      -0.412137       -11.2148
  20   1.0000      -0.286134        -7.7861
  21   0.0000       0.024275         0.6606
  22   0.0000       0.034929         0.9505
  23   0.0000       0.039223         1.0673
  24   0.0000       0.040493         1.1019
  25   0.0000       0.053343         1.4515

                 SPIN DOWN ORBITALS
  NO   OCC          E(Eh)            E(eV)
   0   1.0000     -79.940604     -2175.2944
   1   1.0000     -15.561222      -423.4424
   2   1.0000     -11.258450      -306.3580
   3   1.0000     -11.257473      -306.3314
   4   1.0000      -7.479474      -203.5268
   5   1.0000      -5.374628      -146.2511
   6   1.0000      -5.374072      -146.2359
   7   1.0000      -5.361457      -145.8927
   8   1.0000      -1.216549       -33.1040
   9   1.0000      -0.970443       -26.4071
  10   1.0000      -0.895578       -24.3699
  11   1.0000      -0.742228       -20.1971
  12   1.0000      -0.633011       -17.2251
  13   1.0000      -0.629068       -17.1178
  14   1.0000      -0.603441       -16.4205
  15   1.0000      -0.554231       -15.0814
  16   1.0000      -0.530964       -14.4483
  17   1.0000      -0.513326       -13.9683
  18   1.0000      -0.389892       -10.6095
  19   1.0000      -0.364776        -9.9261
  20   0.0000       0.024626         0.6701
  21   0.0000       0.034999         0.9524
  22   0.0000       0.035264         0.9596
  23   0.0000       0.040836         1.1112
  24   0.0000       0.053491         1.4556

MULLIKEN ATOMIC CHARGES AND SPIN POPULATIONS
--------------------------------------------
   0 C :   -0.745901   -0.034578
   1 N :   -0.312523    0.149384
   2 H :    0.276254    0.006865
   3 H :    0.308622    0.003134
   4 H :    0.285776    0.009025
   5 C :   -0.784724   -0.031426
   6 H :    0.294917    0.010377
   7 H :    0.338988    0.003102
   8 H :    0.262048    0.007534
   9 P :    0.254484    0.926269
  10 H :   -0.177941   -0.049686
Sum of atomic charges         :    0.0000000

LOEWDIN ATOMIC CHARGES AND SPIN POPULATIONS
-------------------------------------------
   0 C :    0.609109    0.020374
   1 N :    0.030565    0.245955
   2 H :   -0.294113    0.001736
   3 H :   -0.354393   -0.003822
   4 H :   -0.289746    0.002384
   5 C :    0.641605    0.022336
   6 H :   -0.285019    0.003603
   7 H :   -0.353389   -0.000764
   8 H :   -0.292285    0.002213
   9 P :    1.180903    0.547143
  10 H :   -0.593238    0.158843

  Mayer bond orders larger than 0.100000
B(  0-C ,  1-N ) :   0.8191 B(  0-C ,  2-H ) :   0.9427 B(  0-C ,  3-H ) :   0.9400
B(  0-C ,  4-H ) :   0.9199 B(  1-N ,  5-C ) :   0.8399 B(  1-N ,  9-P ) :   0.8597
B(  1-N , 10-H ) :  -0.1191 B(  5-C ,  6-H ) :   0.9114 B(  5-C ,  7-H ) :   0.9103
B(  5-C ,  8-H ) :   0.9427 B(  9-P , 10-H ) :   1.0390

MP2 TOTAL ENERGY:     -475.796491375 Eh
FINAL SINGLE POINT ENERGY      -475.796491374540

DIPOLE MOMENT
-------------
                                X             Y             Z
Electronic contribution:     -6.71832      -1.14395      -0.07812
Nuclear contribution   :      7.48458       1.37682       0.08882
                        -----------------------------------------
Total Dipole Moment    :      0.76626       0.23286       0.01070
                        -----------------------------------------
Magnitude (a.u.)       :      0.80093
Magnitude (Debye)      :      2.03581

Rotational constants in cm-1:     0.302931     0.158722     0.108435
Rotational constants in MHz :  9081.628720  4758.358877  3250.794900

                             ****ORCA TERMINATED NORMALLY****
TOTAL RUN TIME: 0 days 0 hours 56 minutes 4 seconds 386 msec
