                         Program Version 5.0.4 -  RELEASE  -
|  1> ! ri-mp2 aug-cc-pvdz aug-cc-pvdz/c tightscf
|  2> %pal nprocs 16 end
|  3> %maxcore 3800
|  4> %base "DZ_S-F_56_AB"
|  5> %scf
|  6> STABPerform true
|  7> STABRestartUHFifUnstable true
|  8> end
|  9>
| 10> *xyz 0 1
| 11> F        -2.043406    0.701495    0.201127
| 12> S        -1.261018   -0.618692   -0.296444
| 13> S         0.697893   -0.081622    0.156294
| 14> O         1.380100   -1.296340   -0.175075
| 15> C         1.110655    1.171246   -1.020293
| 16> O         0.761766    0.499748    1.456576
| 17> H         1.046414    0.751284   -2.019347
| 18> H         2.129211    1.479636   -0.788856
| 19> H         0.426171    2.005910   -0.889783
| 20> *
| 21>
| 22> $new_job
| 23> ! ri-mp2 aug-cc-pvtz aug-cc-pvtz/c tightscf
| 24> %pal nprocs 16 end
| 25> %maxcore 3800
| 26> %base "TZ_S-F_56_AB"
| 27>
| 28> *xyz 0 1
| 29> F        -2.043406    0.701495    0.201127
| 30> S        -1.261018   -0.618692   -0.296444
| 31> S         0.697893   -0.081622    0.156294
| 32> O         1.380100   -1.296340   -0.175075
| 33> C         1.110655    1.171246   -1.020293
| 34> O         0.761766    0.499748    1.456576
| 35> H         1.046414    0.751284   -2.019347
| 36> H         2.129211    1.479636   -0.788856
| 37> H         0.426171    2.005910   -0.889783
| 38> *
| 39>
| 40> $new_job
| 41> ! ri-mp2 aug-cc-pvqz aug-cc-pvqz/c tightscf
| 42> %pal nprocs 16 end
| 43> %maxcore 3800
| 44> %base "QZ_S-F_56_AB"
| 45>
| 46> *xyz 0 1
| 47> F        -2.043406    0.701495    0.201127
| 48> S        -1.261018   -0.618692   -0.296444
| 49> S         0.697893   -0.081622    0.156294
| 50> O         1.380100   -1.296340   -0.175075
| 51> C         1.110655    1.171246   -1.020293
| 52> O         0.761766    0.499748    1.456576
| 53> H         1.046414    0.751284   -2.019347
| 54> H         2.129211    1.479636   -0.788856
| 55> H         0.426171    2.005910   -0.889783
| 56> *
| 57>
| 58>
| 59>
| 60>
| 61>                          ****END OF INPUT****
 Total Charge           Charge          ....    0
 Multiplicity           Mult            ....    1
 Number of Electrons    NEL             ....   66
MP2 TOTAL ENERGY:    -1084.796629011 Eh
FINAL SINGLE POINT ENERGY     -1084.796629011211
MP2 TOTAL ENERGY:    -1085.192992653 Eh
FINAL SINGLE POINT ENERGY     -1085.192992653089

CARTESIAN COORDINATES (ANGSTROEM)
---------------------------------
  F     -2.043406    0.701495    0.201127
  S     -1.261018   -0.618692   -0.296444
  S      0.697893   -0.081622    0.156294
  O      1.380100   -1.296340   -0.175075
  C      1.110655    1.171246   -1.020293
  O      0.761766    0.499748    1.456576
  H      1.046414    0.751284   -2.019347
  H      2.129211    1.479636   -0.788856
  H      0.426171    2.005910   -0.889783

 Multiplicity           Mult            ....    1
 Number of Electrons    NEL             ....   66
 Basis Dimension        Dim             ....  626

ORBITAL ENERGIES
----------------

  NO   OCC          E(Eh)            E(eV)
   0   2.0000     -92.208763     -2509.1280
   1   2.0000     -92.078156     -2505.5740
   2   2.0000     -26.345564      -716.8993
   3   2.0000     -20.576812      -559.9235
   4   2.0000     -20.575360      -559.8840
   5   2.0000     -11.295272      -307.3600
   6   2.0000      -9.178213      -249.7519
   7   2.0000      -9.072454      -246.8740
   8   2.0000      -6.864000      -186.7789
   9   2.0000      -6.862588      -186.7405
  10   2.0000      -6.862408      -186.7356
  11   2.0000      -6.753458      -183.7709
  12   2.0000      -6.751718      -183.7236
  13   2.0000      -6.750184      -183.6818
  14   2.0000      -1.645594       -44.7789
  15   2.0000      -1.492146       -40.6034
  16   2.0000      -1.380095       -37.5543
  17   2.0000      -1.083719       -29.4895
  18   2.0000      -1.016982       -27.6735
  19   2.0000      -0.843866       -22.9628
  20   2.0000      -0.753465       -20.5028
  21   2.0000      -0.727998       -19.8098
  22   2.0000      -0.717474       -19.5235
  23   2.0000      -0.695511       -18.9258
  24   2.0000      -0.680622       -18.5207
  25   2.0000      -0.647813       -17.6279
  26   2.0000      -0.627920       -17.0866
  27   2.0000      -0.606865       -16.5136
  28   2.0000      -0.534956       -14.5569
  29   2.0000      -0.524817       -14.2810
  30   2.0000      -0.508304       -13.8317
  31   2.0000      -0.455764       -12.4020
  32   2.0000      -0.424029       -11.5384
  33   0.0000       0.020378         0.5545
  34   0.0000       0.037122         1.0102
  35   0.0000       0.038243         1.0406
  36   0.0000       0.046468         1.2644
  37   0.0000       0.057376         1.5613

MULLIKEN ATOMIC CHARGES
-----------------------
   0 F :   -0.588709
   1 S :    0.553504
   2 S :    2.327316
   3 O :   -1.171166
   4 C :   -1.001528
   5 O :   -1.156110
   6 H :    0.361213
   7 H :    0.328208
   8 H :    0.347273
Sum of atomic charges:   -0.0000000

LOEWDIN ATOMIC CHARGES
----------------------
   0 F :    0.039997
   1 S :    0.478722
   2 S :   -0.697842
   3 O :    0.227289
   4 C :    0.733946
   5 O :    0.244567
   6 H :   -0.348423
   7 H :   -0.333745
   8 H :   -0.344511

  Mayer bond orders larger than 0.100000
B(  0-F ,  1-S ) :   0.6462 B(  1-S ,  2-S ) :   0.9289 B(  2-S ,  3-O ) :   1.0864
B(  2-S ,  4-C ) :   0.9286 B(  2-S ,  5-O ) :   1.0787 B(  4-C ,  6-H ) :   0.8767
B(  4-C ,  7-H ) :   0.8558 B(  4-C ,  8-H ) :   0.8926

MP2 TOTAL ENERGY:    -1085.323398135 Eh
FINAL SINGLE POINT ENERGY     -1085.323398135044

DIPOLE MOMENT
-------------
                                X             Y             Z
Electronic contribution:     -5.52502      -2.63155       2.34438
Nuclear contribution   :      5.40091       3.38388      -3.68769
                        -----------------------------------------
Total Dipole Moment    :     -0.12411       0.75234      -1.34331
                        -----------------------------------------
Magnitude (a.u.)       :      1.54463
Magnitude (Debye)      :      3.92615

Rotational constants in cm-1:     0.127454     0.064350     0.059505
Rotational constants in MHz :  3820.963087  1929.159945  1783.921292

                             ****ORCA TERMINATED NORMALLY****
TOTAL RUN TIME: 0 days 0 hours 23 minutes 26 seconds 73 msec
