                         Program Version 5.0.4 -  RELEASE  -
|  1> ! ri-mp2 aug-cc-pvdz aug-cc-pvdz/c tightscf
|  2> %pal nprocs 16 end
|  3> %maxcore 3800
|  4> %base "DZ_B-B_64_AB"
|  5> %scf
|  6> STABPerform true
|  7> STABRestartUHFifUnstable true
|  8> end
|  9>
| 10> *xyz 0 1
| 11> B         0.615787   -1.255760   -0.491750
| 12> B        -0.622690   -1.228874    0.515737
| 13> B        -1.799627   -0.051875    0.122520
| 14> B         1.776536   -0.063286   -0.133208
| 15> O        -3.075184   -0.453301   -0.133957
| 16> H        -3.644985    0.282947   -0.386691
| 17> O        -1.510361    1.276264    0.046849
| 18> H        -0.565739    1.483313    0.101026
| 19> O         1.356842    1.243561   -0.074228
| 20> H         2.072120    1.863990    0.112596
| 21> O         3.091111   -0.281569    0.156005
| 22> H         3.385585   -1.190701    0.069639
| 23> H        -0.722221   -1.801698    1.557332
| 24> H         0.725941   -1.918519   -1.477752
| 25> *
| 26>
| 27> $new_job
| 28> ! ri-mp2 aug-cc-pvtz aug-cc-pvtz/c tightscf
| 29> %pal nprocs 16 end
| 30> %maxcore 3800
| 31> %base "TZ_B-B_64_AB"
| 32>
| 33> *xyz 0 1
| 34> B         0.615787   -1.255760   -0.491750
| 35> B        -0.622690   -1.228874    0.515737
| 36> B        -1.799627   -0.051875    0.122520
| 37> B         1.776536   -0.063286   -0.133208
| 38> O        -3.075184   -0.453301   -0.133957
| 39> H        -3.644985    0.282947   -0.386691
| 40> O        -1.510361    1.276264    0.046849
| 41> H        -0.565739    1.483313    0.101026
| 42> O         1.356842    1.243561   -0.074228
| 43> H         2.072120    1.863990    0.112596
| 44> O         3.091111   -0.281569    0.156005
| 45> H         3.385585   -1.190701    0.069639
| 46> H        -0.722221   -1.801698    1.557332
| 47> H         0.725941   -1.918519   -1.477752
| 48> *
| 49>
| 50> $new_job
| 51> ! ri-mp2 aug-cc-pvqz aug-cc-pvqz/c tightscf
| 52> %pal nprocs 16 end
| 53> %maxcore 3800
| 54> %base "QZ_B-B_64_AB"
| 55>
| 56> *xyz 0 1
| 57> B         0.615787   -1.255760   -0.491750
| 58> B        -0.622690   -1.228874    0.515737
| 59> B        -1.799627   -0.051875    0.122520
| 60> B         1.776536   -0.063286   -0.133208
| 61> O        -3.075184   -0.453301   -0.133957
| 62> H        -3.644985    0.282947   -0.386691
| 63> O        -1.510361    1.276264    0.046849
| 64> H        -0.565739    1.483313    0.101026
| 65> O         1.356842    1.243561   -0.074228
| 66> H         2.072120    1.863990    0.112596
| 67> O         3.091111   -0.281569    0.156005
| 68> H         3.385585   -1.190701    0.069639
| 69> H        -0.722221   -1.801698    1.557332
| 70> H         0.725941   -1.918519   -1.477752
| 71> *
| 72>
| 73>
| 74>
| 75>
| 76>                          ****END OF INPUT****
 Total Charge           Charge          ....    0
 Multiplicity           Mult            ....    1
 Number of Electrons    NEL             ....   58
MP2 TOTAL ENERGY:     -403.030519972 Eh
FINAL SINGLE POINT ENERGY      -403.030519972417
MP2 TOTAL ENERGY:     -403.381816605 Eh
FINAL SINGLE POINT ENERGY      -403.381816604575

CARTESIAN COORDINATES (ANGSTROEM)
---------------------------------
  B      0.615787   -1.255760   -0.491750
  B     -0.622690   -1.228874    0.515737
  B     -1.799627   -0.051875    0.122520
  B      1.776536   -0.063286   -0.133208
  O     -3.075184   -0.453301   -0.133957
  H     -3.644985    0.282947   -0.386691
  O     -1.510361    1.276264    0.046849
  H     -0.565739    1.483313    0.101026
  O      1.356842    1.243561   -0.074228
  H      2.072120    1.863990    0.112596
  O      3.091111   -0.281569    0.156005
  H      3.385585   -1.190701    0.069639
  H     -0.722221   -1.801698    1.557332
  H      0.725941   -1.918519   -1.477752

 Multiplicity           Mult            ....    1
 Number of Electrons    NEL             ....   58
 Basis Dimension        Dim             ....  916

ORBITAL ENERGIES
----------------

  NO   OCC          E(Eh)            E(eV)
   0   2.0000     -20.585617      -560.1631
   1   2.0000     -20.583346      -560.1013
   2   2.0000     -20.552362      -559.2582
   3   2.0000     -20.548589      -559.1555
   4   2.0000      -7.643797      -207.9983
   5   2.0000      -7.616736      -207.2619
   6   2.0000      -7.573165      -206.0763
   7   2.0000      -7.565387      -205.8646
   8   2.0000      -1.403410       -38.1887
   9   2.0000      -1.370112       -37.2827
  10   2.0000      -1.360988       -37.0344
  11   2.0000      -1.328891       -36.1610
  12   2.0000      -0.802125       -21.8269
  13   2.0000      -0.770210       -20.9585
  14   2.0000      -0.762541       -20.7498
  15   2.0000      -0.724693       -19.7199
  16   2.0000      -0.706990       -19.2382
  17   2.0000      -0.641060       -17.4441
  18   2.0000      -0.607932       -16.5427
  19   2.0000      -0.590755       -16.0753
  20   2.0000      -0.587388       -15.9836
  21   2.0000      -0.572406       -15.5760
  22   2.0000      -0.557826       -15.1792
  23   2.0000      -0.543772       -14.7968
  24   2.0000      -0.521386       -14.1876
  25   2.0000      -0.487567       -13.2674
  26   2.0000      -0.473737       -12.8910
  27   2.0000      -0.439037       -11.9468
  28   2.0000      -0.392037       -10.6679
  29   0.0000       0.017176         0.4674
  30   0.0000       0.026450         0.7197
  31   0.0000       0.028321         0.7707
  32   0.0000       0.030571         0.8319
  33   0.0000       0.040803         1.1103

MULLIKEN ATOMIC CHARGES
-----------------------
   0 B :    0.368243
   1 B :    0.401048
   2 B :    1.331611
   3 B :    1.320263
   4 O :   -1.041176
   5 H :    0.338775
   6 O :   -1.118985
   7 H :    0.401432
   8 O :   -0.933649
   9 H :    0.326703
  10 O :   -1.092875
  11 H :    0.356020
  12 H :   -0.320980
  13 H :   -0.336431
Sum of atomic charges:    0.0000000

LOEWDIN ATOMIC CHARGES
----------------------
   0 B :    0.181090
   1 B :    0.168467
   2 B :   -1.107657
   3 B :   -1.064411
   4 O :    1.326557
   5 H :   -0.797401
   6 O :    1.370631
   7 H :   -0.963901
   8 O :    1.385931
   9 H :   -0.737134
  10 O :    1.356613
  11 H :   -0.780427
  12 H :   -0.168443
  13 H :   -0.169914

  Mayer bond orders larger than 0.100000
B(  0-B ,  1-B ) :   1.0124 B(  0-B ,  3-B ) :   0.9486 B(  0-B ,  8-O ) :  -0.1165
B(  0-B , 13-H ) :   0.8376 B(  1-B ,  2-B ) :   0.9004 B(  1-B ,  4-O ) :  -0.1788
B(  1-B , 12-H ) :   0.8275 B(  2-B ,  4-O ) :   0.4819 B(  2-B ,  6-O ) :   0.5810
B(  3-B ,  8-O ) :   0.4547 B(  3-B , 10-O ) :   0.5188 B(  4-O ,  5-H ) :   0.9380
B(  4-O ,  6-O ) :  -0.1435 B(  6-O ,  7-H ) :   0.8793 B(  8-O ,  9-H ) :   0.9916
B(  8-O , 10-O ) :  -0.1564 B( 10-O , 11-H ) :   0.9132

MP2 TOTAL ENERGY:     -403.496841784 Eh
FINAL SINGLE POINT ENERGY      -403.496841784183

DIPOLE MOMENT
-------------
                                X             Y             Z
Electronic contribution:     -0.11967      -0.85378      -0.04666
Nuclear contribution   :      1.22377       0.81000      -0.03332
                        -----------------------------------------
Total Dipole Moment    :      1.10410      -0.04378      -0.07998
                        -----------------------------------------
Magnitude (a.u.)       :      1.10786
Magnitude (Debye)      :      2.81595

Rotational constants in cm-1:     0.147276     0.034428     0.029006
Rotational constants in MHz :  4415.237149  1032.111359   869.567243

                             ****ORCA TERMINATED NORMALLY****
TOTAL RUN TIME: 0 days 1 hours 10 minutes 26 seconds 599 msec
