                         Program Version 5.0.4 -  RELEASE  -
|  1> ! ri-mp2 aug-cc-pvdz aug-cc-pvdz/c tightscf
|  2> %pal nprocs 16 end
|  3> %maxcore 3800
|  4> %base "DZ_S-Cl_45_A"
|  5> %scf
|  6> STABPerform true
|  7> STABRestartUHFifUnstable true
|  8> end
|  9>
| 10> *xyz 0 2
| 11> S         1.640890   -0.738336    0.217388
| 12> C         0.368916    0.232518   -0.606358
| 13> O         0.570834    1.614898   -0.571495
| 14> N        -0.796916   -0.247381    0.076858
| 15> C        -1.905222   -0.695342   -0.733490
| 16> H        -1.538591   -1.281815   -1.573485
| 17> H        -2.496287    0.144835   -1.121767
| 18> H        -2.561579   -1.330266   -0.138857
| 19> C        -1.162792    0.399125    1.316332
| 20> H        -0.273546    0.605204    1.906646
| 21> H        -1.801114   -0.266708    1.896118
| 22> H        -1.701986    1.337606    1.142485
| 23> H         0.286773   -0.034868   -1.656718
| 24> H         1.038417    1.834054    0.242411
| 25> *
| 26>
| 27> $new_job
| 28> ! ri-mp2 aug-cc-pvtz aug-cc-pvtz/c tightscf
| 29> %pal nprocs 16 end
| 30> %maxcore 3800
| 31> %base "TZ_S-Cl_45_A"
| 32>
| 33> *xyz 0 2
| 34> S         1.640890   -0.738336    0.217388
| 35> C         0.368916    0.232518   -0.606358
| 36> O         0.570834    1.614898   -0.571495
| 37> N        -0.796916   -0.247381    0.076858
| 38> C        -1.905222   -0.695342   -0.733490
| 39> H        -1.538591   -1.281815   -1.573485
| 40> H        -2.496287    0.144835   -1.121767
| 41> H        -2.561579   -1.330266   -0.138857
| 42> C        -1.162792    0.399125    1.316332
| 43> H        -0.273546    0.605204    1.906646
| 44> H        -1.801114   -0.266708    1.896118
| 45> H        -1.701986    1.337606    1.142485
| 46> H         0.286773   -0.034868   -1.656718
| 47> H         1.038417    1.834054    0.242411
| 48> *
| 49>
| 50> $new_job
| 51> ! ri-mp2 aug-cc-pvqz aug-cc-pvqz/c tightscf
| 52> %pal nprocs 16 end
| 53> %maxcore 3800
| 54> %base "QZ_S-Cl_45_A"
| 55>
| 56> *xyz 0 2
| 57> S         1.640890   -0.738336    0.217388
| 58> C         0.368916    0.232518   -0.606358
| 59> O         0.570834    1.614898   -0.571495
| 60> N        -0.796916   -0.247381    0.076858
| 61> C        -1.905222   -0.695342   -0.733490
| 62> H        -1.538591   -1.281815   -1.573485
| 63> H        -2.496287    0.144835   -1.121767
| 64> H        -2.561579   -1.330266   -0.138857
| 65> C        -1.162792    0.399125    1.316332
| 66> H        -0.273546    0.605204    1.906646
| 67> H        -1.801114   -0.266708    1.896118
| 68> H        -1.701986    1.337606    1.142485
| 69> H         0.286773   -0.034868   -1.656718
| 70> H         1.038417    1.834054    0.242411
| 71> *
| 72>
| 73>
| 74>
| 75>
| 76>                          ****END OF INPUT****
 Total Charge           Charge          ....    0
 Multiplicity           Mult            ....    2
 Number of Electrons    NEL             ....   57
MP2 TOTAL ENERGY:     -646.036314530 Eh
FINAL SINGLE POINT ENERGY      -646.036314530019
MP2 TOTAL ENERGY:     -646.308496117 Eh
FINAL SINGLE POINT ENERGY      -646.308496117127

CARTESIAN COORDINATES (ANGSTROEM)
---------------------------------
  S      1.640890   -0.738336    0.217388
  C      0.368916    0.232518   -0.606358
  O      0.570834    1.614898   -0.571495
  N     -0.796916   -0.247381    0.076858
  C     -1.905222   -0.695342   -0.733490
  H     -1.538591   -1.281815   -1.573485
  H     -2.496287    0.144835   -1.121767
  H     -2.561579   -1.330266   -0.138857
  C     -1.162792    0.399125    1.316332
  H     -0.273546    0.605204    1.906646
  H     -1.801114   -0.266708    1.896118
  H     -1.701986    1.337606    1.142485
  H      0.286773   -0.034868   -1.656718
  H      1.038417    1.834054    0.242411

 Multiplicity           Mult            ....    2
 Number of Electrons    NEL             ....   57
 Basis Dimension        Dim             ....  852

ORBITAL ENERGIES
----------------
                 SPIN UP ORBITALS
  NO   OCC          E(Eh)            E(eV)
   0   1.0000     -91.963411     -2502.4516
   1   1.0000     -20.574729      -559.8668
   2   1.0000     -15.564702      -423.5371
   3   1.0000     -11.347001      -308.7676
   4   1.0000     -11.255646      -306.2817
   5   1.0000     -11.252883      -306.2065
   6   1.0000      -8.966442      -243.9893
   7   1.0000      -6.662124      -181.2856
   8   1.0000      -6.643673      -180.7835
   9   1.0000      -6.642383      -180.7484
  10   1.0000      -1.396991       -38.0140
  11   1.0000      -1.246805       -33.9273
  12   1.0000      -1.027049       -27.9474
  13   1.0000      -0.972842       -26.4724
  14   1.0000      -0.901039       -24.5185
  15   1.0000      -0.817826       -22.2542
  16   1.0000      -0.703320       -19.1383
  17   1.0000      -0.678188       -18.4544
  18   1.0000      -0.649833       -17.6829
  19   1.0000      -0.627336       -17.0707
  20   1.0000      -0.585514       -15.9326
  21   1.0000      -0.564821       -15.3695
  22   1.0000      -0.553087       -15.0503
  23   1.0000      -0.533231       -14.5100
  24   1.0000      -0.518230       -14.1018
  25   1.0000      -0.463395       -12.6096
  26   1.0000      -0.440720       -11.9926
  27   1.0000      -0.378852       -10.3091
  28   1.0000      -0.357972        -9.7409
  29   0.0000       0.025653         0.6980
  30   0.0000       0.032801         0.8926
  31   0.0000       0.036346         0.9890
  32   0.0000       0.040644         1.1060
  33   0.0000       0.049207         1.3390

                 SPIN DOWN ORBITALS
  NO   OCC          E(Eh)            E(eV)
   0   1.0000     -91.954306     -2502.2039
   1   1.0000     -20.574724      -559.8667
   2   1.0000     -15.559522      -423.3961
   3   1.0000     -11.347865      -308.7911
   4   1.0000     -11.255717      -306.2836
   5   1.0000     -11.253057      -306.2112
   6   1.0000      -8.956397      -243.7160
   7   1.0000      -6.638697      -180.6481
   8   1.0000      -6.637026      -180.6027
   9   1.0000      -6.621206      -180.1722
  10   1.0000      -1.396535       -38.0016
  11   1.0000      -1.238252       -33.6945
  12   1.0000      -0.996071       -27.1045
  13   1.0000      -0.971880       -26.4462
  14   1.0000      -0.857164       -23.3246
  15   1.0000      -0.808972       -22.0132
  16   1.0000      -0.694147       -18.8887
  17   1.0000      -0.676509       -18.4087
  18   1.0000      -0.636742       -17.3266
  19   1.0000      -0.618164       -16.8211
  20   1.0000      -0.583169       -15.8688
  21   1.0000      -0.562430       -15.3045
  22   1.0000      -0.551935       -15.0189
  23   1.0000      -0.532188       -14.4816
  24   1.0000      -0.510882       -13.9018
  25   1.0000      -0.454588       -12.3700
  26   1.0000      -0.363037        -9.8787
  27   1.0000      -0.348036        -9.4705
  28   0.0000       0.022685         0.6173
  29   0.0000       0.026301         0.7157
  30   0.0000       0.033058         0.8996
  31   0.0000       0.040312         1.0969
  32   0.0000       0.040849         1.1116

MULLIKEN ATOMIC CHARGES AND SPIN POPULATIONS
--------------------------------------------
   0 S :   -0.234109    1.090414
   1 C :    0.490394   -0.099200
   2 O :   -0.972261   -0.003245
   3 N :   -0.194765    0.012759
   4 C :   -0.867482   -0.006700
   5 H :    0.312078    0.002104
   6 H :    0.307453    0.005235
   7 H :    0.301464    0.000708
   8 C :   -0.894280   -0.012196
   9 H :    0.276201    0.010516
  10 H :    0.338310   -0.000174
  11 H :    0.328661   -0.000051
  12 H :    0.402893    0.002146
  13 H :    0.405445   -0.002317
Sum of atomic charges         :   -0.0000000

LOEWDIN ATOMIC CHARGES AND SPIN POPULATIONS
-------------------------------------------
   0 S :    1.097306    0.719612
   1 C :   -0.977728    0.167790
   2 O :    1.233173    0.003828
   3 N :    0.283470    0.080725
   4 C :    0.746498    0.007671
   5 H :   -0.302363   -0.000116
   6 H :   -0.265678    0.002516
   7 H :   -0.292749   -0.000158
   8 C :    0.699739    0.008769
   9 H :   -0.340000    0.001721
  10 H :   -0.291766   -0.000736
  11 H :   -0.273096    0.000320
  12 H :   -0.458330    0.002329
  13 H :   -0.858474    0.005730

  Mayer bond orders larger than 0.100000
B(  0-S ,  1-C ) :   0.9442 B(  1-C ,  2-O ) :   0.4176 B(  1-C ,  3-N ) :   0.8014
B(  1-C , 12-H ) :   0.8061 B(  2-O ,  3-N ) :   0.1191 B(  2-O , 13-H ) :   0.8145
B(  3-N ,  4-C ) :   0.8046 B(  3-N ,  8-C ) :   0.8767 B(  4-C ,  5-H ) :   0.9405
B(  4-C ,  6-H ) :   0.9412 B(  4-C ,  7-H ) :   0.9476 B(  8-C ,  9-H ) :   0.9656
B(  8-C , 10-H ) :   0.9271 B(  8-C , 11-H ) :   0.8950

MP2 TOTAL ENERGY:     -646.394959768 Eh
FINAL SINGLE POINT ENERGY      -646.394959768268

DIPOLE MOMENT
-------------
                                X             Y             Z
Electronic contribution:      8.55998      -0.99946      -0.50744
Nuclear contribution   :     -9.17022       1.06365       0.68726
                        -----------------------------------------
Total Dipole Moment    :     -0.61024       0.06419       0.17982
                        -----------------------------------------
Magnitude (a.u.)       :      0.63941
Magnitude (Debye)      :      1.62526

Rotational constants in cm-1:     0.128676     0.071156     0.064279
Rotational constants in MHz :  3857.604521  2133.193291  1927.039615

                             ****ORCA TERMINATED NORMALLY****
TOTAL RUN TIME: 0 days 2 hours 15 minutes 52 seconds 367 msec
