                         Program Version 5.0.4 -  RELEASE  -
|  1> ! ri-mp2 aug-cc-pvdz aug-cc-pvdz/c tightscf
|  2> %pal nprocs 16 end
|  3> %maxcore 3800
|  4> %base "DZ_P-Si_34_AB"
|  5> %scf
|  6> STABPerform true
|  7> STABRestartUHFifUnstable true
|  8> end
|  9>
| 10> *xyz 0 1
| 11> P        -1.578583   -0.154038    0.000001
| 12> Si         0.538441    0.621866   -0.000001
| 13> C         1.852934   -0.704796    0.000000
| 14> H         1.763620   -1.339293    0.882120
| 15> H         2.850099   -0.261950   -0.000002
| 16> H         1.763618   -1.339295   -0.882119
| 17> H        -1.355042   -1.093650    1.034857
| 18> H        -1.355043   -1.093651   -1.034855
| 19> H         0.677857    1.480538    1.199055
| 20> H         0.677856    1.480537   -1.199057
| 21> *
| 22>
| 23> $new_job
| 24> ! ri-mp2 aug-cc-pvtz aug-cc-pvtz/c tightscf
| 25> %pal nprocs 16 end
| 26> %maxcore 3800
| 27> %base "TZ_P-Si_34_AB"
| 28>
| 29> *xyz 0 1
| 30> P        -1.578583   -0.154038    0.000001
| 31> Si         0.538441    0.621866   -0.000001
| 32> C         1.852934   -0.704796    0.000000
| 33> H         1.763620   -1.339293    0.882120
| 34> H         2.850099   -0.261950   -0.000002
| 35> H         1.763618   -1.339295   -0.882119
| 36> H        -1.355042   -1.093650    1.034857
| 37> H        -1.355043   -1.093651   -1.034855
| 38> H         0.677857    1.480538    1.199055
| 39> H         0.677856    1.480537   -1.199057
| 40> *
| 41>
| 42> $new_job
| 43> ! ri-mp2 aug-cc-pvqz aug-cc-pvqz/c tightscf
| 44> %pal nprocs 16 end
| 45> %maxcore 3800
| 46> %base "QZ_P-Si_34_AB"
| 47>
| 48> *xyz 0 1
| 49> P        -1.578583   -0.154038    0.000001
| 50> Si         0.538441    0.621866   -0.000001
| 51> C         1.852934   -0.704796    0.000000
| 52> H         1.763620   -1.339293    0.882120
| 53> H         2.850099   -0.261950   -0.000002
| 54> H         1.763618   -1.339295   -0.882119
| 55> H        -1.355042   -1.093650    1.034857
| 56> H        -1.355043   -1.093651   -1.034855
| 57> H         0.677857    1.480538    1.199055
| 58> H         0.677856    1.480537   -1.199057
| 59> *
| 60>
| 61>
| 62>
| 63>
| 64>                          ****END OF INPUT****
 Total Charge           Charge          ....    0
 Multiplicity           Mult            ....    1
 Number of Electrons    NEL             ....   42
MP2 TOTAL ENERGY:     -672.020943463 Eh
FINAL SINGLE POINT ENERGY      -672.020943462730
MP2 TOTAL ENERGY:     -672.145747178 Eh
FINAL SINGLE POINT ENERGY      -672.145747178065

CARTESIAN COORDINATES (ANGSTROEM)
---------------------------------
  P     -1.578583   -0.154038    0.000001
  Si     0.538441    0.621866   -0.000001
  C      1.852934   -0.704796    0.000000
  H      1.763620   -1.339293    0.882120
  H      2.850099   -0.261950   -0.000002
  H      1.763618   -1.339295   -0.882119
  H     -1.355042   -1.093650    1.034857
  H     -1.355043   -1.093651   -1.034855
  H      0.677857    1.480538    1.199055
  H      0.677856    1.480537   -1.199057

 Multiplicity           Mult            ....    1
 Number of Electrons    NEL             ....   42
 Basis Dimension        Dim             ....  570

ORBITAL ENERGIES
----------------

  NO   OCC          E(Eh)            E(eV)
   0   2.0000     -79.928936     -2174.9769
   1   2.0000     -68.773137     -1871.4122
   2   2.0000     -11.211757      -305.0874
   3   2.0000      -7.473790      -203.3722
   4   2.0000      -6.122193      -166.5933
   5   2.0000      -5.367649      -146.0612
   6   2.0000      -5.367306      -146.0518
   7   2.0000      -5.366706      -146.0355
   8   2.0000      -4.228669      -115.0679
   9   2.0000      -4.228440      -115.0617
  10   2.0000      -4.227917      -115.0475
  11   2.0000      -0.956074       -26.0161
  12   2.0000      -0.847587       -23.0640
  13   2.0000      -0.676079       -18.3970
  14   2.0000      -0.572514       -15.5789
  15   2.0000      -0.565396       -15.3852
  16   2.0000      -0.525373       -14.2961
  17   2.0000      -0.472426       -12.8554
  18   2.0000      -0.469006       -12.7623
  19   2.0000      -0.435616       -11.8537
  20   2.0000      -0.362448        -9.8627
  21   0.0000       0.024294         0.6611
  22   0.0000       0.034169         0.9298
  23   0.0000       0.036855         1.0029
  24   0.0000       0.038506         1.0478
  25   0.0000       0.052269         1.4223

MULLIKEN ATOMIC CHARGES
-----------------------
   0 P :   -0.020684
   1 Si:    0.783304
   2 C :   -0.947239
   3 H :    0.243779
   4 H :    0.273112
   5 H :    0.243778
   6 H :   -0.066084
   7 H :   -0.066085
   8 H :   -0.221941
   9 H :   -0.221941
Sum of atomic charges:    0.0000000

LOEWDIN ATOMIC CHARGES
----------------------
   0 P :    1.403163
   1 Si:    0.500388
   2 C :    0.859992
   3 H :   -0.366615
   4 H :   -0.362599
   5 H :   -0.366614
   6 H :   -0.561628
   7 H :   -0.561627
   8 H :   -0.272229
   9 H :   -0.272230

  Mayer bond orders larger than 0.100000
B(  0-P ,  1-Si) :   0.8644 B(  0-P ,  6-H ) :   0.9050 B(  0-P ,  7-H ) :   0.9050
B(  1-Si,  2-C ) :   0.8653 B(  1-Si,  8-H ) :   0.7998 B(  1-Si,  9-H ) :   0.7998
B(  2-C ,  3-H ) :   0.9542 B(  2-C ,  4-H ) :   0.9312 B(  2-C ,  5-H ) :   0.9542

MP2 TOTAL ENERGY:     -672.184357553 Eh
FINAL SINGLE POINT ENERGY      -672.184357552546

DIPOLE MOMENT
-------------
                                X             Y             Z
Electronic contribution:     -6.04397       1.72634       0.00000
Nuclear contribution   :      6.55619      -2.07763      -0.00000
                        -----------------------------------------
Total Dipole Moment    :      0.51221      -0.35128      -0.00000
                        -----------------------------------------
Magnitude (a.u.)       :      0.62110
Magnitude (Debye)      :      1.57870

Rotational constants in cm-1:     0.486601     0.111087     0.097362
Rotational constants in MHz : 14587.918591  3330.289599  2918.843384

                             ****ORCA TERMINATED NORMALLY****
TOTAL RUN TIME: 0 days 0 hours 13 minutes 29 seconds 437 msec
