                         Program Version 5.0.4 -  RELEASE  -
|  1> ! ri-mp2 aug-cc-pvdz aug-cc-pvdz/c tightscf
|  2> %pal nprocs 16 end
|  3> %maxcore 3800
|  4> %base "DZ_B-Si_16_AB"
|  5> %scf
|  6> STABPerform true
|  7> STABRestartUHFifUnstable true
|  8> end
|  9>
| 10> *xyz 0 1
| 11> B         0.000004    2.003369   -0.236608
| 12> Si         0.000000    0.077342    0.327481
| 13> C        -1.538406   -0.851589   -0.209302
| 14> H        -1.592905   -0.925182   -1.296843
| 15> C         1.538402   -0.851596   -0.209302
| 16> H         1.592901   -0.925189   -1.296843
| 17> H         1.546373   -1.865819    0.192201
| 18> H         2.441218   -0.345779    0.134507
| 19> H        -2.441220   -0.345769    0.134507
| 20> H        -1.546381   -1.865813    0.192201
| 21> H        -1.013762    2.614720   -0.384440
| 22> H         1.013773    2.614716   -0.384439
| 23> H         0.000000    0.163593    1.819076
| 24> *
| 25>
| 26> $new_job
| 27> ! ri-mp2 aug-cc-pvtz aug-cc-pvtz/c tightscf
| 28> %pal nprocs 16 end
| 29> %maxcore 3800
| 30> %base "TZ_B-Si_16_AB"
| 31>
| 32> *xyz 0 1
| 33> B         0.000004    2.003369   -0.236608
| 34> Si         0.000000    0.077342    0.327481
| 35> C        -1.538406   -0.851589   -0.209302
| 36> H        -1.592905   -0.925182   -1.296843
| 37> C         1.538402   -0.851596   -0.209302
| 38> H         1.592901   -0.925189   -1.296843
| 39> H         1.546373   -1.865819    0.192201
| 40> H         2.441218   -0.345779    0.134507
| 41> H        -2.441220   -0.345769    0.134507
| 42> H        -1.546381   -1.865813    0.192201
| 43> H        -1.013762    2.614720   -0.384440
| 44> H         1.013773    2.614716   -0.384439
| 45> H         0.000000    0.163593    1.819076
| 46> *
| 47>
| 48> $new_job
| 49> ! ri-mp2 aug-cc-pvqz aug-cc-pvqz/c tightscf
| 50> %pal nprocs 16 end
| 51> %maxcore 3800
| 52> %base "QZ_B-Si_16_AB"
| 53>
| 54> *xyz 0 1
| 55> B         0.000004    2.003369   -0.236608
| 56> Si         0.000000    0.077342    0.327481
| 57> C        -1.538406   -0.851589   -0.209302
| 58> H        -1.592905   -0.925182   -1.296843
| 59> C         1.538402   -0.851596   -0.209302
| 60> H         1.592901   -0.925189   -1.296843
| 61> H         1.546373   -1.865819    0.192201
| 62> H         2.441218   -0.345779    0.134507
| 63> H        -2.441220   -0.345769    0.134507
| 64> H        -1.546381   -1.865813    0.192201
| 65> H        -1.013762    2.614720   -0.384440
| 66> H         1.013773    2.614716   -0.384439
| 67> H         0.000000    0.163593    1.819076
| 68> *
| 69>
| 70>
| 71>
| 72>
| 73>                          ****END OF INPUT****
 Total Charge           Charge          ....    0
 Multiplicity           Mult            ....    1
 Number of Electrons    NEL             ....   40
MP2 TOTAL ENERGY:     -395.075746548 Eh
FINAL SINGLE POINT ENERGY      -395.075746547914
MP2 TOTAL ENERGY:     -395.220605653 Eh
FINAL SINGLE POINT ENERGY      -395.220605653196

CARTESIAN COORDINATES (ANGSTROEM)
---------------------------------
  B      0.000004    2.003369   -0.236608
  Si     0.000000    0.077342    0.327481
  C     -1.538406   -0.851589   -0.209302
  H     -1.592905   -0.925182   -1.296843
  C      1.538402   -0.851596   -0.209302
  H      1.592901   -0.925189   -1.296843
  H      1.546373   -1.865819    0.192201
  H      2.441218   -0.345779    0.134507
  H     -2.441220   -0.345769    0.134507
  H     -1.546381   -1.865813    0.192201
  H     -1.013762    2.614720   -0.384440
  H      1.013773    2.614716   -0.384439
  H      0.000000    0.163593    1.819076

 Multiplicity           Mult            ....    1
 Number of Electrons    NEL             ....   40
 Basis Dimension        Dim             ....  738

ORBITAL ENERGIES
----------------

  NO   OCC          E(Eh)            E(eV)
   0   2.0000     -68.741033     -1870.5386
   1   2.0000     -11.198077      -304.7152
   2   2.0000     -11.198070      -304.7150
   3   2.0000      -7.599857      -206.8026
   4   2.0000      -6.092164      -165.7762
   5   2.0000      -4.198837      -114.2562
   6   2.0000      -4.198172      -114.2381
   7   2.0000      -4.198144      -114.2373
   8   2.0000      -0.955396       -25.9977
   9   2.0000      -0.924811       -25.1654
  10   2.0000      -0.713397       -19.4125
  11   2.0000      -0.623004       -16.9528
  12   2.0000      -0.564776       -15.3683
  13   2.0000      -0.561208       -15.2712
  14   2.0000      -0.545661       -14.8482
  15   2.0000      -0.543036       -14.7768
  16   2.0000      -0.492849       -13.4111
  17   2.0000      -0.446808       -12.1583
  18   2.0000      -0.431634       -11.7453
  19   2.0000      -0.395223       -10.7546
  20   0.0000       0.021041         0.5726
  21   0.0000       0.029514         0.8031
  22   0.0000       0.031241         0.8501
  23   0.0000       0.031913         0.8684
  24   0.0000       0.045570         1.2400

MULLIKEN ATOMIC CHARGES
-----------------------
   0 B :    0.236722
   1 Si:    1.020879
   2 C :   -1.064348
   3 H :    0.235909
   4 C :   -1.064348
   5 H :    0.235909
   6 H :    0.267744
   7 H :    0.299317
   8 H :    0.299317
   9 H :    0.267743
  10 H :   -0.220627
  11 H :   -0.220627
  12 H :   -0.293590
Sum of atomic charges:    0.0000000

LOEWDIN ATOMIC CHARGES
----------------------
   0 B :    0.407946
   1 Si:    0.560981
   2 C :    0.917647
   3 H :   -0.349304
   4 C :    0.917648
   5 H :   -0.349304
   6 H :   -0.350462
   7 H :   -0.355194
   8 H :   -0.355194
   9 H :   -0.350461
  10 H :   -0.249114
  11 H :   -0.249114
  12 H :   -0.196073

  Mayer bond orders larger than 0.100000
B(  0-B ,  1-Si) :   0.8719 B(  0-B , 10-H ) :   0.8918 B(  0-B , 11-H ) :   0.8918
B(  1-Si,  2-C ) :   0.8386 B(  1-Si,  4-C ) :   0.8386 B(  1-Si, 12-H ) :   0.8074
B(  2-C ,  3-H ) :   0.9611 B(  2-C ,  8-H ) :   0.9409 B(  2-C ,  9-H ) :   0.9404
B(  4-C ,  5-H ) :   0.9611 B(  4-C ,  6-H ) :   0.9404 B(  4-C ,  7-H ) :   0.9409

MP2 TOTAL ENERGY:     -395.263921324 Eh
FINAL SINGLE POINT ENERGY      -395.263921324471

DIPOLE MOMENT
-------------
                                X             Y             Z
Electronic contribution:      0.00000       2.45179       0.53709
Nuclear contribution   :     -0.00001      -2.60831      -0.75060
                        -----------------------------------------
Total Dipole Moment    :     -0.00000      -0.15653      -0.21351
                        -----------------------------------------
Magnitude (a.u.)       :      0.26474
Magnitude (Debye)      :      0.67291

Rotational constants in cm-1:     0.181908     0.176555     0.102441
Rotational constants in MHz :  5453.462708  5292.971793  3071.096780

                             ****ORCA TERMINATED NORMALLY****
TOTAL RUN TIME: 0 days 0 hours 43 minutes 59 seconds 601 msec
