                         Program Version 5.0.4 -  RELEASE  -
|  1> ! ri-mp2 aug-cc-pvdz aug-cc-pvdz/c tightscf
|  2> %pal nprocs 16 end
|  3> %maxcore 3800
|  4> %base "DZ_Si-S_4_AB"
|  5> %scf
|  6> STABPerform true
|  7> STABRestartUHFifUnstable true
|  8> end
|  9>
| 10> *xyz 0 1
| 11> S        -1.584950   -0.657624   -0.107334
| 12> Si        -0.168730    0.932973    0.158126
| 13> C         1.471992    0.314087   -0.480135
| 14> H        -2.619456    0.000610    0.432543
| 15> C         2.024293   -0.904926    0.258436
| 16> H         2.176397    1.148306   -0.412481
| 17> H         1.364904    0.098460   -1.546327
| 18> H         2.153127   -0.700246    1.322266
| 19> H         2.994719   -1.202281   -0.140072
| 20> H         1.355807   -1.761791    0.171657
| 21> H        -0.075986    1.287706    1.592777
| 22> H        -0.605808    2.134642   -0.586603
| 23> *
| 24>
| 25> $new_job
| 26> ! ri-mp2 aug-cc-pvtz aug-cc-pvtz/c tightscf
| 27> %pal nprocs 16 end
| 28> %maxcore 3800
| 29> %base "TZ_Si-S_4_AB"
| 30>
| 31> *xyz 0 1
| 32> S        -1.584950   -0.657624   -0.107334
| 33> Si        -0.168730    0.932973    0.158126
| 34> C         1.471992    0.314087   -0.480135
| 35> H        -2.619456    0.000610    0.432543
| 36> C         2.024293   -0.904926    0.258436
| 37> H         2.176397    1.148306   -0.412481
| 38> H         1.364904    0.098460   -1.546327
| 39> H         2.153127   -0.700246    1.322266
| 40> H         2.994719   -1.202281   -0.140072
| 41> H         1.355807   -1.761791    0.171657
| 42> H        -0.075986    1.287706    1.592777
| 43> H        -0.605808    2.134642   -0.586603
| 44> *
| 45>
| 46> $new_job
| 47> ! ri-mp2 aug-cc-pvqz aug-cc-pvqz/c tightscf
| 48> %pal nprocs 16 end
| 49> %maxcore 3800
| 50> %base "QZ_Si-S_4_AB"
| 51>
| 52> *xyz 0 1
| 53> S        -1.584950   -0.657624   -0.107334
| 54> Si        -0.168730    0.932973    0.158126
| 55> C         1.471992    0.314087   -0.480135
| 56> H        -2.619456    0.000610    0.432543
| 57> C         2.024293   -0.904926    0.258436
| 58> H         2.176397    1.148306   -0.412481
| 59> H         1.364904    0.098460   -1.546327
| 60> H         2.153127   -0.700246    1.322266
| 61> H         2.994719   -1.202281   -0.140072
| 62> H         1.355807   -1.761791    0.171657
| 63> H        -0.075986    1.287706    1.592777
| 64> H        -0.605808    2.134642   -0.586603
| 65> *
| 66>
| 67>
| 68>
| 69>
| 70>                          ****END OF INPUT****
 Total Charge           Charge          ....    0
 Multiplicity           Mult            ....    1
 Number of Electrons    NEL             ....   50
MP2 TOTAL ENERGY:     -767.456403611 Eh
FINAL SINGLE POINT ENERGY      -767.456403611145
MP2 TOTAL ENERGY:     -767.628753992 Eh
FINAL SINGLE POINT ENERGY      -767.628753991695

CARTESIAN COORDINATES (ANGSTROEM)
---------------------------------
  S     -1.584950   -0.657624   -0.107334
  Si    -0.168730    0.932973    0.158126
  C      1.471992    0.314087   -0.480135
  H     -2.619456    0.000610    0.432543
  C      2.024293   -0.904926    0.258436
  H      2.176397    1.148306   -0.412481
  H      1.364904    0.098460   -1.546327
  H      2.153127   -0.700246    1.322266
  H      2.994719   -1.202281   -0.140072
  H      1.355807   -1.761791    0.171657
  H     -0.075986    1.287706    1.592777
  H     -0.605808    2.134642   -0.586603

 Multiplicity           Mult            ....    1
 Number of Electrons    NEL             ....   50
 Basis Dimension        Dim             ....  696

ORBITAL ENERGIES
----------------

  NO   OCC          E(Eh)            E(eV)
   0   2.0000     -91.942831     -2501.8916
   1   2.0000     -68.786523     -1871.7764
   2   2.0000     -11.222213      -305.3719
   3   2.0000     -11.217233      -305.2364
   4   2.0000      -8.947597      -243.4765
   5   2.0000      -6.629150      -180.3883
   6   2.0000      -6.628361      -180.3669
   7   2.0000      -6.627541      -180.3446
   8   2.0000      -6.134087      -166.9170
   9   2.0000      -4.240791      -115.3978
  10   2.0000      -4.240094      -115.3788
  11   2.0000      -4.239905      -115.3737
  12   2.0000      -1.031995       -28.0820
  13   2.0000      -0.963079       -26.2067
  14   2.0000      -0.854036       -23.2395
  15   2.0000      -0.686489       -18.6803
  16   2.0000      -0.617380       -16.7998
  17   2.0000      -0.583976       -15.8908
  18   2.0000      -0.542906       -14.7732
  19   2.0000      -0.527811       -14.3625
  20   2.0000      -0.503947       -13.7131
  21   2.0000      -0.483470       -13.1559
  22   2.0000      -0.440120       -11.9763
  23   2.0000      -0.433536       -11.7971
  24   2.0000      -0.372403       -10.1336
  25   0.0000       0.024152         0.6572
  26   0.0000       0.032706         0.8900
  27   0.0000       0.035237         0.9588
  28   0.0000       0.036717         0.9991
  29   0.0000       0.050708         1.3798

MULLIKEN ATOMIC CHARGES
-----------------------
   0 S :   -0.476411
   1 Si:    1.008500
   2 C :   -0.521651
   3 H :    0.057334
   4 C :   -0.877258
   5 H :    0.237105
   6 H :    0.218462
   7 H :    0.241386
   8 H :    0.301117
   9 H :    0.266773
  10 H :   -0.204606
  11 H :   -0.250750
Sum of atomic charges:    0.0000000

LOEWDIN ATOMIC CHARGES
----------------------
   0 S :    1.445778
   1 Si:    0.280591
   2 C :    0.434948
   3 H :   -0.889450
   4 C :    0.832263
   5 H :   -0.346442
   6 H :   -0.348638
   7 H :   -0.298233
   8 H :   -0.285027
   9 H :   -0.314894
  10 H :   -0.250850
  11 H :   -0.260045

  Mayer bond orders larger than 0.100000
B(  0-S ,  1-Si) :   0.7020 B(  0-S ,  3-H ) :   1.0501 B(  1-Si,  2-C ) :   0.8312
B(  1-Si, 10-H ) :   0.7988 B(  1-Si, 11-H ) :   0.7994 B(  2-C ,  4-C ) :   0.9558
B(  2-C ,  5-H ) :   0.9237 B(  2-C ,  6-H ) :   0.9280 B(  4-C ,  7-H ) :   0.9410
B(  4-C ,  8-H ) :   0.9281 B(  4-C ,  9-H ) :   0.9282

MP2 TOTAL ENERGY:     -767.682174905 Eh
FINAL SINGLE POINT ENERGY      -767.682174905178

DIPOLE MOMENT
-------------
                                X             Y             Z
Electronic contribution:     -6.59820      -0.64326      -0.76964
Nuclear contribution   :      6.92615       0.98662       0.84247
                        -----------------------------------------
Total Dipole Moment    :      0.32795       0.34336       0.07283
                        -----------------------------------------
Magnitude (a.u.)       :      0.48036
Magnitude (Debye)      :      1.22099

Rotational constants in cm-1:     0.228386     0.085135     0.068078
Rotational constants in MHz :  6846.841074  2552.293745  2040.920595

                             ****ORCA TERMINATED NORMALLY****
TOTAL RUN TIME: 0 days 0 hours 27 minutes 56 seconds 763 msec
