                         Program Version 5.0.4 -  RELEASE  -
|  1> ! ri-mp2 aug-cc-pvdz aug-cc-pvdz/c tightscf
|  2> %pal nprocs 16 end
|  3> %maxcore 3800
|  4> %base "DZ_B-Cl_44_AB"
|  5>
|  6> *xyz 0 1
|  7> Cl        -0.843689    1.653004   -0.000003
|  8> B        -0.518905   -0.054277    0.000002
|  9> Cl        -1.854150   -1.182687    0.000002
| 10> C         0.914455   -0.624577    0.000003
| 11> N         1.900476    0.178797    0.000002
| 12> H         1.101412   -1.698173    0.000002
| 13> O         3.101591   -0.471133   -0.000001
| 14> H         3.753569    0.239122   -0.000004
| 15> *
| 16>
| 17> $new_job
| 18> ! ri-mp2 aug-cc-pvtz aug-cc-pvtz/c tightscf
| 19> %pal nprocs 16 end
| 20> %maxcore 3800
| 21> %base "TZ_B-Cl_44_AB"
| 22>
| 23> *xyz 0 1
| 24> Cl        -0.843689    1.653004   -0.000003
| 25> B        -0.518905   -0.054277    0.000002
| 26> Cl        -1.854150   -1.182687    0.000002
| 27> C         0.914455   -0.624577    0.000003
| 28> N         1.900476    0.178797    0.000002
| 29> H         1.101412   -1.698173    0.000002
| 30> O         3.101591   -0.471133   -0.000001
| 31> H         3.753569    0.239122   -0.000004
| 32> *
| 33>
| 34> $new_job
| 35> ! ri-mp2 aug-cc-pvqz aug-cc-pvqz/c tightscf
| 36> %pal nprocs 16 end
| 37> %maxcore 3800
| 38> %base "QZ_B-Cl_44_AB"
| 39>
| 40> *xyz 0 1
| 41> Cl        -0.843689    1.653004   -0.000003
| 42> B        -0.518905   -0.054277    0.000002
| 43> Cl        -1.854150   -1.182687    0.000002
| 44> C         0.914455   -0.624577    0.000003
| 45> N         1.900476    0.178797    0.000002
| 46> H         1.101412   -1.698173    0.000002
| 47> O         3.101591   -0.471133   -0.000001
| 48> H         3.753569    0.239122   -0.000004
| 49> *
| 50>
| 51>
| 52>
| 53>
| 54>                          ****END OF INPUT****
 Total Charge           Charge          ....    0
 Multiplicity           Mult            ....    1
 Number of Electrons    NEL             ....   62
MP2 TOTAL ENERGY:    -1112.968768862 Eh
FINAL SINGLE POINT ENERGY     -1112.968768861781
MP2 TOTAL ENERGY:    -1113.248841367 Eh
FINAL SINGLE POINT ENERGY     -1113.248841367101

CARTESIAN COORDINATES (ANGSTROEM)
---------------------------------
  Cl    -0.843689    1.653004   -0.000003
  B     -0.518905   -0.054277    0.000002
  Cl    -1.854150   -1.182687    0.000002
  C      0.914455   -0.624577    0.000003
  N      1.900476    0.178797    0.000002
  H      1.101412   -1.698173    0.000002
  O      3.101591   -0.471133   -0.000001
  H      3.753569    0.239122   -0.000004

 Multiplicity           Mult            ....    1
 Number of Electrons    NEL             ....   62
 Basis Dimension        Dim             ....  580

ORBITAL ENERGIES
----------------

  NO   OCC          E(Eh)            E(eV)
   0   2.0000    -104.847906     -2853.0566
   1   2.0000    -104.843362     -2852.9329
   2   2.0000     -20.628538      -561.3311
   3   2.0000     -15.667006      -426.3209
   4   2.0000     -11.269760      -306.6658
   5   2.0000     -10.575725      -287.7801
   6   2.0000     -10.571167      -287.6561
   7   2.0000      -8.042537      -218.8485
   8   2.0000      -8.041496      -218.8202
   9   2.0000      -8.041219      -218.8127
  10   2.0000      -8.038023      -218.7257
  11   2.0000      -8.036921      -218.6957
  12   2.0000      -8.036645      -218.6882
  13   2.0000      -7.718353      -210.0271
  14   2.0000      -1.470906       -40.0254
  15   2.0000      -1.185683       -32.2641
  16   2.0000      -1.144120       -31.1331
  17   2.0000      -1.105093       -30.0711
  18   2.0000      -0.855778       -23.2869
  19   2.0000      -0.756198       -20.5772
  20   2.0000      -0.700510       -19.0619
  21   2.0000      -0.664056       -18.0699
  22   2.0000      -0.627316       -17.0701
  23   2.0000      -0.593980       -16.1630
  24   2.0000      -0.569404       -15.4943
  25   2.0000      -0.526629       -14.3303
  26   2.0000      -0.480036       -13.0624
  27   2.0000      -0.471493       -12.8300
  28   2.0000      -0.465875       -12.6771
  29   2.0000      -0.457602       -12.4520
  30   2.0000      -0.419578       -11.4173
  31   0.0000       0.024770         0.6740
  32   0.0000       0.032065         0.8725
  33   0.0000       0.038609         1.0506
  34   0.0000       0.040177         1.0933
  35   0.0000       0.044602         1.2137

MULLIKEN ATOMIC CHARGES
-----------------------
   0 Cl:   -0.165529
   1 B :    0.636103
   2 Cl:   -0.180201
   3 C :   -0.465796
   4 N :   -0.125169
   5 H :    0.518930
   6 O :   -0.555727
   7 H :    0.337389
Sum of atomic charges:   -0.0000000

LOEWDIN ATOMIC CHARGES
----------------------
   0 Cl:    1.261835
   1 B :   -2.412931
   2 Cl:    1.248513
   3 C :   -0.066057
   4 N :    0.215118
   5 H :   -0.417278
   6 O :    1.021764
   7 H :   -0.850964

  Mayer bond orders larger than 0.100000
B(  0-Cl,  1-B ) :   1.1147 B(  1-B ,  2-Cl) :   1.0230 B(  1-B ,  3-C ) :   1.0535
B(  2-Cl,  3-C ) :   0.1549 B(  3-C ,  4-N ) :   1.7619 B(  3-C ,  5-H ) :   0.6823
B(  4-N ,  6-O ) :   0.8522 B(  6-O ,  7-H ) :   0.9393

MP2 TOTAL ENERGY:    -1113.343757577 Eh
FINAL SINGLE POINT ENERGY     -1113.343757577048

DIPOLE MOMENT
-------------
                                X             Y             Z
Electronic contribution:     -7.90577       1.82472       0.00000
Nuclear contribution   :      8.51235      -1.93951      -0.00000
                        -----------------------------------------
Total Dipole Moment    :      0.60658      -0.11479      -0.00000
                        -----------------------------------------
Magnitude (a.u.)       :      0.61734
Magnitude (Debye)      :      1.56917

Rotational constants in cm-1:     0.106637     0.044437     0.031366
Rotational constants in MHz :  3196.886219  1332.199856   940.342332

                             ****ORCA TERMINATED NORMALLY****
TOTAL RUN TIME: 0 days 0 hours 4 minutes 48 seconds 611 msec
