                         Program Version 5.0.4 -  RELEASE  -
|  1> ! ri-mp2 aug-cc-pvdz aug-cc-pvdz/c tightscf
|  2> %pal nprocs 16 end
|  3> %maxcore 3800
|  4> %base "DZ_Si-Cl_53_A"
|  5> %scf
|  6> STABPerform true
|  7> STABRestartUHFifUnstable true
|  8> end
|  9>
| 10> *xyz 0 2
| 11> Si         1.380424   -0.091452   -0.089721
| 12> C        -0.514685    0.145149    0.000882
| 13> N        -1.302982   -0.959772   -0.001328
| 14> H        -0.921064   -1.885559    0.062950
| 15> H        -2.302640   -0.837902    0.045022
| 16> O        -0.970858    1.270730    0.015006
| 17> H         1.824613   -1.380043    0.499018
| 18> H         2.048999    1.065496    0.533058
| 19> *
| 20>
| 21> $new_job
| 22> ! ri-mp2 aug-cc-pvtz aug-cc-pvtz/c tightscf
| 23> %pal nprocs 16 end
| 24> %maxcore 3800
| 25> %base "TZ_Si-Cl_53_A"
| 26>
| 27> *xyz 0 2
| 28> Si         1.380424   -0.091452   -0.089721
| 29> C        -0.514685    0.145149    0.000882
| 30> N        -1.302982   -0.959772   -0.001328
| 31> H        -0.921064   -1.885559    0.062950
| 32> H        -2.302640   -0.837902    0.045022
| 33> O        -0.970858    1.270730    0.015006
| 34> H         1.824613   -1.380043    0.499018
| 35> H         2.048999    1.065496    0.533058
| 36> *
| 37>
| 38> $new_job
| 39> ! ri-mp2 aug-cc-pvqz aug-cc-pvqz/c tightscf
| 40> %pal nprocs 16 end
| 41> %maxcore 3800
| 42> %base "QZ_Si-Cl_53_A"
| 43>
| 44> *xyz 0 2
| 45> Si         1.380424   -0.091452   -0.089721
| 46> C        -0.514685    0.145149    0.000882
| 47> N        -1.302982   -0.959772   -0.001328
| 48> H        -0.921064   -1.885559    0.062950
| 49> H        -2.302640   -0.837902    0.045022
| 50> O        -0.970858    1.270730    0.015006
| 51> H         1.824613   -1.380043    0.499018
| 52> H         2.048999    1.065496    0.533058
| 53> *
| 54>
| 55>
| 56>
| 57>
| 58>                          ****END OF INPUT****
 Total Charge           Charge          ....    0
 Multiplicity           Mult            ....    2
 Number of Electrons    NEL             ....   39
MP2 TOTAL ENERGY:     -459.025783553 Eh
FINAL SINGLE POINT ENERGY      -459.025783552632
MP2 TOTAL ENERGY:     -459.202013126 Eh
FINAL SINGLE POINT ENERGY      -459.202013125822

CARTESIAN COORDINATES (ANGSTROEM)
---------------------------------
  Si     1.380424   -0.091452   -0.089721
  C     -0.514685    0.145149    0.000882
  N     -1.302982   -0.959772   -0.001328
  H     -0.921064   -1.885559    0.062950
  H     -2.302640   -0.837902    0.045022
  O     -0.970858    1.270730    0.015006
  H      1.824613   -1.380043    0.499018
  H      2.048999    1.065496    0.533058

 Multiplicity           Mult            ....    2
 Number of Electrons    NEL             ....   39
 Basis Dimension        Dim             ....  508

ORBITAL ENERGIES
----------------
                 SPIN UP ORBITALS
  NO   OCC          E(Eh)            E(eV)
   0   1.0000     -68.797874     -1872.0853
   1   1.0000     -20.529559      -558.6377
   2   1.0000     -15.591667      -424.2708
   3   1.0000     -11.344249      -308.6927
   4   1.0000      -6.148863      -167.3191
   5   1.0000      -4.261785      -115.9691
   6   1.0000      -4.251615      -115.6923
   7   1.0000      -4.251428      -115.6872
   8   1.0000      -1.389857       -37.8199
   9   1.0000      -1.218068       -33.1453
  10   1.0000      -0.845365       -23.0036
  11   1.0000      -0.764336       -20.7986
  12   1.0000      -0.705364       -19.1939
  13   1.0000      -0.647591       -17.6218
  14   1.0000      -0.581948       -15.8356
  15   1.0000      -0.565974       -15.4009
  16   1.0000      -0.505585       -13.7577
  17   1.0000      -0.428875       -11.6703
  18   1.0000      -0.413038       -11.2393
  19   1.0000      -0.344247        -9.3674
  20   0.0000       0.018469         0.5026
  21   0.0000       0.032255         0.8777
  22   0.0000       0.040313         1.0970
  23   0.0000       0.042179         1.1478
  24   0.0000       0.050339         1.3698

                 SPIN DOWN ORBITALS
  NO   OCC          E(Eh)            E(eV)
   0   1.0000     -68.792004     -1871.9256
   1   1.0000     -20.526808      -558.5628
   2   1.0000     -15.591543      -424.2674
   3   1.0000     -11.344916      -308.7108
   4   1.0000      -6.139915      -167.0756
   5   1.0000      -4.247611      -115.5834
   6   1.0000      -4.247399      -115.5776
   7   1.0000      -4.238708      -115.3411
   8   1.0000      -1.384845       -37.6835
   9   1.0000      -1.216553       -33.1041
  10   1.0000      -0.836135       -22.7524
  11   1.0000      -0.754665       -20.5355
  12   1.0000      -0.687942       -18.7199
  13   1.0000      -0.637187       -17.3387
  14   1.0000      -0.576173       -15.6785
  15   1.0000      -0.556296       -15.1376
  16   1.0000      -0.498631       -13.5684
  17   1.0000      -0.416453       -11.3323
  18   1.0000      -0.404626       -11.0104
  19   0.0000       0.015715         0.4276
  20   0.0000       0.019643         0.5345
  21   0.0000       0.033779         0.9192
  22   0.0000       0.040835         1.1112
  23   0.0000       0.051479         1.4008

MULLIKEN ATOMIC CHARGES AND SPIN POPULATIONS
--------------------------------------------
   0 Si:    0.771337    0.963911
   1 C :    0.501851   -0.034877
   2 N :   -0.686669    0.002742
   3 H :    0.315182   -0.000806
   4 H :    0.248333   -0.000383
   5 O :   -0.742886    0.059029
   6 H :   -0.223123    0.006515
   7 H :   -0.184026    0.003868
Sum of atomic charges         :   -0.0000000

LOEWDIN ATOMIC CHARGES AND SPIN POPULATIONS
-------------------------------------------
   0 Si:    1.053626    0.533980
   1 C :   -0.988974    0.141524
   2 N :    1.129914    0.011479
   3 H :   -0.538742    0.002340
   4 H :   -0.510282    0.000297
   5 O :    0.563508    0.047922
   6 H :   -0.356032    0.134618
   7 H :   -0.353017    0.127840

  Mayer bond orders larger than 0.100000
B(  0-Si,  1-C ) :   0.8292 B(  0-Si,  6-H ) :   0.8837 B(  0-Si,  7-H ) :   0.9162
B(  1-C ,  2-N ) :   1.1299 B(  1-C ,  5-O ) :   1.5555 B(  2-N ,  3-H ) :   0.9009
B(  2-N ,  4-H ) :   0.9602 B(  2-N ,  5-O ) :   0.1069

MP2 TOTAL ENERGY:     -459.260688560 Eh
FINAL SINGLE POINT ENERGY      -459.260688559698

DIPOLE MOMENT
-------------
                                X             Y             Z
Electronic contribution:     -0.32193       1.49561      -1.05999
Nuclear contribution   :      0.53663      -2.98182       1.13197
                        -----------------------------------------
Total Dipole Moment    :      0.21470      -1.48621       0.07198
                        -----------------------------------------
Magnitude (a.u.)       :      1.50336
Magnitude (Debye)      :      3.82125

Rotational constants in cm-1:     0.358580     0.152874     0.108174
Rotational constants in MHz : 10749.961568  4583.046551  3242.977625

                             ****ORCA TERMINATED NORMALLY****
TOTAL RUN TIME: 0 days 0 hours 29 minutes 36 seconds 27 msec
