                         Program Version 5.0.4 -  RELEASE  -
|  1> ! ri-mp2 aug-cc-pvdz aug-cc-pvdz/c tightscf
|  2> %pal nprocs 16 end
|  3> %maxcore 3800
|  4> %base "DZ_P-N_40_AB"
|  5> %scf
|  6> STABPerform true
|  7> STABRestartUHFifUnstable true
|  8> end
|  9>
| 10> *xyz 0 1
| 11> P        -1.135765   -0.015266    0.012786
| 12> N         0.446735    0.568116   -0.088127
| 13> C         1.612394   -0.284111    0.013554
| 14> H         2.518345    0.297007   -0.160375
| 15> H         1.563379   -1.061000   -0.750794
| 16> H         1.698244   -0.778673    0.988629
| 17> H        -1.023077   -1.028082    1.012616
| 18> H        -1.088288   -0.963618   -1.039301
| 19> H         0.566372    1.491221    0.292993
| 20> *
| 21>
| 22> $new_job
| 23> ! ri-mp2 aug-cc-pvtz aug-cc-pvtz/c tightscf
| 24> %pal nprocs 16 end
| 25> %maxcore 3800
| 26> %base "TZ_P-N_40_AB"
| 27>
| 28> *xyz 0 1
| 29> P        -1.135765   -0.015266    0.012786
| 30> N         0.446735    0.568116   -0.088127
| 31> C         1.612394   -0.284111    0.013554
| 32> H         2.518345    0.297007   -0.160375
| 33> H         1.563379   -1.061000   -0.750794
| 34> H         1.698244   -0.778673    0.988629
| 35> H        -1.023077   -1.028082    1.012616
| 36> H        -1.088288   -0.963618   -1.039301
| 37> H         0.566372    1.491221    0.292993
| 38> *
| 39>
| 40> $new_job
| 41> ! ri-mp2 aug-cc-pvqz aug-cc-pvqz/c tightscf
| 42> %pal nprocs 16 end
| 43> %maxcore 3800
| 44> %base "QZ_P-N_40_AB"
| 45>
| 46> *xyz 0 1
| 47> P        -1.135765   -0.015266    0.012786
| 48> N         0.446735    0.568116   -0.088127
| 49> C         1.612394   -0.284111    0.013554
| 50> H         2.518345    0.297007   -0.160375
| 51> H         1.563379   -1.061000   -0.750794
| 52> H         1.698244   -0.778673    0.988629
| 53> H        -1.023077   -1.028082    1.012616
| 54> H        -1.088288   -0.963618   -1.039301
| 55> H         0.566372    1.491221    0.292993
| 56> *
| 57>
| 58>
| 59>
| 60>
| 61>                          ****END OF INPUT****
 Total Charge           Charge          ....    0
 Multiplicity           Mult            ....    1
 Number of Electrons    NEL             ....   34
MP2 TOTAL ENERGY:     -437.010336896 Eh
FINAL SINGLE POINT ENERGY      -437.010336895889
MP2 TOTAL ENERGY:     -437.150761570 Eh
FINAL SINGLE POINT ENERGY      -437.150761569699

CARTESIAN COORDINATES (ANGSTROEM)
---------------------------------
  P     -1.135765   -0.015266    0.012786
  N      0.446735    0.568116   -0.088127
  C      1.612394   -0.284111    0.013554
  H      2.518345    0.297007   -0.160375
  H      1.563379   -1.061000   -0.750794
  H      1.698244   -0.778673    0.988629
  H     -1.023077   -1.028082    1.012616
  H     -1.088288   -0.963618   -1.039301
  H      0.566372    1.491221    0.292993

 Multiplicity           Mult            ....    1
 Number of Electrons    NEL             ....   34
 Basis Dimension        Dim             ....  520

ORBITAL ENERGIES
----------------

  NO   OCC          E(Eh)            E(eV)
   0   2.0000     -79.950879     -2175.5740
   1   2.0000     -15.551306      -423.1725
   2   2.0000     -11.253899      -306.2342
   3   2.0000      -7.489976      -203.8126
   4   2.0000      -5.384124      -146.5095
   5   2.0000      -5.383776      -146.5000
   6   2.0000      -5.383238      -146.4853
   7   2.0000      -1.194170       -32.4950
   8   2.0000      -0.926124       -25.2011
   9   2.0000      -0.813445       -22.1350
  10   2.0000      -0.648127       -17.6364
  11   2.0000      -0.605835       -16.4856
  12   2.0000      -0.594378       -16.1738
  13   2.0000      -0.524896       -14.2831
  14   2.0000      -0.512118       -13.9354
  15   2.0000      -0.382337       -10.4039
  16   2.0000      -0.365131        -9.9357
  17   0.0000       0.024865         0.6766
  18   0.0000       0.036359         0.9894
  19   0.0000       0.039674         1.0796
  20   0.0000       0.043009         1.1703
  21   0.0000       0.055754         1.5171

MULLIKEN ATOMIC CHARGES
-----------------------
   0 P :    0.513483
   1 N :   -0.621353
   2 C :   -0.761983
   3 H :    0.311122
   4 H :    0.280632
   5 H :    0.276205
   6 H :   -0.117482
   7 H :   -0.090691
   8 H :    0.210068
Sum of atomic charges:   -0.0000000

LOEWDIN ATOMIC CHARGES
----------------------
   0 P :    1.325887
   1 N :    0.526084
   2 C :    0.652954
   3 H :   -0.305270
   4 H :   -0.325674
   5 H :   -0.304231
   6 H :   -0.465625
   7 H :   -0.475499
   8 H :   -0.628626

  Mayer bond orders larger than 0.100000
B(  0-P ,  1-N ) :   0.8850 B(  0-P ,  6-H ) :   0.8747 B(  0-P ,  7-H ) :   0.9177
B(  1-N ,  2-C ) :   0.9306 B(  1-N ,  8-H ) :   0.9959 B(  2-C ,  3-H ) :   0.9150
B(  2-C ,  4-H ) :   0.9310 B(  2-C ,  5-H ) :   0.9311

MP2 TOTAL ENERGY:     -437.194192308 Eh
FINAL SINGLE POINT ENERGY      -437.194192307939

DIPOLE MOMENT
-------------
                                X             Y             Z
Electronic contribution:     -4.79235       1.98133      -0.13130
Nuclear contribution   :      5.38799      -2.05144       0.33535
                        -----------------------------------------
Total Dipole Moment    :      0.59564      -0.07011       0.20405
                        -----------------------------------------
Magnitude (a.u.)       :      0.63351
Magnitude (Debye)      :      1.61026

Rotational constants in cm-1:     1.094073     0.183718     0.169594
Rotational constants in MHz : 32799.468940  5507.731664  5084.292197

                             ****ORCA TERMINATED NORMALLY****
TOTAL RUN TIME: 0 days 0 hours 12 minutes 3 seconds 893 msec
