                         Program Version 5.0.4 -  RELEASE  -
|  1> ! ri-mp2 aug-cc-pvdz aug-cc-pvdz/c tightscf
|  2> %pal nprocs 16 end
|  3> %maxcore 3800
|  4> %base "DZ_S-F_9_AB"
|  5> %scf
|  6> STABPerform true
|  7> STABRestartUHFifUnstable true
|  8> end
|  9>
| 10> *xyz 0 1
| 11> F        -1.815045    0.520153    0.295450
| 12> S        -0.812398   -0.613335   -0.271726
| 13> C         0.707485    0.131219    0.342259
| 14> F         1.666886   -0.799276    0.145883
| 15> F         1.050454    1.238909   -0.341939
| 16> H         0.632802    0.387966    1.399519
| 17> *
| 18>
| 19> $new_job
| 20> ! ri-mp2 aug-cc-pvtz aug-cc-pvtz/c tightscf
| 21> %pal nprocs 16 end
| 22> %maxcore 3800
| 23> %base "TZ_S-F_9_AB"
| 24>
| 25> *xyz 0 1
| 26> F        -1.815045    0.520153    0.295450
| 27> S        -0.812398   -0.613335   -0.271726
| 28> C         0.707485    0.131219    0.342259
| 29> F         1.666886   -0.799276    0.145883
| 30> F         1.050454    1.238909   -0.341939
| 31> H         0.632802    0.387966    1.399519
| 32> *
| 33>
| 34> $new_job
| 35> ! ri-mp2 aug-cc-pvqz aug-cc-pvqz/c tightscf
| 36> %pal nprocs 16 end
| 37> %maxcore 3800
| 38> %base "QZ_S-F_9_AB"
| 39>
| 40> *xyz 0 1
| 41> F        -1.815045    0.520153    0.295450
| 42> S        -0.812398   -0.613335   -0.271726
| 43> C         0.707485    0.131219    0.342259
| 44> F         1.666886   -0.799276    0.145883
| 45> F         1.050454    1.238909   -0.341939
| 46> H         0.632802    0.387966    1.399519
| 47> *
| 48>
| 49>
| 50>
| 51>
| 52>                          ****END OF INPUT****
 Total Charge           Charge          ....    0
 Multiplicity           Mult            ....    1
 Number of Electrons    NEL             ....   50
MP2 TOTAL ENERGY:     -735.177416868 Eh
FINAL SINGLE POINT ENERGY      -735.177416868428
MP2 TOTAL ENERGY:     -735.513432965 Eh
FINAL SINGLE POINT ENERGY      -735.513432964850

CARTESIAN COORDINATES (ANGSTROEM)
---------------------------------
  F     -1.815045    0.520153    0.295450
  S     -0.812398   -0.613335   -0.271726
  C      0.707485    0.131219    0.342259
  F      1.666886   -0.799276    0.145883
  F      1.050454    1.238909   -0.341939
  H      0.632802    0.387966    1.399519

 Multiplicity           Mult            ....    1
 Number of Electrons    NEL             ....   50
 Basis Dimension        Dim             ....  450

ORBITAL ENERGIES
----------------

  NO   OCC          E(Eh)            E(eV)
   0   2.0000     -92.060331     -2505.0890
   1   2.0000     -26.346404      -716.9221
   2   2.0000     -26.335948      -716.6376
   3   2.0000     -26.334911      -716.6094
   4   2.0000     -11.460313      -311.8510
   5   2.0000      -9.055417      -246.4104
   6   2.0000      -6.736813      -183.3180
   7   2.0000      -6.734964      -183.2677
   8   2.0000      -6.733551      -183.2292
   9   2.0000      -1.697986       -46.2045
  10   2.0000      -1.635924       -44.5158
  11   2.0000      -1.632709       -44.4283
  12   2.0000      -1.067165       -29.0390
  13   2.0000      -0.927951       -25.2508
  14   2.0000      -0.814703       -22.1692
  15   2.0000      -0.794358       -21.6156
  16   2.0000      -0.784212       -21.3395
  17   2.0000      -0.716521       -19.4975
  18   2.0000      -0.710701       -19.3392
  19   2.0000      -0.696082       -18.9414
  20   2.0000      -0.667668       -18.1682
  21   2.0000      -0.662118       -18.0171
  22   2.0000      -0.625734       -17.0271
  23   2.0000      -0.506279       -13.7766
  24   2.0000      -0.408679       -11.1207
  25   0.0000       0.028387         0.7725
  26   0.0000       0.045439         1.2364
  27   0.0000       0.052464         1.4276
  28   0.0000       0.068066         1.8522
  29   0.0000       0.080886         2.2010

MULLIKEN ATOMIC CHARGES
-----------------------
   0 F :   -0.600247
   1 S :    0.626235
   2 C :    0.751534
   3 F :   -0.565687
   4 F :   -0.552400
   5 H :    0.340566
Sum of atomic charges:    0.0000000

LOEWDIN ATOMIC CHARGES
----------------------
   0 F :    0.070314
   1 S :    0.619502
   2 C :   -1.574901
   3 F :    0.688465
   4 F :    0.701894
   5 H :   -0.505275

  Mayer bond orders larger than 0.100000
B(  0-F ,  1-S ) :   0.6300 B(  1-S ,  2-C ) :   1.0166 B(  2-C ,  3-F ) :   0.6225
B(  2-C ,  4-F ) :   0.6059 B(  2-C ,  5-H ) :   0.8053

MP2 TOTAL ENERGY:     -735.624676706 Eh
FINAL SINGLE POINT ENERGY      -735.624676705888

DIPOLE MOMENT
-------------
                                X             Y             Z
Electronic contribution:      0.21789       0.25494      -0.78665
Nuclear contribution   :     -0.21456      -0.49769       1.20492
                        -----------------------------------------
Total Dipole Moment    :      0.00332      -0.24274       0.41827
                        -----------------------------------------
Magnitude (a.u.)       :      0.48362
Magnitude (Debye)      :      1.22925

Rotational constants in cm-1:     0.244880     0.096926     0.075664
Rotational constants in MHz :  7341.304848  2905.775811  2268.355588

                             ****ORCA TERMINATED NORMALLY****
TOTAL RUN TIME: 0 days 0 hours 8 minutes 42 seconds 664 msec
