                         Program Version 5.0.4 -  RELEASE  -
|  1> ! ri-mp2 aug-cc-pvdz aug-cc-pvdz/c tightscf
|  2> %pal nprocs 16 end
|  3> %maxcore 3800
|  4> %base "DZ_Si-Cl_80_AB"
|  5> %scf
|  6> STABPerform true
|  7> STABRestartUHFifUnstable true
|  8> end
|  9>
| 10> *xyz 0 1
| 11> Si         0.000000    0.000000    0.762839
| 12> Cl         0.000000    1.672799   -0.406772
| 13> Cl         0.000000   -1.672799   -0.406772
| 14> H        -1.221771    0.000000    1.575256
| 15> H         1.221771    0.000000    1.575256
| 16> *
| 17>
| 18> $new_job
| 19> ! ri-mp2 aug-cc-pvtz aug-cc-pvtz/c tightscf
| 20> %pal nprocs 16 end
| 21> %maxcore 3800
| 22> %base "TZ_Si-Cl_80_AB"
| 23>
| 24> *xyz 0 1
| 25> Si         0.000000    0.000000    0.762839
| 26> Cl         0.000000    1.672799   -0.406772
| 27> Cl         0.000000   -1.672799   -0.406772
| 28> H        -1.221771    0.000000    1.575256
| 29> H         1.221771    0.000000    1.575256
| 30> *
| 31>
| 32> $new_job
| 33> ! ri-mp2 aug-cc-pvqz aug-cc-pvqz/c tightscf
| 34> %pal nprocs 16 end
| 35> %maxcore 3800
| 36> %base "QZ_Si-Cl_80_AB"
| 37>
| 38> *xyz 0 1
| 39> Si         0.000000    0.000000    0.762839
| 40> Cl         0.000000    1.672799   -0.406772
| 41> Cl         0.000000   -1.672799   -0.406772
| 42> H        -1.221771    0.000000    1.575256
| 43> H         1.221771    0.000000    1.575256
| 44> *
| 45>
| 46>
| 47>
| 48>
| 49>                          ****END OF INPUT****
 Total Charge           Charge          ....    0
 Multiplicity           Mult            ....    1
 Number of Electrons    NEL             ....   50
MP2 TOTAL ENERGY:    -1209.600968661 Eh
FINAL SINGLE POINT ENERGY     -1209.600968660980
MP2 TOTAL ENERGY:    -1209.765505573 Eh
FINAL SINGLE POINT ENERGY     -1209.765505573168

CARTESIAN COORDINATES (ANGSTROEM)
---------------------------------
  Si     0.000000    0.000000    0.762839
  Cl     0.000000    1.672799   -0.406772
  Cl     0.000000   -1.672799   -0.406772
  H     -1.221771    0.000000    1.575256
  H      1.221771    0.000000    1.575256

 Multiplicity           Mult            ....    1
 Number of Electrons    NEL             ....   50
 Basis Dimension        Dim             ....  344

ORBITAL ENERGIES
----------------

  NO   OCC          E(Eh)            E(eV)
   0   2.0000    -104.842008     -2852.8961
   1   2.0000    -104.842008     -2852.8961
   2   2.0000     -68.862762     -1873.8510
   3   2.0000     -10.569551      -287.6121
   4   2.0000     -10.569546      -287.6120
   5   2.0000      -8.036334      -218.6798
   6   2.0000      -8.036333      -218.6797
   7   2.0000      -8.035189      -218.6486
   8   2.0000      -8.035189      -218.6486
   9   2.0000      -8.035149      -218.6475
  10   2.0000      -8.035148      -218.6475
  11   2.0000      -6.203666      -168.8103
  12   2.0000      -4.310964      -117.3073
  13   2.0000      -4.310216      -117.2869
  14   2.0000      -4.309367      -117.2638
  15   2.0000      -1.127144       -30.6712
  16   2.0000      -1.099265       -29.9125
  17   2.0000      -0.730756       -19.8849
  18   2.0000      -0.564550       -15.3622
  19   2.0000      -0.559134       -15.2148
  20   2.0000      -0.557450       -15.1690
  21   2.0000      -0.484506       -13.1841
  22   2.0000      -0.483561       -13.1584
  23   2.0000      -0.468145       -12.7389
  24   2.0000      -0.456340       -12.4176
  25   0.0000       0.029399         0.8000
  26   0.0000       0.039063         1.0629
  27   0.0000       0.041385         1.1261
  28   0.0000       0.041385         1.1261
  29   0.0000       0.063660         1.7323

MULLIKEN ATOMIC CHARGES
-----------------------
   0 Si:    1.421368
   1 Cl:   -0.512352
   2 Cl:   -0.512352
   3 H :   -0.198333
   4 H :   -0.198333
Sum of atomic charges:    0.0000000

LOEWDIN ATOMIC CHARGES
----------------------
   0 Si:   -0.883214
   1 Cl:    0.816344
   2 Cl:    0.816344
   3 H :   -0.374737
   4 H :   -0.374737

  Mayer bond orders larger than 0.100000
B(  0-Si,  1-Cl) :   0.6571 B(  0-Si,  2-Cl) :   0.6571 B(  0-Si,  3-H ) :   0.9265
B(  0-Si,  4-H ) :   0.9265

MP2 TOTAL ENERGY:    -1209.821478008 Eh
FINAL SINGLE POINT ENERGY     -1209.821478007614

DIPOLE MOMENT
-------------
                                X             Y             Z
Electronic contribution:     -0.00000       0.00000      -3.42444
Nuclear contribution   :      0.00000       0.00000       3.96791
                        -----------------------------------------
Total Dipole Moment    :     -0.00000       0.00000       0.54347
                        -----------------------------------------
Magnitude (a.u.)       :      0.54347
Magnitude (Debye)      :      1.38139

Rotational constants in cm-1:     0.469441     0.083693     0.072878
Rotational constants in MHz : 14073.495113  2509.051676  2184.821418

                             ****ORCA TERMINATED NORMALLY****
TOTAL RUN TIME: 0 days 0 hours 5 minutes 7 seconds 87 msec
