                         Program Version 5.0.4 -  RELEASE  -
|  1> ! ri-mp2 aug-cc-pvdz aug-cc-pvdz/c tightscf
|  2> %pal nprocs 16 end
|  3> %maxcore 3800
|  4> %base "DZ_Si-Si_87_A"
|  5> %scf
|  6> STABPerform true
|  7> STABRestartUHFifUnstable true
|  8> end
|  9>
| 10> *xyz 0 2
| 11> Si        -1.349676   -0.264295   -0.089795
| 12> N         0.024992    0.821198    0.038238
| 13> H        -1.273790   -1.314025    0.947993
| 14> H        -2.521510    0.621641    0.113361
| 15> C         1.306815    0.359944    0.028859
| 16> O         1.585957   -0.810670   -0.051199
| 17> H         2.075526    1.146773    0.105283
| 18> H        -0.088252    1.823048    0.059269
| 19> *
| 20>
| 21> $new_job
| 22> ! ri-mp2 aug-cc-pvtz aug-cc-pvtz/c tightscf
| 23> %pal nprocs 16 end
| 24> %maxcore 3800
| 25> %base "TZ_Si-Si_87_A"
| 26>
| 27> *xyz 0 2
| 28> Si        -1.349676   -0.264295   -0.089795
| 29> N         0.024992    0.821198    0.038238
| 30> H        -1.273790   -1.314025    0.947993
| 31> H        -2.521510    0.621641    0.113361
| 32> C         1.306815    0.359944    0.028859
| 33> O         1.585957   -0.810670   -0.051199
| 34> H         2.075526    1.146773    0.105283
| 35> H        -0.088252    1.823048    0.059269
| 36> *
| 37>
| 38> $new_job
| 39> ! ri-mp2 aug-cc-pvqz aug-cc-pvqz/c tightscf
| 40> %pal nprocs 16 end
| 41> %maxcore 3800
| 42> %base "QZ_Si-Si_87_A"
| 43>
| 44> *xyz 0 2
| 45> Si        -1.349676   -0.264295   -0.089795
| 46> N         0.024992    0.821198    0.038238
| 47> H        -1.273790   -1.314025    0.947993
| 48> H        -2.521510    0.621641    0.113361
| 49> C         1.306815    0.359944    0.028859
| 50> O         1.585957   -0.810670   -0.051199
| 51> H         2.075526    1.146773    0.105283
| 52> H        -0.088252    1.823048    0.059269
| 53> *
| 54>
| 55>
| 56>
| 57>
| 58>                          ****END OF INPUT****
 Total Charge           Charge          ....    0
 Multiplicity           Mult            ....    2
 Number of Electrons    NEL             ....   39
MP2 TOTAL ENERGY:     -459.045355326 Eh
FINAL SINGLE POINT ENERGY      -459.045355326404
MP2 TOTAL ENERGY:     -459.226217353 Eh
FINAL SINGLE POINT ENERGY      -459.226217352739

CARTESIAN COORDINATES (ANGSTROEM)
---------------------------------
  Si    -1.349676   -0.264295   -0.089795
  N      0.024992    0.821198    0.038238
  H     -1.273790   -1.314025    0.947993
  H     -2.521510    0.621641    0.113361
  C      1.306815    0.359944    0.028859
  O      1.585957   -0.810670   -0.051199
  H      2.075526    1.146773    0.105283
  H     -0.088252    1.823048    0.059269

 Multiplicity           Mult            ....    2
 Number of Electrons    NEL             ....   39
 Basis Dimension        Dim             ....  508

ORBITAL ENERGIES
----------------
                 SPIN UP ORBITALS
  NO   OCC          E(Eh)            E(eV)
   0   1.0000     -68.805506     -1872.2930
   1   1.0000     -20.538295      -558.8754
   2   1.0000     -15.586479      -424.1296
   3   1.0000     -11.359439      -309.1061
   4   1.0000      -6.153011      -167.4319
   5   1.0000      -4.264942      -116.0550
   6   1.0000      -4.256268      -115.8190
   7   1.0000      -4.255532      -115.7989
   8   1.0000      -1.401841       -38.1460
   9   1.0000      -1.216358       -33.0988
  10   1.0000      -0.850461       -23.1422
  11   1.0000      -0.760242       -20.6872
  12   1.0000      -0.714323       -19.4377
  13   1.0000      -0.636502       -17.3201
  14   1.0000      -0.591295       -16.0900
  15   1.0000      -0.565789       -15.3959
  16   1.0000      -0.499314       -13.5870
  17   1.0000      -0.451728       -12.2921
  18   1.0000      -0.441645       -12.0178
  19   1.0000      -0.334101        -9.0914
  20   0.0000       0.018392         0.5005
  21   0.0000       0.032285         0.8785
  22   0.0000       0.039394         1.0720
  23   0.0000       0.041682         1.1342
  24   0.0000       0.052528         1.4294

                 SPIN DOWN ORBITALS
  NO   OCC          E(Eh)            E(eV)
   0   1.0000     -68.799714     -1872.1354
   1   1.0000     -20.537738      -558.8603
   2   1.0000     -15.584588      -424.0782
   3   1.0000     -11.359512      -309.1080
   4   1.0000      -6.143799      -167.1813
   5   1.0000      -4.252498      -115.7163
   6   1.0000      -4.251956      -115.7016
   7   1.0000      -4.243375      -115.4681
   8   1.0000      -1.400411       -38.1071
   9   1.0000      -1.210853       -32.9490
  10   1.0000      -0.844567       -22.9818
  11   1.0000      -0.754450       -20.5296
  12   1.0000      -0.693545       -18.8723
  13   1.0000      -0.629653       -17.1337
  14   1.0000      -0.581272       -15.8172
  15   1.0000      -0.554695       -15.0940
  16   1.0000      -0.486661       -13.2427
  17   1.0000      -0.443835       -12.0774
  18   1.0000      -0.429579       -11.6894
  19   0.0000       0.018568         0.5053
  20   0.0000       0.027164         0.7392
  21   0.0000       0.033931         0.9233
  22   0.0000       0.039743         1.0814
  23   0.0000       0.051447         1.3999

MULLIKEN ATOMIC CHARGES AND SPIN POPULATIONS
--------------------------------------------
   0 Si:    0.654394    0.878801
   1 N :   -0.546208    0.013286
   2 H :   -0.190267    0.046031
   3 H :   -0.251324    0.031476
   4 C :    0.279778    0.014225
   5 O :   -0.726325    0.011881
   6 H :    0.538762    0.001588
   7 H :    0.241189    0.002714
Sum of atomic charges         :    0.0000000

LOEWDIN ATOMIC CHARGES AND SPIN POPULATIONS
-------------------------------------------
   0 Si:    0.936140    0.554269
   1 N :    0.625306    0.130455
   2 H :   -0.326696    0.131794
   3 H :   -0.344546    0.127122
   4 C :   -0.570943    0.029930
   5 O :    0.653236    0.015622
   6 H :   -0.361393    0.001759
   7 H :   -0.611103    0.009049

  Mayer bond orders larger than 0.100000
B(  0-Si,  1-N ) :   0.8442 B(  0-Si,  2-H ) :   0.8939 B(  0-Si,  3-H ) :   0.8967
B(  1-N ,  4-C ) :   1.1578 B(  1-N ,  7-H ) :   0.9702 B(  4-C ,  5-O ) :   1.6784
B(  4-C ,  6-H ) :   0.6838

MP2 TOTAL ENERGY:     -459.285277040 Eh
FINAL SINGLE POINT ENERGY      -459.285277040493

DIPOLE MOMENT
-------------
                                X             Y             Z
Electronic contribution:      1.17498      -0.86383      -1.14211
Nuclear contribution   :     -1.68052       2.25808       1.21600
                        -----------------------------------------
Total Dipole Moment    :     -0.50554       1.39425       0.07388
                        -----------------------------------------
Magnitude (a.u.)       :      1.48491
Magnitude (Debye)      :      3.77434

Rotational constants in cm-1:     0.537539     0.134308     0.109084
Rotational constants in MHz : 16115.002774  4026.449728  3270.253300

                             ****ORCA TERMINATED NORMALLY****
TOTAL RUN TIME: 0 days 0 hours 32 minutes 35 seconds 25 msec
