                         Program Version 5.0.4 -  RELEASE  -
|  1> ! ri-mp2 aug-cc-pvdz aug-cc-pvdz/c tightscf
|  2> %pal nprocs 16 end
|  3> %maxcore 3800
|  4> %base "DZ_P-O_15_AB"
|  5> %scf
|  6> STABPerform true
|  7> STABRestartUHFifUnstable true
|  8> end
|  9>
| 10> *xyz 0 1
| 11> P        -1.681696    0.022634   -0.570481
| 12> O        -0.064211   -0.171540   -0.875112
| 13> F        -1.596224    1.207767    0.455323
| 14> F        -1.889718   -1.136162    0.460822
| 15> S         1.204331   -0.144591    0.064885
| 16> O         2.261943   -0.739241   -0.641696
| 17> O         0.850214   -0.484542    1.383404
| 18> F         1.438452    1.388010    0.037885
| 19> *
| 20>
| 21> $new_job
| 22> ! ri-mp2 aug-cc-pvtz aug-cc-pvtz/c tightscf
| 23> %pal nprocs 16 end
| 24> %maxcore 3800
| 25> %base "TZ_P-O_15_AB"
| 26>
| 27> *xyz 0 1
| 28> P        -1.681696    0.022634   -0.570481
| 29> O        -0.064211   -0.171540   -0.875112
| 30> F        -1.596224    1.207767    0.455323
| 31> F        -1.889718   -1.136162    0.460822
| 32> S         1.204331   -0.144591    0.064885
| 33> O         2.261943   -0.739241   -0.641696
| 34> O         0.850214   -0.484542    1.383404
| 35> F         1.438452    1.388010    0.037885
| 36> *
| 37>
| 38> $new_job
| 39> ! ri-mp2 aug-cc-pvqz aug-cc-pvqz/c tightscf
| 40> %pal nprocs 16 end
| 41> %maxcore 3800
| 42> %base "QZ_P-O_15_AB"
| 43>
| 44> *xyz 0 1
| 45> P        -1.681696    0.022634   -0.570481
| 46> O        -0.064211   -0.171540   -0.875112
| 47> F        -1.596224    1.207767    0.455323
| 48> F        -1.889718   -1.136162    0.460822
| 49> S         1.204331   -0.144591    0.064885
| 50> O         2.261943   -0.739241   -0.641696
| 51> O         0.850214   -0.484542    1.383404
| 52> F         1.438452    1.388010    0.037885
| 53> *
| 54>
| 55>
| 56>
| 57>
| 58>                          ****END OF INPUT****
 Total Charge           Charge          ....    0
 Multiplicity           Mult            ....    1
 Number of Electrons    NEL             ....   82
MP2 TOTAL ENERGY:    -1262.682930692 Eh
FINAL SINGLE POINT ENERGY     -1262.682930692066
MP2 TOTAL ENERGY:    -1263.289245793 Eh
FINAL SINGLE POINT ENERGY     -1263.289245793133

CARTESIAN COORDINATES (ANGSTROEM)
---------------------------------
  P     -1.681696    0.022634   -0.570481
  O     -0.064211   -0.171540   -0.875112
  F     -1.596224    1.207767    0.455323
  F     -1.889718   -1.136162    0.460822
  S      1.204331   -0.144591    0.064885
  O      2.261943   -0.739241   -0.641696
  O      0.850214   -0.484542    1.383404
  F      1.438452    1.388010    0.037885

 Multiplicity           Mult            ....    1
 Number of Electrons    NEL             ....   82
 Basis Dimension        Dim             ....  648

ORBITAL ENERGIES
----------------

  NO   OCC          E(Eh)            E(eV)
   0   2.0000     -92.304670     -2511.7378
   1   2.0000     -80.148928     -2180.9632
   2   2.0000     -26.390017      -718.1089
   3   2.0000     -26.362031      -717.3473
   4   2.0000     -26.359775      -717.2859
   5   2.0000     -20.677577      -562.6655
   6   2.0000     -20.609588      -560.8154
   7   2.0000     -20.608570      -560.7877
   8   2.0000      -9.261421      -252.0161
   9   2.0000      -7.669912      -208.7089
  10   2.0000      -6.949033      -189.0928
  11   2.0000      -6.947746      -189.0578
  12   2.0000      -6.945955      -189.0090
  13   2.0000      -5.563253      -151.3838
  14   2.0000      -5.563124      -151.3803
  15   2.0000      -5.560596      -151.3115
  16   2.0000      -1.731527       -47.1172
  17   2.0000      -1.698559       -46.2201
  18   2.0000      -1.659451       -45.1560
  19   2.0000      -1.549123       -42.1538
  20   2.0000      -1.454945       -39.5911
  21   2.0000      -1.426376       -38.8137
  22   2.0000      -1.004042       -27.3214
  23   2.0000      -0.915686       -24.9171
  24   2.0000      -0.854952       -23.2644
  25   2.0000      -0.808591       -22.0029
  26   2.0000      -0.797627       -21.7045
  27   2.0000      -0.788426       -21.4542
  28   2.0000      -0.773629       -21.0515
  29   2.0000      -0.765859       -20.8401
  30   2.0000      -0.733478       -19.9590
  31   2.0000      -0.725726       -19.7480
  32   2.0000      -0.701244       -19.0818
  33   2.0000      -0.698101       -18.9963
  34   2.0000      -0.651009       -17.7149
  35   2.0000      -0.642128       -17.4732
  36   2.0000      -0.609879       -16.5957
  37   2.0000      -0.588928       -16.0255
  38   2.0000      -0.552222       -15.0267
  39   2.0000      -0.536325       -14.5941
  40   2.0000      -0.482477       -13.1289
  41   0.0000       0.037167         1.0114
  42   0.0000       0.043157         1.1744
  43   0.0000       0.043836         1.1928
  44   0.0000       0.056495         1.5373
  45   0.0000       0.076551         2.0831

MULLIKEN ATOMIC CHARGES
-----------------------
   0 P :    1.750462
   1 O :   -0.823492
   2 F :   -0.657770
   3 F :   -0.650132
   4 S :    2.977137
   5 O :   -1.026823
   6 O :   -0.986689
   7 F :   -0.582694
Sum of atomic charges:    0.0000000

LOEWDIN ATOMIC CHARGES
----------------------
   0 P :   -0.488156
   1 O :    0.173603
   2 F :    0.294047
   3 F :    0.294165
   4 S :   -1.247174
   5 O :    0.253101
   6 O :    0.264743
   7 F :    0.455671

  Mayer bond orders larger than 0.100000
B(  0-P ,  1-O ) :   0.5485 B(  0-P ,  2-F ) :   0.6187 B(  0-P ,  3-F ) :   0.6139
B(  1-O ,  4-S ) :   0.7756 B(  4-S ,  5-O ) :   1.3043 B(  4-S ,  6-O ) :   1.3471
B(  4-S ,  7-F ) :   0.5261

MP2 TOTAL ENERGY:    -1263.488227725 Eh
FINAL SINGLE POINT ENERGY     -1263.488227725123

DIPOLE MOMENT
-------------
                                X             Y             Z
Electronic contribution:     -4.29813       1.71139      -0.25550
Nuclear contribution   :      3.33124      -1.35702      -0.36935
                        -----------------------------------------
Total Dipole Moment    :     -0.96689       0.35436      -0.62485
                        -----------------------------------------
Magnitude (a.u.)       :      1.20453
Magnitude (Debye)      :      3.06167

Rotational constants in cm-1:     0.099083     0.037399     0.034719
Rotational constants in MHz :  2970.437498  1121.178985  1040.843705

                             ****ORCA TERMINATED NORMALLY****
TOTAL RUN TIME: 0 days 0 hours 31 minutes 8 seconds 820 msec
