                         Program Version 5.0.4 -  RELEASE  -
|  1> ! ri-mp2 aug-cc-pvdz aug-cc-pvdz/c tightscf
|  2> %pal nprocs 16 end
|  3> %maxcore 3800
|  4> %base "DZ_B-P_8_A"
|  5> %scf
|  6> STABPerform true
|  7> STABRestartUHFifUnstable true
|  8> end
|  9>
| 10> *xyz 0 2
| 11> P         0.474819   -0.753820   -0.000002
| 12> C         1.613398    0.676075   -0.000000
| 13> H         1.468327    1.295271   -0.885906
| 14> H         2.635064    0.292092   -0.000002
| 15> Cl        -1.316141    0.256954    0.000002
| 16> H         1.468328    1.295268    0.885909
| 17> *
| 18>
| 19> $new_job
| 20> ! ri-mp2 aug-cc-pvtz aug-cc-pvtz/c tightscf
| 21> %pal nprocs 16 end
| 22> %maxcore 3800
| 23> %base "TZ_B-P_8_A"
| 24>
| 25> *xyz 0 2
| 26> P         0.474819   -0.753820   -0.000002
| 27> C         1.613398    0.676075   -0.000000
| 28> H         1.468327    1.295271   -0.885906
| 29> H         2.635064    0.292092   -0.000002
| 30> Cl        -1.316141    0.256954    0.000002
| 31> H         1.468328    1.295268    0.885909
| 32> *
| 33>
| 34> $new_job
| 35> ! ri-mp2 aug-cc-pvqz aug-cc-pvqz/c tightscf
| 36> %pal nprocs 16 end
| 37> %maxcore 3800
| 38> %base "QZ_B-P_8_A"
| 39>
| 40> *xyz 0 2
| 41> P         0.474819   -0.753820   -0.000002
| 42> C         1.613398    0.676075   -0.000000
| 43> H         1.468327    1.295271   -0.885906
| 44> H         2.635064    0.292092   -0.000002
| 45> Cl        -1.316141    0.256954    0.000002
| 46> H         1.468328    1.295268    0.885909
| 47> *
| 48>
| 49>
| 50>
| 51>
| 52>                          ****END OF INPUT****
 Total Charge           Charge          ....    0
 Multiplicity           Mult            ....    2
 Number of Electrons    NEL             ....   41
MP2 TOTAL ENERGY:     -840.272853340 Eh
FINAL SINGLE POINT ENERGY      -840.272853340340
MP2 TOTAL ENERGY:     -840.415064486 Eh
FINAL SINGLE POINT ENERGY      -840.415064485852

CARTESIAN COORDINATES (ANGSTROEM)
---------------------------------
  P      0.474819   -0.753820   -0.000002
  C      1.613398    0.676075   -0.000000
  H      1.468327    1.295271   -0.885906
  H      2.635064    0.292092   -0.000002
  Cl    -1.316141    0.256954    0.000002
  H      1.468328    1.295268    0.885909

 Multiplicity           Mult            ....    2
 Number of Electrons    NEL             ....   41
 Basis Dimension        Dim             ....  386

ORBITAL ENERGIES
----------------
                 SPIN UP ORBITALS
  NO   OCC          E(Eh)            E(eV)
   0   1.0000    -104.833377     -2852.6612
   1   1.0000     -79.997003     -2176.8291
   2   1.0000     -11.241829      -305.9057
   3   1.0000     -10.559674      -287.3433
   4   1.0000      -8.026616      -218.4153
   5   1.0000      -8.025994      -218.3984
   6   1.0000      -8.024835      -218.3669
   7   1.0000      -7.535775      -205.0589
   8   1.0000      -5.439969      -148.0291
   9   1.0000      -5.426151      -147.6531
  10   1.0000      -5.423709      -147.5866
  11   1.0000      -1.117063       -30.3968
  12   1.0000      -0.992200       -26.9991
  13   1.0000      -0.770839       -20.9756
  14   1.0000      -0.602106       -16.3841
  15   1.0000      -0.599217       -16.3055
  16   1.0000      -0.532706       -14.4957
  17   1.0000      -0.499741       -13.5986
  18   1.0000      -0.481206       -13.0943
  19   1.0000      -0.407482       -11.0882
  20   1.0000      -0.347073        -9.4443
  21   0.0000       0.025290         0.6882
  22   0.0000       0.039556         1.0764
  23   0.0000       0.041260         1.1227
  24   0.0000       0.048154         1.3103
  25   0.0000       0.063142         1.7182

                 SPIN DOWN ORBITALS
  NO   OCC          E(Eh)            E(eV)
   0   1.0000    -104.832566     -2852.6392
   1   1.0000     -79.989822     -2176.6337
   2   1.0000     -11.242796      -305.9320
   3   1.0000     -10.558813      -287.3199
   4   1.0000      -8.026101      -218.4013
   5   1.0000      -8.024396      -218.3549
   6   1.0000      -8.022764      -218.3105
   7   1.0000      -7.526890      -204.8171
   8   1.0000      -5.421984      -147.5397
   9   1.0000      -5.420489      -147.4990
  10   1.0000      -5.405634      -147.0948
  11   1.0000      -1.106034       -30.0967
  12   1.0000      -0.984324       -26.7848
  13   1.0000      -0.714226       -19.4351
  14   1.0000      -0.596665       -16.2361
  15   1.0000      -0.582902       -15.8616
  16   1.0000      -0.527530       -14.3548
  17   1.0000      -0.475481       -12.9385
  18   1.0000      -0.468527       -12.7493
  19   1.0000      -0.391667       -10.6578
  20   0.0000       0.025589         0.6963
  21   0.0000       0.034484         0.9384
  22   0.0000       0.039929         1.0865
  23   0.0000       0.045077         1.2266
  24   0.0000       0.048726         1.3259

MULLIKEN ATOMIC CHARGES AND SPIN POPULATIONS
--------------------------------------------
   0 P :    0.612613    1.039727
   1 C :   -0.901288   -0.097188
   2 H :    0.236490    0.025590
   3 H :    0.276878    0.000171
   4 Cl:   -0.461183    0.006111
   5 H :    0.236490    0.025590
Sum of atomic charges         :    0.0000000

LOEWDIN ATOMIC CHARGES AND SPIN POPULATIONS
-------------------------------------------
   0 P :    0.178040    0.621015
   1 C :    0.518740    0.170157
   2 H :   -0.409706    0.021447
   3 H :   -0.417574    0.010028
   4 Cl:    0.540205    0.155906
   5 H :   -0.409705    0.021447

  Mayer bond orders larger than 0.100000
B(  0-P ,  1-C ) :   0.9703 B(  0-P ,  4-Cl) :   0.8290 B(  1-C ,  2-H ) :   0.9387
B(  1-C ,  3-H ) :   0.9094 B(  1-C ,  5-H ) :   0.9387

MP2 TOTAL ENERGY:     -840.460391486 Eh
FINAL SINGLE POINT ENERGY      -840.460391485568

DIPOLE MOMENT
-------------
                                X             Y             Z
Electronic contribution:     -5.81275      -2.82450      -0.00000
Nuclear contribution   :      6.61899       3.05589      -0.00000
                        -----------------------------------------
Total Dipole Moment    :      0.80624       0.23140      -0.00000
                        -----------------------------------------
Magnitude (a.u.)       :      0.83879
Magnitude (Debye)      :      2.13203

Rotational constants in cm-1:     0.562528     0.150003     0.121117
Rotational constants in MHz : 16864.173408  4496.975735  3630.983793

                             ****ORCA TERMINATED NORMALLY****
TOTAL RUN TIME: 0 days 0 hours 8 minutes 54 seconds 945 msec
