                         Program Version 5.0.4 -  RELEASE  -
|  1> ! ri-mp2 aug-cc-pvdz aug-cc-pvdz/c tightscf
|  2> %pal nprocs 16 end
|  3> %maxcore 3800
|  4> %base "DZ_P-S_10_AB"
|  5> %scf
|  6> STABPerform true
|  7> STABRestartUHFifUnstable true
|  8> end
|  9>
| 10> *xyz 0 1
| 11> C        -1.742351    0.079890    0.319862
| 12> S        -0.437781   -0.888469   -0.547603
| 13> P         1.253678    0.064825    0.180577
| 14> O         1.135929    0.534434    1.553535
| 15> O         2.395095   -1.001739   -0.132357
| 16> C        -1.886732    1.479732   -0.245923
| 17> H        -2.151937    1.446413   -1.303540
| 18> H        -0.969226    2.055016   -0.136408
| 19> C        -3.029301   -0.720937    0.218473
| 20> H        -1.415774    0.132204    1.356668
| 21> H        -3.823927   -0.198438    0.752452
| 22> H        -2.919849   -1.713116    0.654078
| 23> H        -3.343005   -0.833918   -0.820637
| 24> H        -2.678453    2.008754    0.288155
| 25> H         2.432974   -1.716550    0.513747
| 26> O         1.642846    1.224651   -0.827282
| 27> H         1.627874    0.971873   -1.757149
| 28> *
| 29>
| 30> $new_job
| 31> ! ri-mp2 aug-cc-pvtz aug-cc-pvtz/c tightscf
| 32> %pal nprocs 16 end
| 33> %maxcore 3800
| 34> %base "TZ_P-S_10_AB"
| 35>
| 36> *xyz 0 1
| 37> C        -1.742351    0.079890    0.319862
| 38> S        -0.437781   -0.888469   -0.547603
| 39> P         1.253678    0.064825    0.180577
| 40> O         1.135929    0.534434    1.553535
| 41> O         2.395095   -1.001739   -0.132357
| 42> C        -1.886732    1.479732   -0.245923
| 43> H        -2.151937    1.446413   -1.303540
| 44> H        -0.969226    2.055016   -0.136408
| 45> C        -3.029301   -0.720937    0.218473
| 46> H        -1.415774    0.132204    1.356668
| 47> H        -3.823927   -0.198438    0.752452
| 48> H        -2.919849   -1.713116    0.654078
| 49> H        -3.343005   -0.833918   -0.820637
| 50> H        -2.678453    2.008754    0.288155
| 51> H         2.432974   -1.716550    0.513747
| 52> O         1.642846    1.224651   -0.827282
| 53> H         1.627874    0.971873   -1.757149
| 54> *
| 55>
| 56> $new_job
| 57> ! ri-mp2 aug-cc-pvqz aug-cc-pvqz/c tightscf
| 58> %pal nprocs 16 end
| 59> %maxcore 3800
| 60> %base "QZ_P-S_10_AB"
| 61>
| 62> *xyz 0 1
| 63> C        -1.742351    0.079890    0.319862
| 64> S        -0.437781   -0.888469   -0.547603
| 65> P         1.253678    0.064825    0.180577
| 66> O         1.135929    0.534434    1.553535
| 67> O         2.395095   -1.001739   -0.132357
| 68> C        -1.886732    1.479732   -0.245923
| 69> H        -2.151937    1.446413   -1.303540
| 70> H        -0.969226    2.055016   -0.136408
| 71> C        -3.029301   -0.720937    0.218473
| 72> H        -1.415774    0.132204    1.356668
| 73> H        -3.823927   -0.198438    0.752452
| 74> H        -2.919849   -1.713116    0.654078
| 75> H        -3.343005   -0.833918   -0.820637
| 76> H        -2.678453    2.008754    0.288155
| 77> H         2.432974   -1.716550    0.513747
| 78> O         1.642846    1.224651   -0.827282
| 79> H         1.627874    0.971873   -1.757149
| 80> *
| 81>
| 82>
| 83>
| 84>
| 85>                          ****END OF INPUT****
 Total Charge           Charge          ....    0
 Multiplicity           Mult            ....    1
 Number of Electrons    NEL             ....   82
MP2 TOTAL ENERGY:    -1083.162633396 Eh
FINAL SINGLE POINT ENERGY     -1083.162633396447
MP2 TOTAL ENERGY:    -1083.598841378 Eh
FINAL SINGLE POINT ENERGY     -1083.598841377799

CARTESIAN COORDINATES (ANGSTROEM)
---------------------------------
  C     -1.742351    0.079890    0.319862
  S     -0.437781   -0.888469   -0.547603
  P      1.253678    0.064825    0.180577
  O      1.135929    0.534434    1.553535
  O      2.395095   -1.001739   -0.132357
  C     -1.886732    1.479732   -0.245923
  H     -2.151937    1.446413   -1.303540
  H     -0.969226    2.055016   -0.136408
  C     -3.029301   -0.720937    0.218473
  H     -1.415774    0.132204    1.356668
  H     -3.823927   -0.198438    0.752452
  H     -2.919849   -1.713116    0.654078
  H     -3.343005   -0.833918   -0.820637
  H     -2.678453    2.008754    0.288155
  H      2.432974   -1.716550    0.513747
  O      1.642846    1.224651   -0.827282
  H      1.627874    0.971873   -1.757149

 Multiplicity           Mult            ....    1
 Number of Electrons    NEL             ....   82
 Basis Dimension        Dim             .... 1062

ORBITAL ENERGIES
----------------

  NO   OCC          E(Eh)            E(eV)
   0   2.0000     -91.962653     -2502.4310
   1   2.0000     -80.088299     -2179.3134
   2   2.0000     -20.608676      -560.7906
   3   2.0000     -20.604945      -560.6890
   4   2.0000     -20.510264      -558.1127
   5   2.0000     -11.276973      -306.8620
   6   2.0000     -11.231686      -305.6297
   7   2.0000     -11.225655      -305.4656
   8   2.0000      -8.967166      -244.0090
   9   2.0000      -7.608633      -207.0414
  10   2.0000      -6.648529      -180.9157
  11   2.0000      -6.647648      -180.8917
  12   2.0000      -6.646936      -180.8723
  13   2.0000      -5.507010      -149.8534
  14   2.0000      -5.506598      -149.8422
  15   2.0000      -5.505509      -149.8125
  16   2.0000      -1.446878       -39.3715
  17   2.0000      -1.391779       -37.8722
  18   2.0000      -1.307247       -35.5720
  19   2.0000      -1.110661       -30.2226
  20   2.0000      -0.974727       -26.5237
  21   2.0000      -0.951616       -25.8948
  22   2.0000      -0.849242       -23.1090
  23   2.0000      -0.790808       -21.5190
  24   2.0000      -0.764307       -20.7979
  25   2.0000      -0.688812       -18.7435
  26   2.0000      -0.655459       -17.8359
  27   2.0000      -0.635396       -17.2900
  28   2.0000      -0.611918       -16.6511
  29   2.0000      -0.598876       -16.2963
  30   2.0000      -0.590036       -16.0557
  31   2.0000      -0.577391       -15.7116
  32   2.0000      -0.561425       -15.2772
  33   2.0000      -0.553858       -15.0712
  34   2.0000      -0.526524       -14.3275
  35   2.0000      -0.509088       -13.8530
  36   2.0000      -0.490214       -13.3394
  37   2.0000      -0.477152       -12.9840
  38   2.0000      -0.464873       -12.6498
  39   2.0000      -0.434302       -11.8180
  40   2.0000      -0.381336       -10.3767
  41   0.0000       0.022236         0.6051
  42   0.0000       0.029577         0.8048
  43   0.0000       0.030327         0.8252
  44   0.0000       0.037480         1.0199
  45   0.0000       0.043905         1.1947

MULLIKEN ATOMIC CHARGES
-----------------------
   0 C :    0.331134
   1 S :   -0.360937
   2 P :    2.496577
   3 O :   -1.222778
   4 O :   -1.072987
   5 C :   -0.992716
   6 H :    0.217850
   7 H :    0.312263
   8 C :   -0.951466
   9 H :    0.264519
  10 H :    0.293726
  11 H :    0.275358
  12 H :    0.227941
  13 H :    0.297183
  14 H :    0.386567
  15 O :   -0.876663
  16 H :    0.374429
Sum of atomic charges:    0.0000000

LOEWDIN ATOMIC CHARGES
----------------------
   0 C :   -0.307945
   1 S :    1.230739
   2 P :   -1.084570
   3 O :    0.279526
   4 O :    1.050979
   5 C :    0.836734
   6 H :   -0.291525
   7 H :   -0.315438
   8 C :    0.819887
   9 H :   -0.392549
  10 H :   -0.281374
  11 H :   -0.297923
  12 H :   -0.295265
  13 H :   -0.275317
  14 H :   -0.867503
  15 O :    1.061889
  16 H :   -0.870345

  Mayer bond orders larger than 0.100000
B(  0-C ,  1-S ) :   0.5775 B(  0-C ,  3-O ) :  -0.1224 B(  0-C ,  5-C ) :   0.8104
B(  0-C ,  8-C ) :   0.6727 B(  0-C ,  9-H ) :   0.8563 B(  1-S ,  2-P ) :   1.0760
B(  2-P ,  3-O ) :   1.2472 B(  2-P ,  4-O ) :   0.4247 B(  2-P , 15-O ) :   0.5785
B(  4-O , 14-H ) :   0.8900 B(  5-C ,  6-H ) :   0.9812 B(  5-C ,  7-H ) :   0.9317
B(  5-C , 13-H ) :   0.9189 B(  8-C , 10-H ) :   0.9656 B(  8-C , 11-H ) :   0.9766
B(  8-C , 12-H ) :   0.9910 B( 15-O , 16-H ) :   0.8539

MP2 TOTAL ENERGY:    -1083.738044822 Eh
FINAL SINGLE POINT ENERGY     -1083.738044821756

DIPOLE MOMENT
-------------
                                X             Y             Z
Electronic contribution:     13.44497      -2.73398      -0.32150
Nuclear contribution   :    -14.14423       2.10075      -0.59017
                        -----------------------------------------
Total Dipole Moment    :     -0.69926      -0.63324      -0.91167
                        -----------------------------------------
Magnitude (a.u.)       :      1.31190
Magnitude (Debye)      :      3.33459

Rotational constants in cm-1:     0.087648     0.031924     0.029174
Rotational constants in MHz :  2627.614907   957.066904   874.600656

                             ****ORCA TERMINATED NORMALLY****
TOTAL RUN TIME: 0 days 2 hours 38 minutes 10 seconds 971 msec
