                         Program Version 5.0.4 -  RELEASE  -
|  1> ! ri-mp2 aug-cc-pvdz aug-cc-pvdz/c tightscf
|  2> %pal nprocs 16 end
|  3> %maxcore 3800
|  4> %base "DZ_B-Si_73_AB"
|  5>
|  6> *xyz 0 1
|  7> Si        -3.030075   -0.188419   -0.000002
|  8> B        -1.348853    0.914390    0.000002
|  9> C         0.094049    0.398726    0.000000
| 10> C         1.163250    1.306823    0.000000
| 11> C         0.406583   -0.968067    0.000000
| 12> C         1.716513   -1.406409    0.000001
| 13> C         2.750511   -0.482908    0.000000
| 14> C         2.475451    0.876028   -0.000000
| 15> H         3.777675   -0.824583    0.000000
| 16> H         3.285787    1.592865   -0.000001
| 17> H         0.945938    2.367257   -0.000000
| 18> H        -0.395986   -1.693831    0.000001
| 19> H         1.936710   -2.465630    0.000001
| 20> H        -1.503320    2.100626    0.000011
| 21> H        -2.833739   -1.658880   -0.000009
| 22> H        -3.842948    0.151472   -1.194709
| 23> H        -3.842944    0.151460    1.194712
| 24> *
| 25>
| 26> $new_job
| 27> ! ri-mp2 aug-cc-pvtz aug-cc-pvtz/c tightscf
| 28> %pal nprocs 16 end
| 29> %maxcore 3800
| 30> %base "TZ_B-Si_73_AB"
| 31>
| 32> *xyz 0 1
| 33> Si        -3.030075   -0.188419   -0.000002
| 34> B        -1.348853    0.914390    0.000002
| 35> C         0.094049    0.398726    0.000000
| 36> C         1.163250    1.306823    0.000000
| 37> C         0.406583   -0.968067    0.000000
| 38> C         1.716513   -1.406409    0.000001
| 39> C         2.750511   -0.482908    0.000000
| 40> C         2.475451    0.876028   -0.000000
| 41> H         3.777675   -0.824583    0.000000
| 42> H         3.285787    1.592865   -0.000001
| 43> H         0.945938    2.367257   -0.000000
| 44> H        -0.395986   -1.693831    0.000001
| 45> H         1.936710   -2.465630    0.000001
| 46> H        -1.503320    2.100626    0.000011
| 47> H        -2.833739   -1.658880   -0.000009
| 48> H        -3.842948    0.151472   -1.194709
| 49> H        -3.842944    0.151460    1.194712
| 50> *
| 51>
| 52> $new_job
| 53> ! ri-mp2 aug-cc-pvqz aug-cc-pvqz/c tightscf
| 54> %pal nprocs 16 end
| 55> %maxcore 3800
| 56> %base "QZ_B-Si_73_AB"
| 57>
| 58> *xyz 0 1
| 59> Si        -3.030075   -0.188419   -0.000002
| 60> B        -1.348853    0.914390    0.000002
| 61> C         0.094049    0.398726    0.000000
| 62> C         1.163250    1.306823    0.000000
| 63> C         0.406583   -0.968067    0.000000
| 64> C         1.716513   -1.406409    0.000001
| 65> C         2.750511   -0.482908    0.000000
| 66> C         2.475451    0.876028   -0.000000
| 67> H         3.777675   -0.824583    0.000000
| 68> H         3.285787    1.592865   -0.000001
| 69> H         0.945938    2.367257   -0.000000
| 70> H        -0.395986   -1.693831    0.000001
| 71> H         1.936710   -2.465630    0.000001
| 72> H        -1.503320    2.100626    0.000011
| 73> H        -2.833739   -1.658880   -0.000009
| 74> H        -3.842948    0.151472   -1.194709
| 75> H        -3.842944    0.151460    1.194712
| 76> *
| 77>
| 78>
| 79>
| 80>
| 81>                          ****END OF INPUT****
 Total Charge           Charge          ....    0
 Multiplicity           Mult            ....    1
 Number of Electrons    NEL             ....   64
MP2 TOTAL ENERGY:     -547.069026985 Eh
FINAL SINGLE POINT ENERGY      -547.069026985166
MP2 TOTAL ENERGY:     -547.330470774 Eh
FINAL SINGLE POINT ENERGY      -547.330470774296

CARTESIAN COORDINATES (ANGSTROEM)
---------------------------------
  Si    -3.030075   -0.188419   -0.000002
  B     -1.348853    0.914390    0.000002
  C      0.094049    0.398726    0.000000
  C      1.163250    1.306823    0.000000
  C      0.406583   -0.968067    0.000000
  C      1.716513   -1.406409    0.000001
  C      2.750511   -0.482908    0.000000
  C      2.475451    0.876028   -0.000000
  H      3.777675   -0.824583    0.000000
  H      3.285787    1.592865   -0.000001
  H      0.945938    2.367257   -0.000000
  H     -0.395986   -1.693831    0.000001
  H      1.936710   -2.465630    0.000001
  H     -1.503320    2.100626    0.000011
  H     -2.833739   -1.658880   -0.000009
  H     -3.842948    0.151472   -1.194709
  H     -3.842944    0.151460    1.194712

 Multiplicity           Mult            ....    1
 Number of Electrons    NEL             ....   64
 Basis Dimension        Dim             .... 1058

ORBITAL ENERGIES
----------------

  NO   OCC          E(Eh)            E(eV)
   0   2.0000     -68.747045     -1870.7022
   1   2.0000     -11.252092      -306.1850
   2   2.0000     -11.246968      -306.0455
   3   2.0000     -11.246910      -306.0440
   4   2.0000     -11.237780      -305.7955
   5   2.0000     -11.237695      -305.7932
   6   2.0000     -11.217855      -305.2534
   7   2.0000      -7.594188      -206.6484
   8   2.0000      -6.098844      -165.9580
   9   2.0000      -4.205095      -114.4265
  10   2.0000      -4.205029      -114.4247
  11   2.0000      -4.204599      -114.4130
  12   2.0000      -1.163436       -31.6587
  13   2.0000      -1.027687       -27.9648
  14   2.0000      -1.026018       -27.9194
  15   2.0000      -0.840360       -22.8674
  16   2.0000      -0.834653       -22.7121
  17   2.0000      -0.745141       -20.2763
  18   2.0000      -0.707368       -19.2485
  19   2.0000      -0.657701       -17.8970
  20   2.0000      -0.637064       -17.3354
  21   2.0000      -0.615561       -16.7503
  22   2.0000      -0.597872       -16.2689
  23   2.0000      -0.549989       -14.9660
  24   2.0000      -0.514709       -14.0059
  25   2.0000      -0.502075       -13.6622
  26   2.0000      -0.482083       -13.1181
  27   2.0000      -0.471463       -12.8292
  28   2.0000      -0.459304       -12.4983
  29   2.0000      -0.402912       -10.9638
  30   2.0000      -0.353195        -9.6109
  31   2.0000      -0.347864        -9.4659
  32   0.0000       0.020293         0.5522
  33   0.0000       0.026986         0.7343
  34   0.0000       0.029142         0.7930
  35   0.0000       0.033445         0.9101
  36   0.0000       0.038131         1.0376

MULLIKEN ATOMIC CHARGES
-----------------------
   0 Si:    0.235176
   1 B :    0.712503
   2 C :    0.115528
   3 C :   -0.474668
   4 C :   -0.400656
   5 C :   -0.339217
   6 C :   -0.360147
   7 C :   -0.318554
   8 H :    0.341765
   9 H :    0.278387
  10 H :    0.258197
  11 H :    0.407516
  12 H :    0.252118
  13 H :   -0.407495
  14 H :   -0.124128
  15 H :   -0.088163
  16 H :   -0.088164
Sum of atomic charges:   -0.0000000

LOEWDIN ATOMIC CHARGES
----------------------
   0 Si:    1.196478
   1 B :   -0.150975
   2 C :   -0.017261
   3 C :    0.309683
   4 C :    0.293614
   5 C :    0.360114
   6 C :    0.345126
   7 C :    0.358096
   8 H :   -0.313160
   9 H :   -0.320262
  10 H :   -0.325776
  11 H :   -0.363482
  12 H :   -0.319122
  13 H :   -0.212082
  14 H :   -0.275489
  15 H :   -0.282752
  16 H :   -0.282751

  Mayer bond orders larger than 0.100000
B(  0-Si,  1-B ) :   0.4004 B(  0-Si, 14-H ) :   0.6187 B(  0-Si, 15-H ) :   0.6622
B(  0-Si, 16-H ) :   0.6622 B(  1-B ,  2-C ) :   1.0920 B(  1-B ,  3-C ) :  -0.1077
B(  1-B , 13-H ) :   0.7566 B(  2-C ,  3-C ) :   0.9280 B(  2-C ,  4-C ) :   0.9145
B(  2-C ,  5-C ) :  -0.3331 B(  2-C ,  6-C ) :  -0.1000 B(  2-C ,  7-C ) :  -0.3458
B(  3-C ,  5-C ) :   0.1548 B(  3-C ,  6-C ) :   0.1159 B(  3-C ,  7-C ) :   1.3144
B(  3-C ,  9-H ) :  -0.1419 B(  3-C , 10-H ) :   1.0044 B(  4-C ,  5-C ) :   1.2609
B(  4-C ,  7-C ) :   0.1421 B(  4-C , 11-H ) :   0.8498 B(  4-C , 12-H ) :  -0.1137
B(  5-C ,  6-C ) :   1.1884 B(  5-C ,  8-H ) :  -0.1154 B(  5-C , 12-H ) :   1.0968
B(  6-C ,  7-C ) :   1.1428 B(  6-C ,  8-H ) :   1.0036 B(  6-C ,  9-H ) :  -0.1027
B(  7-C ,  9-H ) :   1.0937

MP2 TOTAL ENERGY:     -547.413802859 Eh
FINAL SINGLE POINT ENERGY      -547.413802859226

DIPOLE MOMENT
-------------
                                X             Y             Z
Electronic contribution:      2.05567       0.93794      -0.00001
Nuclear contribution   :     -1.20360      -1.00598       0.00001
                        -----------------------------------------
Total Dipole Moment    :      0.85207      -0.06804      -0.00000
                        -----------------------------------------
Magnitude (a.u.)       :      0.85479
Magnitude (Debye)      :      2.17270

Rotational constants in cm-1:     0.156767     0.029634     0.025137
Rotational constants in MHz :  4699.768099   888.403301   753.577307

                             ****ORCA TERMINATED NORMALLY****
TOTAL RUN TIME: 0 days 0 hours 27 minutes 59 seconds 54 msec
