                         Program Version 5.0.4 -  RELEASE  -
|  1> ! ri-mp2 aug-cc-pvdz aug-cc-pvdz/c tightscf
|  2> %pal nprocs 16 end
|  3> %maxcore 3800
|  4> %base "DZ_B-Si_33_A"
|  5> %scf
|  6> STABPerform true
|  7> STABRestartUHFifUnstable true
|  8> end
|  9>
| 10> *xyz 0 2
| 11> C         0.376052   -0.000001    0.771987
| 12> C        -0.566727   -1.194530    0.575572
| 13> C        -0.566726    1.194529    0.575574
| 14> C        -1.491595    0.773073   -0.576002
| 15> H        -0.050921    2.134773    0.376652
| 16> H        -1.149275    1.339032    1.489007
| 17> C        -1.491597   -0.773071   -0.576002
| 18> H        -1.109037    1.149564   -1.525016
| 19> H        -2.492194    1.186234   -0.455556
| 20> H        -2.492197   -1.186229   -0.455552
| 21> H        -1.109044   -1.149564   -1.525017
| 22> H        -1.149274   -1.339035    1.489005
| 23> H        -0.050922   -2.134773    0.376647
| 24> Si         1.847653   -0.000000   -0.409728
| 25> H         0.811837   -0.000002    1.776561
| 26> H         2.683722   -1.213203   -0.218659
| 27> H         2.683723    1.213202   -0.218657
| 28> *
| 29>
| 30> $new_job
| 31> ! ri-mp2 aug-cc-pvtz aug-cc-pvtz/c tightscf
| 32> %pal nprocs 16 end
| 33> %maxcore 3800
| 34> %base "TZ_B-Si_33_A"
| 35>
| 36> *xyz 0 2
| 37> C         0.376052   -0.000001    0.771987
| 38> C        -0.566727   -1.194530    0.575572
| 39> C        -0.566726    1.194529    0.575574
| 40> C        -1.491595    0.773073   -0.576002
| 41> H        -0.050921    2.134773    0.376652
| 42> H        -1.149275    1.339032    1.489007
| 43> C        -1.491597   -0.773071   -0.576002
| 44> H        -1.109037    1.149564   -1.525016
| 45> H        -2.492194    1.186234   -0.455556
| 46> H        -2.492197   -1.186229   -0.455552
| 47> H        -1.109044   -1.149564   -1.525017
| 48> H        -1.149274   -1.339035    1.489005
| 49> H        -0.050922   -2.134773    0.376647
| 50> Si         1.847653   -0.000000   -0.409728
| 51> H         0.811837   -0.000002    1.776561
| 52> H         2.683722   -1.213203   -0.218659
| 53> H         2.683723    1.213202   -0.218657
| 54> *
| 55>
| 56> $new_job
| 57> ! ri-mp2 aug-cc-pvqz aug-cc-pvqz/c tightscf
| 58> %pal nprocs 16 end
| 59> %maxcore 3800
| 60> %base "QZ_B-Si_33_A"
| 61>
| 62> *xyz 0 2
| 63> C         0.376052   -0.000001    0.771987
| 64> C        -0.566727   -1.194530    0.575572
| 65> C        -0.566726    1.194529    0.575574
| 66> C        -1.491595    0.773073   -0.576002
| 67> H        -0.050921    2.134773    0.376652
| 68> H        -1.149275    1.339032    1.489007
| 69> C        -1.491597   -0.773071   -0.576002
| 70> H        -1.109037    1.149564   -1.525016
| 71> H        -2.492194    1.186234   -0.455556
| 72> H        -2.492197   -1.186229   -0.455552
| 73> H        -1.109044   -1.149564   -1.525017
| 74> H        -1.149274   -1.339035    1.489005
| 75> H        -0.050922   -2.134773    0.376647
| 76> Si         1.847653   -0.000000   -0.409728
| 77> H         0.811837   -0.000002    1.776561
| 78> H         2.683722   -1.213203   -0.218659
| 79> H         2.683723    1.213202   -0.218657
| 80> *
| 81>
| 82>
| 83>
| 84>
| 85>                          ****END OF INPUT****
 Total Charge           Charge          ....    0
 Multiplicity           Mult            ....    2
 Number of Electrons    NEL             ....   55
MP2 TOTAL ENERGY:     -485.477002474 Eh
FINAL SINGLE POINT ENERGY      -485.477002473817
MP2 TOTAL ENERGY:     -485.695223908 Eh
FINAL SINGLE POINT ENERGY      -485.695223908213

CARTESIAN COORDINATES (ANGSTROEM)
---------------------------------
  C      0.376052   -0.000001    0.771987
  C     -0.566727   -1.194530    0.575572
  C     -0.566726    1.194529    0.575574
  C     -1.491595    0.773073   -0.576002
  H     -0.050921    2.134773    0.376652
  H     -1.149275    1.339032    1.489007
  C     -1.491597   -0.773071   -0.576002
  H     -1.109037    1.149564   -1.525016
  H     -2.492194    1.186234   -0.455556
  H     -2.492197   -1.186229   -0.455552
  H     -1.109044   -1.149564   -1.525017
  H     -1.149274   -1.339035    1.489005
  H     -0.050922   -2.134773    0.376647
  Si     1.847653   -0.000000   -0.409728
  H      0.811837   -0.000002    1.776561
  H      2.683722   -1.213203   -0.218659
  H      2.683723    1.213202   -0.218657

 Multiplicity           Mult            ....    2
 Number of Electrons    NEL             ....   55
 Basis Dimension        Dim             ....  990

ORBITAL ENERGIES
----------------
                 SPIN UP ORBITALS
  NO   OCC          E(Eh)            E(eV)
   0   1.0000     -68.766403     -1871.2290
   1   1.0000     -11.219827      -305.3070
   2   1.0000     -11.219802      -305.3063
   3   1.0000     -11.214896      -305.1728
   4   1.0000     -11.214823      -305.1709
   5   1.0000     -11.214303      -305.1567
   6   1.0000      -6.117299      -166.4602
   7   1.0000      -4.230074      -115.1062
   8   1.0000      -4.220258      -114.8391
   9   1.0000      -4.219737      -114.8249
  10   1.0000      -1.122558       -30.5464
  11   1.0000      -0.965732       -26.2789
  12   1.0000      -0.963682       -26.2231
  13   1.0000      -0.789227       -21.4760
  14   1.0000      -0.774532       -21.0761
  15   1.0000      -0.692577       -18.8460
  16   1.0000      -0.657577       -17.8936
  17   1.0000      -0.635715       -17.2987
  18   1.0000      -0.579825       -15.7778
  19   1.0000      -0.549460       -14.9516
  20   1.0000      -0.490463       -13.3462
  21   1.0000      -0.485565       -13.2129
  22   1.0000      -0.482573       -13.1315
  23   1.0000      -0.473070       -12.8729
  24   1.0000      -0.461449       -12.5567
  25   1.0000      -0.450948       -12.2709
  26   1.0000      -0.417227       -11.3533
  27   1.0000      -0.316044        -8.6000
  28   0.0000       0.023528         0.6402
  29   0.0000       0.032374         0.8809
  30   0.0000       0.033198         0.9034
  31   0.0000       0.033715         0.9174
  32   0.0000       0.046737         1.2718

                 SPIN DOWN ORBITALS
  NO   OCC          E(Eh)            E(eV)
   0   1.0000     -68.760816     -1871.0769
   1   1.0000     -11.219863      -305.3080
   2   1.0000     -11.219844      -305.3075
   3   1.0000     -11.214819      -305.1707
   4   1.0000     -11.214247      -305.1552
   5   1.0000     -11.214124      -305.1518
   6   1.0000      -6.108808      -166.2291
   7   1.0000      -4.216537      -114.7378
   8   1.0000      -4.216066      -114.7250
   9   1.0000      -4.207762      -114.4990
  10   1.0000      -1.121613       -30.5206
  11   1.0000      -0.965699       -26.2780
  12   1.0000      -0.961188       -26.1552
  13   1.0000      -0.780994       -21.2519
  14   1.0000      -0.774242       -21.0682
  15   1.0000      -0.669865       -18.2280
  16   1.0000      -0.654946       -17.8220
  17   1.0000      -0.621653       -16.9160
  18   1.0000      -0.579282       -15.7631
  19   1.0000      -0.545440       -14.8422
  20   1.0000      -0.485571       -13.2131
  21   1.0000      -0.482396       -13.1267
  22   1.0000      -0.480505       -13.0752
  23   1.0000      -0.472716       -12.8633
  24   1.0000      -0.459686       -12.5087
  25   1.0000      -0.448805       -12.2126
  26   1.0000      -0.407811       -11.0971
  27   0.0000       0.023460         0.6384
  28   0.0000       0.029979         0.8158
  29   0.0000       0.032966         0.8971
  30   0.0000       0.033775         0.9191
  31   0.0000       0.042019         1.1434

MULLIKEN ATOMIC CHARGES AND SPIN POPULATIONS
--------------------------------------------
   0 C :   -0.246971   -0.019146
   1 C :   -0.643938    0.012170
   2 C :   -0.644190    0.012211
   3 C :   -0.495433   -0.000042
   4 H :    0.307920   -0.001917
   5 H :    0.234258   -0.003002
   6 C :   -0.495970    0.000060
   7 H :    0.186746   -0.006230
   8 H :    0.323127   -0.000740
   9 H :    0.323057   -0.000741
  10 H :    0.186813   -0.006217
  11 H :    0.234375   -0.002999
  12 H :    0.307797   -0.001923
  13 Si:    0.676464    0.991190
  14 H :    0.402378    0.022136
  15 H :   -0.328221    0.002596
  16 H :   -0.328212    0.002595
Sum of atomic charges         :    0.0000000

LOEWDIN ATOMIC CHARGES AND SPIN POPULATIONS
-------------------------------------------
   0 C :    0.039178    0.128346
   1 C :    0.447932    0.019294
   2 C :    0.447931    0.019294
   3 C :    0.527160    0.017361
   4 H :   -0.275096    0.001456
   5 H :   -0.262550    0.000377
   6 C :    0.527159    0.017361
   7 H :   -0.274407    0.009980
   8 H :   -0.260442    0.000770
   9 H :   -0.260442    0.000770
  10 H :   -0.274406    0.009980
  11 H :   -0.262551    0.000377
  12 H :   -0.275096    0.001456
  13 Si:    1.110544    0.505722
  14 H :   -0.327314    0.020814
  15 H :   -0.313801    0.123320
  16 H :   -0.313801    0.123320

  Mayer bond orders larger than 0.100000
B(  0-C ,  1-C ) :   0.8766 B(  0-C ,  2-C ) :   0.8765 B(  0-C , 13-Si) :   0.6551
B(  0-C , 14-H ) :   0.8225 B(  1-C ,  6-C ) :   0.9777 B(  1-C , 11-H ) :   0.9736
B(  1-C , 12-H ) :   0.8850 B(  2-C ,  3-C ) :   0.9777 B(  2-C ,  4-H ) :   0.8849
B(  2-C ,  5-H ) :   0.9737 B(  3-C ,  6-C ) :   0.9490 B(  3-C ,  7-H ) :   0.9899
B(  3-C ,  8-H ) :   0.8684 B(  6-C ,  9-H ) :   0.8684 B(  6-C , 10-H ) :   0.9899
B( 13-Si, 15-H ) :   0.8654 B( 13-Si, 16-H ) :   0.8654

MP2 TOTAL ENERGY:     -485.761816786 Eh
FINAL SINGLE POINT ENERGY      -485.761816785871

DIPOLE MOMENT
-------------
                                X             Y             Z
Electronic contribution:      3.33921       0.00000      -0.95295
Nuclear contribution   :     -3.68059      -0.00000       1.18076
                        -----------------------------------------
Total Dipole Moment    :     -0.34139      -0.00000       0.22780
                        -----------------------------------------
Magnitude (a.u.)       :      0.41041
Magnitude (Debye)      :      1.04318

Rotational constants in cm-1:     0.152155     0.072538     0.064487
Rotational constants in MHz :  4561.480613  2174.629898  1933.262038

                             ****ORCA TERMINATED NORMALLY****
TOTAL RUN TIME: 0 days 4 hours 56 minutes 9 seconds 704 msec
