                         Program Version 5.0.4 -  RELEASE  -
|  1> ! ri-mp2 aug-cc-pvdz aug-cc-pvdz/c tightscf
|  2> %pal nprocs 16 end
|  3> %maxcore 3800
|  4> %base "DZ_S-Cl_57_A"
|  5> %scf
|  6> STABPerform true
|  7> STABRestartUHFifUnstable true
|  8> end
|  9>
| 10> *xyz 0 2
| 11> S         1.063581   -0.098526    0.000001
| 12> C        -0.584435    0.475139   -0.000010
| 13> N        -1.628835   -0.229432    0.000007
| 14> H        -1.439651   -1.231399   -0.000022
| 15> H        -0.669192    1.563008    0.000010
| 16> *
| 17>
| 18> $new_job
| 19> ! ri-mp2 aug-cc-pvtz aug-cc-pvtz/c tightscf
| 20> %pal nprocs 16 end
| 21> %maxcore 3800
| 22> %base "TZ_S-Cl_57_A"
| 23>
| 24> *xyz 0 2
| 25> S         1.063581   -0.098526    0.000001
| 26> C        -0.584435    0.475139   -0.000010
| 27> N        -1.628835   -0.229432    0.000007
| 28> H        -1.439651   -1.231399   -0.000022
| 29> H        -0.669192    1.563008    0.000010
| 30> *
| 31>
| 32> $new_job
| 33> ! ri-mp2 aug-cc-pvqz aug-cc-pvqz/c tightscf
| 34> %pal nprocs 16 end
| 35> %maxcore 3800
| 36> %base "QZ_S-Cl_57_A"
| 37>
| 38> *xyz 0 2
| 39> S         1.063581   -0.098526    0.000001
| 40> C        -0.584435    0.475139   -0.000010
| 41> N        -1.628835   -0.229432    0.000007
| 42> H        -1.439651   -1.231399   -0.000022
| 43> H        -0.669192    1.563008    0.000010
| 44> *
| 45>
| 46>
| 47>
| 48>
| 49>                          ****END OF INPUT****
 Total Charge           Charge          ....    0
 Multiplicity           Mult            ....    2
 Number of Electrons    NEL             ....   31
MP2 TOTAL ENERGY:     -491.404852278 Eh
FINAL SINGLE POINT ENERGY      -491.404852278003
MP2 TOTAL ENERGY:     -491.531797879 Eh
FINAL SINGLE POINT ENERGY      -491.531797878893

CARTESIAN COORDINATES (ANGSTROEM)
---------------------------------
  S      1.063581   -0.098526    0.000001
  C     -0.584435    0.475139   -0.000010
  N     -1.628835   -0.229432    0.000007
  H     -1.439651   -1.231399   -0.000022
  H     -0.669192    1.563008    0.000010

 Multiplicity           Mult            ....    2
 Number of Electrons    NEL             ....   31
 Basis Dimension        Dim             ....  336

ORBITAL ENERGIES
----------------
                 SPIN UP ORBITALS
  NO   OCC          E(Eh)            E(eV)
   0   1.0000     -92.005710     -2503.6027
   1   1.0000     -15.567576      -423.6153
   2   1.0000     -11.327781      -308.2446
   3   1.0000      -9.008373      -245.1303
   4   1.0000      -6.704357      -182.4348
   5   1.0000      -6.685495      -181.9216
   6   1.0000      -6.684267      -181.8881
   7   1.0000      -1.239229       -33.7211
   8   1.0000      -1.031580       -28.0707
   9   1.0000      -0.823258       -22.4020
  10   1.0000      -0.657029       -17.8787
  11   1.0000      -0.616464       -16.7748
  12   1.0000      -0.513941       -13.9851
  13   1.0000      -0.476379       -12.9629
  14   1.0000      -0.431210       -11.7338
  15   1.0000      -0.386737       -10.5236
  16   0.0000       0.027917         0.7596
  17   0.0000       0.036472         0.9925
  18   0.0000       0.049073         1.3353
  19   0.0000       0.076862         2.0915
  20   0.0000       0.082096         2.2340

                 SPIN DOWN ORBITALS
  NO   OCC          E(Eh)            E(eV)
   0   1.0000     -91.996500     -2503.3520
   1   1.0000     -15.566547      -423.5873
   2   1.0000     -11.328815      -308.2727
   3   1.0000      -8.998212      -244.8538
   4   1.0000      -6.680754      -181.7925
   5   1.0000      -6.678809      -181.7396
   6   1.0000      -6.662624      -181.2992
   7   1.0000      -1.232611       -33.5411
   8   1.0000      -0.965502       -26.2726
   9   1.0000      -0.800825       -21.7916
  10   1.0000      -0.645403       -17.5623
  11   1.0000      -0.593786       -16.1577
  12   1.0000      -0.508944       -13.8491
  13   1.0000      -0.425330       -11.5738
  14   1.0000      -0.370804       -10.0901
  15   0.0000      -0.012080        -0.3287
  16   0.0000       0.028453         0.7742
  17   0.0000       0.039630         1.0784
  18   0.0000       0.050292         1.3685
  19   0.0000       0.077201         2.1007

MULLIKEN ATOMIC CHARGES AND SPIN POPULATIONS
--------------------------------------------
   0 S :    0.138668    1.078252
   1 C :   -0.298431   -0.110026
   2 N :   -0.578203    0.017268
   3 H :    0.304286   -0.014386
   4 H :    0.433681    0.028891
Sum of atomic charges         :   -0.0000000

LOEWDIN ATOMIC CHARGES AND SPIN POPULATIONS
-------------------------------------------
   0 S :    1.015777    0.735223
   1 C :   -0.611583    0.198032
   2 N :    0.822811    0.023686
   3 H :   -0.728480    0.018830
   4 H :   -0.498525    0.024229

  Mayer bond orders larger than 0.100000
B(  0-S ,  1-C ) :   0.9898 B(  1-C ,  2-N ) :   1.8200 B(  1-C ,  4-H ) :   0.7730
B(  2-N ,  3-H ) :   0.8346

MP2 TOTAL ENERGY:     -491.573377532 Eh
FINAL SINGLE POINT ENERGY      -491.573377531815

DIPOLE MOMENT
-------------
                                X             Y             Z
Electronic contribution:      2.65378      -0.28318      -0.00001
Nuclear contribution   :     -2.08415       0.32291      -0.00001
                        -----------------------------------------
Total Dipole Moment    :      0.56964       0.03973      -0.00002
                        -----------------------------------------
Magnitude (a.u.)       :      0.57102
Magnitude (Debye)      :      1.45142

Rotational constants in cm-1:     2.177373     0.210714     0.192121
Rotational constants in MHz : 65276.004655  6317.040157  5759.653662

                             ****ORCA TERMINATED NORMALLY****
TOTAL RUN TIME: 0 days 0 hours 7 minutes 24 seconds 629 msec
