                         Program Version 5.0.4 -  RELEASE  -
|  1> ! ri-mp2 aug-cc-pvdz aug-cc-pvdz/c tightscf
|  2> %pal nprocs 16 end
|  3> %maxcore 3800
|  4> %base "DZ_S-Cl_60_AB"
|  5>
|  6> *xyz 0 1
|  7> Cl         2.060563   -0.568290   -0.087636
|  8> S         0.635698    0.877419    0.070644
|  9> C        -0.776866   -0.126672    0.264745
| 10> N        -1.834772    0.248952   -0.311514
| 11> H        -0.729125   -0.989404    0.925063
| 12> O        -2.915858   -0.525158    0.061388
| 13> H        -3.640141   -0.169730   -0.464525
| 14> *
| 15>
| 16> $new_job
| 17> ! ri-mp2 aug-cc-pvtz aug-cc-pvtz/c tightscf
| 18> %pal nprocs 16 end
| 19> %maxcore 3800
| 20> %base "TZ_S-Cl_60_AB"
| 21>
| 22> *xyz 0 1
| 23> Cl         2.060563   -0.568290   -0.087636
| 24> S         0.635698    0.877419    0.070644
| 25> C        -0.776866   -0.126672    0.264745
| 26> N        -1.834772    0.248952   -0.311514
| 27> H        -0.729125   -0.989404    0.925063
| 28> O        -2.915858   -0.525158    0.061388
| 29> H        -3.640141   -0.169730   -0.464525
| 30> *
| 31>
| 32> $new_job
| 33> ! ri-mp2 aug-cc-pvqz aug-cc-pvqz/c tightscf
| 34> %pal nprocs 16 end
| 35> %maxcore 3800
| 36> %base "QZ_S-Cl_60_AB"
| 37>
| 38> *xyz 0 1
| 39> Cl         2.060563   -0.568290   -0.087636
| 40> S         0.635698    0.877419    0.070644
| 41> C        -0.776866   -0.126672    0.264745
| 42> N        -1.834772    0.248952   -0.311514
| 43> H        -0.729125   -0.989404    0.925063
| 44> O        -2.915858   -0.525158    0.061388
| 45> H        -3.640141   -0.169730   -0.464525
| 46> *
| 47>
| 48>
| 49>
| 50>
| 51>                          ****END OF INPUT****
 Total Charge           Charge          ....    0
 Multiplicity           Mult            ....    1
 Number of Electrons    NEL             ....   56
MP2 TOTAL ENERGY:    -1026.108411330 Eh
FINAL SINGLE POINT ENERGY     -1026.108411330034
MP2 TOTAL ENERGY:    -1026.366512482 Eh
FINAL SINGLE POINT ENERGY     -1026.366512482217

CARTESIAN COORDINATES (ANGSTROEM)
---------------------------------
  Cl     2.060563   -0.568290   -0.087636
  S      0.635698    0.877419    0.070644
  C     -0.776866   -0.126672    0.264745
  N     -1.834772    0.248952   -0.311514
  H     -0.729125   -0.989404    0.925063
  O     -2.915858   -0.525158    0.061388
  H     -3.640141   -0.169730   -0.464525

 Multiplicity           Mult            ....    1
 Number of Electrons    NEL             ....   56
 Basis Dimension        Dim             ....  500

ORBITAL ENERGIES
----------------

  NO   OCC          E(Eh)            E(eV)
   0   2.0000    -104.865462     -2853.5343
   1   2.0000     -92.030697     -2504.2826
   2   2.0000     -20.622400      -561.1640
   3   2.0000     -15.653598      -425.9561
   4   2.0000     -11.320796      -308.0545
   5   2.0000     -10.589702      -288.1604
   6   2.0000      -9.028819      -245.6866
   7   2.0000      -8.056718      -219.2344
   8   2.0000      -8.054754      -219.1810
   9   2.0000      -8.054551      -219.1755
  10   2.0000      -6.709971      -182.5876
  11   2.0000      -6.708605      -182.5504
  12   2.0000      -6.707290      -182.5146
  13   2.0000      -1.460442       -39.7407
  14   2.0000      -1.207294       -32.8521
  15   2.0000      -1.146467       -31.1970
  16   2.0000      -0.965929       -26.2843
  17   2.0000      -0.800845       -21.7921
  18   2.0000      -0.746769       -20.3206
  19   2.0000      -0.683505       -18.5991
  20   2.0000      -0.629688       -17.1347
  21   2.0000      -0.596436       -16.2299
  22   2.0000      -0.545899       -14.8547
  23   2.0000      -0.525914       -14.3108
  24   2.0000      -0.481091       -13.0911
  25   2.0000      -0.458101       -12.4656
  26   2.0000      -0.444561       -12.0971
  27   2.0000      -0.363364        -9.8876
  28   0.0000       0.026661         0.7255
  29   0.0000       0.038220         1.0400
  30   0.0000       0.045614         1.2412
  31   0.0000       0.051206         1.3934
  32   0.0000       0.073512         2.0004

MULLIKEN ATOMIC CHARGES
-----------------------
   0 Cl:   -0.272964
   1 S :    0.386819
   2 C :   -0.256963
   3 N :   -0.123924
   4 H :    0.472941
   5 O :   -0.542174
   6 H :    0.336265
Sum of atomic charges:    0.0000000

LOEWDIN ATOMIC CHARGES
----------------------
   0 Cl:    0.464383
   1 S :    0.372092
   2 C :   -0.603609
   3 N :    0.117915
   4 H :   -0.467931
   5 O :    0.987621
   6 H :   -0.870472

  Mayer bond orders larger than 0.100000
B(  0-Cl,  1-S ) :   1.0091 B(  1-S ,  2-C ) :   0.8946 B(  2-C ,  3-N ) :   1.7785
B(  2-C ,  4-H ) :   0.7433 B(  3-N ,  5-O ) :   0.8451 B(  5-O ,  6-H ) :   0.9371

MP2 TOTAL ENERGY:    -1026.452386162 Eh
FINAL SINGLE POINT ENERGY     -1026.452386162222

DIPOLE MOMENT
-------------
                                X             Y             Z
Electronic contribution:      6.49044       0.28930      -0.46711
Nuclear contribution   :     -6.97109      -0.35828       0.54957
                        -----------------------------------------
Total Dipole Moment    :     -0.48065      -0.06899       0.08245
                        -----------------------------------------
Magnitude (a.u.)       :      0.49253
Magnitude (Debye)      :      1.25190

Rotational constants in cm-1:     0.363643     0.045426     0.041119
Rotational constants in MHz : 10901.755423  1361.833591  1232.729057

                             ****ORCA TERMINATED NORMALLY****
TOTAL RUN TIME: 0 days 0 hours 2 minutes 36 seconds 931 msec
