                         Program Version 5.0.4 -  RELEASE  -
|  1> ! ri-mp2 aug-cc-pvdz aug-cc-pvdz/c tightscf
|  2> %pal nprocs 16 end
|  3> %maxcore 3800
|  4> %base "DZ_B-Cl_2_A"
|  5> %scf
|  6> STABPerform true
|  7> STABRestartUHFifUnstable true
|  8> end
|  9>
| 10> *xyz 0 2
| 11> Cl        -1.794505    0.200863    0.000040
| 12> S         1.234939   -0.647349   -0.000039
| 13> B        -0.483408   -0.921069    0.000006
| 14> C         1.443923    1.165934   -0.000011
| 15> H         2.513505    1.360059   -0.000024
| 16> H         0.993793    1.596280    0.889673
| 17> H         0.993766    1.596310   -0.889667
| 18> *
| 19>
| 20> $new_job
| 21> ! ri-mp2 aug-cc-pvtz aug-cc-pvtz/c tightscf
| 22> %pal nprocs 16 end
| 23> %maxcore 3800
| 24> %base "TZ_B-Cl_2_A"
| 25>
| 26> *xyz 0 2
| 27> Cl        -1.794505    0.200863    0.000040
| 28> S         1.234939   -0.647349   -0.000039
| 29> B        -0.483408   -0.921069    0.000006
| 30> C         1.443923    1.165934   -0.000011
| 31> H         2.513505    1.360059   -0.000024
| 32> H         0.993793    1.596280    0.889673
| 33> H         0.993766    1.596310   -0.889667
| 34> *
| 35>
| 36> $new_job
| 37> ! ri-mp2 aug-cc-pvqz aug-cc-pvqz/c tightscf
| 38> %pal nprocs 16 end
| 39> %maxcore 3800
| 40> %base "QZ_B-Cl_2_A"
| 41>
| 42> *xyz 0 2
| 43> Cl        -1.794505    0.200863    0.000040
| 44> S         1.234939   -0.647349   -0.000039
| 45> B        -0.483408   -0.921069    0.000006
| 46> C         1.443923    1.165934   -0.000011
| 47> H         2.513505    1.360059   -0.000024
| 48> H         0.993793    1.596280    0.889673
| 49> H         0.993766    1.596310   -0.889667
| 50> *
| 51>
| 52>
| 53>
| 54>
| 55>                          ****END OF INPUT****
 Total Charge           Charge          ....    0
 Multiplicity           Mult            ....    2
 Number of Electrons    NEL             ....   47
MP2 TOTAL ENERGY:     -921.852781752 Eh
FINAL SINGLE POINT ENERGY      -921.852781752073
MP2 TOTAL ENERGY:     -922.022214169 Eh
FINAL SINGLE POINT ENERGY      -922.022214168845

CARTESIAN COORDINATES (ANGSTROEM)
---------------------------------
  Cl    -1.794505    0.200863    0.000040
  S      1.234939   -0.647349   -0.000039
  B     -0.483408   -0.921069    0.000006
  C      1.443923    1.165934   -0.000011
  H      2.513505    1.360059   -0.000024
  H      0.993793    1.596280    0.889673
  H      0.993766    1.596310   -0.889667

 Multiplicity           Mult            ....    2
 Number of Electrons    NEL             ....   47
 Basis Dimension        Dim             ....  466

ORBITAL ENERGIES
----------------
                 SPIN UP ORBITALS
  NO   OCC          E(Eh)            E(eV)
   0   1.0000    -104.847096     -2853.0345
   1   1.0000     -91.966643     -2502.5396
   2   1.0000     -11.269528      -306.6595
   3   1.0000     -10.574541      -287.7479
   4   1.0000      -8.971083      -244.1156
   5   1.0000      -8.042130      -218.8375
   6   1.0000      -8.040197      -218.7849
   7   1.0000      -8.039907      -218.7770
   8   1.0000      -7.690723      -209.2752
   9   1.0000      -6.652165      -181.0146
  10   1.0000      -6.651223      -180.9890
  11   1.0000      -6.650459      -180.9682
  12   1.0000      -1.132506       -30.8170
  13   1.0000      -1.056782       -28.7565
  14   1.0000      -0.899487       -24.4763
  15   1.0000      -0.665608       -18.1121
  16   1.0000      -0.609554       -16.5868
  17   1.0000      -0.606910       -16.5149
  18   1.0000      -0.563179       -15.3249
  19   1.0000      -0.518704       -14.1146
  20   1.0000      -0.501010       -13.6332
  21   1.0000      -0.450474       -12.2580
  22   1.0000      -0.387043       -10.5320
  23   1.0000      -0.342192        -9.3115
  24   0.0000       0.023842         0.6488
  25   0.0000       0.036414         0.9909
  26   0.0000       0.038809         1.0560
  27   0.0000       0.039126         1.0647
  28   0.0000       0.052561         1.4303

                 SPIN DOWN ORBITALS
  NO   OCC          E(Eh)            E(eV)
   0   1.0000    -104.846345     -2853.0141
   1   1.0000     -91.966907     -2502.5468
   2   1.0000     -11.267402      -306.6016
   3   1.0000     -10.573658      -287.7239
   4   1.0000      -8.970972      -244.1126
   5   1.0000      -8.040813      -218.8016
   6   1.0000      -8.039815      -218.7745
   7   1.0000      -8.037947      -218.7237
   8   1.0000      -7.669527      -208.6984
   9   1.0000      -6.653016      -181.0378
  10   1.0000      -6.652002      -181.0102
  11   1.0000      -6.651404      -180.9939
  12   1.0000      -1.123420       -30.5698
  13   1.0000      -1.050631       -28.5891
  14   1.0000      -0.889322       -24.1997
  15   1.0000      -0.642522       -17.4839
  16   1.0000      -0.606417       -16.5014
  17   1.0000      -0.597339       -16.2544
  18   1.0000      -0.543668       -14.7940
  19   1.0000      -0.498433       -13.5630
  20   1.0000      -0.492250       -13.3948
  21   1.0000      -0.444088       -12.0842
  22   1.0000      -0.389887       -10.6094
  23   0.0000       0.023827         0.6484
  24   0.0000       0.032908         0.8955
  25   0.0000       0.037200         1.0123
  26   0.0000       0.039052         1.0627
  27   0.0000       0.051814         1.4099

MULLIKEN ATOMIC CHARGES AND SPIN POPULATIONS
--------------------------------------------
   0 Cl:   -0.225461    0.018377
   1 S :    0.076739   -0.113485
   2 B :    0.101024    1.008982
   3 C :   -0.875525    0.095919
   4 H :    0.379611    0.004385
   5 H :    0.271807   -0.007089
   6 H :    0.271805   -0.007089
Sum of atomic charges         :   -0.0000000

LOEWDIN ATOMIC CHARGES AND SPIN POPULATIONS
-------------------------------------------
   0 Cl:    1.132921    0.179029
   1 S :    1.191659    0.152871
   2 B :   -1.671288    0.613696
   3 C :    0.497254    0.032310
   4 H :   -0.386282    0.008964
   5 H :   -0.382133    0.006565
   6 H :   -0.382132    0.006565

  Mayer bond orders larger than 0.100000
B(  0-Cl,  2-B ) :   1.1271 B(  1-S ,  2-B ) :   1.3910 B(  1-S ,  3-C ) :   0.9645
B(  3-C ,  4-H ) :   0.8266 B(  3-C ,  5-H ) :   0.9239 B(  3-C ,  6-H ) :   0.9239

MP2 TOTAL ENERGY:     -922.077625816 Eh
FINAL SINGLE POINT ENERGY      -922.077625815657

DIPOLE MOMENT
-------------
                                X             Y             Z
Electronic contribution:     -6.60844      -4.06395       0.00008
Nuclear contribution   :      7.01538       4.75343      -0.00007
                        -----------------------------------------
Total Dipole Moment    :      0.40694       0.68948       0.00000
                        -----------------------------------------
Magnitude (a.u.)       :      0.80061
Magnitude (Debye)      :      2.03500

Rotational constants in cm-1:     0.348592     0.084147     0.068665
Rotational constants in MHz : 10450.534956  2522.650792  2058.534520

                             ****ORCA TERMINATED NORMALLY****
TOTAL RUN TIME: 0 days 0 hours 18 minutes 24 seconds 337 msec
