                         Program Version 5.0.4 -  RELEASE  -
|  1> ! ri-mp2 aug-cc-pvdz aug-cc-pvdz/c tightscf
|  2> %pal nprocs 16 end
|  3> %maxcore 3800
|  4> %base "DZ_Si-F_18_A"
|  5> %scf
|  6> STABPerform true
|  7> STABRestartUHFifUnstable true
|  8> end
|  9>
| 10> *xyz 0 2
| 11> Si         0.000000    0.387355    0.000000
| 12> O         1.445836   -0.069141    0.000000
| 13> F        -1.285188   -0.541094    0.000000
| 14> *
| 15>
| 16> $new_job
| 17> ! ri-mp2 aug-cc-pvtz aug-cc-pvtz/c tightscf
| 18> %pal nprocs 16 end
| 19> %maxcore 3800
| 20> %base "TZ_Si-F_18_A"
| 21>
| 22> *xyz 0 2
| 23> Si         0.000000    0.387355    0.000000
| 24> O         1.445836   -0.069141    0.000000
| 25> F        -1.285188   -0.541094    0.000000
| 26> *
| 27>
| 28> $new_job
| 29> ! ri-mp2 aug-cc-pvqz aug-cc-pvqz/c tightscf
| 30> %pal nprocs 16 end
| 31> %maxcore 3800
| 32> %base "QZ_Si-F_18_A"
| 33>
| 34> *xyz 0 2
| 35> Si         0.000000    0.387355    0.000000
| 36> O         1.445836   -0.069141    0.000000
| 37> F        -1.285188   -0.541094    0.000000
| 38> *
| 39>
| 40>
| 41>
| 42>
| 43>                          ****END OF INPUT****
 Total Charge           Charge          ....    0
 Multiplicity           Mult            ....    2
 Number of Electrons    NEL             ....   31
MP2 TOTAL ENERGY:     -463.750929985 Eh
FINAL SINGLE POINT ENERGY      -463.750929984547
MP2 TOTAL ENERGY:     -463.937898876 Eh
FINAL SINGLE POINT ENERGY      -463.937898876126

CARTESIAN COORDINATES (ANGSTROEM)
---------------------------------
  Si     0.000000    0.387355    0.000000
  O      1.445836   -0.069141    0.000000
  F     -1.285188   -0.541094    0.000000

 Multiplicity           Mult            ....    2
 Number of Electrons    NEL             ....   31
 Basis Dimension        Dim             ....  244

ORBITAL ENERGIES
----------------
                 SPIN UP ORBITALS
  NO   OCC          E(Eh)            E(eV)
   0   1.0000     -68.876547     -1874.2261
   1   1.0000     -26.345170      -716.8885
   2   1.0000     -20.545914      -559.0827
   3   1.0000      -6.221058      -169.2836
   4   1.0000      -4.328366      -117.7808
   5   1.0000      -4.325086      -117.6916
   6   1.0000      -4.321619      -117.5972
   7   1.0000      -1.650313       -44.9073
   8   1.0000      -1.290586       -35.1186
   9   1.0000      -0.811337       -22.0776
  10   1.0000      -0.722899       -19.6711
  11   1.0000      -0.715570       -19.4716
  12   1.0000      -0.618304       -16.8249
  13   1.0000      -0.508763       -13.8441
  14   1.0000      -0.486397       -13.2355
  15   1.0000      -0.440771       -11.9940
  16   0.0000       0.015218         0.4141
  17   0.0000       0.034104         0.9280
  18   0.0000       0.040420         1.0999
  19   0.0000       0.054685         1.4881
  20   0.0000       0.061544         1.6747

                 SPIN DOWN ORBITALS
  NO   OCC          E(Eh)            E(eV)
   0   1.0000     -68.871005     -1874.0753
   1   1.0000     -26.340242      -716.7544
   2   1.0000     -20.536268      -558.8203
   3   1.0000      -6.210939      -169.0082
   4   1.0000      -4.320436      -117.5650
   5   1.0000      -4.319079      -117.5281
   6   1.0000      -4.311621      -117.3252
   7   1.0000      -1.634938       -44.4889
   8   1.0000      -1.254330       -34.1321
   9   1.0000      -0.780665       -21.2430
  10   1.0000      -0.712530       -19.3889
  11   1.0000      -0.710015       -19.3205
  12   1.0000      -0.549136       -14.9427
  13   1.0000      -0.486865       -13.2483
  14   1.0000      -0.473184       -12.8760
  15   0.0000      -0.033623        -0.9149
  16   0.0000       0.032482         0.8839
  17   0.0000       0.040974         1.1150
  18   0.0000       0.042147         1.1469
  19   0.0000       0.069235         1.8840

MULLIKEN ATOMIC CHARGES AND SPIN POPULATIONS
--------------------------------------------
   0 Si:    1.643269    0.826162
   1 O :   -0.999939    0.172322
   2 F :   -0.643330    0.001516
Sum of atomic charges         :    0.0000000

LOEWDIN ATOMIC CHARGES AND SPIN POPULATIONS
-------------------------------------------
   0 Si:   -0.204469    0.618466
   1 O :   -0.037004    0.229026
   2 F :    0.241473    0.152508

  Mayer bond orders larger than 0.100000
B(  0-Si,  1-O ) :   1.5643 B(  0-Si,  2-F ) :   0.4845

MP2 TOTAL ENERGY:     -464.000106791 Eh
FINAL SINGLE POINT ENERGY      -464.000106791080

DIPOLE MOMENT
-------------
                                X             Y             Z
Electronic contribution:     -2.32864       0.27133       0.00000
Nuclear contribution   :      1.19243       0.47048       0.00000
                        -----------------------------------------
Total Dipole Moment    :     -1.13620       0.74181       0.00000
                        -----------------------------------------
Magnitude (a.u.)       :      1.35692
Magnitude (Debye)      :      3.44901

Rotational constants in cm-1:     2.247764     0.251056     0.225832
Rotational constants in MHz : 67386.257218  7526.454626  6770.274295

                             ****ORCA TERMINATED NORMALLY****
TOTAL RUN TIME: 0 days 0 hours 3 minutes 2 seconds 608 msec
