                         Program Version 5.0.4 -  RELEASE  -
|  1> ! ri-mp2 aug-cc-pvdz aug-cc-pvdz/c tightscf
|  2> %pal nprocs 16 end
|  3> %maxcore 3800
|  4> %base "DZ_Si-Cl_5_AB"
|  5> %scf
|  6> STABPerform true
|  7> STABRestartUHFifUnstable true
|  8> end
|  9>
| 10> *xyz 0 1
| 11> C         1.180033    0.044163    0.202963
| 12> C         0.158638    1.006845   -0.399689
| 13> Si        -1.567758    0.826997    0.263712
| 14> C         2.582887    0.231720   -0.357213
| 15> H         0.465191    2.043417   -0.218768
| 16> Cl        -2.277490   -1.070719   -0.141288
| 17> H         0.122730    0.888201   -1.486581
| 18> H         0.859201   -0.986218    0.027945
| 19> H         1.209169    0.170366    1.289825
| 20> C         3.593067   -0.731159    0.245646
| 21> H         2.904525    1.262409   -0.181711
| 22> H         2.552907    0.103228   -1.442968
| 23> H         3.662897   -0.600851    1.327249
| 24> H         4.588612   -0.579054   -0.171975
| 25> H         3.307875   -1.767725    0.056766
| 26> H        -2.493826    1.785256   -0.370300
| 27> H        -1.601097    0.995815    1.730199
| 28> *
| 29>
| 30> $new_job
| 31> ! ri-mp2 aug-cc-pvtz aug-cc-pvtz/c tightscf
| 32> %pal nprocs 16 end
| 33> %maxcore 3800
| 34> %base "TZ_Si-Cl_5_AB"
| 35>
| 36> *xyz 0 1
| 37> C         1.180033    0.044163    0.202963
| 38> C         0.158638    1.006845   -0.399689
| 39> Si        -1.567758    0.826997    0.263712
| 40> C         2.582887    0.231720   -0.357213
| 41> H         0.465191    2.043417   -0.218768
| 42> Cl        -2.277490   -1.070719   -0.141288
| 43> H         0.122730    0.888201   -1.486581
| 44> H         0.859201   -0.986218    0.027945
| 45> H         1.209169    0.170366    1.289825
| 46> C         3.593067   -0.731159    0.245646
| 47> H         2.904525    1.262409   -0.181711
| 48> H         2.552907    0.103228   -1.442968
| 49> H         3.662897   -0.600851    1.327249
| 50> H         4.588612   -0.579054   -0.171975
| 51> H         3.307875   -1.767725    0.056766
| 52> H        -2.493826    1.785256   -0.370300
| 53> H        -1.601097    0.995815    1.730199
| 54> *
| 55>
| 56> $new_job
| 57> ! ri-mp2 aug-cc-pvqz aug-cc-pvqz/c tightscf
| 58> %pal nprocs 16 end
| 59> %maxcore 3800
| 60> %base "QZ_Si-Cl_5_AB"
| 61>
| 62> *xyz 0 1
| 63> C         1.180033    0.044163    0.202963
| 64> C         0.158638    1.006845   -0.399689
| 65> Si        -1.567758    0.826997    0.263712
| 66> C         2.582887    0.231720   -0.357213
| 67> H         0.465191    2.043417   -0.218768
| 68> Cl        -2.277490   -1.070719   -0.141288
| 69> H         0.122730    0.888201   -1.486581
| 70> H         0.859201   -0.986218    0.027945
| 71> H         1.209169    0.170366    1.289825
| 72> C         3.593067   -0.731159    0.245646
| 73> H         2.904525    1.262409   -0.181711
| 74> H         2.552907    0.103228   -1.442968
| 75> H         3.662897   -0.600851    1.327249
| 76> H         4.588612   -0.579054   -0.171975
| 77> H         3.307875   -1.767725    0.056766
| 78> H        -2.493826    1.785256   -0.370300
| 79> H        -1.601097    0.995815    1.730199
| 80> *
| 81>
| 82>
| 83>
| 84>
| 85>                          ****END OF INPUT****
 Total Charge           Charge          ....    0
 Multiplicity           Mult            ....    1
 Number of Electrons    NEL             ....   66
MP2 TOTAL ENERGY:     -907.245450548 Eh
FINAL SINGLE POINT ENERGY      -907.245450547556
MP2 TOTAL ENERGY:     -907.501548008 Eh
FINAL SINGLE POINT ENERGY      -907.501548008027

CARTESIAN COORDINATES (ANGSTROEM)
---------------------------------
  C      1.180033    0.044163    0.202963
  C      0.158638    1.006845   -0.399689
  Si    -1.567758    0.826997    0.263712
  C      2.582887    0.231720   -0.357213
  H      0.465191    2.043417   -0.218768
  Cl    -2.277490   -1.070719   -0.141288
  H      0.122730    0.888201   -1.486581
  H      0.859201   -0.986218    0.027945
  H      1.209169    0.170366    1.289825
  C      3.593067   -0.731159    0.245646
  H      2.904525    1.262409   -0.181711
  H      2.552907    0.103228   -1.442968
  H      3.662897   -0.600851    1.327249
  H      4.588612   -0.579054   -0.171975
  H      3.307875   -1.767725    0.056766
  H     -2.493826    1.785256   -0.370300
  H     -1.601097    0.995815    1.730199

 Multiplicity           Mult            ....    1
 Number of Electrons    NEL             ....   66
 Basis Dimension        Dim             ....  994

ORBITAL ENERGIES
----------------

  NO   OCC          E(Eh)            E(eV)
   0   2.0000    -104.818361     -2852.2526
   1   2.0000     -68.803638     -1872.2422
   2   2.0000     -11.227044      -305.5034
   3   2.0000     -11.220238      -305.3182
   4   2.0000     -11.218229      -305.2635
   5   2.0000     -11.212389      -305.1046
   6   2.0000     -10.545892      -286.9683
   7   2.0000      -8.012699      -218.0366
   8   2.0000      -8.011628      -218.0075
   9   2.0000      -8.011620      -218.0073
  10   2.0000      -6.149785      -167.3441
  11   2.0000      -4.256816      -115.8338
  12   2.0000      -4.255762      -115.8052
  13   2.0000      -4.255321      -115.7932
  14   2.0000      -1.092391       -29.7255
  15   2.0000      -1.079001       -29.3611
  16   2.0000      -0.991409       -26.9776
  17   2.0000      -0.872996       -23.7554
  18   2.0000      -0.799981       -21.7686
  19   2.0000      -0.698668       -19.0117
  20   2.0000      -0.651887       -17.7387
  21   2.0000      -0.594980       -16.1902
  22   2.0000      -0.585066       -15.9205
  23   2.0000      -0.557599       -15.1730
  24   2.0000      -0.529521       -14.4090
  25   2.0000      -0.521581       -14.1929
  26   2.0000      -0.504179       -13.7194
  27   2.0000      -0.498828       -13.5738
  28   2.0000      -0.481046       -13.0899
  29   2.0000      -0.472680       -12.8623
  30   2.0000      -0.467128       -12.7112
  31   2.0000      -0.441526       -12.0145
  32   2.0000      -0.421681       -11.4745
  33   0.0000       0.023720         0.6454
  34   0.0000       0.029397         0.7999
  35   0.0000       0.031951         0.8694
  36   0.0000       0.033748         0.9183
  37   0.0000       0.043317         1.1787

MULLIKEN ATOMIC CHARGES
-----------------------
   0 C :   -0.257451
   1 C :   -0.544831
   2 Si:    1.198998
   3 C :   -0.458312
   4 H :    0.230404
   5 Cl:   -0.677553
   6 H :    0.193389
   7 H :    0.273313
   8 H :    0.257767
   9 C :   -0.891524
  10 H :    0.231587
  11 H :    0.224001
  12 H :    0.223678
  13 H :    0.273689
  14 H :    0.226095
  15 H :   -0.281866
  16 H :   -0.221383
Sum of atomic charges:    0.0000000

LOEWDIN ATOMIC CHARGES
----------------------
   0 C :    0.410985
   1 C :    0.448870
   2 Si:    0.020411
   3 C :    0.498939
   4 H :   -0.337249
   5 Cl:    0.901860
   6 H :   -0.342615
   7 H :   -0.300039
   8 H :   -0.283065
   9 C :    0.927317
  10 H :   -0.272589
  11 H :   -0.272379
  12 H :   -0.283248
  13 H :   -0.282332
  14 H :   -0.282945
  15 H :   -0.281135
  16 H :   -0.270786

  Mayer bond orders larger than 0.100000
B(  0-C ,  1-C ) :   0.9152 B(  0-C ,  3-C ) :   0.9105 B(  0-C ,  7-H ) :   0.8596
B(  0-C ,  8-H ) :   0.8756 B(  1-C ,  2-Si) :   0.9378 B(  1-C ,  4-H ) :   0.8970
B(  1-C ,  6-H ) :   0.9341 B(  2-Si,  5-Cl) :   0.3616 B(  2-Si, 15-H ) :   0.8251
B(  2-Si, 16-H ) :   0.8353 B(  3-C ,  9-C ) :   0.9974 B(  3-C , 10-H ) :   0.8828
B(  3-C , 11-H ) :   0.8904 B(  9-C , 12-H ) :   0.9556 B(  9-C , 13-H ) :   1.0123
B(  9-C , 14-H ) :   0.9512

MP2 TOTAL ENERGY:     -907.581462523 Eh
FINAL SINGLE POINT ENERGY      -907.581462523051

DIPOLE MOMENT
-------------
                                X             Y             Z
Electronic contribution:    -18.53900      -4.27301      -0.75888
Nuclear contribution   :     19.12948       4.84659       0.75360
                        -----------------------------------------
Total Dipole Moment    :      0.59048       0.57358      -0.00528
                        -----------------------------------------
Magnitude (a.u.)       :      0.82322
Magnitude (Debye)      :      2.09246

Rotational constants in cm-1:     0.149796     0.028417     0.025195
Rotational constants in MHz :  4490.779984   851.934682   755.324621

                             ****ORCA TERMINATED NORMALLY****
TOTAL RUN TIME: 0 days 2 hours 56 minutes 26 seconds 69 msec
