                         Program Version 5.0.4 -  RELEASE  -
|  1> ! ri-mp2 aug-cc-pvdz aug-cc-pvdz/c tightscf
|  2> %pal nprocs 16 end
|  3> %maxcore 3800
|  4> %base "DZ_Si-S_41_AB"
|  5> %scf
|  6> STABPerform true
|  7> STABRestartUHFifUnstable true
|  8> end
|  9>
| 10> *xyz 0 1
| 11> Si         1.597985   -0.394262   -0.001311
| 12> S        -0.067004    0.955875    0.010401
| 13> S        -1.592673   -0.444790   -0.086234
| 14> H        -1.755287   -0.633916    1.232550
| 15> H         2.802788    0.461802    0.025620
| 16> H         1.577639   -1.224790   -1.219512
| 17> H         1.557882   -1.260777    1.193031
| 18> *
| 19>
| 20> $new_job
| 21> ! ri-mp2 aug-cc-pvtz aug-cc-pvtz/c tightscf
| 22> %pal nprocs 16 end
| 23> %maxcore 3800
| 24> %base "TZ_Si-S_41_AB"
| 25>
| 26> *xyz 0 1
| 27> Si         1.597985   -0.394262   -0.001311
| 28> S        -0.067004    0.955875    0.010401
| 29> S        -1.592673   -0.444790   -0.086234
| 30> H        -1.755287   -0.633916    1.232550
| 31> H         2.802788    0.461802    0.025620
| 32> H         1.577639   -1.224790   -1.219512
| 33> H         1.557882   -1.260777    1.193031
| 34> *
| 35>
| 36> $new_job
| 37> ! ri-mp2 aug-cc-pvqz aug-cc-pvqz/c tightscf
| 38> %pal nprocs 16 end
| 39> %maxcore 3800
| 40> %base "QZ_Si-S_41_AB"
| 41>
| 42> *xyz 0 1
| 43> Si         1.597985   -0.394262   -0.001311
| 44> S        -0.067004    0.955875    0.010401
| 45> S        -1.592673   -0.444790   -0.086234
| 46> H        -1.755287   -0.633916    1.232550
| 47> H         2.802788    0.461802    0.025620
| 48> H         1.577639   -1.224790   -1.219512
| 49> H         1.557882   -1.260777    1.193031
| 50> *
| 51>
| 52>
| 53>
| 54>
| 55>                          ****END OF INPUT****
 Total Charge           Charge          ....    0
 Multiplicity           Mult            ....    1
 Number of Electrons    NEL             ....   50
MP2 TOTAL ENERGY:    -1086.737760603 Eh
FINAL SINGLE POINT ENERGY     -1086.737760602642
MP2 TOTAL ENERGY:    -1086.884630954 Eh
FINAL SINGLE POINT ENERGY     -1086.884630954225

CARTESIAN COORDINATES (ANGSTROEM)
---------------------------------
  Si     1.597985   -0.394262   -0.001311
  S     -0.067004    0.955875    0.010401
  S     -1.592673   -0.444790   -0.086234
  H     -1.755287   -0.633916    1.232550
  H      2.802788    0.461802    0.025620
  H      1.577639   -1.224790   -1.219512
  H      1.557882   -1.260777    1.193031

 Multiplicity           Mult            ....    1
 Number of Electrons    NEL             ....   50
 Basis Dimension        Dim             ....  436

ORBITAL ENERGIES
----------------

  NO   OCC          E(Eh)            E(eV)
   0   2.0000     -91.990794     -2503.1968
   1   2.0000     -91.974060     -2502.7414
   2   2.0000     -68.801243     -1872.1770
   3   2.0000      -8.991223      -244.6636
   4   2.0000      -8.976252      -244.2562
   5   2.0000      -6.672502      -181.5680
   6   2.0000      -6.671533      -181.5416
   7   2.0000      -6.670477      -181.5129
   8   2.0000      -6.657553      -181.1612
   9   2.0000      -6.656382      -181.1294
  10   2.0000      -6.655713      -181.1112
  11   2.0000      -6.148713      -167.3150
  12   2.0000      -4.255334      -115.7935
  13   2.0000      -4.254744      -115.7775
  14   2.0000      -4.254454      -115.7696
  15   2.0000      -1.052729       -28.6462
  16   2.0000      -0.882164       -24.0049
  17   2.0000      -0.715198       -19.4615
  18   2.0000      -0.579754       -15.7759
  19   2.0000      -0.519081       -14.1249
  20   2.0000      -0.507457       -13.8086
  21   2.0000      -0.496643       -13.5143
  22   2.0000      -0.463825       -12.6213
  23   2.0000      -0.380234       -10.3467
  24   2.0000      -0.370007       -10.0684
  25   0.0000       0.025698         0.6993
  26   0.0000       0.034269         0.9325
  27   0.0000       0.036854         1.0028
  28   0.0000       0.041170         1.1203
  29   0.0000       0.053704         1.4614

MULLIKEN ATOMIC CHARGES
-----------------------
   0 Si:    0.837625
   1 S :   -0.276370
   2 S :   -0.202533
   3 H :    0.128242
   4 H :   -0.181654
   5 H :   -0.147206
   6 H :   -0.158104
Sum of atomic charges:   -0.0000000

LOEWDIN ATOMIC CHARGES
----------------------
   0 Si:    0.447052
   1 S :    0.477016
   2 S :    0.936287
   3 H :   -0.892717
   4 H :   -0.331506
   5 H :   -0.318804
   6 H :   -0.317328

  Mayer bond orders larger than 0.100000
B(  0-Si,  1-S ) :   0.7409 B(  0-Si,  4-H ) :   0.8570 B(  0-Si,  5-H ) :   0.8361
B(  0-Si,  6-H ) :   0.8277 B(  1-S ,  2-S ) :   1.0629 B(  2-S ,  3-H ) :   0.9740

MP2 TOTAL ENERGY:    -1086.932923875 Eh
FINAL SINGLE POINT ENERGY     -1086.932923874617

DIPOLE MOMENT
-------------
                                X             Y             Z
Electronic contribution:     -3.76612       2.25904      -0.88048
Nuclear contribution   :      4.03687      -2.58525       1.20417
                        -----------------------------------------
Total Dipole Moment    :      0.27075      -0.32621       0.32370
                        -----------------------------------------
Magnitude (a.u.)       :      0.53339
Magnitude (Debye)      :      1.35576

Rotational constants in cm-1:     0.348952     0.097058     0.079257
Rotational constants in MHz : 10461.328196  2909.720492  2376.051924

                             ****ORCA TERMINATED NORMALLY****
TOTAL RUN TIME: 0 days 0 hours 7 minutes 30 seconds 222 msec
