                         Program Version 5.0.4 -  RELEASE  -
|  1> ! ri-mp2 aug-cc-pvdz aug-cc-pvdz/c tightscf
|  2> %pal nprocs 16 end
|  3> %maxcore 3800
|  4> %base "DZ_B-Cl_79_A"
|  5> %scf
|  6> STABPerform true
|  7> STABRestartUHFifUnstable true
|  8> end
|  9>
| 10> *xyz 0 2
| 11> O         1.217763   -0.878266   -0.066454
| 12> N        -1.193907   -0.807631    0.006987
| 13> C         0.056023    1.247296   -0.325252
| 14> C        -1.244754    0.641221    0.178457
| 15> C         1.257790    0.518499    0.244879
| 16> B         0.015539   -1.489878   -0.129312
| 17> H         2.186400    0.909416   -0.168444
| 18> H         1.296739    0.628125    1.332280
| 19> H         0.108567    2.303302   -0.055223
| 20> H         0.088399    1.182537   -1.415144
| 21> H        -2.073756   -1.290348   -0.002193
| 22> H        -2.086666    1.051732   -0.381732
| 23> H        -1.396481    0.902074    1.231231
| 24> *
| 25>
| 26> $new_job
| 27> ! ri-mp2 aug-cc-pvtz aug-cc-pvtz/c tightscf
| 28> %pal nprocs 16 end
| 29> %maxcore 3800
| 30> %base "TZ_B-Cl_79_A"
| 31>
| 32> *xyz 0 2
| 33> O         1.217763   -0.878266   -0.066454
| 34> N        -1.193907   -0.807631    0.006987
| 35> C         0.056023    1.247296   -0.325252
| 36> C        -1.244754    0.641221    0.178457
| 37> C         1.257790    0.518499    0.244879
| 38> B         0.015539   -1.489878   -0.129312
| 39> H         2.186400    0.909416   -0.168444
| 40> H         1.296739    0.628125    1.332280
| 41> H         0.108567    2.303302   -0.055223
| 42> H         0.088399    1.182537   -1.415144
| 43> H        -2.073756   -1.290348   -0.002193
| 44> H        -2.086666    1.051732   -0.381732
| 45> H        -1.396481    0.902074    1.231231
| 46> *
| 47>
| 48> $new_job
| 49> ! ri-mp2 aug-cc-pvqz aug-cc-pvqz/c tightscf
| 50> %pal nprocs 16 end
| 51> %maxcore 3800
| 52> %base "QZ_B-Cl_79_A"
| 53>
| 54> *xyz 0 2
| 55> O         1.217763   -0.878266   -0.066454
| 56> N        -1.193907   -0.807631    0.006987
| 57> C         0.056023    1.247296   -0.325252
| 58> C        -1.244754    0.641221    0.178457
| 59> C         1.257790    0.518499    0.244879
| 60> B         0.015539   -1.489878   -0.129312
| 61> H         2.186400    0.909416   -0.168444
| 62> H         1.296739    0.628125    1.332280
| 63> H         0.108567    2.303302   -0.055223
| 64> H         0.088399    1.182537   -1.415144
| 65> H        -2.073756   -1.290348   -0.002193
| 66> H        -2.086666    1.051732   -0.381732
| 67> H        -1.396481    0.902074    1.231231
| 68> *
| 69>
| 70>
| 71>
| 72>
| 73>                          ****END OF INPUT****
 Total Charge           Charge          ....    0
 Multiplicity           Mult            ....    2
 Number of Electrons    NEL             ....   45
MP2 TOTAL ENERGY:     -272.594456381 Eh
FINAL SINGLE POINT ENERGY      -272.594456381354
MP2 TOTAL ENERGY:     -272.838679307 Eh
FINAL SINGLE POINT ENERGY      -272.838679306812

CARTESIAN COORDINATES (ANGSTROEM)
---------------------------------
  O      1.217763   -0.878266   -0.066454
  N     -1.193907   -0.807631    0.006987
  C      0.056023    1.247296   -0.325252
  C     -1.244754    0.641221    0.178457
  C      1.257790    0.518499    0.244879
  B      0.015539   -1.489878   -0.129312
  H      2.186400    0.909416   -0.168444
  H      1.296739    0.628125    1.332280
  H      0.108567    2.303302   -0.055223
  H      0.088399    1.182537   -1.415144
  H     -2.073756   -1.290348   -0.002193
  H     -2.086666    1.051732   -0.381732
  H     -1.396481    0.902074    1.231231

 Multiplicity           Mult            ....    2
 Number of Electrons    NEL             ....   45
 Basis Dimension        Dim             ....  802

ORBITAL ENERGIES
----------------
                 SPIN UP ORBITALS
  NO   OCC          E(Eh)            E(eV)
   0   1.0000     -20.550851      -559.2171
   1   1.0000     -15.545565      -423.0163
   2   1.0000     -11.282360      -307.0086
   3   1.0000     -11.264538      -306.5237
   4   1.0000     -11.230875      -305.6077
   5   1.0000      -7.620817      -207.3730
   6   1.0000      -1.369907       -37.2771
   7   1.0000      -1.195581       -32.5334
   8   1.0000      -1.047725       -28.5100
   9   1.0000      -0.917943       -24.9785
  10   1.0000      -0.831686       -22.6313
  11   1.0000      -0.728355       -19.8195
  12   1.0000      -0.686827       -18.6895
  13   1.0000      -0.637642       -17.3511
  14   1.0000      -0.623986       -16.9795
  15   1.0000      -0.609504       -16.5855
  16   1.0000      -0.590295       -16.0627
  17   1.0000      -0.542424       -14.7601
  18   1.0000      -0.526025       -14.3139
  19   1.0000      -0.467482       -12.7208
  20   1.0000      -0.463407       -12.6099
  21   1.0000      -0.389439       -10.5972
  22   1.0000      -0.323787        -8.8107
  23   0.0000       0.022110         0.6016
  24   0.0000       0.030489         0.8296
  25   0.0000       0.032740         0.8909
  26   0.0000       0.035676         0.9708
  27   0.0000       0.049065         1.3351

                 SPIN DOWN ORBITALS
  NO   OCC          E(Eh)            E(eV)
   0   1.0000     -20.549759      -559.1874
   1   1.0000     -15.545146      -423.0049
   2   1.0000     -11.280997      -306.9715
   3   1.0000     -11.263336      -306.4910
   4   1.0000     -11.231065      -305.6128
   5   1.0000      -7.600419      -206.8179
   6   1.0000      -1.365646       -37.1611
   7   1.0000      -1.192044       -32.4372
   8   1.0000      -1.044221       -28.4147
   9   1.0000      -0.912879       -24.8407
  10   1.0000      -0.823049       -22.3963
  11   1.0000      -0.723460       -19.6864
  12   1.0000      -0.678388       -18.4599
  13   1.0000      -0.632059       -17.1992
  14   1.0000      -0.610848       -16.6220
  15   1.0000      -0.609872       -16.5955
  16   1.0000      -0.585373       -15.9288
  17   1.0000      -0.540462       -14.7067
  18   1.0000      -0.519519       -14.1368
  19   1.0000      -0.464250       -12.6329
  20   1.0000      -0.460579       -12.5330
  21   1.0000      -0.394935       -10.7467
  22   0.0000       0.021985         0.5982
  23   0.0000       0.030245         0.8230
  24   0.0000       0.032850         0.8939
  25   0.0000       0.034095         0.9278
  26   0.0000       0.048247         1.3129

MULLIKEN ATOMIC CHARGES AND SPIN POPULATIONS
--------------------------------------------
   0 O :   -0.995404   -0.120284
   1 N :   -0.584707   -0.077702
   2 C :   -0.640926   -0.013170
   3 C :   -0.232036    0.036769
   4 C :   -0.123043    0.045809
   5 B :    0.644433    1.156156
   6 H :    0.402452   -0.002797
   7 H :    0.217363   -0.003573
   8 H :    0.364538    0.003589
   9 H :    0.240858    0.000432
  10 H :    0.172238   -0.018980
  11 H :    0.315053   -0.002616
  12 H :    0.219181   -0.003632
Sum of atomic charges         :    0.0000000

LOEWDIN ATOMIC CHARGES AND SPIN POPULATIONS
-------------------------------------------
   0 O :    0.879561    0.151762
   1 N :    0.909132    0.157020
   2 C :    0.495762    0.012965
   3 C :    0.357464    0.026049
   4 C :    0.178030    0.031230
   5 B :   -0.637773    0.565390
   6 H :   -0.294597    0.003662
   7 H :   -0.284881    0.003491
   8 H :   -0.261344    0.001546
   9 H :   -0.267646    0.001012
  10 H :   -0.533337    0.039342
  11 H :   -0.272060    0.003567
  12 H :   -0.268311    0.002964

  Mayer bond orders larger than 0.100000
B(  0-O ,  4-C ) :   0.7040 B(  0-O ,  5-B ) :   0.4503 B(  1-N ,  3-C ) :   0.7579
B(  1-N ,  5-B ) :   1.0096 B(  1-N , 10-H ) :   1.1008 B(  2-C ,  3-C ) :   0.9912
B(  2-C ,  4-C ) :   1.0160 B(  2-C ,  8-H ) :   0.8254 B(  2-C ,  9-H ) :   0.8970
B(  3-C , 11-H ) :   0.9105 B(  3-C , 12-H ) :   0.9446 B(  4-C ,  6-H ) :   0.8098
B(  4-C ,  7-H ) :   0.9329

MP2 TOTAL ENERGY:     -272.915945317 Eh
FINAL SINGLE POINT ENERGY      -272.915945317413

DIPOLE MOMENT
-------------
                                X             Y             Z
Electronic contribution:      1.23223      -5.85331      -0.47340
Nuclear contribution   :     -1.89074       6.91860       0.64864
                        -----------------------------------------
Total Dipole Moment    :     -0.65851       1.06529       0.17524
                        -----------------------------------------
Magnitude (a.u.)       :      1.26459
Magnitude (Debye)      :      3.21432

Rotational constants in cm-1:     0.184867     0.157584     0.092674
Rotational constants in MHz :  5542.175382  4724.237891  2778.303748

                             ****ORCA TERMINATED NORMALLY****
TOTAL RUN TIME: 0 days 2 hours 40 minutes 19 seconds 219 msec
