                         Program Version 5.0.4 -  RELEASE  -
|  1> ! ri-mp2 aug-cc-pvdz aug-cc-pvdz/c tightscf
|  2> %pal nprocs 16 end
|  3> %maxcore 3800
|  4> %base "DZ_B-B_16_AB"
|  5> %scf
|  6> STABPerform true
|  7> STABRestartUHFifUnstable true
|  8> end
|  9>
| 10> *xyz 0 1
| 11> B        -1.347959    0.000000   -0.000000
| 12> B         0.349992    0.000000   -0.000000
| 13> Cl         1.226632    1.503408    0.000053
| 14> Cl         1.226631   -1.503409   -0.000053
| 15> F        -2.039758   -0.000057    1.122215
| 16> F        -2.039758    0.000058   -1.122215
| 17> *
| 18>
| 19> $new_job
| 20> ! ri-mp2 aug-cc-pvtz aug-cc-pvtz/c tightscf
| 21> %pal nprocs 16 end
| 22> %maxcore 3800
| 23> %base "TZ_B-B_16_AB"
| 24>
| 25> *xyz 0 1
| 26> B        -1.347959    0.000000   -0.000000
| 27> B         0.349992    0.000000   -0.000000
| 28> Cl         1.226632    1.503408    0.000053
| 29> Cl         1.226631   -1.503409   -0.000053
| 30> F        -2.039758   -0.000057    1.122215
| 31> F        -2.039758    0.000058   -1.122215
| 32> *
| 33>
| 34> $new_job
| 35> ! ri-mp2 aug-cc-pvqz aug-cc-pvqz/c tightscf
| 36> %pal nprocs 16 end
| 37> %maxcore 3800
| 38> %base "QZ_B-B_16_AB"
| 39>
| 40> *xyz 0 1
| 41> B        -1.347959    0.000000   -0.000000
| 42> B         0.349992    0.000000   -0.000000
| 43> Cl         1.226632    1.503408    0.000053
| 44> Cl         1.226631   -1.503409   -0.000053
| 45> F        -2.039758   -0.000057    1.122215
| 46> F        -2.039758    0.000058   -1.122215
| 47> *
| 48>
| 49>
| 50>
| 51>
| 52>                          ****END OF INPUT****
 Total Charge           Charge          ....    0
 Multiplicity           Mult            ....    1
 Number of Electrons    NEL             ....   62
MP2 TOTAL ENERGY:    -1168.330121486 Eh
FINAL SINGLE POINT ENERGY     -1168.330121486458
MP2 TOTAL ENERGY:    -1168.663189724 Eh
FINAL SINGLE POINT ENERGY     -1168.663189723690

CARTESIAN COORDINATES (ANGSTROEM)
---------------------------------
  B     -1.347959    0.000000   -0.000000
  B      0.349992    0.000000   -0.000000
  Cl     1.226632    1.503408    0.000053
  Cl     1.226631   -1.503409   -0.000053
  F     -2.039758   -0.000057    1.122215
  F     -2.039758    0.000058   -1.122215

 Multiplicity           Mult            ....    1
 Number of Electrons    NEL             ....   62
 Basis Dimension        Dim             ....  488

ORBITAL ENERGIES
----------------

  NO   OCC          E(Eh)            E(eV)
   0   2.0000    -104.861891     -2853.4371
   1   2.0000    -104.861891     -2853.4371
   2   2.0000     -26.326096      -716.3695
   3   2.0000     -26.326080      -716.3690
   4   2.0000     -10.589572      -288.1569
   5   2.0000     -10.589564      -288.1567
   6   2.0000      -8.056336      -219.2240
   7   2.0000      -8.056335      -219.2240
   8   2.0000      -8.055293      -219.1957
   9   2.0000      -8.055292      -219.1956
  10   2.0000      -8.054982      -219.1872
  11   2.0000      -8.054982      -219.1872
  12   2.0000      -7.723166      -210.1580
  13   2.0000      -7.721208      -210.1048
  14   2.0000      -1.659832       -45.1663
  15   2.0000      -1.627116       -44.2761
  16   2.0000      -1.163902       -31.6714
  17   2.0000      -1.120338       -30.4859
  18   2.0000      -0.839603       -22.8468
  19   2.0000      -0.774644       -21.0791
  20   2.0000      -0.770138       -20.9565
  21   2.0000      -0.727008       -19.7829
  22   2.0000      -0.687036       -18.6952
  23   2.0000      -0.672451       -18.2983
  24   2.0000      -0.665953       -18.1215
  25   2.0000      -0.591802       -16.1037
  26   2.0000      -0.585389       -15.9292
  27   2.0000      -0.535273       -14.5655
  28   2.0000      -0.485231       -13.2038
  29   2.0000      -0.475876       -12.9492
  30   2.0000      -0.456525       -12.4227
  31   0.0000       0.031205         0.8491
  32   0.0000       0.033125         0.9014
  33   0.0000       0.037833         1.0295
  34   0.0000       0.039352         1.0708
  35   0.0000       0.051119         1.3910

MULLIKEN ATOMIC CHARGES
-----------------------
   0 B :    1.550922
   1 B :    0.313638
   2 Cl:   -0.186907
   3 Cl:   -0.186907
   4 F :   -0.745373
   5 F :   -0.745373
Sum of atomic charges:    0.0000000

LOEWDIN ATOMIC CHARGES
----------------------
   0 B :   -1.851443
   1 B :   -2.220950
   2 Cl:    1.251240
   3 Cl:    1.251239
   4 F :    0.784957
   5 F :    0.784957

  Mayer bond orders larger than 0.100000
B(  0-B ,  1-B ) :   0.9371 B(  0-B ,  4-F ) :   0.4192 B(  0-B ,  5-F ) :   0.4192
B(  1-B ,  2-Cl) :   1.0935 B(  1-B ,  3-Cl) :   1.0935

MP2 TOTAL ENERGY:    -1168.773092092 Eh
FINAL SINGLE POINT ENERGY     -1168.773092091522

DIPOLE MOMENT
-------------
                                X             Y             Z
Electronic contribution:     -0.93072       0.00000       0.00000
Nuclear contribution   :      1.18052      -0.00000       0.00000
                        -----------------------------------------
Total Dipole Moment    :      0.24980       0.00000       0.00000
                        -----------------------------------------
Magnitude (a.u.)       :      0.24980
Magnitude (Debye)      :      0.63494

Rotational constants in cm-1:     0.081001     0.050536     0.037798
Rotational constants in MHz :  2428.363360  1515.030628  1133.161845

                             ****ORCA TERMINATED NORMALLY****
TOTAL RUN TIME: 0 days 0 hours 12 minutes 14 seconds 822 msec
