                         Program Version 5.0.4 -  RELEASE  -
|  1> ! ri-mp2 aug-cc-pvdz aug-cc-pvdz/c tightscf
|  2> %pal nprocs 16 end
|  3> %maxcore 3800
|  4> %base "DZ_S-Cl_7_AB"
|  5>
|  6> *xyz 0 1
|  7> Cl         1.780450    0.306745   -0.000007
|  8> N        -1.169052    0.221712   -0.000015
|  9> S         0.218590   -0.928946    0.000045
| 10> O        -2.209042   -0.387546    0.000010
| 11> O        -0.988672    1.399607   -0.000072
| 12> *
| 13>
| 14> $new_job
| 15> ! ri-mp2 aug-cc-pvtz aug-cc-pvtz/c tightscf
| 16> %pal nprocs 16 end
| 17> %maxcore 3800
| 18> %base "TZ_S-Cl_7_AB"
| 19>
| 20> *xyz 0 1
| 21> Cl         1.780450    0.306745   -0.000007
| 22> N        -1.169052    0.221712   -0.000015
| 23> S         0.218590   -0.928946    0.000045
| 24> O        -2.209042   -0.387546    0.000010
| 25> O        -0.988672    1.399607   -0.000072
| 26> *
| 27>
| 28> $new_job
| 29> ! ri-mp2 aug-cc-pvqz aug-cc-pvqz/c tightscf
| 30> %pal nprocs 16 end
| 31> %maxcore 3800
| 32> %base "QZ_S-Cl_7_AB"
| 33>
| 34> *xyz 0 1
| 35> Cl         1.780450    0.306745   -0.000007
| 36> N        -1.169052    0.221712   -0.000015
| 37> S         0.218590   -0.928946    0.000045
| 38> O        -2.209042   -0.387546    0.000010
| 39> O        -0.988672    1.399607   -0.000072
| 40> *
| 41>
| 42>
| 43>
| 44>
| 45>                          ****END OF INPUT****
 Total Charge           Charge          ....    0
 Multiplicity           Mult            ....    1
 Number of Electrons    NEL             ....   56
MP2 TOTAL ENERGY:    -1061.954207126 Eh
FINAL SINGLE POINT ENERGY     -1061.954207126258
MP2 TOTAL ENERGY:    -1062.235292054 Eh
FINAL SINGLE POINT ENERGY     -1062.235292053693

CARTESIAN COORDINATES (ANGSTROEM)
---------------------------------
  Cl     1.780450    0.306745   -0.000007
  N     -1.169052    0.221712   -0.000015
  S      0.218590   -0.928946    0.000045
  O     -2.209042   -0.387546    0.000010
  O     -0.988672    1.399607   -0.000072

 Multiplicity           Mult            ....    1
 Number of Electrons    NEL             ....   56
 Basis Dimension        Dim             ....  408

ORBITAL ENERGIES
----------------

  NO   OCC          E(Eh)            E(eV)
   0   2.0000    -104.901108     -2854.5043
   1   2.0000     -92.094891     -2506.0294
   2   2.0000     -20.641870      -561.6938
   3   2.0000     -20.633044      -561.4537
   4   2.0000     -15.893221      -432.4765
   5   2.0000     -10.625235      -289.1273
   6   2.0000      -9.089961      -247.3504
   7   2.0000      -8.092227      -220.2007
   8   2.0000      -8.090159      -220.1444
   9   2.0000      -8.089833      -220.1355
  10   2.0000      -6.770456      -184.2335
  11   2.0000      -6.769125      -184.1973
  12   2.0000      -6.767335      -184.1485
  13   2.0000      -1.656717       -45.0816
  14   2.0000      -1.456032       -39.6206
  15   2.0000      -1.206390       -32.8275
  16   2.0000      -1.050410       -28.5831
  17   2.0000      -0.875255       -23.8169
  18   2.0000      -0.781639       -21.2695
  19   2.0000      -0.764386       -20.8000
  20   2.0000      -0.763437       -20.7742
  21   2.0000      -0.596482       -16.2311
  22   2.0000      -0.564189       -15.3524
  23   2.0000      -0.542013       -14.7489
  24   2.0000      -0.519589       -14.1387
  25   2.0000      -0.494073       -13.4444
  26   2.0000      -0.481455       -13.1011
  27   2.0000      -0.419232       -11.4079
  28   0.0000       0.035174         0.9571
  29   0.0000       0.043740         1.1902
  30   0.0000       0.059416         1.6168
  31   0.0000       0.063681         1.7328
  32   0.0000       0.072062         1.9609

MULLIKEN ATOMIC CHARGES
-----------------------
   0 Cl:   -0.145641
   1 N :    0.680577
   2 S :    0.467756
   3 O :   -0.508868
   4 O :   -0.493823
Sum of atomic charges:    0.0000000

LOEWDIN ATOMIC CHARGES
----------------------
   0 Cl:    0.481965
   1 N :   -1.411455
   2 S :    0.170506
   3 O :    0.374592
   4 O :    0.384392

  Mayer bond orders larger than 0.100000
B(  0-Cl,  2-S ) :   1.0551 B(  1-N ,  2-S ) :   0.8635 B(  1-N ,  3-O ) :   1.4423
B(  1-N ,  4-O ) :   1.4956 B(  3-O ,  4-O ) :   0.1470

MP2 TOTAL ENERGY:    -1062.330413562 Eh
FINAL SINGLE POINT ENERGY     -1062.330413561575

DIPOLE MOMENT
-------------
                                X             Y             Z
Electronic contribution:      3.32597      -0.17295       0.00002
Nuclear contribution   :     -2.41925      -0.36404       0.00001
                        -----------------------------------------
Total Dipole Moment    :      0.90673      -0.53699       0.00003
                        -----------------------------------------
Magnitude (a.u.)       :      1.05381
Magnitude (Debye)      :      2.67857

Rotational constants in cm-1:     0.257649     0.074355     0.057703
Rotational constants in MHz :  7724.137448  2229.120235  1729.889011

                             ****ORCA TERMINATED NORMALLY****
TOTAL RUN TIME: 0 days 0 hours 1 minutes 51 seconds 992 msec
