                         Program Version 5.0.4 -  RELEASE  -
|  1> ! ri-mp2 aug-cc-pvdz aug-cc-pvdz/c tightscf
|  2> %pal nprocs 16 end
|  3> %maxcore 3800
|  4> %base "DZ_B-S_5_AB"
|  5> %scf
|  6> STABPerform true
|  7> STABRestartUHFifUnstable true
|  8> end
|  9>
| 10> *xyz 0 1
| 11> S        -0.819484   -1.190647    0.543563
| 12> B        -2.002400    0.115848    0.069195
| 13> S        -3.607875   -0.474547   -0.494160
| 14> S        -1.749715    1.880575    0.125119
| 15> S         0.893349   -0.255511    1.168140
| 16> C         1.847743   -0.207213   -0.375648
| 17> Cl         3.388036    0.571872    0.003305
| 18> F         1.225972    0.485354   -1.335087
| 19> F         2.076030   -1.426481   -0.867747
| 20> H        -0.488390    1.842937    0.582184
| 21> H        -3.361108   -1.788508   -0.387557
| 22> *
| 23>
| 24> $new_job
| 25> ! ri-mp2 aug-cc-pvtz aug-cc-pvtz/c tightscf
| 26> %pal nprocs 16 end
| 27> %maxcore 3800
| 28> %base "TZ_B-S_5_AB"
| 29>
| 30> *xyz 0 1
| 31> S        -0.819484   -1.190647    0.543563
| 32> B        -2.002400    0.115848    0.069195
| 33> S        -3.607875   -0.474547   -0.494160
| 34> S        -1.749715    1.880575    0.125119
| 35> S         0.893349   -0.255511    1.168140
| 36> C         1.847743   -0.207213   -0.375648
| 37> Cl         3.388036    0.571872    0.003305
| 38> F         1.225972    0.485354   -1.335087
| 39> F         2.076030   -1.426481   -0.867747
| 40> H        -0.488390    1.842937    0.582184
| 41> H        -3.361108   -1.788508   -0.387557
| 42> *
| 43>
| 44> $new_job
| 45> ! ri-mp2 aug-cc-pvqz aug-cc-pvqz/c tightscf
| 46> %pal nprocs 16 end
| 47> %maxcore 3800
| 48> %base "QZ_B-S_5_AB"
| 49>
| 50> *xyz 0 1
| 51> S        -0.819484   -1.190647    0.543563
| 52> B        -2.002400    0.115848    0.069195
| 53> S        -3.607875   -0.474547   -0.494160
| 54> S        -1.749715    1.880575    0.125119
| 55> S         0.893349   -0.255511    1.168140
| 56> C         1.847743   -0.207213   -0.375648
| 57> Cl         3.388036    0.571872    0.003305
| 58> F         1.225972    0.485354   -1.335087
| 59> F         2.076030   -1.426481   -0.867747
| 60> H        -0.488390    1.842937    0.582184
| 61> H        -3.361108   -1.788508   -0.387557
| 62> *
| 63>
| 64>
| 65>
| 66>
| 67>                          ****END OF INPUT****
 Total Charge           Charge          ....    0
 Multiplicity           Mult            ....    1
 Number of Electrons    NEL             ....  112
MP2 TOTAL ENERGY:    -2313.683454165 Eh
FINAL SINGLE POINT ENERGY     -2313.683454164874
MP2 TOTAL ENERGY:    -2314.167170844 Eh
FINAL SINGLE POINT ENERGY     -2314.167170843669

CARTESIAN COORDINATES (ANGSTROEM)
---------------------------------
  S     -0.819484   -1.190647    0.543563
  B     -2.002400    0.115848    0.069195
  S     -3.607875   -0.474547   -0.494160
  S     -1.749715    1.880575    0.125119
  S      0.893349   -0.255511    1.168140
  C      1.847743   -0.207213   -0.375648
  Cl     3.388036    0.571872    0.003305
  F      1.225972    0.485354   -1.335087
  F      2.076030   -1.426481   -0.867747
  H     -0.488390    1.842937    0.582184
  H     -3.361108   -1.788508   -0.387557

 Multiplicity           Mult            ....    1
 Number of Electrons    NEL             ....  112
 Basis Dimension        Dim             ....  832

ORBITAL ENERGIES
----------------

  NO   OCC          E(Eh)            E(eV)
   0   2.0000    -104.877877     -2853.8721
   1   2.0000     -92.026262     -2504.1619
   2   2.0000     -92.003841     -2503.5518
   3   2.0000     -91.973603     -2502.7290
   4   2.0000     -91.970294     -2502.6389
   5   2.0000     -26.356694      -717.2021
   6   2.0000     -26.355394      -717.1667
   7   2.0000     -11.523704      -313.5759
   8   2.0000     -10.604027      -288.5502
   9   2.0000      -9.027121      -245.6405
  10   2.0000      -9.006387      -245.0763
  11   2.0000      -8.978490      -244.3171
  12   2.0000      -8.975578      -244.2379
  13   2.0000      -8.071026      -219.6238
  14   2.0000      -8.069082      -219.5709
  15   2.0000      -8.069066      -219.5705
  16   2.0000      -7.694715      -209.3838
  17   2.0000      -6.708134      -182.5376
  18   2.0000      -6.706984      -182.5063
  19   2.0000      -6.705994      -182.4794
  20   2.0000      -6.687785      -181.9839
  21   2.0000      -6.686233      -181.9417
  22   2.0000      -6.685934      -181.9335
  23   2.0000      -6.659978      -181.2272
  24   2.0000      -6.659106      -181.2035
  25   2.0000      -6.658513      -181.1873
  26   2.0000      -6.657064      -181.1479
  27   2.0000      -6.656242      -181.1256
  28   2.0000      -6.655687      -181.1104
  29   2.0000      -1.723106       -46.8881
  30   2.0000      -1.652314       -44.9617
  31   2.0000      -1.188409       -32.3382
  32   2.0000      -1.104574       -30.0570
  33   2.0000      -1.032564       -28.0975
  34   2.0000      -0.983572       -26.7644
  35   2.0000      -0.964858       -26.2551
  36   2.0000      -0.896699       -24.4004
  37   2.0000      -0.817749       -22.2521
  38   2.0000      -0.789733       -21.4897
  39   2.0000      -0.774340       -21.0709
  40   2.0000      -0.713953       -19.4276
  41   2.0000      -0.677891       -18.4463
  42   2.0000      -0.674976       -18.3670
  43   2.0000      -0.649949       -17.6860
  44   2.0000      -0.599317       -16.3082
  45   2.0000      -0.554298       -15.0832
  46   2.0000      -0.544556       -14.8181
  47   2.0000      -0.531661       -14.4672
  48   2.0000      -0.505261       -13.7489
  49   2.0000      -0.503599       -13.7036
  50   2.0000      -0.470283       -12.7970
  51   2.0000      -0.466163       -12.6849
  52   2.0000      -0.460925       -12.5424
  53   2.0000      -0.407131       -11.0786
  54   2.0000      -0.395669       -10.7667
  55   2.0000      -0.383946       -10.4477
  56   0.0000       0.027732         0.7546
  57   0.0000       0.033510         0.9118
  58   0.0000       0.038607         1.0505
  59   0.0000       0.040158         1.0928
  60   0.0000       0.054712         1.4888

MULLIKEN ATOMIC CHARGES
-----------------------
   0 S :    0.073588
   1 B :    0.008833
   2 S :   -0.045047
   3 S :    0.014483
   4 S :   -0.028123
   5 C :    1.166873
   6 Cl:   -0.148286
   7 F :   -0.561345
   8 F :   -0.566742
   9 H :    0.043228
  10 H :    0.042536
Sum of atomic charges:   -0.0000000

LOEWDIN ATOMIC CHARGES
----------------------
   0 S :    0.805575
   1 B :   -2.276408
   2 S :    1.549476
   3 S :    1.592340
   4 S :    0.581147
   5 C :   -2.816197
   6 Cl:    1.031069
   7 F :    0.633527
   8 F :    0.630393
   9 H :   -0.904199
  10 H :   -0.826723

  Mayer bond orders larger than 0.100000
B(  0-S ,  1-B ) :   1.1990 B(  0-S ,  4-S ) :   1.1036 B(  1-B ,  2-S ) :   1.1016
B(  1-B ,  3-S ) :   1.2094 B(  2-S , 10-H ) :   1.0669 B(  3-S ,  9-H ) :   1.0258
B(  4-S ,  5-C ) :   0.9382 B(  5-C ,  6-Cl) :   0.9122 B(  5-C ,  7-F ) :   0.5377
B(  5-C ,  8-F ) :   0.5022

MP2 TOTAL ENERGY:    -2314.327810192 Eh
FINAL SINGLE POINT ENERGY     -2314.327810191894

DIPOLE MOMENT
-------------
                                X             Y             Z
Electronic contribution:      9.57083      -0.21014      -1.75123
Nuclear contribution   :     -9.45378       0.06835       2.10618
                        -----------------------------------------
Total Dipole Moment    :      0.11705      -0.14178       0.35495
                        -----------------------------------------
Magnitude (a.u.)       :      0.39974
Magnitude (Debye)      :      1.01606

Rotational constants in cm-1:     0.049280     0.013094     0.011992
Rotational constants in MHz :  1477.391966   392.542078   359.517880

                             ****ORCA TERMINATED NORMALLY****
TOTAL RUN TIME: 0 days 0 hours 55 minutes 25 seconds 517 msec
