                         Program Version 5.0.4 -  RELEASE  -
|  1> ! ri-mp2 aug-cc-pvdz aug-cc-pvdz/c tightscf
|  2> %pal nprocs 16 end
|  3> %maxcore 3800
|  4> %base "DZ_Si-Si_63_AB"
|  5> %scf
|  6> STABPerform true
|  7> STABRestartUHFifUnstable true
|  8> end
|  9>
| 10> *xyz 0 1
| 11> Si        -0.194970    1.110558    0.236227
| 12> Si        -1.792823   -0.553607   -0.138723
| 13> O         1.315055    0.696644   -0.439177
| 14> H         0.011139    1.379804    1.674015
| 15> H        -0.505870    2.375140   -0.456724
| 16> C         1.833931   -0.501750   -0.209719
| 17> H        -3.121564    0.088143   -0.278731
| 18> H        -1.836712   -1.510551    0.982648
| 19> H        -1.475906   -1.257506   -1.400225
| 20> O         1.303285   -1.351443    0.448076
| 21> H         2.807721   -0.623448   -0.698919
| 22> *
| 23>
| 24> $new_job
| 25> ! ri-mp2 aug-cc-pvtz aug-cc-pvtz/c tightscf
| 26> %pal nprocs 16 end
| 27> %maxcore 3800
| 28> %base "TZ_Si-Si_63_AB"
| 29>
| 30> *xyz 0 1
| 31> Si        -0.194970    1.110558    0.236227
| 32> Si        -1.792823   -0.553607   -0.138723
| 33> O         1.315055    0.696644   -0.439177
| 34> H         0.011139    1.379804    1.674015
| 35> H        -0.505870    2.375140   -0.456724
| 36> C         1.833931   -0.501750   -0.209719
| 37> H        -3.121564    0.088143   -0.278731
| 38> H        -1.836712   -1.510551    0.982648
| 39> H        -1.475906   -1.257506   -1.400225
| 40> O         1.303285   -1.351443    0.448076
| 41> H         2.807721   -0.623448   -0.698919
| 42> *
| 43>
| 44> $new_job
| 45> ! ri-mp2 aug-cc-pvqz aug-cc-pvqz/c tightscf
| 46> %pal nprocs 16 end
| 47> %maxcore 3800
| 48> %base "QZ_Si-Si_63_AB"
| 49>
| 50> *xyz 0 1
| 51> Si        -0.194970    1.110558    0.236227
| 52> Si        -1.792823   -0.553607   -0.138723
| 53> O         1.315055    0.696644   -0.439177
| 54> H         0.011139    1.379804    1.674015
| 55> H        -0.505870    2.375140   -0.456724
| 56> C         1.833931   -0.501750   -0.209719
| 57> H        -3.121564    0.088143   -0.278731
| 58> H        -1.836712   -1.510551    0.982648
| 59> H        -1.475906   -1.257506   -1.400225
| 60> O         1.303285   -1.351443    0.448076
| 61> H         2.807721   -0.623448   -0.698919
| 62> *
| 63>
| 64>
| 65>
| 66>
| 67>                          ****END OF INPUT****
 Total Charge           Charge          ....    0
 Multiplicity           Mult            ....    1
 Number of Electrons    NEL             ....   56
MP2 TOTAL ENERGY:     -769.747937273 Eh
FINAL SINGLE POINT ENERGY      -769.747937272745
MP2 TOTAL ENERGY:     -769.985328349 Eh
FINAL SINGLE POINT ENERGY      -769.985328348588

CARTESIAN COORDINATES (ANGSTROEM)
---------------------------------
  Si    -0.194970    1.110558    0.236227
  Si    -1.792823   -0.553607   -0.138723
  O      1.315055    0.696644   -0.439177
  H      0.011139    1.379804    1.674015
  H     -0.505870    2.375140   -0.456724
  C      1.833931   -0.501750   -0.209719
  H     -3.121564    0.088143   -0.278731
  H     -1.836712   -1.510551    0.982648
  H     -1.475906   -1.257506   -1.400225
  O      1.303285   -1.351443    0.448076
  H      2.807721   -0.623448   -0.698919

 Multiplicity           Mult            ....    1
 Number of Electrons    NEL             ....   56
 Basis Dimension        Dim             ....  684

ORBITAL ENERGIES
----------------

  NO   OCC          E(Eh)            E(eV)
   0   2.0000     -68.807232     -1872.3400
   1   2.0000     -68.769820     -1871.3219
   2   2.0000     -20.602358      -560.6187
   3   2.0000     -20.565091      -559.6046
   4   2.0000     -11.395535      -310.0883
   5   2.0000      -6.153016      -167.4321
   6   2.0000      -6.120657      -166.5515
   7   2.0000      -4.259807      -115.9152
   8   2.0000      -4.259089      -115.8957
   9   2.0000      -4.258925      -115.8912
  10   2.0000      -4.226831      -115.0179
  11   2.0000      -4.226754      -115.0158
  12   2.0000      -4.226582      -115.0111
  13   2.0000      -1.470667       -40.0189
  14   2.0000      -1.369720       -37.2720
  15   2.0000      -0.891762       -24.2661
  16   2.0000      -0.749383       -20.3918
  17   2.0000      -0.739903       -20.1338
  18   2.0000      -0.707433       -19.2502
  19   2.0000      -0.653141       -17.7729
  20   2.0000      -0.635233       -17.2856
  21   2.0000      -0.559585       -15.2271
  22   2.0000      -0.514958       -14.0127
  23   2.0000      -0.492564       -13.4033
  24   2.0000      -0.490658       -13.3515
  25   2.0000      -0.476804       -12.9745
  26   2.0000      -0.469341       -12.7714
  27   2.0000      -0.408625       -11.1193
  28   0.0000       0.023728         0.6457
  29   0.0000       0.030242         0.8229
  30   0.0000       0.033395         0.9087
  31   0.0000       0.041451         1.1279
  32   0.0000       0.048193         1.3114

MULLIKEN ATOMIC CHARGES
-----------------------
   0 Si:    1.045433
   1 Si:    0.441923
   2 O :   -0.795473
   3 H :   -0.189568
   4 H :   -0.243945
   5 C :    0.319215
   6 H :   -0.220225
   7 H :   -0.138424
   8 H :   -0.143124
   9 O :   -0.698541
  10 H :    0.622730
Sum of atomic charges:    0.0000000

LOEWDIN ATOMIC CHARGES
----------------------
   0 Si:    0.382466
   1 Si:    1.027690
   2 O :    0.613233
   3 H :   -0.267540
   4 H :   -0.286400
   5 C :   -0.805936
   6 H :   -0.323559
   7 H :   -0.307031
   8 H :   -0.304642
   9 O :    0.663639
  10 H :   -0.391919

  Mayer bond orders larger than 0.100000
B(  0-Si,  1-Si) :   0.8245 B(  0-Si,  2-O ) :   0.3462 B(  0-Si,  3-H ) :   0.8717
B(  0-Si,  4-H ) :   0.8631 B(  1-Si,  6-H ) :   0.7546 B(  1-Si,  7-H ) :   0.8028
B(  1-Si,  8-H ) :   0.7920 B(  2-O ,  5-C ) :   1.1188 B(  5-C ,  9-O ) :   1.7487
B(  5-C , 10-H ) :   0.5688

MP2 TOTAL ENERGY:     -770.063561650 Eh
FINAL SINGLE POINT ENERGY      -770.063561649761

DIPOLE MOMENT
-------------
                                X             Y             Z
Electronic contribution:      4.06130       0.10478      -0.14021
Nuclear contribution   :     -3.91985       0.40339      -0.18189
                        -----------------------------------------
Total Dipole Moment    :      0.14145       0.50817      -0.32209
                        -----------------------------------------
Magnitude (a.u.)       :      0.61806
Magnitude (Debye)      :      1.57097

Rotational constants in cm-1:     0.152385     0.074750     0.055224
Rotational constants in MHz :  4568.380441  2240.949215  1655.580945

                             ****ORCA TERMINATED NORMALLY****
TOTAL RUN TIME: 0 days 0 hours 28 minutes 54 seconds 492 msec
