                         Program Version 5.0.4 -  RELEASE  -
|  1> ! ri-mp2 aug-cc-pvdz aug-cc-pvdz/c tightscf
|  2> %pal nprocs 16 end
|  3> %maxcore 3800
|  4> %base "DZ_Si-Cl_28_AB"
|  5> %scf
|  6> STABPerform true
|  7> STABRestartUHFifUnstable true
|  8> end
|  9>
| 10> *xyz 0 1
| 11> C         0.000000    2.006652   -0.302901
| 12> Si         0.000000    0.325122    0.452441
| 13> H        -0.000007    1.938471   -1.390527
| 14> H         0.886052    2.560492    0.009484
| 15> H        -0.886046    2.560496    0.009494
| 16> Cl         1.666559   -0.705708   -0.149015
| 17> Cl        -1.666559   -0.705708   -0.149015
| 18> H         0.000000    0.342983    1.921269
| 19> *
| 20>
| 21> $new_job
| 22> ! ri-mp2 aug-cc-pvtz aug-cc-pvtz/c tightscf
| 23> %pal nprocs 16 end
| 24> %maxcore 3800
| 25> %base "TZ_Si-Cl_28_AB"
| 26>
| 27> *xyz 0 1
| 28> C         0.000000    2.006652   -0.302901
| 29> Si         0.000000    0.325122    0.452441
| 30> H        -0.000007    1.938471   -1.390527
| 31> H         0.886052    2.560492    0.009484
| 32> H        -0.886046    2.560496    0.009494
| 33> Cl         1.666559   -0.705708   -0.149015
| 34> Cl        -1.666559   -0.705708   -0.149015
| 35> H         0.000000    0.342983    1.921269
| 36> *
| 37>
| 38> $new_job
| 39> ! ri-mp2 aug-cc-pvqz aug-cc-pvqz/c tightscf
| 40> %pal nprocs 16 end
| 41> %maxcore 3800
| 42> %base "QZ_Si-Cl_28_AB"
| 43>
| 44> *xyz 0 1
| 45> C         0.000000    2.006652   -0.302901
| 46> Si         0.000000    0.325122    0.452441
| 47> H        -0.000007    1.938471   -1.390527
| 48> H         0.886052    2.560492    0.009484
| 49> H        -0.886046    2.560496    0.009494
| 50> Cl         1.666559   -0.705708   -0.149015
| 51> Cl        -1.666559   -0.705708   -0.149015
| 52> H         0.000000    0.342983    1.921269
| 53> *
| 54>
| 55>
| 56>
| 57>
| 58>                          ****END OF INPUT****
 Total Charge           Charge          ....    0
 Multiplicity           Mult            ....    1
 Number of Electrons    NEL             ....   58
MP2 TOTAL ENERGY:    -1248.808086583 Eh
FINAL SINGLE POINT ENERGY     -1248.808086582911
MP2 TOTAL ENERGY:    -1249.012848056 Eh
FINAL SINGLE POINT ENERGY     -1249.012848056026

CARTESIAN COORDINATES (ANGSTROEM)
---------------------------------
  C      0.000000    2.006652   -0.302901
  Si     0.000000    0.325122    0.452441
  H     -0.000007    1.938471   -1.390527
  H      0.886052    2.560492    0.009484
  H     -0.886046    2.560496    0.009494
  Cl     1.666559   -0.705708   -0.149015
  Cl    -1.666559   -0.705708   -0.149015
  H      0.000000    0.342983    1.921269

 Multiplicity           Mult            ....    1
 Number of Electrons    NEL             ....   58
 Basis Dimension        Dim             ....  516

ORBITAL ENERGIES
----------------

  NO   OCC          E(Eh)            E(eV)
   0   2.0000    -104.833213     -2852.6568
   1   2.0000    -104.833213     -2852.6568
   2   2.0000     -68.851313     -1873.5395
   3   2.0000     -11.227730      -305.5221
   4   2.0000     -10.560850      -287.3753
   5   2.0000     -10.560844      -287.3752
   6   2.0000      -8.027628      -218.4429
   7   2.0000      -8.027626      -218.4428
   8   2.0000      -8.026520      -218.4127
   9   2.0000      -8.026520      -218.4127
  10   2.0000      -8.026490      -218.4119
  11   2.0000      -8.026489      -218.4119
  12   2.0000      -6.192572      -168.5084
  13   2.0000      -4.299935      -117.0072
  14   2.0000      -4.299116      -116.9849
  15   2.0000      -4.298070      -116.9564
  16   2.0000      -1.120183       -30.4817
  17   2.0000      -1.090661       -29.6784
  18   2.0000      -0.971846       -26.4453
  19   2.0000      -0.700435       -19.0598
  20   2.0000      -0.594966       -16.1899
  21   2.0000      -0.592553       -16.1242
  22   2.0000      -0.537999       -14.6397
  23   2.0000      -0.537675       -14.6309
  24   2.0000      -0.531800       -14.4710
  25   2.0000      -0.475050       -12.9268
  26   2.0000      -0.474507       -12.9120
  27   2.0000      -0.459026       -12.4907
  28   2.0000      -0.445095       -12.1117
  29   0.0000       0.024234         0.6594
  30   0.0000       0.037290         1.0147
  31   0.0000       0.037804         1.0287
  32   0.0000       0.039125         1.0646
  33   0.0000       0.057057         1.5526

MULLIKEN ATOMIC CHARGES
-----------------------
   0 C :   -0.957735
   1 Si:    1.635089
   2 H :    0.240549
   3 H :    0.247341
   4 H :    0.247340
   5 Cl:   -0.591701
   6 Cl:   -0.591701
   7 H :   -0.229183
Sum of atomic charges:    0.0000000

LOEWDIN ATOMIC CHARGES
----------------------
   0 C :    0.809347
   1 Si:   -1.141989
   2 H :   -0.376485
   3 H :   -0.369719
   4 H :   -0.369719
   5 Cl:    0.885524
   6 Cl:    0.885524
   7 H :   -0.322483

  Mayer bond orders larger than 0.100000
B(  0-C ,  1-Si) :   0.8805 B(  0-C ,  2-H ) :   0.9697 B(  0-C ,  3-H ) :   0.9443
B(  0-C ,  4-H ) :   0.9443 B(  1-Si,  5-Cl) :   0.5360 B(  1-Si,  6-Cl) :   0.5360
B(  1-Si,  7-H ) :   0.9261

MP2 TOTAL ENERGY:    -1249.080216687 Eh
FINAL SINGLE POINT ENERGY     -1249.080216687169

DIPOLE MOMENT
-------------
                                X             Y             Z
Electronic contribution:      0.00000      -8.07739      -0.73675
Nuclear contribution   :     -0.00000       8.90284       0.89827
                        -----------------------------------------
Total Dipole Moment    :     -0.00000       0.82545       0.16152
                        -----------------------------------------
Magnitude (a.u.)       :      0.84110
Magnitude (Debye)      :      2.13792

Rotational constants in cm-1:     0.143961     0.079311     0.055897
Rotational constants in MHz :  4315.854480  2377.677651  1675.753525

                             ****ORCA TERMINATED NORMALLY****
TOTAL RUN TIME: 0 days 0 hours 14 minutes 55 seconds 736 msec
