                         Program Version 5.0.4 -  RELEASE  -
|  1> ! ri-mp2 aug-cc-pvdz aug-cc-pvdz/c tightscf
|  2> %pal nprocs 16 end
|  3> %maxcore 3800
|  4> %base "DZ_S-Cl_23_AB"
|  5> %scf
|  6> STABPerform true
|  7> STABRestartUHFifUnstable true
|  8> end
|  9>
| 10> *xyz 0 1
| 11> Cl         1.792287   -0.547687   -0.614654
| 12> S         0.673067   -0.127456    1.037794
| 13> C        -0.742705    0.746825    0.312659
| 14> C        -1.573460   -0.107899   -0.637156
| 15> C        -0.343617    2.076853   -0.302199
| 16> H         0.291346    1.920564   -1.174188
| 17> H         0.201305    2.694326    0.409526
| 18> H        -1.232415    2.620067   -0.627129
| 19> H        -1.322279    0.927764    1.227036
| 20> C        -2.157494   -1.366545   -0.020816
| 21> H        -0.958422   -0.362839   -1.502974
| 22> H        -2.380656    0.525900   -1.014286
| 23> H        -1.373246   -2.043116    0.315721
| 24> H        -2.774419   -1.898664   -0.744671
| 25> H        -2.785509   -1.129428    0.840453
| 26> *
| 27>
| 28> $new_job
| 29> ! ri-mp2 aug-cc-pvtz aug-cc-pvtz/c tightscf
| 30> %pal nprocs 16 end
| 31> %maxcore 3800
| 32> %base "TZ_S-Cl_23_AB"
| 33>
| 34> *xyz 0 1
| 35> Cl         1.792287   -0.547687   -0.614654
| 36> S         0.673067   -0.127456    1.037794
| 37> C        -0.742705    0.746825    0.312659
| 38> C        -1.573460   -0.107899   -0.637156
| 39> C        -0.343617    2.076853   -0.302199
| 40> H         0.291346    1.920564   -1.174188
| 41> H         0.201305    2.694326    0.409526
| 42> H        -1.232415    2.620067   -0.627129
| 43> H        -1.322279    0.927764    1.227036
| 44> C        -2.157494   -1.366545   -0.020816
| 45> H        -0.958422   -0.362839   -1.502974
| 46> H        -2.380656    0.525900   -1.014286
| 47> H        -1.373246   -2.043116    0.315721
| 48> H        -2.774419   -1.898664   -0.744671
| 49> H        -2.785509   -1.129428    0.840453
| 50> *
| 51>
| 52> $new_job
| 53> ! ri-mp2 aug-cc-pvqz aug-cc-pvqz/c tightscf
| 54> %pal nprocs 16 end
| 55> %maxcore 3800
| 56> %base "QZ_S-Cl_23_AB"
| 57>
| 58> *xyz 0 1
| 59> Cl         1.792287   -0.547687   -0.614654
| 60> S         0.673067   -0.127456    1.037794
| 61> C        -0.742705    0.746825    0.312659
| 62> C        -1.573460   -0.107899   -0.637156
| 63> C        -0.343617    2.076853   -0.302199
| 64> H         0.291346    1.920564   -1.174188
| 65> H         0.201305    2.694326    0.409526
| 66> H        -1.232415    2.620067   -0.627129
| 67> H        -1.322279    0.927764    1.227036
| 68> C        -2.157494   -1.366545   -0.020816
| 69> H        -0.958422   -0.362839   -1.502974
| 70> H        -2.380656    0.525900   -1.014286
| 71> H        -1.373246   -2.043116    0.315721
| 72> H        -2.774419   -1.898664   -0.744671
| 73> H        -2.785509   -1.129428    0.840453
| 74> *
| 75>
| 76>
| 77>
| 78>
| 79>                          ****END OF INPUT****
 Total Charge           Charge          ....    0
 Multiplicity           Mult            ....    1
 Number of Electrons    NEL             ....   66
MP2 TOTAL ENERGY:    -1014.656359822 Eh
FINAL SINGLE POINT ENERGY     -1014.656359822110
MP2 TOTAL ENERGY:    -1014.925601161 Eh
FINAL SINGLE POINT ENERGY     -1014.925601160655

CARTESIAN COORDINATES (ANGSTROEM)
---------------------------------
  Cl     1.792287   -0.547687   -0.614654
  S      0.673067   -0.127456    1.037794
  C     -0.742705    0.746825    0.312659
  C     -1.573460   -0.107899   -0.637156
  C     -0.343617    2.076853   -0.302199
  H      0.291346    1.920564   -1.174188
  H      0.201305    2.694326    0.409526
  H     -1.232415    2.620067   -0.627129
  H     -1.322279    0.927764    1.227036
  C     -2.157494   -1.366545   -0.020816
  H     -0.958422   -0.362839   -1.502974
  H     -2.380656    0.525900   -1.014286
  H     -1.373246   -2.043116    0.315721
  H     -2.774419   -1.898664   -0.744671
  H     -2.785509   -1.129428    0.840453

 Multiplicity           Mult            ....    1
 Number of Electrons    NEL             ....   66
 Basis Dimension        Dim             ....  902

ORBITAL ENERGIES
----------------

  NO   OCC          E(Eh)            E(eV)
   0   2.0000    -104.844443     -2852.9623
   1   2.0000     -91.996882     -2503.3624
   2   2.0000     -11.276512      -306.8495
   3   2.0000     -11.231330      -305.6200
   4   2.0000     -11.225830      -305.4704
   5   2.0000     -11.215485      -305.1889
   6   2.0000     -10.568928      -287.5951
   7   2.0000      -8.995608      -244.7829
   8   2.0000      -8.035941      -218.6691
   9   2.0000      -8.034114      -218.6194
  10   2.0000      -8.033925      -218.6142
  11   2.0000      -6.676958      -181.6893
  12   2.0000      -6.675123      -181.6393
  13   2.0000      -6.674130      -181.6123
  14   2.0000      -1.150792       -31.3146
  15   2.0000      -1.090450       -29.6727
  16   2.0000      -1.005347       -27.3569
  17   2.0000      -0.923890       -25.1403
  18   2.0000      -0.866421       -23.5765
  19   2.0000      -0.772437       -21.0191
  20   2.0000      -0.648915       -17.6579
  21   2.0000      -0.613424       -16.6921
  22   2.0000      -0.605104       -16.4657
  23   2.0000      -0.583460       -15.8768
  24   2.0000      -0.547423       -14.8961
  25   2.0000      -0.519173       -14.1274
  26   2.0000      -0.517640       -14.0857
  27   2.0000      -0.502013       -13.6605
  28   2.0000      -0.488904       -13.3038
  29   2.0000      -0.483655       -13.1609
  30   2.0000      -0.480049       -13.0628
  31   2.0000      -0.424318       -11.5463
  32   2.0000      -0.351648        -9.5688
  33   0.0000       0.024390         0.6637
  34   0.0000       0.030599         0.8326
  35   0.0000       0.032142         0.8746
  36   0.0000       0.040608         1.1050
  37   0.0000       0.049287         1.3412

MULLIKEN ATOMIC CHARGES
-----------------------
   0 Cl:   -0.401088
   1 S :    0.043810
   2 C :    0.276074
   3 C :   -0.454830
   4 C :   -0.978744
   5 H :    0.231735
   6 H :    0.274959
   7 H :    0.234500
   8 H :    0.296779
   9 C :   -0.838332
  10 H :    0.299075
  11 H :    0.265373
  12 H :    0.264535
  13 H :    0.255835
  14 H :    0.230320
Sum of atomic charges:   -0.0000000

LOEWDIN ATOMIC CHARGES
----------------------
   0 Cl:    0.546602
   1 S :    0.535236
   2 C :   -0.379593
   3 C :    0.383343
   4 C :    0.809275
   5 H :   -0.324361
   6 H :   -0.300795
   7 H :   -0.281937
   8 H :   -0.392741
   9 C :    0.893618
  10 H :   -0.323789
  11 H :   -0.281795
  12 H :   -0.321577
  13 H :   -0.279440
  14 H :   -0.282047

  Mayer bond orders larger than 0.100000
B(  0-Cl,  1-S ) :   1.0134 B(  0-Cl,  2-C ) :  -0.2702 B(  1-S ,  2-C ) :   0.6711
B(  1-S ,  4-C ) :   0.1215 B(  2-C ,  3-C ) :   0.8406 B(  2-C ,  4-C ) :   0.7713
B(  2-C ,  8-H ) :   0.8415 B(  3-C ,  9-C ) :   0.9192 B(  3-C , 10-H ) :   0.8798
B(  3-C , 11-H ) :   0.8640 B(  4-C ,  5-H ) :   0.9747 B(  4-C ,  6-H ) :   1.0076
B(  4-C ,  7-H ) :   0.9754 B(  9-C , 12-H ) :   0.9417 B(  9-C , 13-H ) :   1.0181
B(  9-C , 14-H ) :   0.9514

MP2 TOTAL ENERGY:    -1015.009497124 Eh
FINAL SINGLE POINT ENERGY     -1015.009497124024

DIPOLE MOMENT
-------------
                                X             Y             Z
Electronic contribution:     13.96971      -3.58414       1.37951
Nuclear contribution   :    -14.83826       4.02013      -1.41546
                        -----------------------------------------
Total Dipole Moment    :     -0.86855       0.43599      -0.03594
                        -----------------------------------------
Magnitude (a.u.)       :      0.97250
Magnitude (Debye)      :      2.47190

Rotational constants in cm-1:     0.092058     0.054119     0.045747
Rotational constants in MHz :  2759.826997  1622.435269  1371.466886

                             ****ORCA TERMINATED NORMALLY****
TOTAL RUN TIME: 0 days 1 hours 9 minutes 21 seconds 679 msec
