                         Program Version 5.0.4 -  RELEASE  -
|  1> ! ri-mp2 aug-cc-pvdz aug-cc-pvdz/c tightscf
|  2> %pal nprocs 16 end
|  3> %maxcore 3800
|  4> %base "DZ_B-S_12_AB"
|  5>
|  6> *xyz 0 1
|  7> B         1.780462   -0.176711    0.002143
|  8> S         3.031909    1.031495    0.461447
|  9> S         2.110824   -1.903954   -0.379487
| 10> O        -4.336933   -0.851582    0.264116
| 11> C         0.301507    0.306183   -0.070099
| 12> C        -0.760698   -0.576697    0.129871
| 13> C        -2.076504   -0.149814    0.070469
| 14> C        -2.364105    1.183257   -0.202161
| 15> C        -1.331390    2.073882   -0.407860
| 16> C        -0.016615    1.638854   -0.337647
| 17> C        -3.165778   -1.120244    0.297659
| 18> H        -0.562407   -1.619631    0.349854
| 19> H        -3.399202    1.494285   -0.246876
| 20> H        -1.543757    3.112379   -0.623180
| 21> H         0.779902    2.352060   -0.507722
| 22> H        -2.828766   -2.154128    0.509397
| 23> H         3.417591   -1.943036   -0.093361
| 24> H         4.127558    0.281089    0.295493
| 25> *
| 26>
| 27> $new_job
| 28> ! ri-mp2 aug-cc-pvtz aug-cc-pvtz/c tightscf
| 29> %pal nprocs 16 end
| 30> %maxcore 3800
| 31> %base "TZ_B-S_12_AB"
| 32>
| 33> *xyz 0 1
| 34> B         1.780462   -0.176711    0.002143
| 35> S         3.031909    1.031495    0.461447
| 36> S         2.110824   -1.903954   -0.379487
| 37> O        -4.336933   -0.851582    0.264116
| 38> C         0.301507    0.306183   -0.070099
| 39> C        -0.760698   -0.576697    0.129871
| 40> C        -2.076504   -0.149814    0.070469
| 41> C        -2.364105    1.183257   -0.202161
| 42> C        -1.331390    2.073882   -0.407860
| 43> C        -0.016615    1.638854   -0.337647
| 44> C        -3.165778   -1.120244    0.297659
| 45> H        -0.562407   -1.619631    0.349854
| 46> H        -3.399202    1.494285   -0.246876
| 47> H        -1.543757    3.112379   -0.623180
| 48> H         0.779902    2.352060   -0.507722
| 49> H        -2.828766   -2.154128    0.509397
| 50> H         3.417591   -1.943036   -0.093361
| 51> H         4.127558    0.281089    0.295493
| 52> *
| 53>
| 54> $new_job
| 55> ! ri-mp2 aug-cc-pvqz aug-cc-pvqz/c tightscf
| 56> %pal nprocs 16 end
| 57> %maxcore 3800
| 58> %base "QZ_B-S_12_AB"
| 59>
| 60> *xyz 0 1
| 61> B         1.780462   -0.176711    0.002143
| 62> S         3.031909    1.031495    0.461447
| 63> S         2.110824   -1.903954   -0.379487
| 64> O        -4.336933   -0.851582    0.264116
| 65> C         0.301507    0.306183   -0.070099
| 66> C        -0.760698   -0.576697    0.129871
| 67> C        -2.076504   -0.149814    0.070469
| 68> C        -2.364105    1.183257   -0.202161
| 69> C        -1.331390    2.073882   -0.407860
| 70> C        -0.016615    1.638854   -0.337647
| 71> C        -3.165778   -1.120244    0.297659
| 72> H        -0.562407   -1.619631    0.349854
| 73> H        -3.399202    1.494285   -0.246876
| 74> H        -1.543757    3.112379   -0.623180
| 75> H         0.779902    2.352060   -0.507722
| 76> H        -2.828766   -2.154128    0.509397
| 77> H         3.417591   -1.943036   -0.093361
| 78> H         4.127558    0.281089    0.295493
| 79> *
| 80>
| 81>
| 82>
| 83>
| 84>                          ****END OF INPUT****
 Total Charge           Charge          ....    0
 Multiplicity           Mult            ....    1
 Number of Electrons    NEL             ....   94
MP2 TOTAL ENERGY:    -1165.379703626 Eh
FINAL SINGLE POINT ENERGY     -1165.379703626384
MP2 TOTAL ENERGY:    -1165.793981405 Eh
FINAL SINGLE POINT ENERGY     -1165.793981405446

CARTESIAN COORDINATES (ANGSTROEM)
---------------------------------
  B      1.780462   -0.176711    0.002143
  S      3.031909    1.031495    0.461447
  S      2.110824   -1.903954   -0.379487
  O     -4.336933   -0.851582    0.264116
  C      0.301507    0.306183   -0.070099
  C     -0.760698   -0.576697    0.129871
  C     -2.076504   -0.149814    0.070469
  C     -2.364105    1.183257   -0.202161
  C     -1.331390    2.073882   -0.407860
  C     -0.016615    1.638854   -0.337647
  C     -3.165778   -1.120244    0.297659
  H     -0.562407   -1.619631    0.349854
  H     -3.399202    1.494285   -0.246876
  H     -1.543757    3.112379   -0.623180
  H      0.779902    2.352060   -0.507722
  H     -2.828766   -2.154128    0.509397
  H      3.417591   -1.943036   -0.093361
  H      4.127558    0.281089    0.295493

 Multiplicity           Mult            ....    1
 Number of Electrons    NEL             ....   94
 Basis Dimension        Dim             .... 1210

ORBITAL ENERGIES
----------------

  NO   OCC          E(Eh)            E(eV)
   0   2.0000     -91.967178     -2502.5542
   1   2.0000     -91.966905     -2502.5467
   2   2.0000     -20.555683      -559.3486
   3   2.0000     -11.334932      -308.4392
   4   2.0000     -11.265257      -306.5432
   5   2.0000     -11.263188      -306.4869
   6   2.0000     -11.260123      -306.4035
   7   2.0000     -11.251645      -306.1728
   8   2.0000     -11.249364      -306.1108
   9   2.0000     -11.239635      -305.8460
  10   2.0000      -8.972371      -244.1506
  11   2.0000      -8.972080      -244.1427
  12   2.0000      -7.661754      -208.4869
  13   2.0000      -6.653966      -181.0636
  14   2.0000      -6.653669      -181.0555
  15   2.0000      -6.652926      -181.0353
  16   2.0000      -6.652630      -181.0273
  17   2.0000      -6.652505      -181.0239
  18   2.0000      -6.652207      -181.0158
  19   2.0000      -1.399828       -38.0913
  20   2.0000      -1.183224       -32.1972
  21   2.0000      -1.061738       -28.8914
  22   2.0000      -1.051743       -28.6194
  23   2.0000      -1.012578       -27.5536
  24   2.0000      -0.973614       -26.4934
  25   2.0000      -0.898689       -24.4546
  26   2.0000      -0.855242       -23.2723
  27   2.0000      -0.801565       -21.8117
  28   2.0000      -0.731986       -19.9184
  29   2.0000      -0.687474       -18.7071
  30   2.0000      -0.676051       -18.3963
  31   2.0000      -0.651604       -17.7310
  32   2.0000      -0.629048       -17.1173
  33   2.0000      -0.617675       -16.8078
  34   2.0000      -0.581931       -15.8351
  35   2.0000      -0.565877       -15.3983
  36   2.0000      -0.561985       -15.2924
  37   2.0000      -0.538994       -14.6668
  38   2.0000      -0.531446       -14.4614
  39   2.0000      -0.512288       -13.9401
  40   2.0000      -0.489970       -13.3328
  41   2.0000      -0.446074       -12.1383
  42   2.0000      -0.439779       -11.9670
  43   2.0000      -0.430735       -11.7209
  44   2.0000      -0.382946       -10.4205
  45   2.0000      -0.362259        -9.8576
  46   2.0000      -0.355993        -9.6871
  47   0.0000       0.018908         0.5145
  48   0.0000       0.025810         0.7023
  49   0.0000       0.029914         0.8140
  50   0.0000       0.034450         0.9374
  51   0.0000       0.039159         1.0656

MULLIKEN ATOMIC CHARGES
-----------------------
   0 B :    0.466811
   1 S :   -0.090413
   2 S :   -0.105070
   3 O :   -0.776964
   4 C :    0.494128
   5 C :   -0.372580
   6 C :   -0.174733
   7 C :   -0.146086
   8 C :   -0.322009
   9 C :   -0.558150
  10 C :    0.348498
  11 H :    0.245359
  12 H :    0.370918
  13 H :    0.203981
  14 H :    0.216149
  15 H :    0.257148
  16 H :   -0.026854
  17 H :   -0.030132
Sum of atomic charges:    0.0000000

LOEWDIN ATOMIC CHARGES
----------------------
   0 B :   -1.632936
   1 S :    1.735930
   2 S :    1.737352
   3 O :    0.715172
   4 C :   -0.119280
   5 C :    0.257774
   6 C :   -0.120692
   7 C :    0.334303
   8 C :    0.382460
   9 C :    0.291508
  10 C :   -0.271493
  11 H :   -0.365102
  12 H :   -0.319717
  13 H :   -0.314159
  14 H :   -0.355795
  15 H :   -0.361363
  16 H :   -0.796754
  17 H :   -0.797211

  Mayer bond orders larger than 0.100000
B(  0-B ,  1-S ) :   1.0689 B(  0-B ,  2-S ) :   1.0540 B(  0-B ,  4-C ) :   1.0646
B(  1-S , 17-H ) :   1.1077 B(  2-S ,  5-C ) :   0.1269 B(  2-S , 16-H ) :   1.1128
B(  3-O ,  6-C ) :   0.2795 B(  3-O , 10-C ) :   1.2392 B(  4-C ,  5-C ) :   0.9281
B(  4-C ,  6-C ) :  -0.5791 B(  4-C ,  7-C ) :  -0.1419 B(  4-C ,  8-C ) :  -0.3944
B(  4-C ,  9-C ) :   0.8804 B(  4-C , 11-H ) :  -0.1176 B(  5-C ,  6-C ) :   1.0415
B(  5-C ,  7-C ) :   0.1962 B(  5-C ,  8-C ) :   0.1182 B(  5-C ,  9-C ) :   0.1228
B(  5-C , 10-C ) :  -0.4886 B(  5-C , 11-H ) :   0.9280 B(  6-C ,  7-C ) :   0.9836
B(  6-C ,  8-C ) :  -0.2340 B(  6-C , 10-C ) :   1.2450 B(  6-C , 15-H ) :  -0.2202
B(  7-C ,  8-C ) :   1.2344 B(  7-C ,  9-C ) :   0.1866 B(  7-C , 10-C ) :  -0.1765
B(  7-C , 12-H ) :   0.8046 B(  7-C , 13-H ) :  -0.1630 B(  8-C ,  9-C ) :   1.2077
B(  8-C , 13-H ) :   1.2136 B(  9-C , 13-H ) :  -0.1799 B(  9-C , 14-H ) :   1.0265
B( 10-C , 15-H ) :   1.1086

MP2 TOTAL ENERGY:    -1165.928873217 Eh
FINAL SINGLE POINT ENERGY     -1165.928873217450

DIPOLE MOMENT
-------------
                                X             Y             Z
Electronic contribution:      3.11032      -1.46860       0.24505
Nuclear contribution   :     -1.62015       1.62798      -0.30689
                        -----------------------------------------
Total Dipole Moment    :      1.49017       0.15938      -0.06184
                        -----------------------------------------
Magnitude (a.u.)       :      1.49995
Magnitude (Debye)      :      3.81256

Rotational constants in cm-1:     0.050899     0.015155     0.011992
Rotational constants in MHz :  1525.903418   454.345995   359.523058

                             ****ORCA TERMINATED NORMALLY****
TOTAL RUN TIME: 0 days 0 hours 53 minutes 0 seconds 379 msec
