                         Program Version 5.0.4 -  RELEASE  -
|  1> ! ri-mp2 aug-cc-pvdz aug-cc-pvdz/c tightscf
|  2> %pal nprocs 16 end
|  3> %maxcore 3800
|  4> %base "DZ_P-C_13_AB"
|  5>
|  6> *xyz 0 1
|  7> C        -1.643646    1.155341    0.004565
|  8> C        -2.264634   -0.079948    0.006210
|  9> C        -1.467449   -1.211228    0.001282
| 10> N        -0.142582   -1.169738   -0.009546
| 11> C         0.455253    0.020096    0.000930
| 12> C        -0.262927    1.210190    0.004452
| 13> H        -3.341788   -0.169841    0.009798
| 14> H        -1.914208   -2.199279    0.001441
| 15> H         0.251909    2.160986    0.013930
| 16> H        -2.227108    2.066811    0.009026
| 17> P         2.285899   -0.044493   -0.109260
| 18> H         2.494306   -0.779435    1.076965
| 19> H         2.546890    1.209604    0.489932
| 20> *
| 21>
| 22> $new_job
| 23> ! ri-mp2 aug-cc-pvtz aug-cc-pvtz/c tightscf
| 24> %pal nprocs 16 end
| 25> %maxcore 3800
| 26> %base "TZ_P-C_13_AB"
| 27>
| 28> *xyz 0 1
| 29> C        -1.643646    1.155341    0.004565
| 30> C        -2.264634   -0.079948    0.006210
| 31> C        -1.467449   -1.211228    0.001282
| 32> N        -0.142582   -1.169738   -0.009546
| 33> C         0.455253    0.020096    0.000930
| 34> C        -0.262927    1.210190    0.004452
| 35> H        -3.341788   -0.169841    0.009798
| 36> H        -1.914208   -2.199279    0.001441
| 37> H         0.251909    2.160986    0.013930
| 38> H        -2.227108    2.066811    0.009026
| 39> P         2.285899   -0.044493   -0.109260
| 40> H         2.494306   -0.779435    1.076965
| 41> H         2.546890    1.209604    0.489932
| 42> *
| 43>
| 44> $new_job
| 45> ! ri-mp2 aug-cc-pvqz aug-cc-pvqz/c tightscf
| 46> %pal nprocs 16 end
| 47> %maxcore 3800
| 48> %base "QZ_P-C_13_AB"
| 49>
| 50> *xyz 0 1
| 51> C        -1.643646    1.155341    0.004565
| 52> C        -2.264634   -0.079948    0.006210
| 53> C        -1.467449   -1.211228    0.001282
| 54> N        -0.142582   -1.169738   -0.009546
| 55> C         0.455253    0.020096    0.000930
| 56> C        -0.262927    1.210190    0.004452
| 57> H        -3.341788   -0.169841    0.009798
| 58> H        -1.914208   -2.199279    0.001441
| 59> H         0.251909    2.160986    0.013930
| 60> H        -2.227108    2.066811    0.009026
| 61> P         2.285899   -0.044493   -0.109260
| 62> H         2.494306   -0.779435    1.076965
| 63> H         2.546890    1.209604    0.489932
| 64> *
| 65>
| 66>
| 67>
| 68>
| 69>                          ****END OF INPUT****
 Total Charge           Charge          ....    0
 Multiplicity           Mult            ....    1
 Number of Electrons    NEL             ....   58
MP2 TOTAL ENERGY:     -589.002063418 Eh
FINAL SINGLE POINT ENERGY      -589.002063417584
MP2 TOTAL ENERGY:     -589.258887046 Eh
FINAL SINGLE POINT ENERGY      -589.258887045922

CARTESIAN COORDINATES (ANGSTROEM)
---------------------------------
  C     -1.643646    1.155341    0.004565
  C     -2.264634   -0.079948    0.006210
  C     -1.467449   -1.211228    0.001282
  N     -0.142582   -1.169738   -0.009546
  C      0.455253    0.020096    0.000930
  C     -0.262927    1.210190    0.004452
  H     -3.341788   -0.169841    0.009798
  H     -1.914208   -2.199279    0.001441
  H      0.251909    2.160986    0.013930
  H     -2.227108    2.066811    0.009026
  P      2.285899   -0.044493   -0.109260
  H      2.494306   -0.779435    1.076965
  H      2.546890    1.209604    0.489932

 Multiplicity           Mult            ....    1
 Number of Electrons    NEL             ....   58
 Basis Dimension        Dim             ....  840

ORBITAL ENERGIES
----------------

  NO   OCC          E(Eh)            E(eV)
   0   2.0000     -79.942684     -2175.3510
   1   2.0000     -15.565101      -423.5479
   2   2.0000     -11.283064      -307.0278
   3   2.0000     -11.276317      -306.8442
   4   2.0000     -11.260519      -306.4143
   5   2.0000     -11.243039      -305.9387
   6   2.0000     -11.241037      -305.8842
   7   2.0000      -7.485890      -203.7014
   8   2.0000      -5.379818      -146.3923
   9   2.0000      -5.379609      -146.3866
  10   2.0000      -5.378639      -146.3602
  11   2.0000      -1.269629       -34.5484
  12   2.0000      -1.096744       -29.8439
  13   2.0000      -1.046733       -28.4831
  14   2.0000      -0.894947       -24.3527
  15   2.0000      -0.865682       -23.5564
  16   2.0000      -0.809365       -22.0239
  17   2.0000      -0.706420       -19.2227
  18   2.0000      -0.673281       -18.3209
  19   2.0000      -0.641916       -17.4674
  20   2.0000      -0.588755       -16.0208
  21   2.0000      -0.570292       -15.5184
  22   2.0000      -0.557488       -15.1700
  23   2.0000      -0.516692       -14.0599
  24   2.0000      -0.500824       -13.6281
  25   2.0000      -0.423204       -11.5160
  26   2.0000      -0.400365       -10.8945
  27   2.0000      -0.384319       -10.4579
  28   2.0000      -0.331751        -9.0274
  29   0.0000       0.021209         0.5771
  30   0.0000       0.028603         0.7783
  31   0.0000       0.032262         0.8779
  32   0.0000       0.042342         1.1522
  33   0.0000       0.045421         1.2360

MULLIKEN ATOMIC CHARGES
-----------------------
   0 C :   -0.181148
   1 C :   -0.326656
   2 C :   -0.346101
   3 N :   -0.524885
   4 C :    0.027194
   5 C :   -0.303048
   6 H :    0.361343
   7 H :    0.472560
   8 H :    0.316288
   9 H :    0.307653
  10 P :    0.332292
  11 H :   -0.051686
  12 H :   -0.083805
Sum of atomic charges:    0.0000000

LOEWDIN ATOMIC CHARGES
----------------------
   0 C :    0.323670
   1 C :    0.328128
   2 C :    0.064389
   3 N :    0.492634
   4 C :   -0.621482
   5 C :    0.232319
   6 H :   -0.326930
   7 H :   -0.348284
   8 H :   -0.351087
   9 H :   -0.310280
  10 P :    1.485854
  11 H :   -0.478576
  12 H :   -0.490355

  Mayer bond orders larger than 0.100000
B(  0-C ,  1-C ) :   1.1856 B(  0-C ,  4-C ) :  -0.2494 B(  0-C ,  5-C ) :   1.2466
B(  0-C ,  9-H ) :   1.0235 B(  1-C ,  2-C ) :   1.2784 B(  1-C ,  6-H ) :   0.9459
B(  2-C ,  3-N ) :   1.3269 B(  2-C ,  5-C ) :   0.1841 B(  2-C ,  7-H ) :   0.8668
B(  3-N ,  4-C ) :   1.0483 B(  4-C ,  5-C ) :   0.8029 B(  4-C , 10-P ) :   0.8986
B(  5-C ,  8-H ) :   0.9605 B(  5-C ,  9-H ) :  -0.1028 B(  5-C , 10-P ) :  -0.2246
B( 10-P , 11-H ) :   0.9041 B( 10-P , 12-H ) :   0.9340

MP2 TOTAL ENERGY:     -589.341317612 Eh
FINAL SINGLE POINT ENERGY      -589.341317612440

DIPOLE MOMENT
-------------
                                X             Y             Z
Electronic contribution:      3.53953      -1.52147      -1.39632
Nuclear contribution   :     -4.28310       2.27925       1.67200
                        -----------------------------------------
Total Dipole Moment    :     -0.74356       0.75778       0.27568
                        -----------------------------------------
Magnitude (a.u.)       :      1.09687
Magnitude (Debye)      :      2.78801

Rotational constants in cm-1:     0.191127     0.052714     0.041667
Rotational constants in MHz :  5729.847585  1580.334173  1249.140257

                             ****ORCA TERMINATED NORMALLY****
TOTAL RUN TIME: 0 days 0 hours 15 minutes 6 seconds 419 msec
