                         Program Version 5.0.4 -  RELEASE  -
|  1> ! ri-mp2 aug-cc-pvdz aug-cc-pvdz/c tightscf
|  2> %pal nprocs 16 end
|  3> %maxcore 3800
|  4> %base "DZ_P-Si_16_AB"
|  5> %scf
|  6> STABPerform true
|  7> STABRestartUHFifUnstable true
|  8> end
|  9>
| 10> *xyz 0 1
| 11> C        -1.838956   -0.073967    0.021427
| 12> P         1.568937   -0.079587    0.082214
| 13> O         1.626267   -1.003132    1.224595
| 14> C        -3.108398    0.741925   -0.243349
| 15> H        -3.132955    1.140174   -1.259331
| 16> H        -3.207312    1.579091    0.450472
| 17> C        -1.872131   -0.633306    1.446734
| 18> H        -1.971532    0.161574    2.188207
| 19> H        -0.971061   -1.200363    1.681642
| 20> H        -2.732568   -1.298829    1.560213
| 21> H        -3.989124    0.106130   -0.116793
| 22> C        -1.751250   -1.224879   -0.983879
| 23> H        -2.643166   -1.852369   -0.903236
| 24> H        -0.884026   -1.859209   -0.799543
| 25> H        -1.691509   -0.865990   -2.013001
| 26> Si        -0.358238    1.074864   -0.172491
| 27> O         2.759967    1.000777    0.121635
| 28> H         3.174270    1.027027    0.992691
| 29> O         1.759715   -0.752254   -1.354314
| 30> H         2.435203   -1.442912   -1.370691
| 31> H        -0.327227    2.104138    0.889935
| 32> H        -0.320901    1.725473   -1.499825
| 33> *
| 34>
| 35> $new_job
| 36> ! ri-mp2 aug-cc-pvtz aug-cc-pvtz/c tightscf
| 37> %pal nprocs 16 end
| 38> %maxcore 3800
| 39> %base "TZ_P-Si_16_AB"
| 40>
| 41> *xyz 0 1
| 42> C        -1.838956   -0.073967    0.021427
| 43> P         1.568937   -0.079587    0.082214
| 44> O         1.626267   -1.003132    1.224595
| 45> C        -3.108398    0.741925   -0.243349
| 46> H        -3.132955    1.140174   -1.259331
| 47> H        -3.207312    1.579091    0.450472
| 48> C        -1.872131   -0.633306    1.446734
| 49> H        -1.971532    0.161574    2.188207
| 50> H        -0.971061   -1.200363    1.681642
| 51> H        -2.732568   -1.298829    1.560213
| 52> H        -3.989124    0.106130   -0.116793
| 53> C        -1.751250   -1.224879   -0.983879
| 54> H        -2.643166   -1.852369   -0.903236
| 55> H        -0.884026   -1.859209   -0.799543
| 56> H        -1.691509   -0.865990   -2.013001
| 57> Si        -0.358238    1.074864   -0.172491
| 58> O         2.759967    1.000777    0.121635
| 59> H         3.174270    1.027027    0.992691
| 60> O         1.759715   -0.752254   -1.354314
| 61> H         2.435203   -1.442912   -1.370691
| 62> H        -0.327227    2.104138    0.889935
| 63> H        -0.320901    1.725473   -1.499825
| 64> *
| 65>
| 66> $new_job
| 67> ! ri-mp2 aug-cc-pvqz aug-cc-pvqz/c tightscf
| 68> %pal nprocs 16 end
| 69> %maxcore 3800
| 70> %base "QZ_P-Si_16_AB"
| 71>
| 72> *xyz 0 1
| 73> C        -1.838956   -0.073967    0.021427
| 74> P         1.568937   -0.079587    0.082214
| 75> O         1.626267   -1.003132    1.224595
| 76> C        -3.108398    0.741925   -0.243349
| 77> H        -3.132955    1.140174   -1.259331
| 78> H        -3.207312    1.579091    0.450472
| 79> C        -1.872131   -0.633306    1.446734
| 80> H        -1.971532    0.161574    2.188207
| 81> H        -0.971061   -1.200363    1.681642
| 82> H        -2.732568   -1.298829    1.560213
| 83> H        -3.989124    0.106130   -0.116793
| 84> C        -1.751250   -1.224879   -0.983879
| 85> H        -2.643166   -1.852369   -0.903236
| 86> H        -0.884026   -1.859209   -0.799543
| 87> H        -1.691509   -0.865990   -2.013001
| 88> Si        -0.358238    1.074864   -0.172491
| 89> O         2.759967    1.000777    0.121635
| 90> H         3.174270    1.027027    0.992691
| 91> O         1.759715   -0.752254   -1.354314
| 92> H         2.435203   -1.442912   -1.370691
| 93> H        -0.327227    2.104138    0.889935
| 94> H        -0.320901    1.725473   -1.499825
| 95> *
| 96>
| 97>
| 98>
| 99>
|100>                          ****END OF INPUT****
 Total Charge           Charge          ....    0
 Multiplicity           Mult            ....    1
 Number of Electrons    NEL             ....   90
MP2 TOTAL ENERGY:    -1014.870175007 Eh
FINAL SINGLE POINT ENERGY     -1014.870175006998
MP2 TOTAL ENERGY:    -1015.326033913 Eh
FINAL SINGLE POINT ENERGY     -1015.326033913479

CARTESIAN COORDINATES (ANGSTROEM)
---------------------------------
  C     -1.838956   -0.073967    0.021427
  P      1.568937   -0.079587    0.082214
  O      1.626267   -1.003132    1.224595
  C     -3.108398    0.741925   -0.243349
  H     -3.132955    1.140174   -1.259331
  H     -3.207312    1.579091    0.450472
  C     -1.872131   -0.633306    1.446734
  H     -1.971532    0.161574    2.188207
  H     -0.971061   -1.200363    1.681642
  H     -2.732568   -1.298829    1.560213
  H     -3.989124    0.106130   -0.116793
  C     -1.751250   -1.224879   -0.983879
  H     -2.643166   -1.852369   -0.903236
  H     -0.884026   -1.859209   -0.799543
  H     -1.691509   -0.865990   -2.013001
  Si    -0.358238    1.074864   -0.172491
  O      2.759967    1.000777    0.121635
  H      3.174270    1.027027    0.992691
  O      1.759715   -0.752254   -1.354314
  H      2.435203   -1.442912   -1.370691
  H     -0.327227    2.104138    0.889935
  H     -0.320901    1.725473   -1.499825

 Multiplicity           Mult            ....    1
 Number of Electrons    NEL             ....   90
 Basis Dimension        Dim             .... 1326

ORBITAL ENERGIES
----------------

  NO   OCC          E(Eh)            E(eV)
   0   2.0000     -80.056708     -2178.4538
   1   2.0000     -68.778233     -1871.5509
   2   2.0000     -20.596985      -560.4724
   3   2.0000     -20.593510      -560.3779
   4   2.0000     -20.502488      -557.9011
   5   2.0000     -11.230896      -305.6082
   6   2.0000     -11.222989      -305.3931
   7   2.0000     -11.218843      -305.2802
   8   2.0000     -11.212525      -305.1083
   9   2.0000      -7.580707      -206.2815
  10   2.0000      -6.129521      -166.7927
  11   2.0000      -5.478576      -149.0796
  12   2.0000      -5.477828      -149.0593
  13   2.0000      -5.476800      -149.0313
  14   2.0000      -4.235877      -115.2641
  15   2.0000      -4.235471      -115.2530
  16   2.0000      -4.234777      -115.2341
  17   2.0000      -1.429734       -38.9050
  18   2.0000      -1.379361       -37.5343
  19   2.0000      -1.292667       -35.1753
  20   2.0000      -1.093868       -29.7657
  21   2.0000      -0.940479       -25.5917
  22   2.0000      -0.935562       -25.4579
  23   2.0000      -0.861041       -23.4301
  24   2.0000      -0.782885       -21.3034
  25   2.0000      -0.740802       -20.1582
  26   2.0000      -0.706723       -19.2309
  27   2.0000      -0.668263       -18.1844
  28   2.0000      -0.639035       -17.3890
  29   2.0000      -0.617773       -16.8105
  30   2.0000      -0.608062       -16.5462
  31   2.0000      -0.605876       -16.4867
  32   2.0000      -0.592704       -16.1283
  33   2.0000      -0.557400       -15.1676
  34   2.0000      -0.554066       -15.0769
  35   2.0000      -0.546924       -14.8826
  36   2.0000      -0.540997       -14.7213
  37   2.0000      -0.520358       -14.1597
  38   2.0000      -0.498018       -13.5518
  39   2.0000      -0.490988       -13.3605
  40   2.0000      -0.475765       -12.9462
  41   2.0000      -0.471245       -12.8232
  42   2.0000      -0.461524       -12.5587
  43   2.0000      -0.425789       -11.5863
  44   2.0000      -0.402219       -10.9449
  45   0.0000       0.021871         0.5951
  46   0.0000       0.029638         0.8065
  47   0.0000       0.030321         0.8251
  48   0.0000       0.035193         0.9576
  49   0.0000       0.040797         1.1101

MULLIKEN ATOMIC CHARGES
-----------------------
   0 C :    1.207013
   1 P :    2.419329
   2 O :   -1.299701
   3 C :   -1.152315
   4 H :    0.229645
   5 H :    0.235189
   6 C :   -1.209093
   7 H :    0.236695
   8 H :    0.274013
   9 H :    0.286294
  10 H :    0.256555
  11 C :   -1.196986
  12 H :    0.314491
  13 H :    0.236558
  14 H :    0.234741
  15 Si:    1.144767
  16 O :   -1.109284
  17 H :    0.374529
  18 O :   -0.986804
  19 H :    0.385140
  20 H :   -0.465882
  21 H :   -0.414894
Sum of atomic charges:   -0.0000000

LOEWDIN ATOMIC CHARGES
----------------------
   0 C :   -0.326372
   1 P :   -0.631459
   2 O :    0.274064
   3 C :    0.842564
   4 H :   -0.280141
   5 H :   -0.278582
   6 C :    0.844515
   7 H :   -0.278075
   8 H :   -0.314698
   9 H :   -0.268386
  10 H :   -0.271185
  11 C :    0.845376
  12 H :   -0.268605
  13 H :   -0.293579
  14 H :   -0.274680
  15 Si:    0.721008
  16 O :    1.054095
  17 H :   -0.889947
  18 O :    1.054286
  19 H :   -0.851031
  20 H :   -0.205792
  21 H :   -0.203377

  Mayer bond orders larger than 0.100000
B(  0-C ,  2-O ) :  -0.1434 B(  0-C ,  3-C ) :   0.3269 B(  0-C ,  4-H ) :  -0.1425
B(  0-C ,  5-H ) :  -0.1413 B(  0-C ,  6-C ) :   0.4165 B(  0-C ,  8-H ) :  -0.1170
B(  0-C , 10-H ) :  -0.1257 B(  0-C , 11-C ) :   0.4242 B(  0-C , 13-H ) :  -0.1459
B(  0-C , 15-Si) :   0.7163 B(  1-P ,  2-O ) :   1.2071 B(  1-P , 15-Si) :   0.9257
B(  1-P , 16-O ) :   0.3294 B(  1-P , 18-O ) :   0.5339 B(  3-C ,  4-H ) :   1.0605
B(  3-C ,  5-H ) :   1.0522 B(  3-C ,  6-C ) :   0.1304 B(  3-C , 10-H ) :   1.0071
B(  3-C , 11-C ) :   0.1439 B(  3-C , 15-Si) :   0.1018 B(  6-C ,  7-H ) :   1.0428
B(  6-C ,  8-H ) :   0.9949 B(  6-C ,  9-H ) :   0.9701 B(  6-C , 11-C ) :   0.1284
B( 11-C , 12-H ) :   0.9474 B( 11-C , 13-H ) :   1.0498 B( 11-C , 14-H ) :   1.0424
B( 15-Si, 20-H ) :   0.5991 B( 15-Si, 21-H ) :   0.6533 B( 16-O , 17-H ) :   0.9339
B( 18-O , 19-H ) :   0.9168

MP2 TOTAL ENERGY:    -1015.470155405 Eh
FINAL SINGLE POINT ENERGY     -1015.470155404879

DIPOLE MOMENT
-------------
                                X             Y             Z
Electronic contribution:     17.50534       1.03465      -0.13819
Nuclear contribution   :    -17.72363      -0.68072      -0.26852
                        -----------------------------------------
Total Dipole Moment    :     -0.21830       0.35393      -0.40671
                        -----------------------------------------
Magnitude (a.u.)       :      0.58166
Magnitude (Debye)      :      1.47846

Rotational constants in cm-1:     0.069027     0.023475     0.023019
Rotational constants in MHz :  2069.388892   703.754087   690.088204

                             ****ORCA TERMINATED NORMALLY****
TOTAL RUN TIME: 0 days 7 hours 2 minutes 43 seconds 674 msec
