                         Program Version 5.0.4 -  RELEASE  -
|  1> ! ri-mp2 aug-cc-pvdz aug-cc-pvdz/c tightscf
|  2> %pal nprocs 16 end
|  3> %maxcore 3800
|  4> %base "DZ_Si-F_4_AB"
|  5> %scf
|  6> STABPerform true
|  7> STABRestartUHFifUnstable true
|  8> end
|  9>
| 10> *xyz 0 1
| 11> Si        -0.035150   -0.000002    0.000001
| 12> C         1.789640    0.000008   -0.000051
| 13> F        -0.620937    0.134354   -1.458963
| 14> F        -0.620849    1.196348    0.845862
| 15> F        -0.620843   -1.330708    0.613153
| 16> H         2.172629    0.926799   -0.427000
| 17> H         2.172629   -0.833130   -0.589211
| 18> H         2.172661   -0.093643    1.016036
| 19> *
| 20>
| 21> $new_job
| 22> ! ri-mp2 aug-cc-pvtz aug-cc-pvtz/c tightscf
| 23> %pal nprocs 16 end
| 24> %maxcore 3800
| 25> %base "TZ_Si-F_4_AB"
| 26>
| 27> *xyz 0 1
| 28> Si        -0.035150   -0.000002    0.000001
| 29> C         1.789640    0.000008   -0.000051
| 30> F        -0.620937    0.134354   -1.458963
| 31> F        -0.620849    1.196348    0.845862
| 32> F        -0.620843   -1.330708    0.613153
| 33> H         2.172629    0.926799   -0.427000
| 34> H         2.172629   -0.833130   -0.589211
| 35> H         2.172661   -0.093643    1.016036
| 36> *
| 37>
| 38> $new_job
| 39> ! ri-mp2 aug-cc-pvqz aug-cc-pvqz/c tightscf
| 40> %pal nprocs 16 end
| 41> %maxcore 3800
| 42> %base "QZ_Si-F_4_AB"
| 43>
| 44> *xyz 0 1
| 45> Si        -0.035150   -0.000002    0.000001
| 46> C         1.789640    0.000008   -0.000051
| 47> F        -0.620937    0.134354   -1.458963
| 48> F        -0.620849    1.196348    0.845862
| 49> F        -0.620843   -1.330708    0.613153
| 50> H         2.172629    0.926799   -0.427000
| 51> H         2.172629   -0.833130   -0.589211
| 52> H         2.172661   -0.093643    1.016036
| 53> *
| 54>
| 55>
| 56>
| 57>
| 58>                          ****END OF INPUT****
 Total Charge           Charge          ....    0
 Multiplicity           Mult            ....    1
 Number of Electrons    NEL             ....   50
MP2 TOTAL ENERGY:     -627.975189579 Eh
FINAL SINGLE POINT ENERGY      -627.975189578639
MP2 TOTAL ENERGY:     -628.320916770 Eh
FINAL SINGLE POINT ENERGY      -628.320916770200

CARTESIAN COORDINATES (ANGSTROEM)
---------------------------------
  Si    -0.035150   -0.000002    0.000001
  C      1.789640    0.000008   -0.000051
  F     -0.620937    0.134354   -1.458963
  F     -0.620849    1.196348    0.845862
  F     -0.620843   -1.330708    0.613153
  H      2.172629    0.926799   -0.427000
  H      2.172629   -0.833130   -0.589211
  H      2.172661   -0.093643    1.016036

 Multiplicity           Mult            ....    1
 Number of Electrons    NEL             ....   50
 Basis Dimension        Dim             ....  542

ORBITAL ENERGIES
----------------

  NO   OCC          E(Eh)            E(eV)
   0   2.0000     -68.874333     -1874.1659
   1   2.0000     -26.305462      -715.8080
   2   2.0000     -26.305461      -715.8080
   3   2.0000     -26.305447      -715.8076
   4   2.0000     -11.235218      -305.7258
   5   2.0000      -6.210586      -168.9986
   6   2.0000      -4.319354      -117.5356
   7   2.0000      -4.319354      -117.5356
   8   2.0000      -4.317656      -117.4894
   9   2.0000      -1.631385       -44.3922
  10   2.0000      -1.602775       -43.6137
  11   2.0000      -1.602774       -43.6137
  12   2.0000      -0.986517       -26.8445
  13   2.0000      -0.812726       -22.1154
  14   2.0000      -0.743238       -20.2245
  15   2.0000      -0.743237       -20.2245
  16   2.0000      -0.714249       -19.4357
  17   2.0000      -0.692077       -18.8324
  18   2.0000      -0.692076       -18.8324
  19   2.0000      -0.666143       -18.1267
  20   2.0000      -0.666142       -18.1266
  21   2.0000      -0.648198       -17.6384
  22   2.0000      -0.585488       -15.9319
  23   2.0000      -0.585488       -15.9319
  24   2.0000      -0.521236       -14.1836
  25   0.0000       0.022027         0.5994
  26   0.0000       0.037121         1.0101
  27   0.0000       0.037121         1.0101
  28   0.0000       0.041819         1.1379
  29   0.0000       0.060142         1.6365

MULLIKEN ATOMIC CHARGES
-----------------------
   0 Si:    2.378371
   1 C :   -0.969091
   2 F :   -0.709525
   3 F :   -0.709524
   4 F :   -0.709523
   5 H :    0.239765
   6 H :    0.239764
   7 H :    0.239762
Sum of atomic charges:    0.0000000

LOEWDIN ATOMIC CHARGES
----------------------
   0 Si:   -1.241402
   1 C :    0.953076
   2 F :    0.451686
   3 F :    0.451686
   4 F :    0.451688
   5 H :   -0.355578
   6 H :   -0.355578
   7 H :   -0.355579

  Mayer bond orders larger than 0.100000
B(  0-Si,  1-C ) :   0.9189 B(  0-Si,  2-F ) :   0.4733 B(  0-Si,  3-F ) :   0.4733
B(  0-Si,  4-F ) :   0.4733 B(  1-C ,  5-H ) :   0.9548 B(  1-C ,  6-H ) :   0.9548
B(  1-C ,  7-H ) :   0.9548

MP2 TOTAL ENERGY:     -628.434344964 Eh
FINAL SINGLE POINT ENERGY      -628.434344963838

DIPOLE MOMENT
-------------
                                X             Y             Z
Electronic contribution:     -6.85156      -0.00004       0.00019
Nuclear contribution   :      7.84092       0.00003      -0.00021
                        -----------------------------------------
Total Dipole Moment    :      0.98936      -0.00001      -0.00002
                        -----------------------------------------
Magnitude (a.u.)       :      0.98936
Magnitude (Debye)      :      2.51476

Rotational constants in cm-1:     0.134326     0.123222     0.123221
Rotational constants in MHz :  4027.005717  3694.100278  3694.063687

                             ****ORCA TERMINATED NORMALLY****
TOTAL RUN TIME: 0 days 0 hours 13 minutes 28 seconds 956 msec
