                         Program Version 5.0.4 -  RELEASE  -
|  1> ! ri-mp2 aug-cc-pvdz aug-cc-pvdz/c tightscf
|  2> %pal nprocs 16 end
|  3> %maxcore 3800
|  4> %base "DZ_B-Si_20_AB"
|  5> %scf
|  6> STABPerform true
|  7> STABRestartUHFifUnstable true
|  8> end
|  9>
| 10> *xyz 0 1
| 11> Si        -0.327071   -0.118407    0.296254
| 12> B         1.665724   -0.008836   -0.024562
| 13> O         2.244617    1.069288   -0.611577
| 14> O         2.438927   -1.050244    0.363751
| 15> C        -0.892281   -0.617529    1.983057
| 16> H        -0.513746   -1.612876    2.218760
| 17> H        -1.980505   -0.636608    2.036695
| 18> H        -0.518103    0.081489    2.731905
| 19> Cl        -1.057495    1.786441   -0.109310
| 20> Cl        -1.169445   -1.399577   -1.081865
| 21> H         3.375130   -0.928659    0.162744
| 22> H         1.630908    1.774667   -0.840618
| 23> *
| 24>
| 25> $new_job
| 26> ! ri-mp2 aug-cc-pvtz aug-cc-pvtz/c tightscf
| 27> %pal nprocs 16 end
| 28> %maxcore 3800
| 29> %base "TZ_B-Si_20_AB"
| 30>
| 31> *xyz 0 1
| 32> Si        -0.327071   -0.118407    0.296254
| 33> B         1.665724   -0.008836   -0.024562
| 34> O         2.244617    1.069288   -0.611577
| 35> O         2.438927   -1.050244    0.363751
| 36> C        -0.892281   -0.617529    1.983057
| 37> H        -0.513746   -1.612876    2.218760
| 38> H        -1.980505   -0.636608    2.036695
| 39> H        -0.518103    0.081489    2.731905
| 40> Cl        -1.057495    1.786441   -0.109310
| 41> Cl        -1.169445   -1.399577   -1.081865
| 42> H         3.375130   -0.928659    0.162744
| 43> H         1.630908    1.774667   -0.840618
| 44> *
| 45>
| 46> $new_job
| 47> ! ri-mp2 aug-cc-pvqz aug-cc-pvqz/c tightscf
| 48> %pal nprocs 16 end
| 49> %maxcore 3800
| 50> %base "QZ_B-Si_20_AB"
| 51>
| 52> *xyz 0 1
| 53> Si        -0.327071   -0.118407    0.296254
| 54> B         1.665724   -0.008836   -0.024562
| 55> O         2.244617    1.069288   -0.611577
| 56> O         2.438927   -1.050244    0.363751
| 57> C        -0.892281   -0.617529    1.983057
| 58> H        -0.513746   -1.612876    2.218760
| 59> H        -1.980505   -0.636608    2.036695
| 60> H        -0.518103    0.081489    2.731905
| 61> Cl        -1.057495    1.786441   -0.109310
| 62> Cl        -1.169445   -1.399577   -1.081865
| 63> H         3.375130   -0.928659    0.162744
| 64> H         1.630908    1.774667   -0.840618
| 65> *
| 66>
| 67>
| 68>
| 69>
| 70>                          ****END OF INPUT****
 Total Charge           Charge          ....    0
 Multiplicity           Mult            ....    1
 Number of Electrons    NEL             ....   80
MP2 TOTAL ENERGY:    -1424.419861370 Eh
FINAL SINGLE POINT ENERGY     -1424.419861370474
MP2 TOTAL ENERGY:    -1424.772864127 Eh
FINAL SINGLE POINT ENERGY     -1424.772864127266

CARTESIAN COORDINATES (ANGSTROEM)
---------------------------------
  Si    -0.327071   -0.118407    0.296254
  B      1.665724   -0.008836   -0.024562
  O      2.244617    1.069288   -0.611577
  O      2.438927   -1.050244    0.363751
  C     -0.892281   -0.617529    1.983057
  H     -0.513746   -1.612876    2.218760
  H     -1.980505   -0.636608    2.036695
  H     -0.518103    0.081489    2.731905
  Cl    -1.057495    1.786441   -0.109310
  Cl    -1.169445   -1.399577   -1.081865
  H      3.375130   -0.928659    0.162744
  H      1.630908    1.774667   -0.840618

 Multiplicity           Mult            ....    1
 Number of Electrons    NEL             ....   80
 Basis Dimension        Dim             ....  802

ORBITAL ENERGIES
----------------

  NO   OCC          E(Eh)            E(eV)
   0   2.0000    -104.831557     -2852.6117
   1   2.0000    -104.828113     -2852.5180
   2   2.0000     -68.838539     -1873.1919
   3   2.0000     -20.585531      -560.1608
   4   2.0000     -20.582420      -560.0761
   5   2.0000     -11.223117      -305.3965
   6   2.0000     -10.559163      -287.3294
   7   2.0000     -10.555661      -287.2341
   8   2.0000      -8.025903      -218.3959
   9   2.0000      -8.024887      -218.3683
  10   2.0000      -8.024870      -218.3678
  11   2.0000      -8.022425      -218.3013
  12   2.0000      -8.021335      -218.2716
  13   2.0000      -8.021303      -218.2708
  14   2.0000      -7.655102      -208.3059
  15   2.0000      -6.181387      -168.2041
  16   2.0000      -4.288495      -116.6959
  17   2.0000      -4.287595      -116.6714
  18   2.0000      -4.286263      -116.6351
  19   2.0000      -1.402715       -38.1698
  20   2.0000      -1.363430       -37.1008
  21   2.0000      -1.115081       -30.3429
  22   2.0000      -1.086223       -29.5576
  23   2.0000      -0.966704       -26.3054
  24   2.0000      -0.791679       -21.5427
  25   2.0000      -0.755688       -20.5633
  26   2.0000      -0.690088       -18.7782
  27   2.0000      -0.625169       -17.0117
  28   2.0000      -0.593198       -16.1417
  29   2.0000      -0.586884       -15.9699
  30   2.0000      -0.582326       -15.8459
  31   2.0000      -0.580343       -15.7919
  32   2.0000      -0.531899       -14.4737
  33   2.0000      -0.527372       -14.3505
  34   2.0000      -0.518693       -14.1144
  35   2.0000      -0.505902       -13.7663
  36   2.0000      -0.472411       -12.8550
  37   2.0000      -0.463926       -12.6241
  38   2.0000      -0.455249       -12.3880
  39   2.0000      -0.414417       -11.2769
  40   0.0000       0.021288         0.5793
  41   0.0000       0.030324         0.8252
  42   0.0000       0.036558         0.9948
  43   0.0000       0.037459         1.0193
  44   0.0000       0.048943         1.3318

MULLIKEN ATOMIC CHARGES
-----------------------
   0 Si:    1.803479
   1 B :    1.246456
   2 O :   -1.115130
   3 O :   -0.994573
   4 C :   -1.037410
   5 H :    0.256029
   6 H :    0.264628
   7 H :    0.255952
   8 Cl:   -0.694081
   9 Cl:   -0.701112
  10 H :    0.335638
  11 H :    0.380126
Sum of atomic charges:   -0.0000000

LOEWDIN ATOMIC CHARGES
----------------------
   0 Si:   -1.253356
   1 B :   -1.304870
   2 O :    1.305863
   3 O :    1.282721
   4 C :    0.842069
   5 H :   -0.358325
   6 H :   -0.369505
   7 H :   -0.359766
   8 Cl:    0.946972
   9 Cl:    0.937427
  10 H :   -0.794588
  11 H :   -0.874641

  Mayer bond orders larger than 0.100000
B(  0-Si,  1-B ) :   0.9280 B(  0-Si,  4-C ) :   0.8550 B(  0-Si,  8-Cl) :   0.3271
B(  0-Si,  9-Cl) :   0.2690 B(  1-B ,  2-O ) :   0.4684 B(  1-B ,  3-O ) :   0.4258
B(  2-O , 11-H ) :   0.9040 B(  3-O , 10-H ) :   0.9451 B(  4-C ,  5-H ) :   0.9436
B(  4-C ,  6-H ) :   0.9421 B(  4-C ,  7-H ) :   0.9501

MP2 TOTAL ENERGY:    -1424.889425867 Eh
FINAL SINGLE POINT ENERGY     -1424.889425867306

DIPOLE MOMENT
-------------
                                X             Y             Z
Electronic contribution:     -3.21053       1.91022      -7.03388
Nuclear contribution   :      3.71816      -1.76004       7.57755
                        -----------------------------------------
Total Dipole Moment    :      0.50763       0.15017       0.54367
                        -----------------------------------------
Magnitude (a.u.)       :      0.75883
Magnitude (Debye)      :      1.92878

Rotational constants in cm-1:     0.048600     0.038210     0.030287
Rotational constants in MHz :  1456.987090  1145.496870   907.989135

                             ****ORCA TERMINATED NORMALLY****
TOTAL RUN TIME: 0 days 1 hours 18 minutes 55 seconds 849 msec
