                         Program Version 5.0.4 -  RELEASE  -
|  1> ! ri-mp2 aug-cc-pvdz aug-cc-pvdz/c tightscf
|  2> %pal nprocs 16 end
|  3> %maxcore 3800
|  4> %base "DZ_P-C_50_AB"
|  5> %scf
|  6> STABPerform true
|  7> STABRestartUHFifUnstable true
|  8> end
|  9>
| 10> *xyz 0 1
| 11> C         1.431147    0.467342   -0.014165
| 12> P        -0.067298   -0.600563   -0.092839
| 13> H         2.309151   -0.164170    0.134618
| 14> H         1.389088    1.197739    0.794738
| 15> N        -1.368130    0.473668    0.052352
| 16> H         1.552577    0.994963   -0.960101
| 17> H        -1.922895    0.628393   -0.770680
| 18> H        -1.332881    1.275001    0.662037
| 19> H         0.004465   -1.043210    1.250499
| 20> *
| 21>
| 22> $new_job
| 23> ! ri-mp2 aug-cc-pvtz aug-cc-pvtz/c tightscf
| 24> %pal nprocs 16 end
| 25> %maxcore 3800
| 26> %base "TZ_P-C_50_AB"
| 27>
| 28> *xyz 0 1
| 29> C         1.431147    0.467342   -0.014165
| 30> P        -0.067298   -0.600563   -0.092839
| 31> H         2.309151   -0.164170    0.134618
| 32> H         1.389088    1.197739    0.794738
| 33> N        -1.368130    0.473668    0.052352
| 34> H         1.552577    0.994963   -0.960101
| 35> H        -1.922895    0.628393   -0.770680
| 36> H        -1.332881    1.275001    0.662037
| 37> H         0.004465   -1.043210    1.250499
| 38> *
| 39>
| 40> $new_job
| 41> ! ri-mp2 aug-cc-pvqz aug-cc-pvqz/c tightscf
| 42> %pal nprocs 16 end
| 43> %maxcore 3800
| 44> %base "QZ_P-C_50_AB"
| 45>
| 46> *xyz 0 1
| 47> C         1.431147    0.467342   -0.014165
| 48> P        -0.067298   -0.600563   -0.092839
| 49> H         2.309151   -0.164170    0.134618
| 50> H         1.389088    1.197739    0.794738
| 51> N        -1.368130    0.473668    0.052352
| 52> H         1.552577    0.994963   -0.960101
| 53> H        -1.922895    0.628393   -0.770680
| 54> H        -1.332881    1.275001    0.662037
| 55> H         0.004465   -1.043210    1.250499
| 56> *
| 57>
| 58>
| 59>
| 60>
| 61>                          ****END OF INPUT****
 Total Charge           Charge          ....    0
 Multiplicity           Mult            ....    1
 Number of Electrons    NEL             ....   34
MP2 TOTAL ENERGY:     -437.028615784 Eh
FINAL SINGLE POINT ENERGY      -437.028615784459
MP2 TOTAL ENERGY:     -437.171688640 Eh
FINAL SINGLE POINT ENERGY      -437.171688639657

CARTESIAN COORDINATES (ANGSTROEM)
---------------------------------
  C      1.431147    0.467342   -0.014165
  P     -0.067298   -0.600563   -0.092839
  H      2.309151   -0.164170    0.134618
  H      1.389088    1.197739    0.794738
  N     -1.368130    0.473668    0.052352
  H      1.552577    0.994963   -0.960101
  H     -1.922895    0.628393   -0.770680
  H     -1.332881    1.275001    0.662037
  H      0.004465   -1.043210    1.250499

 Multiplicity           Mult            ....    1
 Number of Electrons    NEL             ....   34
 Basis Dimension        Dim             ....  520

ORBITAL ENERGIES
----------------

  NO   OCC          E(Eh)            E(eV)
   0   2.0000     -79.947567     -2175.4839
   1   2.0000     -15.545188      -423.0061
   2   2.0000     -11.216832      -305.2255
   3   2.0000      -7.485709      -203.6965
   4   2.0000      -5.380100      -146.4000
   5   2.0000      -5.379675      -146.3884
   6   2.0000      -5.378990      -146.3698
   7   2.0000      -1.159434       -31.5498
   8   2.0000      -0.967704       -26.3326
   9   2.0000      -0.778320       -21.1792
  10   2.0000      -0.672804       -18.3079
  11   2.0000      -0.590273       -16.0622
  12   2.0000      -0.570949       -15.5363
  13   2.0000      -0.543838       -14.7986
  14   2.0000      -0.505107       -13.7447
  15   2.0000      -0.396530       -10.7901
  16   2.0000      -0.347753        -9.4629
  17   0.0000       0.024721         0.6727
  18   0.0000       0.034551         0.9402
  19   0.0000       0.038647         1.0516
  20   0.0000       0.041398         1.1265
  21   0.0000       0.056589         1.5399

MULLIKEN ATOMIC CHARGES
-----------------------
   0 C :   -0.988159
   1 P :    0.644483
   2 H :    0.291353
   3 H :    0.256851
   4 N :   -0.894746
   5 H :    0.261406
   6 H :    0.252402
   7 H :    0.269092
   8 H :   -0.092681
Sum of atomic charges:    0.0000000

LOEWDIN ATOMIC CHARGES
----------------------
   0 C :    0.726372
   1 P :    1.059344
   2 H :   -0.380590
   3 H :   -0.364463
   4 N :    0.988288
   5 H :   -0.378776
   6 H :   -0.622737
   7 H :   -0.591611
   8 H :   -0.435827

  Mayer bond orders larger than 0.100000
B(  0-C ,  1-P ) :   0.8676 B(  0-C ,  2-H ) :   0.9099 B(  0-C ,  3-H ) :   0.9290
B(  0-C ,  5-H ) :   0.9328 B(  1-P ,  4-N ) :   0.8114 B(  1-P ,  8-H ) :   0.9458
B(  4-N ,  6-H ) :   0.9862 B(  4-N ,  7-H ) :   0.9446

MP2 TOTAL ENERGY:     -437.215596545 Eh
FINAL SINGLE POINT ENERGY      -437.215596545354

DIPOLE MOMENT
-------------
                                X             Y             Z
Electronic contribution:     -1.97082      -2.78915      -1.10458
Nuclear contribution   :      2.08212       3.50820       1.21534
                        -----------------------------------------
Total Dipole Moment    :      0.11130       0.71905       0.11076
                        -----------------------------------------
Magnitude (a.u.)       :      0.73600
Magnitude (Debye)      :      1.87076

Rotational constants in cm-1:     0.628188     0.238791     0.190331
Rotational constants in MHz : 18832.615338  7158.769668  5705.972878

                             ****ORCA TERMINATED NORMALLY****
TOTAL RUN TIME: 0 days 0 hours 9 minutes 13 seconds 784 msec
