                         Program Version 5.0.4 -  RELEASE  -
|  1> ! ri-mp2 aug-cc-pvdz aug-cc-pvdz/c tightscf
|  2> %pal nprocs 16 end
|  3> %maxcore 3800
|  4> %base "DZ_B-Cl_80_A"
|  5> %scf
|  6> STABPerform true
|  7> STABRestartUHFifUnstable true
|  8> end
|  9>
| 10> *xyz 0 2
| 11> Cl        -2.095561    0.007488    0.021469
| 12> F         1.154320   -1.053946   -0.729285
| 13> F         0.799565    1.085632   -0.713231
| 14> F         1.795669    0.151961    0.953175
| 15> C         0.813515   -0.014267    0.058340
| 16> B        -0.600508   -0.338905    0.737809
| 17> *
| 18>
| 19> $new_job
| 20> ! ri-mp2 aug-cc-pvtz aug-cc-pvtz/c tightscf
| 21> %pal nprocs 16 end
| 22> %maxcore 3800
| 23> %base "TZ_B-Cl_80_A"
| 24>
| 25> *xyz 0 2
| 26> Cl        -2.095561    0.007488    0.021469
| 27> F         1.154320   -1.053946   -0.729285
| 28> F         0.799565    1.085632   -0.713231
| 29> F         1.795669    0.151961    0.953175
| 30> C         0.813515   -0.014267    0.058340
| 31> B        -0.600508   -0.338905    0.737809
| 32> *
| 33>
| 34> $new_job
| 35> ! ri-mp2 aug-cc-pvqz aug-cc-pvqz/c tightscf
| 36> %pal nprocs 16 end
| 37> %maxcore 3800
| 38> %base "QZ_B-Cl_80_A"
| 39>
| 40> *xyz 0 2
| 41> Cl        -2.095561    0.007488    0.021469
| 42> F         1.154320   -1.053946   -0.729285
| 43> F         0.799565    1.085632   -0.713231
| 44> F         1.795669    0.151961    0.953175
| 45> C         0.813515   -0.014267    0.058340
| 46> B        -0.600508   -0.338905    0.737809
| 47> *
| 48>
| 49>
| 50>
| 51>
| 52>                          ****END OF INPUT****
 Total Charge           Charge          ....    0
 Multiplicity           Mult            ....    2
 Number of Electrons    NEL             ....   55
MP2 TOTAL ENERGY:     -821.334062223 Eh
FINAL SINGLE POINT ENERGY      -821.334062222701
MP2 TOTAL ENERGY:     -821.690298512 Eh
FINAL SINGLE POINT ENERGY      -821.690298512380

CARTESIAN COORDINATES (ANGSTROEM)
---------------------------------
  Cl    -2.095561    0.007488    0.021469
  F      1.154320   -1.053946   -0.729285
  F      0.799565    1.085632   -0.713231
  F      1.795669    0.151961    0.953175
  C      0.813515   -0.014267    0.058340
  B     -0.600508   -0.338905    0.737809

 Multiplicity           Mult            ....    2
 Number of Electrons    NEL             ....   55
 Basis Dimension        Dim             ....  484

ORBITAL ENERGIES
----------------
                 SPIN UP ORBITALS
  NO   OCC          E(Eh)            E(eV)
   0   1.0000    -104.881450     -2853.9693
   1   1.0000     -26.344777      -716.8778
   2   1.0000     -26.342004      -716.8024
   3   1.0000     -26.341834      -716.7977
   4   1.0000     -11.502319      -312.9940
   5   1.0000     -10.609033      -288.6865
   6   1.0000      -8.076727      -219.7789
   7   1.0000      -8.074588      -219.7207
   8   1.0000      -8.074105      -219.7076
   9   1.0000      -7.727083      -210.2646
  10   1.0000      -1.734154       -47.1887
  11   1.0000      -1.640506       -44.6404
  12   1.0000      -1.639016       -44.5999
  13   1.0000      -1.168564       -31.7982
  14   1.0000      -0.992102       -26.9965
  15   1.0000      -0.854410       -23.2497
  16   1.0000      -0.827137       -22.5075
  17   1.0000      -0.826714       -22.4960
  18   1.0000      -0.718057       -19.5393
  19   1.0000      -0.716077       -19.4854
  20   1.0000      -0.685229       -18.6460
  21   1.0000      -0.671332       -18.2679
  22   1.0000      -0.670964       -18.2579
  23   1.0000      -0.655488       -17.8367
  24   1.0000      -0.579478       -15.7684
  25   1.0000      -0.542557       -14.7637
  26   1.0000      -0.526165       -14.3177
  27   1.0000      -0.390170       -10.6171
  28   0.0000       0.023478         0.6389
  29   0.0000       0.032132         0.8744
  30   0.0000       0.037130         1.0104
  31   0.0000       0.041696         1.1346
  32   0.0000       0.043718         1.1896

                 SPIN DOWN ORBITALS
  NO   OCC          E(Eh)            E(eV)
   0   1.0000    -104.880777     -2853.9510
   1   1.0000     -26.344763      -716.8774
   2   1.0000     -26.342124      -716.8056
   3   1.0000     -26.340856      -716.7711
   4   1.0000     -11.500527      -312.9452
   5   1.0000     -10.608247      -288.6651
   6   1.0000      -8.075299      -219.7401
   7   1.0000      -8.074667      -219.7229
   8   1.0000      -8.072154      -219.6545
   9   1.0000      -7.705512      -209.6777
  10   1.0000      -1.733053       -47.1588
  11   1.0000      -1.640435       -44.6385
  12   1.0000      -1.637219       -44.5510
  13   1.0000      -1.160217       -31.5711
  14   1.0000      -0.985038       -26.8042
  15   1.0000      -0.844253       -22.9733
  16   1.0000      -0.826119       -22.4798
  17   1.0000      -0.824132       -22.4258
  18   1.0000      -0.716681       -19.5019
  19   1.0000      -0.713921       -19.4268
  20   1.0000      -0.671377       -18.2691
  21   1.0000      -0.670528       -18.2460
  22   1.0000      -0.657480       -17.8909
  23   1.0000      -0.654894       -17.8206
  24   1.0000      -0.563855       -15.3433
  25   1.0000      -0.527598       -14.3567
  26   1.0000      -0.508549       -13.8383
  27   0.0000       0.021362         0.5813
  28   0.0000       0.033902         0.9225
  29   0.0000       0.037098         1.0095
  30   0.0000       0.040701         1.1075
  31   0.0000       0.062339         1.6963

MULLIKEN ATOMIC CHARGES AND SPIN POPULATIONS
--------------------------------------------
   0 Cl:   -0.146850    0.015398
   1 F :   -0.569618    0.001030
   2 F :   -0.585647    0.013322
   3 F :   -0.566429   -0.012849
   4 C :    1.531439   -0.002265
   5 B :    0.337105    0.985363
Sum of atomic charges         :    0.0000000

LOEWDIN ATOMIC CHARGES AND SPIN POPULATIONS
-------------------------------------------
   0 Cl:    1.245185    0.171729
   1 F :    0.709466    0.012190
   2 F :    0.702212    0.023265
   3 F :    0.708141    0.012790
   4 C :   -2.191717    0.172806
   5 B :   -1.173287    0.607218

  Mayer bond orders larger than 0.100000
B(  0-Cl,  5-B ) :   1.2560 B(  1-F ,  4-C ) :   0.5863 B(  2-F ,  4-C ) :   0.5694
B(  3-F ,  4-C ) :   0.6049 B(  4-C ,  5-B ) :   0.8802

MP2 TOTAL ENERGY:     -821.809342583 Eh
FINAL SINGLE POINT ENERGY      -821.809342582551

DIPOLE MOMENT
-------------
                                X             Y             Z
Electronic contribution:     -0.42969      -0.13515       0.37381
Nuclear contribution   :     -0.19814       0.07259      -0.12723
                        -----------------------------------------
Total Dipole Moment    :     -0.62783      -0.06256       0.24658
                        -----------------------------------------
Magnitude (a.u.)       :      0.67741
Magnitude (Debye)      :      1.72184

Rotational constants in cm-1:     0.191240     0.054517     0.054129
Rotational constants in MHz :  5733.231254  1634.368180  1622.760847

                             ****ORCA TERMINATED NORMALLY****
TOTAL RUN TIME: 0 days 0 hours 22 minutes 17 seconds 35 msec
