                         Program Version 5.0.4 -  RELEASE  -
|  1> ! ri-mp2 aug-cc-pvdz aug-cc-pvdz/c tightscf
|  2> %pal nprocs 16 end
|  3> %maxcore 3800
|  4> %base "DZ_B-F_10_A"
|  5> %scf
|  6> STABPerform true
|  7> STABRestartUHFifUnstable true
|  8> end
|  9>
| 10> *xyz 0 2
| 11> F        -2.609166    0.077148    0.000030
| 12> B        -1.527225   -0.631732    0.000102
| 13> Si         0.389043   -0.018730   -0.000004
| 14> F         1.092898   -0.616384   -1.277369
| 15> F         0.666635    1.535334   -0.000242
| 16> F         1.092914   -0.616000    1.277531
| 17> *
| 18>
| 19> $new_job
| 20> ! ri-mp2 aug-cc-pvtz aug-cc-pvtz/c tightscf
| 21> %pal nprocs 16 end
| 22> %maxcore 3800
| 23> %base "TZ_B-F_10_A"
| 24>
| 25> *xyz 0 2
| 26> F        -2.609166    0.077148    0.000030
| 27> B        -1.527225   -0.631732    0.000102
| 28> Si         0.389043   -0.018730   -0.000004
| 29> F         1.092898   -0.616384   -1.277369
| 30> F         0.666635    1.535334   -0.000242
| 31> F         1.092914   -0.616000    1.277531
| 32> *
| 33>
| 34> $new_job
| 35> ! ri-mp2 aug-cc-pvqz aug-cc-pvqz/c tightscf
| 36> %pal nprocs 16 end
| 37> %maxcore 3800
| 38> %base "QZ_B-F_10_A"
| 39>
| 40> *xyz 0 2
| 41> F        -2.609166    0.077148    0.000030
| 42> B        -1.527225   -0.631732    0.000102
| 43> Si         0.389043   -0.018730   -0.000004
| 44> F         1.092898   -0.616384   -1.277369
| 45> F         0.666635    1.535334   -0.000242
| 46> F         1.092914   -0.616000    1.277531
| 47> *
| 48>
| 49>
| 50>
| 51>
| 52>                          ****END OF INPUT****
 Total Charge           Charge          ....    0
 Multiplicity           Mult            ....    2
 Number of Electrons    NEL             ....   55
MP2 TOTAL ENERGY:     -712.554540737 Eh
FINAL SINGLE POINT ENERGY      -712.554540737216
MP2 TOTAL ENERGY:     -712.961002224 Eh
FINAL SINGLE POINT ENERGY      -712.961002223948

CARTESIAN COORDINATES (ANGSTROEM)
---------------------------------
  F     -2.609166    0.077148    0.000030
  B     -1.527225   -0.631732    0.000102
  Si     0.389043   -0.018730   -0.000004
  F      1.092898   -0.616384   -1.277369
  F      0.666635    1.535334   -0.000242
  F      1.092914   -0.616000    1.277531

 Multiplicity           Mult            ....    2
 Number of Electrons    NEL             ....   55
 Basis Dimension        Dim             ....  484

ORBITAL ENERGIES
----------------
                 SPIN UP ORBITALS
  NO   OCC          E(Eh)            E(eV)
   0   1.0000     -68.893724     -1874.6935
   1   1.0000     -26.357107      -717.2133
   2   1.0000     -26.319000      -716.1764
   3   1.0000     -26.318992      -716.1762
   4   1.0000     -26.318471      -716.1620
   5   1.0000      -7.719477      -210.0576
   6   1.0000      -6.229490      -169.5130
   7   1.0000      -4.337981      -118.0425
   8   1.0000      -4.337505      -118.0295
   9   1.0000      -4.336530      -118.0030
  10   1.0000      -1.676280       -45.6139
  11   1.0000      -1.644556       -44.7506
  12   1.0000      -1.616474       -43.9865
  13   1.0000      -1.616022       -43.9742
  14   1.0000      -0.851469       -23.1697
  15   1.0000      -0.826933       -22.5020
  16   1.0000      -0.762095       -20.7377
  17   1.0000      -0.755948       -20.5704
  18   1.0000      -0.754968       -20.5437
  19   1.0000      -0.734160       -19.9775
  20   1.0000      -0.723585       -19.6897
  21   1.0000      -0.704927       -19.1820
  22   1.0000      -0.704072       -19.1588
  23   1.0000      -0.677554       -18.4372
  24   1.0000      -0.677307       -18.4305
  25   1.0000      -0.660761       -17.9802
  26   1.0000      -0.588263       -16.0075
  27   1.0000      -0.366473        -9.9722
  28   0.0000       0.019896         0.5414
  29   0.0000       0.029790         0.8106
  30   0.0000       0.037974         1.0333
  31   0.0000       0.040458         1.1009
  32   0.0000       0.052968         1.4413

                 SPIN DOWN ORBITALS
  NO   OCC          E(Eh)            E(eV)
   0   1.0000     -68.892551     -1874.6616
   1   1.0000     -26.353469      -717.1144
   2   1.0000     -26.319042      -716.1775
   3   1.0000     -26.319033      -716.1773
   4   1.0000     -26.317081      -716.1242
   5   1.0000      -7.701957      -209.5809
   6   1.0000      -6.227417      -169.4566
   7   1.0000      -4.336654      -118.0063
   8   1.0000      -4.336647      -118.0062
   9   1.0000      -4.333816      -117.9291
  10   1.0000      -1.666976       -45.3607
  11   1.0000      -1.643338       -44.7175
  12   1.0000      -1.616587       -43.9896
  13   1.0000      -1.613221       -43.8980
  14   1.0000      -0.839179       -22.8352
  15   1.0000      -0.820353       -22.3229
  16   1.0000      -0.755034       -20.5455
  17   1.0000      -0.753030       -20.4910
  18   1.0000      -0.738768       -20.1029
  19   1.0000      -0.723715       -19.6933
  20   1.0000      -0.716029       -19.4842
  21   1.0000      -0.704686       -19.1755
  22   1.0000      -0.701105       -19.0780
  23   1.0000      -0.677570       -18.4376
  24   1.0000      -0.675341       -18.3769
  25   1.0000      -0.660076       -17.9616
  26   1.0000      -0.541423       -14.7329
  27   0.0000       0.025341         0.6896
  28   0.0000       0.028291         0.7698
  29   0.0000       0.035654         0.9702
  30   0.0000       0.038761         1.0547
  31   0.0000       0.054561         1.4847

MULLIKEN ATOMIC CHARGES AND SPIN POPULATIONS
--------------------------------------------
   0 F :   -0.668729    0.000493
   1 B :    0.485948    0.898459
   2 Si:    2.192505    0.097664
   3 F :   -0.673616   -0.001135
   4 F :   -0.662494    0.005654
   5 F :   -0.673615   -0.001135
Sum of atomic charges         :    0.0000000

LOEWDIN ATOMIC CHARGES AND SPIN POPULATIONS
-------------------------------------------
   0 F :    0.654086    0.164662
   1 B :   -0.650353    0.607811
   2 Si:   -1.247887    0.188773
   3 F :    0.415308    0.005075
   4 F :    0.413537    0.028603
   5 F :    0.415309    0.005075

  Mayer bond orders larger than 0.100000
B(  0-F ,  1-B ) :   0.4330 B(  1-B ,  2-Si) :   0.9588 B(  2-Si,  3-F ) :   0.4807
B(  2-Si,  4-F ) :   0.4924 B(  2-Si,  5-F ) :   0.4807

MP2 TOTAL ENERGY:     -713.095745344 Eh
FINAL SINGLE POINT ENERGY      -713.095745343963

DIPOLE MOMENT
-------------
                                X             Y             Z
Electronic contribution:     -1.34822      -0.22495       0.00005
Nuclear contribution   :      0.86920       0.12120      -0.00003
                        -----------------------------------------
Total Dipole Moment    :     -0.47902      -0.10374       0.00002
                        -----------------------------------------
Magnitude (a.u.)       :      0.49013
Magnitude (Debye)      :      1.24581

Rotational constants in cm-1:     0.134162     0.061385     0.061020
Rotational constants in MHz :  4022.084194  1840.272874  1829.338822

                             ****ORCA TERMINATED NORMALLY****
TOTAL RUN TIME: 0 days 0 hours 19 minutes 31 seconds 248 msec
