                         Program Version 5.0.4 -  RELEASE  -
|  1> ! ri-mp2 aug-cc-pvdz aug-cc-pvdz/c tightscf
|  2> %pal nprocs 16 end
|  3> %maxcore 3800
|  4> %base "DZ_B-B_69_AB"
|  5> %scf
|  6> STABPerform true
|  7> STABRestartUHFifUnstable true
|  8> end
|  9>
| 10> *xyz 0 1
| 11> B         0.678009    1.436693    0.427590
| 12> B        -0.678008    1.436641   -0.427764
| 13> B        -1.956610    0.396709   -0.059235
| 14> O        -2.069921   -0.822870   -0.646896
| 15> C        -3.045265    0.767709    1.009686
| 16> H        -3.348459    1.815248    0.962041
| 17> H        -2.625128    0.620934    2.010463
| 18> H        -3.931719    0.137567    0.925736
| 19> C        -1.139622   -1.280689   -1.610339
| 20> H        -1.641845   -2.000031   -2.254356
| 21> H        -0.295696   -1.773384   -1.124763
| 22> H        -0.765192   -0.459052   -2.226289
| 23> B         1.956612    0.396717    0.059187
| 24> O         2.069923   -0.822789    0.646999
| 25> C         3.045265    0.767584   -1.009782
| 26> H         2.625138    0.620633   -2.010537
| 27> H         3.931736    0.137480   -0.925726
| 28> H         3.348428    1.815139   -0.962303
| 29> C         1.139620   -1.280489    1.610495
| 30> H         1.641830   -1.999783    2.254576
| 31> H         0.295676   -1.773208    1.124976
| 32> H         0.765219   -0.458782    2.226369
| 33> H        -0.793203    2.151930   -1.383577
| 34> H         0.793205    2.152100    1.383314
| 35> *
| 36>
| 37> $new_job
| 38> ! ri-mp2 aug-cc-pvtz aug-cc-pvtz/c tightscf
| 39> %pal nprocs 16 end
| 40> %maxcore 3800
| 41> %base "TZ_B-B_69_AB"
| 42>
| 43> *xyz 0 1
| 44> B         0.678009    1.436693    0.427590
| 45> B        -0.678008    1.436641   -0.427764
| 46> B        -1.956610    0.396709   -0.059235
| 47> O        -2.069921   -0.822870   -0.646896
| 48> C        -3.045265    0.767709    1.009686
| 49> H        -3.348459    1.815248    0.962041
| 50> H        -2.625128    0.620934    2.010463
| 51> H        -3.931719    0.137567    0.925736
| 52> C        -1.139622   -1.280689   -1.610339
| 53> H        -1.641845   -2.000031   -2.254356
| 54> H        -0.295696   -1.773384   -1.124763
| 55> H        -0.765192   -0.459052   -2.226289
| 56> B         1.956612    0.396717    0.059187
| 57> O         2.069923   -0.822789    0.646999
| 58> C         3.045265    0.767584   -1.009782
| 59> H         2.625138    0.620633   -2.010537
| 60> H         3.931736    0.137480   -0.925726
| 61> H         3.348428    1.815139   -0.962303
| 62> C         1.139620   -1.280489    1.610495
| 63> H         1.641830   -1.999783    2.254576
| 64> H         0.295676   -1.773208    1.124976
| 65> H         0.765219   -0.458782    2.226369
| 66> H        -0.793203    2.151930   -1.383577
| 67> H         0.793205    2.152100    1.383314
| 68> *
| 69>
| 70> $new_job
| 71> ! ri-mp2 aug-cc-pvqz aug-cc-pvqz/c tightscf
| 72> %pal nprocs 16 end
| 73> %maxcore 3800
| 74> %base "QZ_B-B_69_AB"
| 75>
| 76> *xyz 0 1
| 77> B         0.678009    1.436693    0.427590
| 78> B        -0.678008    1.436641   -0.427764
| 79> B        -1.956610    0.396709   -0.059235
| 80> O        -2.069921   -0.822870   -0.646896
| 81> C        -3.045265    0.767709    1.009686
| 82> H        -3.348459    1.815248    0.962041
| 83> H        -2.625128    0.620934    2.010463
| 84> H        -3.931719    0.137567    0.925736
| 85> C        -1.139622   -1.280689   -1.610339
| 86> H        -1.641845   -2.000031   -2.254356
| 87> H        -0.295696   -1.773384   -1.124763
| 88> H        -0.765192   -0.459052   -2.226289
| 89> B         1.956612    0.396717    0.059187
| 90> O         2.069923   -0.822789    0.646999
| 91> C         3.045265    0.767584   -1.009782
| 92> H         2.625138    0.620633   -2.010537
| 93> H         3.931736    0.137480   -0.925726
| 94> H         3.348428    1.815139   -0.962303
| 95> C         1.139620   -1.280489    1.610495
| 96> H         1.641830   -1.999783    2.254576
| 97> H         0.295676   -1.773208    1.124976
| 98> H         0.765219   -0.458782    2.226369
| 99> H        -0.793203    2.151930   -1.383577
|100> H         0.793205    2.152100    1.383314
|101> *
|102>
|103>
|104>
|105>
|106>                          ****END OF INPUT****
 Total Charge           Charge          ....    0
 Multiplicity           Mult            ....    1
 Number of Electrons    NEL             ....   74
MP2 TOTAL ENERGY:     -409.482852106 Eh
FINAL SINGLE POINT ENERGY      -409.482852105657
MP2 TOTAL ENERGY:     -409.860092504 Eh
FINAL SINGLE POINT ENERGY      -409.860092503677

CARTESIAN COORDINATES (ANGSTROEM)
---------------------------------
  B      0.678009    1.436693    0.427590
  B     -0.678008    1.436641   -0.427764
  B     -1.956610    0.396709   -0.059235
  O     -2.069921   -0.822870   -0.646896
  C     -3.045265    0.767709    1.009686
  H     -3.348459    1.815248    0.962041
  H     -2.625128    0.620934    2.010463
  H     -3.931719    0.137567    0.925736
  C     -1.139622   -1.280689   -1.610339
  H     -1.641845   -2.000031   -2.254356
  H     -0.295696   -1.773384   -1.124763
  H     -0.765192   -0.459052   -2.226289
  B      1.956612    0.396717    0.059187
  O      2.069923   -0.822789    0.646999
  C      3.045265    0.767584   -1.009782
  H      2.625138    0.620633   -2.010537
  H      3.931736    0.137480   -0.925726
  H      3.348428    1.815139   -0.962303
  C      1.139620   -1.280489    1.610495
  H      1.641830   -1.999783    2.254576
  H      0.295676   -1.773208    1.124976
  H      0.765219   -0.458782    2.226369
  H     -0.793203    2.151930   -1.383577
  H      0.793205    2.152100    1.383314

 Multiplicity           Mult            ....    1
 Number of Electrons    NEL             ....   74
 Basis Dimension        Dim             .... 1444

ORBITAL ENERGIES
----------------

  NO   OCC          E(Eh)            E(eV)
   0   2.0000     -20.561654      -559.5110
   1   2.0000     -20.561653      -559.5110
   2   2.0000     -11.281562      -306.9869
   3   2.0000     -11.281561      -306.9869
   4   2.0000     -11.185538      -304.3740
   5   2.0000     -11.185538      -304.3740
   6   2.0000      -7.593262      -206.6232
   7   2.0000      -7.593262      -206.6232
   8   2.0000      -7.559975      -205.7174
   9   2.0000      -7.558793      -205.6852
  10   2.0000      -1.372303       -37.3423
  11   2.0000      -1.371711       -37.3261
  12   2.0000      -0.961642       -26.1676
  13   2.0000      -0.961336       -26.1593
  14   2.0000      -0.925440       -25.1825
  15   2.0000      -0.923381       -25.1265
  16   2.0000      -0.762245       -20.7417
  17   2.0000      -0.718544       -19.5526
  18   2.0000      -0.691035       -18.8040
  19   2.0000      -0.649345       -17.6696
  20   2.0000      -0.646481       -17.5916
  21   2.0000      -0.633256       -17.2318
  22   2.0000      -0.629423       -17.1275
  23   2.0000      -0.604380       -16.4460
  24   2.0000      -0.552722       -15.0403
  25   2.0000      -0.551063       -14.9952
  26   2.0000      -0.544679       -14.8215
  27   2.0000      -0.538910       -14.6645
  28   2.0000      -0.514364       -13.9966
  29   2.0000      -0.514070       -13.9886
  30   2.0000      -0.504257       -13.7215
  31   2.0000      -0.504025       -13.7152
  32   2.0000      -0.474386       -12.9087
  33   2.0000      -0.471693       -12.8354
  34   2.0000      -0.446695       -12.1552
  35   2.0000      -0.396943       -10.8014
  36   2.0000      -0.377504       -10.2724
  37   0.0000       0.018204         0.4954
  38   0.0000       0.025988         0.7072
  39   0.0000       0.027736         0.7547
  40   0.0000       0.027920         0.7598
  41   0.0000       0.038383         1.0444

MULLIKEN ATOMIC CHARGES
-----------------------
   0 B :    0.649861
   1 B :    0.649883
   2 B :    1.075705
   3 O :   -1.425130
   4 C :   -1.148151
   5 H :    0.315316
   6 H :    0.323669
   7 H :    0.368866
   8 C :   -0.675147
   9 H :    0.498323
  10 H :    0.331681
  11 H :    0.189361
  12 B :    1.075704
  13 O :   -1.425122
  14 C :   -1.148154
  15 H :    0.323667
  16 H :    0.368866
  17 H :    0.315318
  18 C :   -0.675149
  19 H :    0.498316
  20 H :    0.331690
  21 H :    0.189369
  22 H :   -0.504374
  23 H :   -0.504368
Sum of atomic charges:   -0.0000000

LOEWDIN ATOMIC CHARGES
----------------------
   0 B :    0.137509
   1 B :    0.137509
   2 B :   -0.812900
   3 O :    0.983576
   4 C :    1.040966
   5 H :   -0.301524
   6 H :   -0.297042
   7 H :   -0.308081
   8 C :    0.605182
   9 H :   -0.290586
  10 H :   -0.305079
  11 H :   -0.308517
  12 B :   -0.812900
  13 O :    0.983576
  14 C :    1.040967
  15 H :   -0.297043
  16 H :   -0.308081
  17 H :   -0.301524
  18 C :    0.605182
  19 H :   -0.290586
  20 H :   -0.305082
  21 H :   -0.308515
  22 H :   -0.143503
  23 H :   -0.143503

  Mayer bond orders larger than 0.100000
B(  0-B ,  1-B ) :   1.0779 B(  0-B , 12-B ) :   0.8674 B(  0-B , 13-O ) :  -0.1074
B(  0-B , 23-H ) :   0.5837 B(  1-B ,  2-B ) :   0.8674 B(  1-B ,  3-O ) :  -0.1074
B(  1-B , 22-H ) :   0.5837 B(  2-B ,  3-O ) :   0.2423 B(  2-B ,  4-C ) :   0.8767
B(  3-O ,  8-C ) :   1.0336 B(  4-C ,  5-H ) :   0.9336 B(  4-C ,  6-H ) :   0.8735
B(  4-C ,  7-H ) :   0.8719 B(  8-C ,  9-H ) :   0.7690 B(  8-C , 10-H ) :   0.8207
B(  8-C , 11-H ) :   0.9664 B( 12-B , 13-O ) :   0.2423 B( 12-B , 14-C ) :   0.8767
B( 13-O , 18-C ) :   1.0336 B( 14-C , 15-H ) :   0.8735 B( 14-C , 16-H ) :   0.8719
B( 14-C , 17-H ) :   0.9336 B( 18-C , 19-H ) :   0.7690 B( 18-C , 20-H ) :   0.8207
B( 18-C , 21-H ) :   0.9664

MP2 TOTAL ENERGY:     -409.976048273 Eh
FINAL SINGLE POINT ENERGY      -409.976048272656

DIPOLE MOMENT
-------------
                                X             Y             Z
Electronic contribution:      0.00001       1.95493      -0.00011
Nuclear contribution   :     -0.00001      -2.01681       0.00011
                        -----------------------------------------
Total Dipole Moment    :     -0.00000      -0.06189       0.00000
                        -----------------------------------------
Magnitude (a.u.)       :      0.06189
Magnitude (Debye)      :      0.15731

Rotational constants in cm-1:     0.056733     0.024010     0.023589
Rotational constants in MHz :  1700.809205   719.810858   707.194441

                             ****ORCA TERMINATED NORMALLY****
TOTAL RUN TIME: 0 days 4 hours 33 minutes 55 seconds 696 msec
