                         Program Version 5.0.4 -  RELEASE  -
|  1> ! ri-mp2 aug-cc-pvdz aug-cc-pvdz/c tightscf
|  2> %pal nprocs 16 end
|  3> %maxcore 3800
|  4> %base "DZ_B-P_30_AB"
|  5>
|  6> *xyz 0 1
|  7> C        -1.774991    1.293029   -0.097498
|  8> C        -0.411692    1.120686   -0.250063
|  9> C         0.155020   -0.145482   -0.143336
| 10> C        -2.593973    0.202632    0.147193
| 11> C        -2.038582   -1.061480    0.240867
| 12> C        -0.672667   -1.235793    0.097525
| 13> H        -2.200930    2.284520   -0.176252
| 14> H         0.217051    1.978717   -0.451602
| 15> H        -0.249792   -2.228789    0.181112
| 16> H        -3.660955    0.338284    0.261507
| 17> H        -2.669953   -1.919353    0.431057
| 18> B         2.948910    0.686665    0.727134
| 19> P         1.936932   -0.355313   -0.386169
| 20> H         2.566732    1.768676    1.034920
| 21> H         4.055565    0.334144    0.977404
| 22> H         2.165060   -1.701387   -0.069396
| 23> *
| 24>
| 25> $new_job
| 26> ! ri-mp2 aug-cc-pvtz aug-cc-pvtz/c tightscf
| 27> %pal nprocs 16 end
| 28> %maxcore 3800
| 29> %base "TZ_B-P_30_AB"
| 30>
| 31> *xyz 0 1
| 32> C        -1.774991    1.293029   -0.097498
| 33> C        -0.411692    1.120686   -0.250063
| 34> C         0.155020   -0.145482   -0.143336
| 35> C        -2.593973    0.202632    0.147193
| 36> C        -2.038582   -1.061480    0.240867
| 37> C        -0.672667   -1.235793    0.097525
| 38> H        -2.200930    2.284520   -0.176252
| 39> H         0.217051    1.978717   -0.451602
| 40> H        -0.249792   -2.228789    0.181112
| 41> H        -3.660955    0.338284    0.261507
| 42> H        -2.669953   -1.919353    0.431057
| 43> B         2.948910    0.686665    0.727134
| 44> P         1.936932   -0.355313   -0.386169
| 45> H         2.566732    1.768676    1.034920
| 46> H         4.055565    0.334144    0.977404
| 47> H         2.165060   -1.701387   -0.069396
| 48> *
| 49>
| 50> $new_job
| 51> ! ri-mp2 aug-cc-pvqz aug-cc-pvqz/c tightscf
| 52> %pal nprocs 16 end
| 53> %maxcore 3800
| 54> %base "QZ_B-P_30_AB"
| 55>
| 56> *xyz 0 1
| 57> C        -1.774991    1.293029   -0.097498
| 58> C        -0.411692    1.120686   -0.250063
| 59> C         0.155020   -0.145482   -0.143336
| 60> C        -2.593973    0.202632    0.147193
| 61> C        -2.038582   -1.061480    0.240867
| 62> C        -0.672667   -1.235793    0.097525
| 63> H        -2.200930    2.284520   -0.176252
| 64> H         0.217051    1.978717   -0.451602
| 65> H        -0.249792   -2.228789    0.181112
| 66> H        -3.660955    0.338284    0.261507
| 67> H        -2.669953   -1.919353    0.431057
| 68> B         2.948910    0.686665    0.727134
| 69> P         1.936932   -0.355313   -0.386169
| 70> H         2.566732    1.768676    1.034920
| 71> H         4.055565    0.334144    0.977404
| 72> H         2.165060   -1.701387   -0.069396
| 73> *
| 74>
| 75>
| 76>
| 77>
| 78>                          ****END OF INPUT****
 Total Charge           Charge          ....    0
 Multiplicity           Mult            ....    1
 Number of Electrons    NEL             ....   64
MP2 TOTAL ENERGY:     -598.316283865 Eh
FINAL SINGLE POINT ENERGY      -598.316283864674
MP2 TOTAL ENERGY:     -598.586370242 Eh
FINAL SINGLE POINT ENERGY      -598.586370242331

CARTESIAN COORDINATES (ANGSTROEM)
---------------------------------
  C     -1.774991    1.293029   -0.097498
  C     -0.411692    1.120686   -0.250063
  C      0.155020   -0.145482   -0.143336
  C     -2.593973    0.202632    0.147193
  C     -2.038582   -1.061480    0.240867
  C     -0.672667   -1.235793    0.097525
  H     -2.200930    2.284520   -0.176252
  H      0.217051    1.978717   -0.451602
  H     -0.249792   -2.228789    0.181112
  H     -3.660955    0.338284    0.261507
  H     -2.669953   -1.919353    0.431057
  B      2.948910    0.686665    0.727134
  P      1.936932   -0.355313   -0.386169
  H      2.566732    1.768676    1.034920
  H      4.055565    0.334144    0.977404
  H      2.165060   -1.701387   -0.069396

 Multiplicity           Mult            ....    1
 Number of Electrons    NEL             ....   64
 Basis Dimension        Dim             .... 1012

ORBITAL ENERGIES
----------------

  NO   OCC          E(Eh)            E(eV)
   0   2.0000     -79.931068     -2175.0349
   1   2.0000     -11.251852      -306.1785
   2   2.0000     -11.240330      -305.8649
   3   2.0000     -11.239641      -305.8462
   4   2.0000     -11.238550      -305.8165
   5   2.0000     -11.238203      -305.8070
   6   2.0000     -11.235953      -305.7458
   7   2.0000      -7.608030      -207.0250
   8   2.0000      -7.477939      -203.4851
   9   2.0000      -5.372683      -146.1981
  10   2.0000      -5.372453      -146.1919
  11   2.0000      -5.372109      -146.1825
  12   2.0000      -1.164759       -31.6947
  13   2.0000      -1.034240       -28.1431
  14   2.0000      -1.025214       -27.8975
  15   2.0000      -0.881195       -23.9785
  16   2.0000      -0.835842       -22.7444
  17   2.0000      -0.802083       -21.8258
  18   2.0000      -0.709329       -19.3018
  19   2.0000      -0.669540       -18.2191
  20   2.0000      -0.639030       -17.3889
  21   2.0000      -0.628864       -17.1123
  22   2.0000      -0.595694       -16.2097
  23   2.0000      -0.568935       -15.4815
  24   2.0000      -0.523406       -14.2426
  25   2.0000      -0.515552       -14.0289
  26   2.0000      -0.503473       -13.7002
  27   2.0000      -0.484358       -13.1801
  28   2.0000      -0.463796       -12.6205
  29   2.0000      -0.389698       -10.6042
  30   2.0000      -0.346673        -9.4334
  31   2.0000      -0.305369        -8.3095
  32   0.0000       0.021872         0.5952
  33   0.0000       0.026792         0.7291
  34   0.0000       0.028486         0.7751
  35   0.0000       0.035365         0.9623
  36   0.0000       0.037906         1.0315

MULLIKEN ATOMIC CHARGES
-----------------------
   0 C :   -0.260878
   1 C :   -0.389363
   2 C :   -0.022978
   3 C :   -0.329417
   4 C :   -0.284141
   5 C :   -0.466696
   6 H :    0.253635
   7 H :    0.316504
   8 H :    0.296910
   9 H :    0.367646
  10 H :    0.259365
  11 B :    0.211317
  12 P :    0.470156
  13 H :   -0.127921
  14 H :   -0.232182
  15 H :   -0.061957
Sum of atomic charges:   -0.0000000

LOEWDIN ATOMIC CHARGES
----------------------
   0 C :    0.337658
   1 C :    0.234347
   2 C :   -0.306361
   3 C :    0.334949
   4 C :    0.334755
   5 C :    0.246463
   6 H :   -0.318550
   7 H :   -0.341310
   8 H :   -0.345819
   9 H :   -0.321876
  10 H :   -0.319674
  11 B :    0.118925
  12 P :    1.300089
  13 H :   -0.253144
  14 H :   -0.270075
  15 H :   -0.430377

  Mayer bond orders larger than 0.100000
B(  0-C ,  1-C ) :   1.3065 B(  0-C ,  2-C ) :  -0.3077 B(  0-C ,  3-C ) :   1.1389
B(  0-C ,  4-C ) :  -0.1220 B(  0-C ,  5-C ) :   0.1591 B(  0-C ,  6-H ) :   1.1049
B(  1-C ,  2-C ) :   0.9067 B(  1-C ,  4-C ) :   0.1381 B(  1-C ,  6-H ) :  -0.1304
B(  1-C ,  7-H ) :   0.9371 B(  1-C , 12-P ) :  -0.1379 B(  2-C ,  4-C ) :  -0.3245
B(  2-C ,  5-C ) :   0.8256 B(  2-C ,  7-H ) :  -0.1134 B(  2-C , 12-P ) :   0.7986
B(  2-C , 15-H ) :  -0.1197 B(  3-C ,  4-C ) :   1.1295 B(  3-C ,  5-C ) :   0.1430
B(  3-C ,  6-H ) :  -0.1032 B(  3-C ,  9-H ) :   0.9479 B(  3-C , 10-H ) :  -0.1105
B(  4-C ,  5-C ) :   1.3987 B(  4-C , 10-H ) :   1.1008 B(  5-C ,  8-H ) :   0.9497
B(  5-C , 10-H ) :  -0.1282 B(  5-C , 12-P ) :  -0.1575 B( 11-B , 12-P ) :   1.3278
B( 11-B , 13-H ) :   0.9210 B( 11-B , 14-H ) :   0.9443 B( 12-P , 15-H ) :   0.9820

MP2 TOTAL ENERGY:     -598.672148720 Eh
FINAL SINGLE POINT ENERGY      -598.672148720207

DIPOLE MOMENT
-------------
                                X             Y             Z
Electronic contribution:      3.48966      -0.78023      -1.69130
Nuclear contribution   :     -3.94182       0.63087       1.94284
                        -----------------------------------------
Total Dipole Moment    :     -0.45217      -0.14936       0.25154
                        -----------------------------------------
Magnitude (a.u.)       :      0.53855
Magnitude (Debye)      :      1.36888

Rotational constants in cm-1:     0.145263     0.037041     0.031154
Rotational constants in MHz :  4354.873391  1110.463248   933.977824

                             ****ORCA TERMINATED NORMALLY****
TOTAL RUN TIME: 0 days 0 hours 28 minutes 7 seconds 921 msec
