                         Program Version 5.0.4 -  RELEASE  -
|  1> ! ri-mp2 aug-cc-pvdz aug-cc-pvdz/c tightscf
|  2> %pal nprocs 16 end
|  3> %maxcore 3800
|  4> %base "DZ_S-F_1_AB"
|  5> %scf
|  6> STABPerform true
|  7> STABRestartUHFifUnstable true
|  8> end
|  9>
| 10> *xyz 0 1
| 11> F        -1.227941    0.599802   -0.000006
| 12> H         1.407936    1.016356    0.896380
| 13> H         2.171215   -0.311506   -0.000007
| 14> H         1.407928    1.016362   -0.896378
| 15> C         1.344722    0.402666   -0.000001
| 16> S        -0.125246   -0.595964    0.000004
| 17> *
| 18>
| 19> $new_job
| 20> ! ri-mp2 aug-cc-pvtz aug-cc-pvtz/c tightscf
| 21> %pal nprocs 16 end
| 22> %maxcore 3800
| 23> %base "TZ_S-F_1_AB"
| 24>
| 25> *xyz 0 1
| 26> F        -1.227941    0.599802   -0.000006
| 27> H         1.407936    1.016356    0.896380
| 28> H         2.171215   -0.311506   -0.000007
| 29> H         1.407928    1.016362   -0.896378
| 30> C         1.344722    0.402666   -0.000001
| 31> S        -0.125246   -0.595964    0.000004
| 32> *
| 33>
| 34> $new_job
| 35> ! ri-mp2 aug-cc-pvqz aug-cc-pvqz/c tightscf
| 36> %pal nprocs 16 end
| 37> %maxcore 3800
| 38> %base "QZ_S-F_1_AB"
| 39>
| 40> *xyz 0 1
| 41> F        -1.227941    0.599802   -0.000006
| 42> H         1.407936    1.016356    0.896380
| 43> H         2.171215   -0.311506   -0.000007
| 44> H         1.407928    1.016362   -0.896378
| 45> C         1.344722    0.402666   -0.000001
| 46> S        -0.125246   -0.595964    0.000004
| 47> *
| 48>
| 49>
| 50>
| 51>
| 52>                          ****END OF INPUT****
 Total Charge           Charge          ....    0
 Multiplicity           Mult            ....    1
 Number of Electrons    NEL             ....   34
MP2 TOTAL ENERGY:     -537.064090238 Eh
FINAL SINGLE POINT ENERGY      -537.064090237711
MP2 TOTAL ENERGY:     -537.242674162 Eh
FINAL SINGLE POINT ENERGY      -537.242674162370

CARTESIAN COORDINATES (ANGSTROEM)
---------------------------------
  F     -1.227941    0.599802   -0.000006
  H      1.407936    1.016356    0.896380
  H      2.171215   -0.311506   -0.000007
  H      1.407928    1.016362   -0.896378
  C      1.344722    0.402666   -0.000001
  S     -0.125246   -0.595964    0.000004

 Multiplicity           Mult            ....    1
 Number of Electrons    NEL             ....   34
 Basis Dimension        Dim             ....  382

ORBITAL ENERGIES
----------------

  NO   OCC          E(Eh)            E(eV)
   0   2.0000     -92.026174     -2504.1595
   1   2.0000     -26.301146      -715.6906
   2   2.0000     -11.269164      -306.6495
   3   2.0000      -9.020646      -245.4643
   4   2.0000      -6.702375      -182.3809
   5   2.0000      -6.700315      -182.3248
   6   2.0000      -6.699061      -182.2907
   7   2.0000      -1.599733       -43.5309
   8   2.0000      -1.055583       -28.7239
   9   2.0000      -0.875916       -23.8349
  10   2.0000      -0.685748       -18.6602
  11   2.0000      -0.685276       -18.6473
  12   2.0000      -0.666723       -18.1425
  13   2.0000      -0.605022       -16.4635
  14   2.0000      -0.582493       -15.8505
  15   2.0000      -0.486074       -13.2267
  16   2.0000      -0.365310        -9.9406
  17   0.0000       0.024884         0.6771
  18   0.0000       0.039531         1.0757
  19   0.0000       0.042058         1.1445
  20   0.0000       0.051503         1.4015
  21   0.0000       0.076261         2.0752

MULLIKEN ATOMIC CHARGES
-----------------------
   0 F :   -0.608578
   1 H :    0.260605
   2 H :    0.301517
   3 H :    0.260605
   4 C :   -0.809449
   5 S :    0.595300
Sum of atomic charges:    0.0000000

LOEWDIN ATOMIC CHARGES
----------------------
   0 F :    0.061808
   1 H :   -0.389350
   2 H :   -0.418001
   3 H :   -0.389350
   4 C :    0.460147
   5 S :    0.674746

  Mayer bond orders larger than 0.100000
B(  0-F ,  5-S ) :   0.5939 B(  1-H ,  4-C ) :   0.9165 B(  2-H ,  4-C ) :   0.8829
B(  3-H ,  4-C ) :   0.9165 B(  4-C ,  5-S ) :   1.0171

MP2 TOTAL ENERGY:     -537.300287828 Eh
FINAL SINGLE POINT ENERGY      -537.300287827994

DIPOLE MOMENT
-------------
                                X             Y             Z
Electronic contribution:     -5.02839      -1.09406       0.00000
Nuclear contribution   :      5.99353       1.10839       0.00000
                        -----------------------------------------
Total Dipole Moment    :      0.96514       0.01432       0.00000
                        -----------------------------------------
Magnitude (a.u.)       :      0.96525
Magnitude (Debye)      :      2.45346

Rotational constants in cm-1:     0.711108     0.276789     0.207171
Rotational constants in MHz : 21318.470393  8297.925914  6210.821120

                             ****ORCA TERMINATED NORMALLY****
TOTAL RUN TIME: 0 days 0 hours 3 minutes 38 seconds 700 msec
