                         Program Version 5.0.4 -  RELEASE  -
|  1> ! ri-mp2 aug-cc-pvdz aug-cc-pvdz/c tightscf
|  2> %pal nprocs 16 end
|  3> %maxcore 3800
|  4> %base "DZ_S-F_63_A"
|  5> %scf
|  6> STABPerform true
|  7> STABRestartUHFifUnstable true
|  8> end
|  9>
| 10> *xyz 0 2
| 11> S         1.039199   -1.197660   -1.023230
| 12> C         0.036738    0.055330   -0.115676
| 13> O        -1.064265    0.259663   -0.910552
| 14> O         0.690943    1.250607    0.048421
| 15> O        -0.270538   -0.432125    1.150133
| 16> C        -1.877266    1.380127   -0.567380
| 17> H        -2.789551    1.267347   -1.146805
| 18> H        -1.381711    2.313209   -0.827107
| 19> H        -2.113529    1.380689    0.497411
| 20> C         1.834037    1.248115    0.884378
| 21> H         2.255016    2.247690    0.819681
| 22> H         2.566761    0.521263    0.526515
| 23> H         1.565697    1.022759    1.915516
| 24> C        -1.203768   -1.499937    1.218738
| 25> H        -1.208173   -1.826161    2.255308
| 26> H        -0.907628   -2.325675    0.572216
| 27> H        -2.201639   -1.165541    0.934567
| 28> *
| 29>
| 30> $new_job
| 31> ! ri-mp2 aug-cc-pvtz aug-cc-pvtz/c tightscf
| 32> %pal nprocs 16 end
| 33> %maxcore 3800
| 34> %base "TZ_S-F_63_A"
| 35>
| 36> *xyz 0 2
| 37> S         1.039199   -1.197660   -1.023230
| 38> C         0.036738    0.055330   -0.115676
| 39> O        -1.064265    0.259663   -0.910552
| 40> O         0.690943    1.250607    0.048421
| 41> O        -0.270538   -0.432125    1.150133
| 42> C        -1.877266    1.380127   -0.567380
| 43> H        -2.789551    1.267347   -1.146805
| 44> H        -1.381711    2.313209   -0.827107
| 45> H        -2.113529    1.380689    0.497411
| 46> C         1.834037    1.248115    0.884378
| 47> H         2.255016    2.247690    0.819681
| 48> H         2.566761    0.521263    0.526515
| 49> H         1.565697    1.022759    1.915516
| 50> C        -1.203768   -1.499937    1.218738
| 51> H        -1.208173   -1.826161    2.255308
| 52> H        -0.907628   -2.325675    0.572216
| 53> H        -2.201639   -1.165541    0.934567
| 54> *
| 55>
| 56> $new_job
| 57> ! ri-mp2 aug-cc-pvqz aug-cc-pvqz/c tightscf
| 58> %pal nprocs 16 end
| 59> %maxcore 3800
| 60> %base "QZ_S-F_63_A"
| 61>
| 62> *xyz 0 2
| 63> S         1.039199   -1.197660   -1.023230
| 64> C         0.036738    0.055330   -0.115676
| 65> O        -1.064265    0.259663   -0.910552
| 66> O         0.690943    1.250607    0.048421
| 67> O        -0.270538   -0.432125    1.150133
| 68> C        -1.877266    1.380127   -0.567380
| 69> H        -2.789551    1.267347   -1.146805
| 70> H        -1.381711    2.313209   -0.827107
| 71> H        -2.113529    1.380689    0.497411
| 72> C         1.834037    1.248115    0.884378
| 73> H         2.255016    2.247690    0.819681
| 74> H         2.566761    0.521263    0.526515
| 75> H         1.565697    1.022759    1.915516
| 76> C        -1.203768   -1.499937    1.218738
| 77> H        -1.208173   -1.826161    2.255308
| 78> H        -0.907628   -2.325675    0.572216
| 79> H        -2.201639   -1.165541    0.934567
| 80> *
| 81>
| 82>
| 83>
| 84>
| 85>                          ****END OF INPUT****
 Total Charge           Charge          ....    0
 Multiplicity           Mult            ....    2
 Number of Electrons    NEL             ....   73
MP2 TOTAL ENERGY:     -780.120982601 Eh
FINAL SINGLE POINT ENERGY      -780.120982600602
MP2 TOTAL ENERGY:     -780.508152460 Eh
FINAL SINGLE POINT ENERGY      -780.508152460127

CARTESIAN COORDINATES (ANGSTROEM)
---------------------------------
  S      1.039199   -1.197660   -1.023230
  C      0.036738    0.055330   -0.115676
  O     -1.064265    0.259663   -0.910552
  O      0.690943    1.250607    0.048421
  O     -0.270538   -0.432125    1.150133
  C     -1.877266    1.380127   -0.567380
  H     -2.789551    1.267347   -1.146805
  H     -1.381711    2.313209   -0.827107
  H     -2.113529    1.380689    0.497411
  C      1.834037    1.248115    0.884378
  H      2.255016    2.247690    0.819681
  H      2.566761    0.521263    0.526515
  H      1.565697    1.022759    1.915516
  C     -1.203768   -1.499937    1.218738
  H     -1.208173   -1.826161    2.255308
  H     -0.907628   -2.325675    0.572216
  H     -2.201639   -1.165541    0.934567

 Multiplicity           Mult            ....    2
 Number of Electrons    NEL             ....   73
 Basis Dimension        Dim             .... 1058

ORBITAL ENERGIES
----------------
                 SPIN UP ORBITALS
  NO   OCC          E(Eh)            E(eV)
   0   1.0000     -91.967617     -2502.5661
   1   1.0000     -20.578011      -559.9561
   2   1.0000     -20.577955      -559.9546
   3   1.0000     -20.574189      -559.8521
   4   1.0000     -11.427844      -310.9674
   5   1.0000     -11.276991      -306.8625
   6   1.0000     -11.276436      -306.8474
   7   1.0000     -11.273749      -306.7743
   8   1.0000      -8.970598      -244.1024
   9   1.0000      -6.666631      -181.4082
  10   1.0000      -6.647842      -180.8970
  11   1.0000      -6.646389      -180.8574
  12   1.0000      -1.483472       -40.3673
  13   1.0000      -1.373497       -37.3747
  14   1.0000      -1.370751       -37.3000
  15   1.0000      -1.034173       -28.1413
  16   1.0000      -0.964078       -26.2339
  17   1.0000      -0.944519       -25.7017
  18   1.0000      -0.933859       -25.4116
  19   1.0000      -0.791722       -21.5439
  20   1.0000      -0.727235       -19.7891
  21   1.0000      -0.724466       -19.7137
  22   1.0000      -0.687728       -18.7140
  23   1.0000      -0.650424       -17.6989
  24   1.0000      -0.635285       -17.2870
  25   1.0000      -0.613386       -16.6911
  26   1.0000      -0.600112       -16.3299
  27   1.0000      -0.590976       -16.0813
  28   1.0000      -0.547903       -14.9092
  29   1.0000      -0.538592       -14.6558
  30   1.0000      -0.513724       -13.9791
  31   1.0000      -0.498531       -13.5657
  32   1.0000      -0.467555       -12.7228
  33   1.0000      -0.464379       -12.6364
  34   1.0000      -0.437531       -11.9058
  35   1.0000      -0.427760       -11.6399
  36   1.0000      -0.381966       -10.3938
  37   0.0000       0.025490         0.6936
  38   0.0000       0.032712         0.8901
  39   0.0000       0.033999         0.9252
  40   0.0000       0.039005         1.0614
  41   0.0000       0.047762         1.2997

                 SPIN DOWN ORBITALS
  NO   OCC          E(Eh)            E(eV)
   0   1.0000     -91.958342     -2502.3137
   1   1.0000     -20.577197      -559.9340
   2   1.0000     -20.577136      -559.9323
   3   1.0000     -20.574301      -559.8552
   4   1.0000     -11.428978      -310.9983
   5   1.0000     -11.277021      -306.8633
   6   1.0000     -11.276319      -306.8442
   7   1.0000     -11.273659      -306.7718
   8   1.0000      -8.960381      -243.8244
   9   1.0000      -6.642548      -180.7529
  10   1.0000      -6.641065      -180.7126
  11   1.0000      -6.624860      -180.2716
  12   1.0000      -1.482406       -40.3383
  13   1.0000      -1.371730       -37.3267
  14   1.0000      -1.369893       -37.2767
  15   1.0000      -1.015136       -27.6233
  16   1.0000      -0.952442       -25.9173
  17   1.0000      -0.941395       -25.6167
  18   1.0000      -0.892632       -24.2898
  19   1.0000      -0.781604       -21.2685
  20   1.0000      -0.726642       -19.7729
  21   1.0000      -0.722026       -19.6473
  22   1.0000      -0.668989       -18.2041
  23   1.0000      -0.649168       -17.6648
  24   1.0000      -0.632088       -17.2000
  25   1.0000      -0.611544       -16.6410
  26   1.0000      -0.599724       -16.3193
  27   1.0000      -0.590583       -16.0706
  28   1.0000      -0.544105       -14.8058
  29   1.0000      -0.537027       -14.6133
  30   1.0000      -0.511348       -13.9145
  31   1.0000      -0.497417       -13.5354
  32   1.0000      -0.463164       -12.6033
  33   1.0000      -0.458112       -12.4659
  34   1.0000      -0.419660       -11.4195
  35   1.0000      -0.362190        -9.8557
  36   0.0000       0.018740         0.5100
  37   0.0000       0.026215         0.7133
  38   0.0000       0.032929         0.8960
  39   0.0000       0.035045         0.9536
  40   0.0000       0.039267         1.0685

MULLIKEN ATOMIC CHARGES AND SPIN POPULATIONS
--------------------------------------------
   0 S :   -0.256175    1.162063
   1 C :    1.932844   -0.166233
   2 O :   -0.894891   -0.003708
   3 O :   -0.815019   -0.003878
   4 O :   -0.777392    0.005107
   5 C :   -0.754906    0.000160
   6 H :    0.434113    0.000177
   7 H :    0.363089   -0.000981
   8 H :    0.239374   -0.000238
   9 C :   -0.756395    0.006371
  10 H :    0.390849    0.000180
  11 H :    0.296232   -0.002890
  12 H :    0.328677   -0.000954
  13 C :   -0.770320    0.003452
  14 H :    0.404895    0.000427
  15 H :    0.298321    0.001254
  16 H :    0.336705   -0.000307
Sum of atomic charges         :   -0.0000000

LOEWDIN ATOMIC CHARGES AND SPIN POPULATIONS
-------------------------------------------
   0 S :    1.062606    0.756690
   1 C :   -2.021260    0.170152
   2 O :    0.752063    0.024776
   3 O :    0.771934    0.000542
   4 O :    0.779640    0.019211
   5 C :    0.575350    0.002478
   6 H :   -0.319052    0.000317
   7 H :   -0.319868    0.000105
   8 H :   -0.317273    0.000425
   9 C :    0.534684    0.006682
  10 H :   -0.321113    0.000466
  11 H :   -0.368520    0.009059
  12 H :   -0.326431    0.000406
  13 C :    0.531799    0.005192
  14 H :   -0.319492    0.000033
  15 H :   -0.371981    0.003602
  16 H :   -0.323086   -0.000135

  Mayer bond orders larger than 0.100000
B(  0-S ,  1-C ) :   0.5322 B(  1-C ,  2-O ) :   0.6116 B(  1-C ,  3-O ) :   0.5389
B(  1-C ,  4-O ) :   0.4495 B(  1-C , 13-C ) :  -0.1126 B(  2-O ,  5-C ) :   0.8434
B(  3-O ,  9-C ) :   0.9390 B(  4-O , 13-C ) :   0.8933 B(  5-C ,  6-H ) :   0.8332
B(  5-C ,  7-H ) :   0.8733 B(  5-C ,  8-H ) :   0.9386 B(  9-C , 10-H ) :   0.8904
B(  9-C , 11-H ) :   0.8972 B(  9-C , 12-H ) :   0.8805 B( 13-C , 14-H ) :   0.8762
B( 13-C , 15-H ) :   0.9181 B( 13-C , 16-H ) :   0.8865

MP2 TOTAL ENERGY:     -780.631012909 Eh
FINAL SINGLE POINT ENERGY      -780.631012909229

DIPOLE MOMENT
-------------
                                X             Y             Z
Electronic contribution:      3.88179      -3.30407      -4.93660
Nuclear contribution   :     -4.25469       3.48766       5.58042
                        -----------------------------------------
Total Dipole Moment    :     -0.37290       0.18359       0.64381
                        -----------------------------------------
Magnitude (a.u.)       :      0.76632
Magnitude (Debye)      :      1.94784

Rotational constants in cm-1:     0.060139     0.054345     0.045930
Rotational constants in MHz :  1802.921746  1629.221096  1376.932886

                             ****ORCA TERMINATED NORMALLY****
TOTAL RUN TIME: 0 days 5 hours 33 minutes 33 seconds 691 msec
