                         Program Version 5.0.4 -  RELEASE  -
|  1> ! ri-mp2 aug-cc-pvdz aug-cc-pvdz/c tightscf
|  2> %pal nprocs 16 end
|  3> %maxcore 3800
|  4> %base "DZ_B-Si_36_AB"
|  5> %scf
|  6> STABPerform true
|  7> STABRestartUHFifUnstable true
|  8> end
|  9>
| 10> *xyz 0 1
| 11> B        -2.509226    0.711338   -0.064160
| 12> C         0.662600    0.122322   -0.530598
| 13> C         1.971614   -0.469566   -0.077270
| 14> C         1.574741    0.885319    0.398748
| 15> H         1.278595    0.992999    1.434125
| 16> H         2.100149    1.741230   -0.000989
| 17> H         2.769888   -0.540489   -0.802768
| 18> H         1.945033   -1.286278    0.631914
| 19> Si        -0.953249   -0.543753    0.092776
| 20> H         0.655316    0.483606   -1.552922
| 21> H        -0.744231   -0.976594    1.499312
| 22> H        -1.353065   -1.753150   -0.681653
| 23> H        -3.501162    0.535451    0.572446
| 24> H        -2.512637    1.630629   -0.822814
| 25> *
| 26>
| 27> $new_job
| 28> ! ri-mp2 aug-cc-pvtz aug-cc-pvtz/c tightscf
| 29> %pal nprocs 16 end
| 30> %maxcore 3800
| 31> %base "TZ_B-Si_36_AB"
| 32>
| 33> *xyz 0 1
| 34> B        -2.509226    0.711338   -0.064160
| 35> C         0.662600    0.122322   -0.530598
| 36> C         1.971614   -0.469566   -0.077270
| 37> C         1.574741    0.885319    0.398748
| 38> H         1.278595    0.992999    1.434125
| 39> H         2.100149    1.741230   -0.000989
| 40> H         2.769888   -0.540489   -0.802768
| 41> H         1.945033   -1.286278    0.631914
| 42> Si        -0.953249   -0.543753    0.092776
| 43> H         0.655316    0.483606   -1.552922
| 44> H        -0.744231   -0.976594    1.499312
| 45> H        -1.353065   -1.753150   -0.681653
| 46> H        -3.501162    0.535451    0.572446
| 47> H        -2.512637    1.630629   -0.822814
| 48> *
| 49>
| 50> $new_job
| 51> ! ri-mp2 aug-cc-pvqz aug-cc-pvqz/c tightscf
| 52> %pal nprocs 16 end
| 53> %maxcore 3800
| 54> %base "QZ_B-Si_36_AB"
| 55>
| 56> *xyz 0 1
| 57> B        -2.509226    0.711338   -0.064160
| 58> C         0.662600    0.122322   -0.530598
| 59> C         1.971614   -0.469566   -0.077270
| 60> C         1.574741    0.885319    0.398748
| 61> H         1.278595    0.992999    1.434125
| 62> H         2.100149    1.741230   -0.000989
| 63> H         2.769888   -0.540489   -0.802768
| 64> H         1.945033   -1.286278    0.631914
| 65> Si        -0.953249   -0.543753    0.092776
| 66> H         0.655316    0.483606   -1.552922
| 67> H        -0.744231   -0.976594    1.499312
| 68> H        -1.353065   -1.753150   -0.681653
| 69> H        -3.501162    0.535451    0.572446
| 70> H        -2.512637    1.630629   -0.822814
| 71> *
| 72>
| 73>
| 74>
| 75>
| 76>                          ****END OF INPUT****
 Total Charge           Charge          ....    0
 Multiplicity           Mult            ....    1
 Number of Electrons    NEL             ....   46
MP2 TOTAL ENERGY:     -433.023544252 Eh
FINAL SINGLE POINT ENERGY      -433.023544251734
MP2 TOTAL ENERGY:     -433.196681104 Eh
FINAL SINGLE POINT ENERGY      -433.196681103879

CARTESIAN COORDINATES (ANGSTROEM)
---------------------------------
  B     -2.509226    0.711338   -0.064160
  C      0.662600    0.122322   -0.530598
  C      1.971614   -0.469566   -0.077270
  C      1.574741    0.885319    0.398748
  H      1.278595    0.992999    1.434125
  H      2.100149    1.741230   -0.000989
  H      2.769888   -0.540489   -0.802768
  H      1.945033   -1.286278    0.631914
  Si    -0.953249   -0.543753    0.092776
  H      0.655316    0.483606   -1.552922
  H     -0.744231   -0.976594    1.499312
  H     -1.353065   -1.753150   -0.681653
  H     -3.501162    0.535451    0.572446
  H     -2.512637    1.630629   -0.822814

 Multiplicity           Mult            ....    1
 Number of Electrons    NEL             ....   46
 Basis Dimension        Dim             ....  818

ORBITAL ENERGIES
----------------

  NO   OCC          E(Eh)            E(eV)
   0   2.0000     -68.746946     -1870.6995
   1   2.0000     -11.228944      -305.5551
   2   2.0000     -11.227561      -305.5175
   3   2.0000     -11.214402      -305.1594
   4   2.0000      -7.605526      -206.9569
   5   2.0000      -6.098456      -165.9474
   6   2.0000      -4.204931      -114.4220
   7   2.0000      -4.204647      -114.4143
   8   2.0000      -4.204135      -114.4003
   9   2.0000      -1.138018       -30.9671
  10   2.0000      -0.824867       -22.4458
  11   2.0000      -0.823437       -22.4069
  12   2.0000      -0.728901       -19.8344
  13   2.0000      -0.674682       -18.3590
  14   2.0000      -0.641041       -17.4436
  15   2.0000      -0.595559       -16.2060
  16   2.0000      -0.517247       -14.0750
  17   2.0000      -0.500134       -13.6093
  18   2.0000      -0.481595       -13.1049
  19   2.0000      -0.455640       -12.3986
  20   2.0000      -0.442033       -12.0283
  21   2.0000      -0.409179       -11.1343
  22   2.0000      -0.390195       -10.6177
  23   0.0000       0.023289         0.6337
  24   0.0000       0.027373         0.7449
  25   0.0000       0.030519         0.8305
  26   0.0000       0.030881         0.8403
  27   0.0000       0.040434         1.1003

MULLIKEN ATOMIC CHARGES
-----------------------
   0 B :    0.285137
   1 C :   -0.687434
   2 C :   -0.702591
   3 C :   -0.700838
   4 H :    0.356993
   5 H :    0.376132
   6 H :    0.376501
   7 H :    0.334046
   8 Si:    0.714729
   9 H :    0.426771
  10 H :   -0.185724
  11 H :   -0.203743
  12 H :   -0.227671
  13 H :   -0.162310
Sum of atomic charges:   -0.0000000

LOEWDIN ATOMIC CHARGES
----------------------
   0 B :    0.381434
   1 C :    0.116184
   2 C :    0.520193
   3 C :    0.518918
   4 H :   -0.288633
   5 H :   -0.271558
   6 H :   -0.272334
   7 H :   -0.287451
   8 Si:    0.872783
   9 H :   -0.333036
  10 H :   -0.215982
  11 H :   -0.227500
  12 H :   -0.260535
  13 H :   -0.252482

  Mayer bond orders larger than 0.100000
B(  0-B ,  8-Si) :   0.8421 B(  0-B , 12-H ) :   0.9341 B(  0-B , 13-H ) :   0.9160
B(  1-C ,  2-C ) :   0.9068 B(  1-C ,  3-C ) :   0.9159 B(  1-C ,  8-Si) :   0.7439
B(  1-C ,  9-H ) :   0.7712 B(  2-C ,  3-C ) :   1.0952 B(  2-C ,  6-H ) :   0.8486
B(  2-C ,  7-H ) :   0.8803 B(  3-C ,  4-H ) :   0.8547 B(  3-C ,  5-H ) :   0.8351
B(  8-Si, 10-H ) :   0.7165 B(  8-Si, 11-H ) :   0.7694

MP2 TOTAL ENERGY:     -433.250041305 Eh
FINAL SINGLE POINT ENERGY      -433.250041305045

DIPOLE MOMENT
-------------
                                X             Y             Z
Electronic contribution:     -2.58822      -0.06694      -0.43721
Nuclear contribution   :      2.79503       0.29539       0.33190
                        -----------------------------------------
Total Dipole Moment    :      0.20681       0.22845      -0.10530
                        -----------------------------------------
Magnitude (a.u.)       :      0.32565
Magnitude (Debye)      :      0.82773

Rotational constants in cm-1:     0.310786     0.073500     0.066428
Rotational constants in MHz :  9317.137724  2203.476463  1991.461029

                             ****ORCA TERMINATED NORMALLY****
TOTAL RUN TIME: 0 days 1 hours 42 minutes 42 seconds 585 msec
