                         Program Version 5.0.4 -  RELEASE  -
|  1> ! ri-mp2 aug-cc-pvdz aug-cc-pvdz/c tightscf
|  2> %pal nprocs 16 end
|  3> %maxcore 3800
|  4> %base "DZ_B-F_74_AB"
|  5>
|  6> *xyz 0 1
|  7> B         0.000001    1.375883   -0.016201
|  8> F         0.000002    2.684156    0.215994
|  9> O        -1.197739    0.754720   -0.123020
| 10> O         1.197740    0.754718   -0.123023
| 11> C        -0.000001   -1.322009    0.161576
| 12> C         1.253200   -0.653269   -0.371955
| 13> C        -1.253201   -0.653267   -0.371955
| 14> C        -2.523176   -1.185270    0.246575
| 15> H        -2.501533   -1.052181    1.328694
| 16> H        -2.640386   -2.247009    0.027085
| 17> H        -3.386533   -0.651015   -0.146908
| 18> H        -1.296274   -0.786471   -1.458160
| 19> H        -0.000001   -1.267198    1.254718
| 20> H        -0.000002   -2.377243   -0.115646
| 21> C         2.523174   -1.185273    0.246577
| 22> H         1.296274   -0.786475   -1.458160
| 23> H         2.501531   -1.052182    1.328695
| 24> H         3.386532   -0.651019   -0.146907
| 25> H         2.640383   -2.247012    0.027088
| 26> *
| 27>
| 28> $new_job
| 29> ! ri-mp2 aug-cc-pvtz aug-cc-pvtz/c tightscf
| 30> %pal nprocs 16 end
| 31> %maxcore 3800
| 32> %base "TZ_B-F_74_AB"
| 33>
| 34> *xyz 0 1
| 35> B         0.000001    1.375883   -0.016201
| 36> F         0.000002    2.684156    0.215994
| 37> O        -1.197739    0.754720   -0.123020
| 38> O         1.197740    0.754718   -0.123023
| 39> C        -0.000001   -1.322009    0.161576
| 40> C         1.253200   -0.653269   -0.371955
| 41> C        -1.253201   -0.653267   -0.371955
| 42> C        -2.523176   -1.185270    0.246575
| 43> H        -2.501533   -1.052181    1.328694
| 44> H        -2.640386   -2.247009    0.027085
| 45> H        -3.386533   -0.651015   -0.146908
| 46> H        -1.296274   -0.786471   -1.458160
| 47> H        -0.000001   -1.267198    1.254718
| 48> H        -0.000002   -2.377243   -0.115646
| 49> C         2.523174   -1.185273    0.246577
| 50> H         1.296274   -0.786475   -1.458160
| 51> H         2.501531   -1.052182    1.328695
| 52> H         3.386532   -0.651019   -0.146907
| 53> H         2.640383   -2.247012    0.027088
| 54> *
| 55>
| 56> $new_job
| 57> ! ri-mp2 aug-cc-pvqz aug-cc-pvqz/c tightscf
| 58> %pal nprocs 16 end
| 59> %maxcore 3800
| 60> %base "QZ_B-F_74_AB"
| 61>
| 62> *xyz 0 1
| 63> B         0.000001    1.375883   -0.016201
| 64> F         0.000002    2.684156    0.215994
| 65> O        -1.197739    0.754720   -0.123020
| 66> O         1.197740    0.754718   -0.123023
| 67> C        -0.000001   -1.322009    0.161576
| 68> C         1.253200   -0.653269   -0.371955
| 69> C        -1.253201   -0.653267   -0.371955
| 70> C        -2.523176   -1.185270    0.246575
| 71> H        -2.501533   -1.052181    1.328694
| 72> H        -2.640386   -2.247009    0.027085
| 73> H        -3.386533   -0.651015   -0.146908
| 74> H        -1.296274   -0.786471   -1.458160
| 75> H        -0.000001   -1.267198    1.254718
| 76> H        -0.000002   -2.377243   -0.115646
| 77> C         2.523174   -1.185273    0.246577
| 78> H         1.296274   -0.786475   -1.458160
| 79> H         2.501531   -1.052182    1.328695
| 80> H         3.386532   -0.651019   -0.146907
| 81> H         2.640383   -2.247012    0.027088
| 82> *
| 83>
| 84>
| 85>
| 86>
| 87>                          ****END OF INPUT****
 Total Charge           Charge          ....    0
 Multiplicity           Mult            ....    1
 Number of Electrons    NEL             ....   70
MP2 TOTAL ENERGY:     -470.643790938 Eh
FINAL SINGLE POINT ENERGY      -470.643790937533
MP2 TOTAL ENERGY:     -471.067234779 Eh
FINAL SINGLE POINT ENERGY      -471.067234779188

CARTESIAN COORDINATES (ANGSTROEM)
---------------------------------
  B      0.000001    1.375883   -0.016201
  F      0.000002    2.684156    0.215994
  O     -1.197739    0.754720   -0.123020
  O      1.197740    0.754718   -0.123023
  C     -0.000001   -1.322009    0.161576
  C      1.253200   -0.653269   -0.371955
  C     -1.253201   -0.653267   -0.371955
  C     -2.523176   -1.185270    0.246575
  H     -2.501533   -1.052181    1.328694
  H     -2.640386   -2.247009    0.027085
  H     -3.386533   -0.651015   -0.146908
  H     -1.296274   -0.786471   -1.458160
  H     -0.000001   -1.267198    1.254718
  H     -0.000002   -2.377243   -0.115646
  C      2.523174   -1.185273    0.246577
  H      1.296274   -0.786475   -1.458160
  H      2.501531   -1.052182    1.328695
  H      3.386532   -0.651019   -0.146907
  H      2.640383   -2.247012    0.027088

 Multiplicity           Mult            ....    1
 Number of Electrons    NEL             ....   70
 Basis Dimension        Dim             .... 1180

ORBITAL ENERGIES
----------------

  NO   OCC          E(Eh)            E(eV)
   0   2.0000     -26.273829      -714.9472
   1   2.0000     -20.564158      -559.5792
   2   2.0000     -20.564138      -559.5786
   3   2.0000     -11.298563      -307.4495
   4   2.0000     -11.298555      -307.4493
   5   2.0000     -11.237602      -305.7907
   6   2.0000     -11.223294      -305.4014
   7   2.0000     -11.223294      -305.4014
   8   2.0000      -7.677215      -208.9076
   9   2.0000      -1.592951       -43.3464
  10   2.0000      -1.405398       -38.2428
  11   2.0000      -1.364077       -37.1184
  12   2.0000      -1.094152       -29.7734
  13   2.0000      -1.032399       -28.0930
  14   2.0000      -0.955931       -26.0122
  15   2.0000      -0.847008       -23.0483
  16   2.0000      -0.836792       -22.7703
  17   2.0000      -0.755454       -20.5569
  18   2.0000      -0.713166       -19.4062
  19   2.0000      -0.711194       -19.3526
  20   2.0000      -0.680282       -18.5114
  21   2.0000      -0.658675       -17.9234
  22   2.0000      -0.657469       -17.8906
  23   2.0000      -0.626523       -17.0486
  24   2.0000      -0.590758       -16.0754
  25   2.0000      -0.568174       -15.4608
  26   2.0000      -0.561724       -15.2853
  27   2.0000      -0.557265       -15.1639
  28   2.0000      -0.545324       -14.8390
  29   2.0000      -0.544008       -14.8032
  30   2.0000      -0.534643       -14.5484
  31   2.0000      -0.520149       -14.1540
  32   2.0000      -0.468728       -12.7547
  33   2.0000      -0.456606       -12.4249
  34   2.0000      -0.453772       -12.3478
  35   0.0000       0.020447         0.5564
  36   0.0000       0.027849         0.7578
  37   0.0000       0.028173         0.7666
  38   0.0000       0.033399         0.9088
  39   0.0000       0.044371         1.2074

MULLIKEN ATOMIC CHARGES
-----------------------
   0 B :    1.891681
   1 F :   -0.966654
   2 O :   -1.050394
   3 O :   -1.050395
   4 C :   -0.516712
   5 C :    0.499688
   6 C :    0.499687
   7 C :   -0.906407
   8 H :    0.212932
   9 H :    0.251684
  10 H :    0.259636
  11 H :    0.212249
  12 H :    0.214467
  13 H :    0.418446
  14 C :   -0.906408
  15 H :    0.212249
  16 H :    0.212932
  17 H :    0.259635
  18 H :    0.251685
Sum of atomic charges:   -0.0000000

LOEWDIN ATOMIC CHARGES
----------------------
   0 B :   -1.915595
   1 F :    0.811671
   2 O :    0.968492
   3 O :    0.968492
   4 C :    0.489994
   5 C :   -0.220966
   6 C :   -0.220965
   7 C :    0.927059
   8 H :   -0.279111
   9 H :   -0.275076
  10 H :   -0.277363
  11 H :   -0.278903
  12 H :   -0.264873
  13 H :   -0.249463
  14 C :    0.927059
  15 H :   -0.278903
  16 H :   -0.279111
  17 H :   -0.277362
  18 H :   -0.275077

  Mayer bond orders larger than 0.100000
B(  0-B ,  1-F ) :   0.5135 B(  0-B ,  2-O ) :   0.4077 B(  0-B ,  3-O ) :   0.4077
B(  1-F ,  2-O ) :  -0.2838 B(  1-F ,  3-O ) :  -0.2838 B(  2-O ,  6-C ) :   0.3591
B(  3-O ,  5-C ) :   0.3591 B(  4-C ,  5-C ) :   0.8080 B(  4-C ,  6-C ) :   0.8080
B(  4-C , 12-H ) :   0.8991 B(  4-C , 13-H ) :   0.8099 B(  5-C , 14-C ) :   0.7266
B(  5-C , 15-H ) :   0.9521 B(  5-C , 17-H ) :  -0.1082 B(  6-C ,  7-C ) :   0.7266
B(  6-C , 10-H ) :  -0.1082 B(  6-C , 11-H ) :   0.9521 B(  7-C ,  8-H ) :   0.9764
B(  7-C ,  9-H ) :   0.9979 B(  7-C , 10-H ) :   1.0378 B( 14-C , 16-H ) :   0.9764
B( 14-C , 17-H ) :   1.0378 B( 14-C , 18-H ) :   0.9979

MP2 TOTAL ENERGY:     -471.200307416 Eh
FINAL SINGLE POINT ENERGY      -471.200307416032

DIPOLE MOMENT
-------------
                                X             Y             Z
Electronic contribution:      0.00001      15.08067      -0.67860
Nuclear contribution   :     -0.00001     -16.79276       0.43479
                        -----------------------------------------
Total Dipole Moment    :     -0.00000      -1.71208      -0.24381
                        -----------------------------------------
Magnitude (a.u.)       :      1.72936
Magnitude (Debye)      :      4.39567

Rotational constants in cm-1:     0.061030     0.055148     0.030649
Rotational constants in MHz :  1829.644150  1653.290722   918.834474

                             ****ORCA TERMINATED NORMALLY****
TOTAL RUN TIME: 0 days 0 hours 41 minutes 4 seconds 339 msec
