                         Program Version 5.0.4 -  RELEASE  -
|  1> ! ri-mp2 aug-cc-pvdz aug-cc-pvdz/c tightscf
|  2> %pal nprocs 16 end
|  3> %maxcore 3800
|  4> %base "DZ_S-F_48_AB"
|  5> %scf
|  6> STABPerform true
|  7> STABRestartUHFifUnstable true
|  8> end
|  9>
| 10> *xyz 0 1
| 11> F        -1.769715    1.186191   -0.000006
| 12> S        -1.733850   -0.429659    0.000007
| 13> N        -0.149746   -0.748464   -0.000002
| 14> C         0.962647   -0.304629   -0.000005
| 15> S         2.433836    0.204115   -0.000001
| 16> *
| 17>
| 18> $new_job
| 19> ! ri-mp2 aug-cc-pvtz aug-cc-pvtz/c tightscf
| 20> %pal nprocs 16 end
| 21> %maxcore 3800
| 22> %base "TZ_S-F_48_AB"
| 23>
| 24> *xyz 0 1
| 25> F        -1.769715    1.186191   -0.000006
| 26> S        -1.733850   -0.429659    0.000007
| 27> N        -0.149746   -0.748464   -0.000002
| 28> C         0.962647   -0.304629   -0.000005
| 29> S         2.433836    0.204115   -0.000001
| 30> *
| 31>
| 32> $new_job
| 33> ! ri-mp2 aug-cc-pvqz aug-cc-pvqz/c tightscf
| 34> %pal nprocs 16 end
| 35> %maxcore 3800
| 36> %base "QZ_S-F_48_AB"
| 37>
| 38> *xyz 0 1
| 39> F        -1.769715    1.186191   -0.000006
| 40> S        -1.733850   -0.429659    0.000007
| 41> N        -0.149746   -0.748464   -0.000002
| 42> C         0.962647   -0.304629   -0.000005
| 43> S         2.433836    0.204115   -0.000001
| 44> *
| 45>
| 46>
| 47>
| 48>
| 49>                          ****END OF INPUT****
 Total Charge           Charge          ....    0
 Multiplicity           Mult            ....    1
 Number of Electrons    NEL             ....   54
MP2 TOTAL ENERGY:     -987.546039434 Eh
FINAL SINGLE POINT ENERGY      -987.546039433801
MP2 TOTAL ENERGY:     -987.811285765 Eh
FINAL SINGLE POINT ENERGY      -987.811285764728

CARTESIAN COORDINATES (ANGSTROEM)
---------------------------------
  F     -1.769715    1.186191   -0.000006
  S     -1.733850   -0.429659    0.000007
  N     -0.149746   -0.748464   -0.000002
  C      0.962647   -0.304629   -0.000005
  S      2.433836    0.204115   -0.000001

 Multiplicity           Mult            ....    1
 Number of Electrons    NEL             ....   54
 Basis Dimension        Dim             ....  408

ORBITAL ENERGIES
----------------

  NO   OCC          E(Eh)            E(eV)
   0   2.0000     -92.102033     -2506.2237
   1   2.0000     -91.977788     -2502.8428
   2   2.0000     -26.335832      -716.6344
   3   2.0000     -15.642294      -425.6485
   4   2.0000     -11.402394      -310.2749
   5   2.0000      -9.090998      -247.3786
   6   2.0000      -8.982165      -244.4171
   7   2.0000      -6.772505      -184.2892
   8   2.0000      -6.770638      -184.2384
   9   2.0000      -6.768591      -184.1827
  10   2.0000      -6.663885      -181.3335
  11   2.0000      -6.661747      -181.2753
  12   2.0000      -6.661254      -181.2619
  13   2.0000      -1.638123       -44.5756
  14   2.0000      -1.328300       -36.1449
  15   2.0000      -1.092162       -29.7192
  16   2.0000      -1.012640       -27.5553
  17   2.0000      -0.801396       -21.8071
  18   2.0000      -0.721143       -19.6233
  19   2.0000      -0.718165       -19.5423
  20   2.0000      -0.630934       -17.1686
  21   2.0000      -0.618116       -16.8198
  22   2.0000      -0.605051       -16.4643
  23   2.0000      -0.581990       -15.8368
  24   2.0000      -0.447308       -12.1719
  25   2.0000      -0.407461       -11.0876
  26   2.0000      -0.346720        -9.4347
  27   0.0000       0.037077         1.0089
  28   0.0000       0.043333         1.1792
  29   0.0000       0.045546         1.2394
  30   0.0000       0.062232         1.6934
  31   0.0000       0.062365         1.6970

MULLIKEN ATOMIC CHARGES
-----------------------
   0 F :   -0.569907
   1 S :    0.958704
   2 N :   -0.635874
   3 C :    0.076171
   4 S :    0.170907
Sum of atomic charges:    0.0000000

LOEWDIN ATOMIC CHARGES
----------------------
   0 F :    0.071479
   1 S :    0.441410
   2 N :   -0.287495
   3 C :   -1.208400
   4 S :    0.983006

  Mayer bond orders larger than 0.100000
B(  0-F ,  1-S ) :   0.6345 B(  1-S ,  2-N ) :   0.9107 B(  1-S ,  3-C ) :   0.1153
B(  2-N ,  3-C ) :   1.9882 B(  3-C ,  4-S ) :   1.6970

MP2 TOTAL ENERGY:     -987.899754930 Eh
FINAL SINGLE POINT ENERGY      -987.899754930011

DIPOLE MOMENT
-------------
                                X             Y             Z
Electronic contribution:     -1.86250       0.72376      -0.00000
Nuclear contribution   :      1.60323      -1.08622       0.00001
                        -----------------------------------------
Total Dipole Moment    :     -0.25926      -0.36245       0.00000
                        -----------------------------------------
Magnitude (a.u.)       :      0.44563
Magnitude (Debye)      :      1.13271

Rotational constants in cm-1:     0.392755     0.047191     0.042129
Rotational constants in MHz : 11774.511655  1414.759918  1263.004333

                             ****ORCA TERMINATED NORMALLY****
TOTAL RUN TIME: 0 days 0 hours 9 minutes 19 seconds 325 msec
