                         Program Version 5.0.4 -  RELEASE  -
|  1> ! ri-mp2 aug-cc-pvdz aug-cc-pvdz/c tightscf
|  2> %pal nprocs 16 end
|  3> %maxcore 3800
|  4> %base "DZ_S-Cl_4_AB"
|  5> %scf
|  6> STABPerform true
|  7> STABRestartUHFifUnstable true
|  8> end
|  9>
| 10> *xyz 0 1
| 11> Cl        -1.323540   -0.203464   -0.002548
| 12> O         1.519441   -0.672893   -0.119021
| 13> S         0.542242    0.618823    0.015079
| 14> H         1.668772   -1.059132    0.754219
| 15> *
| 16>
| 17> $new_job
| 18> ! ri-mp2 aug-cc-pvtz aug-cc-pvtz/c tightscf
| 19> %pal nprocs 16 end
| 20> %maxcore 3800
| 21> %base "TZ_S-Cl_4_AB"
| 22>
| 23> *xyz 0 1
| 24> Cl        -1.323540   -0.203464   -0.002548
| 25> O         1.519441   -0.672893   -0.119021
| 26> S         0.542242    0.618823    0.015079
| 27> H         1.668772   -1.059132    0.754219
| 28> *
| 29>
| 30> $new_job
| 31> ! ri-mp2 aug-cc-pvqz aug-cc-pvqz/c tightscf
| 32> %pal nprocs 16 end
| 33> %maxcore 3800
| 34> %base "QZ_S-Cl_4_AB"
| 35>
| 36> *xyz 0 1
| 37> Cl        -1.323540   -0.203464   -0.002548
| 38> O         1.519441   -0.672893   -0.119021
| 39> S         0.542242    0.618823    0.015079
| 40> H         1.668772   -1.059132    0.754219
| 41> *
| 42>
| 43>
| 44>
| 45>
| 46>                          ****END OF INPUT****
 Total Charge           Charge          ....    0
 Multiplicity           Mult            ....    1
 Number of Electrons    NEL             ....   42
MP2 TOTAL ENERGY:     -932.946113253 Eh
FINAL SINGLE POINT ENERGY      -932.946113253082
MP2 TOTAL ENERGY:     -933.131579734 Eh
FINAL SINGLE POINT ENERGY      -933.131579734465

CARTESIAN COORDINATES (ANGSTROEM)
---------------------------------
  Cl    -1.323540   -0.203464   -0.002548
  O      1.519441   -0.672893   -0.119021
  S      0.542242    0.618823    0.015079
  H      1.668772   -1.059132    0.754219

 Multiplicity           Mult            ....    1
 Number of Electrons    NEL             ....   42
 Basis Dimension        Dim             ....  294

ORBITAL ENERGIES
----------------

  NO   OCC          E(Eh)            E(eV)
   0   2.0000    -104.858070     -2853.3331
   1   2.0000     -92.063149     -2505.1656
   2   2.0000     -20.629294      -561.3516
   3   2.0000     -10.582613      -287.9675
   4   2.0000      -9.054943      -246.3975
   5   2.0000      -8.049536      -219.0390
   6   2.0000      -8.047757      -218.9906
   7   2.0000      -8.047462      -218.9826
   8   2.0000      -6.735940      -183.2943
   9   2.0000      -6.734571      -183.2570
  10   2.0000      -6.732732      -183.2069
  11   2.0000      -1.424190       -38.7542
  12   2.0000      -1.137485       -30.9525
  13   2.0000      -0.917822       -24.9752
  14   2.0000      -0.724406       -19.7121
  15   2.0000      -0.631796       -17.1921
  16   2.0000      -0.614276       -16.7153
  17   2.0000      -0.514262       -13.9938
  18   2.0000      -0.490521       -13.3477
  19   2.0000      -0.474121       -12.9015
  20   2.0000      -0.369879       -10.0649
  21   0.0000       0.024382         0.6635
  22   0.0000       0.047302         1.2872
  23   0.0000       0.061601         1.6763
  24   0.0000       0.075501         2.0545
  25   0.0000       0.093597         2.5469

MULLIKEN ATOMIC CHARGES
-----------------------
   0 Cl:   -0.215957
   1 O :   -0.689652
   2 S :    0.571712
   3 H :    0.333898
Sum of atomic charges:   -0.0000000

LOEWDIN ATOMIC CHARGES
----------------------
   0 Cl:    0.379818
   1 O :    0.603761
   2 S :    0.022944
   3 H :   -1.006524

  Mayer bond orders larger than 0.100000
B(  0-Cl,  2-S ) :   0.9812 B(  1-O ,  2-S ) :   0.9011 B(  1-O ,  3-H ) :   0.9214

MP2 TOTAL ENERGY:     -933.192729624 Eh
FINAL SINGLE POINT ENERGY      -933.192729623962

DIPOLE MOMENT
-------------
                                X             Y             Z
Electronic contribution:     -2.93416       0.64970      -0.13339
Nuclear contribution   :      3.33129      -0.74451       0.70510
                        -----------------------------------------
Total Dipole Moment    :      0.39713      -0.09480       0.57171
                        -----------------------------------------
Magnitude (a.u.)       :      0.70254
Magnitude (Debye)      :      1.78570

Rotational constants in cm-1:     0.737929     0.150583     0.126478
Rotational constants in MHz : 22122.554106  4514.358323  3791.704136

                             ****ORCA TERMINATED NORMALLY****
TOTAL RUN TIME: 0 days 0 hours 2 minutes 47 seconds 784 msec
