                         Program Version 5.0.4 -  RELEASE  -
|  1> ! ri-mp2 aug-cc-pvdz aug-cc-pvdz/c tightscf
|  2> %pal nprocs 16 end
|  3> %maxcore 3800
|  4> %base "DZ_P-C_61_AB"
|  5>
|  6> *xyz 0 1
|  7> C         1.339745   -1.197959    0.016967
|  8> C        -0.039724   -1.173327    0.010982
|  9> C         2.019744    0.005045    0.000062
| 10> C         1.374912    1.223435   -0.022983
| 11> C        -0.008368    1.236290   -0.029741
| 12> C        -0.716143    0.042199   -0.013362
| 13> H        -0.549552    2.172020   -0.048671
| 14> H         1.892487   -2.124251    0.034638
| 15> H        -0.592481   -2.102447    0.025460
| 16> P        -2.505425    0.116801   -0.010142
| 17> O        -3.058759    1.467486    0.032176
| 18> O        -2.988412   -0.810193    1.197866
| 19> N         3.493880   -0.016668    0.008007
| 20> O         4.037560   -1.099088    0.028013
| 21> O         4.069893    1.048615   -0.005568
| 22> H         1.951778    2.135033   -0.036061
| 23> H        -3.287054   -0.290417    1.953254
| 24> O        -2.850666   -0.785518   -1.266708
| 25> H        -3.788898   -0.809796   -1.490324
| 26> *
| 27>
| 28> $new_job
| 29> ! ri-mp2 aug-cc-pvtz aug-cc-pvtz/c tightscf
| 30> %pal nprocs 16 end
| 31> %maxcore 3800
| 32> %base "TZ_P-C_61_AB"
| 33>
| 34> *xyz 0 1
| 35> C         1.339745   -1.197959    0.016967
| 36> C        -0.039724   -1.173327    0.010982
| 37> C         2.019744    0.005045    0.000062
| 38> C         1.374912    1.223435   -0.022983
| 39> C        -0.008368    1.236290   -0.029741
| 40> C        -0.716143    0.042199   -0.013362
| 41> H        -0.549552    2.172020   -0.048671
| 42> H         1.892487   -2.124251    0.034638
| 43> H        -0.592481   -2.102447    0.025460
| 44> P        -2.505425    0.116801   -0.010142
| 45> O        -3.058759    1.467486    0.032176
| 46> O        -2.988412   -0.810193    1.197866
| 47> N         3.493880   -0.016668    0.008007
| 48> O         4.037560   -1.099088    0.028013
| 49> O         4.069893    1.048615   -0.005568
| 50> H         1.951778    2.135033   -0.036061
| 51> H        -3.287054   -0.290417    1.953254
| 52> O        -2.850666   -0.785518   -1.266708
| 53> H        -3.788898   -0.809796   -1.490324
| 54> *
| 55>
| 56> $new_job
| 57> ! ri-mp2 aug-cc-pvqz aug-cc-pvqz/c tightscf
| 58> %pal nprocs 16 end
| 59> %maxcore 3800
| 60> %base "QZ_P-C_61_AB"
| 61>
| 62> *xyz 0 1
| 63> C         1.339745   -1.197959    0.016967
| 64> C        -0.039724   -1.173327    0.010982
| 65> C         2.019744    0.005045    0.000062
| 66> C         1.374912    1.223435   -0.022983
| 67> C        -0.008368    1.236290   -0.029741
| 68> C        -0.716143    0.042199   -0.013362
| 69> H        -0.549552    2.172020   -0.048671
| 70> H         1.892487   -2.124251    0.034638
| 71> H        -0.592481   -2.102447    0.025460
| 72> P        -2.505425    0.116801   -0.010142
| 73> O        -3.058759    1.467486    0.032176
| 74> O        -2.988412   -0.810193    1.197866
| 75> N         3.493880   -0.016668    0.008007
| 76> O         4.037560   -1.099088    0.028013
| 77> O         4.069893    1.048615   -0.005568
| 78> H         1.951778    2.135033   -0.036061
| 79> H        -3.287054   -0.290417    1.953254
| 80> O        -2.850666   -0.785518   -1.266708
| 81> H        -3.788898   -0.809796   -1.490324
| 82> *
| 83>
| 84>
| 85>
| 86>
| 87>                          ****END OF INPUT****
 Total Charge           Charge          ....    0
 Multiplicity           Mult            ....    1
 Number of Electrons    NEL             ....  104
MP2 TOTAL ENERGY:    -1002.356937453 Eh
FINAL SINGLE POINT ENERGY     -1002.356937452599
MP2 TOTAL ENERGY:    -1002.986257657 Eh
FINAL SINGLE POINT ENERGY     -1002.986257656607

CARTESIAN COORDINATES (ANGSTROEM)
---------------------------------
  C      1.339745   -1.197959    0.016967
  C     -0.039724   -1.173327    0.010982
  C      2.019744    0.005045    0.000062
  C      1.374912    1.223435   -0.022983
  C     -0.008368    1.236290   -0.029741
  C     -0.716143    0.042199   -0.013362
  H     -0.549552    2.172020   -0.048671
  H      1.892487   -2.124251    0.034638
  H     -0.592481   -2.102447    0.025460
  P     -2.505425    0.116801   -0.010142
  O     -3.058759    1.467486    0.032176
  O     -2.988412   -0.810193    1.197866
  N      3.493880   -0.016668    0.008007
  O      4.037560   -1.099088    0.028013
  O      4.069893    1.048615   -0.005568
  H      1.951778    2.135033   -0.036061
  H     -3.287054   -0.290417    1.953254
  O     -2.850666   -0.785518   -1.266708
  H     -3.788898   -0.809796   -1.490324

 Multiplicity           Mult            ....    1
 Number of Electrons    NEL             ....  104
 Basis Dimension        Dim             .... 1320

ORBITAL ENERGIES
----------------

  NO   OCC          E(Eh)            E(eV)
   0   2.0000     -80.087881     -2179.3020
   1   2.0000     -20.617163      -561.0215
   2   2.0000     -20.614486      -560.9487
   3   2.0000     -20.607773      -560.7660
   4   2.0000     -20.607717      -560.7645
   5   2.0000     -20.521384      -558.4152
   6   2.0000     -15.860643      -431.5900
   7   2.0000     -11.322059      -308.0889
   8   2.0000     -11.279978      -306.9438
   9   2.0000     -11.279180      -306.9221
  10   2.0000     -11.278763      -306.9107
  11   2.0000     -11.277585      -306.8787
  12   2.0000     -11.275759      -306.8290
  13   2.0000      -7.610502      -207.0923
  14   2.0000      -5.508863      -149.9038
  15   2.0000      -5.508267      -149.8876
  16   2.0000      -5.507377      -149.8634
  17   2.0000      -1.626345       -44.2551
  18   2.0000      -1.456072       -39.6217
  19   2.0000      -1.416807       -38.5533
  20   2.0000      -1.401834       -38.1458
  21   2.0000      -1.317111       -35.8404
  22   2.0000      -1.216748       -33.1094
  23   2.0000      -1.110250       -30.2114
  24   2.0000      -1.067116       -29.0377
  25   2.0000      -0.982010       -26.7219
  26   2.0000      -0.886072       -24.1113
  27   2.0000      -0.877396       -23.8752
  28   2.0000      -0.829311       -22.5667
  29   2.0000      -0.795337       -21.6422
  30   2.0000      -0.768906       -20.9230
  31   2.0000      -0.741712       -20.1830
  32   2.0000      -0.736004       -20.0277
  33   2.0000      -0.721972       -19.6458
  34   2.0000      -0.689146       -18.7526
  35   2.0000      -0.673209       -18.3189
  36   2.0000      -0.661628       -18.0038
  37   2.0000      -0.646768       -17.5995
  38   2.0000      -0.636714       -17.3259
  39   2.0000      -0.616152       -16.7663
  40   2.0000      -0.583354       -15.8739
  41   2.0000      -0.574866       -15.6429
  42   2.0000      -0.552373       -15.0308
  43   2.0000      -0.541485       -14.7346
  44   2.0000      -0.531476       -14.4622
  45   2.0000      -0.504660       -13.7325
  46   2.0000      -0.503800       -13.7091
  47   2.0000      -0.484394       -13.1810
  48   2.0000      -0.477398       -12.9907
  49   2.0000      -0.465206       -12.6589
  50   2.0000      -0.395602       -10.7649
  51   2.0000      -0.380252       -10.3472
  52   0.0000       0.017024         0.4632
  53   0.0000       0.022335         0.6078
  54   0.0000       0.028951         0.7878
  55   0.0000       0.029563         0.8045
  56   0.0000       0.031561         0.8588

MULLIKEN ATOMIC CHARGES
-----------------------
   0 C :   -0.098040
   1 C :   -0.348455
   2 C :   -0.238567
   3 C :   -0.009716
   4 C :   -0.393337
   5 C :   -0.089662
   6 H :    0.260741
   7 H :    0.313159
   8 H :    0.222707
   9 P :    2.853875
  10 O :   -1.300116
  11 O :   -0.940231
  12 N :    0.838195
  13 O :   -0.619725
  14 O :   -0.618850
  15 H :    0.348073
  16 H :    0.391044
  17 O :   -0.965915
  18 H :    0.394820
Sum of atomic charges:    0.0000000

LOEWDIN ATOMIC CHARGES
----------------------
   0 C :    0.334686
   1 C :    0.310159
   2 C :   -0.295075
   3 C :    0.338174
   4 C :    0.305980
   5 C :   -0.133613
   6 H :   -0.341000
   7 H :   -0.347196
   8 H :   -0.317851
   9 P :   -0.649452
  10 O :    0.333802
  11 O :    1.109886
  12 N :   -0.840736
  13 O :    0.557059
  14 O :    0.557627
  15 H :   -0.345614
  16 H :   -0.856770
  17 O :    1.111400
  18 H :   -0.831465

  Mayer bond orders larger than 0.100000
B(  0-C ,  1-C ) :   1.2394 B(  0-C ,  2-C ) :   1.2489 B(  0-C ,  4-C ) :   0.1498
B(  0-C ,  5-C ) :  -0.3203 B(  0-C ,  7-H ) :   0.9328 B(  0-C ,  8-H ) :  -0.1261
B(  0-C , 12-N ) :  -0.1086 B(  1-C ,  3-C ) :   0.1393 B(  1-C ,  5-C ) :   0.7760
B(  1-C ,  7-H ) :  -0.1304 B(  1-C ,  8-H ) :   1.0916 B(  1-C ,  9-P ) :  -0.1054
B(  1-C , 11-O ) :   0.1054 B(  1-C , 17-O ) :   0.1087 B(  2-C ,  3-C ) :   1.2096
B(  2-C ,  5-C ) :  -0.1434 B(  2-C ,  7-H ) :  -0.1056 B(  2-C , 12-N ) :   0.7654
B(  2-C , 13-O ) :   0.3308 B(  2-C , 14-O ) :   0.3204 B(  2-C , 15-H ) :  -0.1106
B(  3-C ,  4-C ) :   1.2640 B(  3-C ,  5-C ) :  -0.3020 B(  3-C ,  6-H ) :  -0.1054
B(  3-C , 10-O ) :  -0.1068 B(  3-C , 12-N ) :  -0.1179 B(  3-C , 15-H ) :   0.9116
B(  4-C ,  5-C ) :   0.8589 B(  4-C ,  6-H ) :   1.0238 B(  4-C , 15-H ) :  -0.1227
B(  5-C ,  6-H ) :  -0.1166 B(  5-C ,  8-H ) :  -0.1354 B(  5-C ,  9-P ) :   0.8929
B(  5-C , 17-O ) :  -0.1089 B(  9-P , 10-O ) :   1.1856 B(  9-P , 11-O ) :   0.5688
B(  9-P , 17-O ) :   0.5005 B( 11-O , 16-H ) :   0.9024 B( 12-N , 13-O ) :   1.1613
B( 12-N , 14-O ) :   1.1667 B( 17-O , 18-H ) :   0.9175

MP2 TOTAL ENERGY:    -1003.193632577 Eh
FINAL SINGLE POINT ENERGY     -1003.193632577055

DIPOLE MOMENT
-------------
                                X             Y             Z
Electronic contribution:      0.32907       0.35432      -0.17026
Nuclear contribution   :     -1.90383      -1.09062       0.43065
                        -----------------------------------------
Total Dipole Moment    :     -1.57476      -0.73630       0.26038
                        -----------------------------------------
Magnitude (a.u.)       :      1.75778
Magnitude (Debye)      :      4.46793

Rotational constants in cm-1:     0.071383     0.011227     0.010354
Rotational constants in MHz :  2140.022101   336.583344   310.409052

                             ****ORCA TERMINATED NORMALLY****
TOTAL RUN TIME: 0 days 1 hours 2 minutes 39 seconds 71 msec
