                         Program Version 5.0.4 -  RELEASE  -
|  1> ! ri-mp2 aug-cc-pvdz aug-cc-pvdz/c tightscf
|  2> %pal nprocs 16 end
|  3> %maxcore 3800
|  4> %base "DZ_B-Si_59_AB"
|  5>
|  6> *xyz 0 1
|  7> C         2.290948    0.864585   -0.770070
|  8> C         0.979362    1.271349   -0.594434
|  9> C         2.804564   -0.220138   -0.072345
| 10> C         1.960323   -0.889273    0.805551
| 11> C         0.650259   -0.481783    0.981659
| 12> C         0.127400    0.609951    0.286678
| 13> H         2.927812    1.399865   -1.464097
| 14> H         0.614741    2.122183   -1.157140
| 15> B        -2.794172   -0.444112   -0.239785
| 16> O        -2.213869   -1.570617   -0.746435
| 17> O        -4.149277   -0.376939   -0.226577
| 18> H         2.335814   -1.740296    1.361136
| 19> C         4.235046   -0.641265   -0.238334
| 20> H         4.618314   -0.365205   -1.219922
| 21> H         4.348121   -1.718270   -0.117769
| 22> H         4.869343   -0.160096    0.509316
| 23> H         0.026758   -1.026570    1.682793
| 24> H        -4.566966   -1.164698   -0.596151
| 25> H        -1.251623   -1.554333   -0.735756
| 26> Si        -1.674657    1.088706    0.478331
| 27> H        -1.981043    1.342473    1.906905
| 28> H        -1.907467    2.343522   -0.275151
| 29> *
| 30>
| 31> $new_job
| 32> ! ri-mp2 aug-cc-pvtz aug-cc-pvtz/c tightscf
| 33> %pal nprocs 16 end
| 34> %maxcore 3800
| 35> %base "TZ_B-Si_59_AB"
| 36>
| 37> *xyz 0 1
| 38> C         2.290948    0.864585   -0.770070
| 39> C         0.979362    1.271349   -0.594434
| 40> C         2.804564   -0.220138   -0.072345
| 41> C         1.960323   -0.889273    0.805551
| 42> C         0.650259   -0.481783    0.981659
| 43> C         0.127400    0.609951    0.286678
| 44> H         2.927812    1.399865   -1.464097
| 45> H         0.614741    2.122183   -1.157140
| 46> B        -2.794172   -0.444112   -0.239785
| 47> O        -2.213869   -1.570617   -0.746435
| 48> O        -4.149277   -0.376939   -0.226577
| 49> H         2.335814   -1.740296    1.361136
| 50> C         4.235046   -0.641265   -0.238334
| 51> H         4.618314   -0.365205   -1.219922
| 52> H         4.348121   -1.718270   -0.117769
| 53> H         4.869343   -0.160096    0.509316
| 54> H         0.026758   -1.026570    1.682793
| 55> H        -4.566966   -1.164698   -0.596151
| 56> H        -1.251623   -1.554333   -0.735756
| 57> Si        -1.674657    1.088706    0.478331
| 58> H        -1.981043    1.342473    1.906905
| 59> H        -1.907467    2.343522   -0.275151
| 60> *
| 61>
| 62> $new_job
| 63> ! ri-mp2 aug-cc-pvqz aug-cc-pvqz/c tightscf
| 64> %pal nprocs 16 end
| 65> %maxcore 3800
| 66> %base "QZ_B-Si_59_AB"
| 67>
| 68> *xyz 0 1
| 69> C         2.290948    0.864585   -0.770070
| 70> C         0.979362    1.271349   -0.594434
| 71> C         2.804564   -0.220138   -0.072345
| 72> C         1.960323   -0.889273    0.805551
| 73> C         0.650259   -0.481783    0.981659
| 74> C         0.127400    0.609951    0.286678
| 75> H         2.927812    1.399865   -1.464097
| 76> H         0.614741    2.122183   -1.157140
| 77> B        -2.794172   -0.444112   -0.239785
| 78> O        -2.213869   -1.570617   -0.746435
| 79> O        -4.149277   -0.376939   -0.226577
| 80> H         2.335814   -1.740296    1.361136
| 81> C         4.235046   -0.641265   -0.238334
| 82> H         4.618314   -0.365205   -1.219922
| 83> H         4.348121   -1.718270   -0.117769
| 84> H         4.869343   -0.160096    0.509316
| 85> H         0.026758   -1.026570    1.682793
| 86> H        -4.566966   -1.164698   -0.596151
| 87> H        -1.251623   -1.554333   -0.735756
| 88> Si        -1.674657    1.088706    0.478331
| 89> H        -1.981043    1.342473    1.906905
| 90> H        -1.907467    2.343522   -0.275151
| 91> *
| 92>
| 93>
| 94>
| 95>
| 96>                          ****END OF INPUT****
 Total Charge           Charge          ....    0
 Multiplicity           Mult            ....    1
 Number of Electrons    NEL             ....   88
MP2 TOTAL ENERGY:     -736.539127059 Eh
FINAL SINGLE POINT ENERGY      -736.539127059380
MP2 TOTAL ENERGY:     -736.968721167 Eh
FINAL SINGLE POINT ENERGY      -736.968721167046

CARTESIAN COORDINATES (ANGSTROEM)
---------------------------------
  C      2.290948    0.864585   -0.770070
  C      0.979362    1.271349   -0.594434
  C      2.804564   -0.220138   -0.072345
  C      1.960323   -0.889273    0.805551
  C      0.650259   -0.481783    0.981659
  C      0.127400    0.609951    0.286678
  H      2.927812    1.399865   -1.464097
  H      0.614741    2.122183   -1.157140
  B     -2.794172   -0.444112   -0.239785
  O     -2.213869   -1.570617   -0.746435
  O     -4.149277   -0.376939   -0.226577
  H      2.335814   -1.740296    1.361136
  C      4.235046   -0.641265   -0.238334
  H      4.618314   -0.365205   -1.219922
  H      4.348121   -1.718270   -0.117769
  H      4.869343   -0.160096    0.509316
  H      0.026758   -1.026570    1.682793
  H     -4.566966   -1.164698   -0.596151
  H     -1.251623   -1.554333   -0.735756
  Si    -1.674657    1.088706    0.478331
  H     -1.981043    1.342473    1.906905
  H     -1.907467    2.343522   -0.275151

 Multiplicity           Mult            ....    1
 Number of Electrons    NEL             ....   88
 Basis Dimension        Dim             .... 1390

ORBITAL ENERGIES
----------------

  NO   OCC          E(Eh)            E(eV)
   0   2.0000     -68.750374     -1870.7928
   1   2.0000     -20.569061      -559.7126
   2   2.0000     -20.564064      -559.5766
   3   2.0000     -11.247511      -306.0603
   4   2.0000     -11.241367      -305.8931
   5   2.0000     -11.239305      -305.8370
   6   2.0000     -11.233740      -305.6856
   7   2.0000     -11.232215      -305.6441
   8   2.0000     -11.228532      -305.5439
   9   2.0000     -11.220566      -305.3271
  10   2.0000      -7.633684      -207.7231
  11   2.0000      -6.102001      -166.0439
  12   2.0000      -4.208417      -114.5168
  13   2.0000      -4.208151      -114.5096
  14   2.0000      -4.207832      -114.5009
  15   2.0000      -1.385183       -37.6928
  16   2.0000      -1.344431       -36.5838
  17   2.0000      -1.164182       -31.6790
  18   2.0000      -1.053268       -28.6609
  19   2.0000      -1.021943       -27.8085
  20   2.0000      -0.940982       -25.6054
  21   2.0000      -0.834671       -22.7126
  22   2.0000      -0.807975       -21.9861
  23   2.0000      -0.773267       -21.0417
  24   2.0000      -0.741910       -20.1884
  25   2.0000      -0.715055       -19.4576
  26   2.0000      -0.656278       -17.8582
  27   2.0000      -0.646886       -17.6027
  28   2.0000      -0.629848       -17.1390
  29   2.0000      -0.607202       -16.5228
  30   2.0000      -0.590204       -16.0603
  31   2.0000      -0.584686       -15.9101
  32   2.0000      -0.573225       -15.5982
  33   2.0000      -0.563636       -15.3373
  34   2.0000      -0.548011       -14.9121
  35   2.0000      -0.535107       -14.5610
  36   2.0000      -0.503615       -13.7041
  37   2.0000      -0.501211       -13.6386
  38   2.0000      -0.491585       -13.3767
  39   2.0000      -0.470416       -12.8007
  40   2.0000      -0.449703       -12.2370
  41   2.0000      -0.414140       -11.2693
  42   2.0000      -0.345823        -9.4103
  43   2.0000      -0.330581        -8.9956
  44   0.0000       0.019864         0.5405
  45   0.0000       0.026454         0.7198
  46   0.0000       0.028089         0.7643
  47   0.0000       0.032365         0.8807
  48   0.0000       0.036928         1.0049

MULLIKEN ATOMIC CHARGES
-----------------------
   0 C :   -0.292104
   1 C :   -0.551061
   2 C :    0.268736
   3 C :   -0.239441
   4 C :   -0.301016
   5 C :    0.021699
   6 H :    0.238521
   7 H :    0.249559
   8 B :    1.393649
   9 O :   -1.187039
  10 O :   -1.096208
  11 H :    0.244445
  12 C :   -0.833522
  13 H :    0.223838
  14 H :    0.225958
  15 H :    0.285210
  16 H :    0.261157
  17 H :    0.329287
  18 H :    0.407367
  19 Si:    0.779657
  20 H :   -0.181372
  21 H :   -0.247322
Sum of atomic charges:    0.0000000

LOEWDIN ATOMIC CHARGES
----------------------
   0 C :    0.350227
   1 C :    0.270544
   2 C :   -0.077453
   3 C :    0.350573
   4 C :    0.257512
   5 C :   -0.121371
   6 H :   -0.315215
   7 H :   -0.338754
   8 B :   -1.182165
   9 O :    1.323165
  10 O :    1.276897
  11 H :   -0.313045
  12 C :    0.910677
  13 H :   -0.299319
  14 H :   -0.296193
  15 H :   -0.275944
  16 H :   -0.323817
  17 H :   -0.808022
  18 H :   -0.843571
  19 Si:    0.904730
  20 H :   -0.226323
  21 H :   -0.223132

  Mayer bond orders larger than 0.100000
B(  0-C ,  1-C ) :   1.3182 B(  0-C ,  2-C ) :   0.9989 B(  0-C ,  3-C ) :  -0.1424
B(  0-C ,  4-C ) :   0.1217 B(  0-C ,  5-C ) :  -0.2351 B(  0-C ,  6-H ) :   1.0704
B(  0-C ,  7-H ) :  -0.1497 B(  1-C ,  3-C ) :   0.1648 B(  1-C ,  5-C ) :   0.9007
B(  1-C ,  6-H ) :  -0.1573 B(  1-C ,  7-H ) :   1.0244 B(  1-C , 19-Si) :  -0.1259
B(  2-C ,  3-C ) :   1.0087 B(  2-C , 12-C ) :   0.7228 B(  2-C , 13-H ) :  -0.1077
B(  2-C , 14-H ) :  -0.1129 B(  3-C ,  4-C ) :   1.2416 B(  3-C ,  5-C ) :  -0.2314
B(  3-C , 11-H ) :   1.0580 B(  3-C , 16-H ) :  -0.1451 B(  4-C ,  5-C ) :   0.9879
B(  4-C , 11-H ) :  -0.1357 B(  4-C , 16-H ) :   1.0259 B(  4-C , 19-Si) :  -0.1433
B(  5-C ,  7-H ) :  -0.1420 B(  5-C , 16-H ) :  -0.1511 B(  5-C , 19-Si) :   0.9323
B(  5-C , 21-H ) :  -0.1608 B(  8-B ,  9-O ) :   0.4213 B(  8-B , 10-O ) :   0.4107
B(  8-B , 19-Si) :   0.7215 B(  9-O , 10-O ) :  -0.1333 B(  9-O , 18-H ) :   0.8629
B( 10-O , 17-H ) :   0.9432 B( 10-O , 19-Si) :  -0.1840 B( 12-C , 13-H ) :   1.0425
B( 12-C , 14-H ) :   1.0395 B( 12-C , 15-H ) :   0.9489 B( 19-Si, 20-H ) :   0.6973
B( 19-Si, 21-H ) :   0.6861

MP2 TOTAL ENERGY:     -737.106652661 Eh
FINAL SINGLE POINT ENERGY      -737.106652660943

DIPOLE MOMENT
-------------
                                X             Y             Z
Electronic contribution:    -11.32282      -0.16826      -0.24715
Nuclear contribution   :     12.22836      -0.25912       0.04280
                        -----------------------------------------
Total Dipole Moment    :      0.90555      -0.42737      -0.20435
                        -----------------------------------------
Magnitude (a.u.)       :      1.02197
Magnitude (Debye)      :      2.59765

Rotational constants in cm-1:     0.077853     0.014984     0.013884
Rotational constants in MHz :  2333.983784   449.221234   416.220544

                             ****ORCA TERMINATED NORMALLY****
TOTAL RUN TIME: 0 days 1 hours 0 minutes 17 seconds 121 msec
