                         Program Version 5.0.4 -  RELEASE  -
|  1> ! ri-mp2 aug-cc-pvdz aug-cc-pvdz/c tightscf
|  2> %pal nprocs 16 end
|  3> %maxcore 3800
|  4> %base "DZ_Si-Si_146_AB"
|  5> %scf
|  6> STABPerform true
|  7> STABRestartUHFifUnstable true
|  8> end
|  9>
| 10> *xyz 0 1
| 11> Si         2.476305   -0.829874    0.022495
| 12> Si         1.361790    1.224550   -0.039610
| 13> P        -1.244239   -0.182909   -0.001233
| 14> O        -1.963154    0.171420    1.360424
| 15> O        -2.389301    0.025993   -1.076898
| 16> H        -2.292041   -0.571472   -1.826683
| 17> O        -0.595192   -1.490667   -0.073320
| 18> O        -0.301622    1.044117   -0.177851
| 19> H         1.762975    2.032906   -1.208883
| 20> H         1.602618    2.016932    1.184303
| 21> H         2.139803   -1.597540    1.235362
| 22> H         3.919365   -0.480293    0.073991
| 23> H         2.231235   -1.615380   -1.201344
| 24> H        -2.439559   -0.573885    1.742527
| 25> *
| 26>
| 27> $new_job
| 28> ! ri-mp2 aug-cc-pvtz aug-cc-pvtz/c tightscf
| 29> %pal nprocs 16 end
| 30> %maxcore 3800
| 31> %base "TZ_Si-Si_146_AB"
| 32>
| 33> *xyz 0 1
| 34> Si         2.476305   -0.829874    0.022495
| 35> Si         1.361790    1.224550   -0.039610
| 36> P        -1.244239   -0.182909   -0.001233
| 37> O        -1.963154    0.171420    1.360424
| 38> O        -2.389301    0.025993   -1.076898
| 39> H        -2.292041   -0.571472   -1.826683
| 40> O        -0.595192   -1.490667   -0.073320
| 41> O        -0.301622    1.044117   -0.177851
| 42> H         1.762975    2.032906   -1.208883
| 43> H         1.602618    2.016932    1.184303
| 44> H         2.139803   -1.597540    1.235362
| 45> H         3.919365   -0.480293    0.073991
| 46> H         2.231235   -1.615380   -1.201344
| 47> H        -2.439559   -0.573885    1.742527
| 48> *
| 49>
| 50> $new_job
| 51> ! ri-mp2 aug-cc-pvqz aug-cc-pvqz/c tightscf
| 52> %pal nprocs 16 end
| 53> %maxcore 3800
| 54> %base "QZ_Si-Si_146_AB"
| 55>
| 56> *xyz 0 1
| 57> Si         2.476305   -0.829874    0.022495
| 58> Si         1.361790    1.224550   -0.039610
| 59> P        -1.244239   -0.182909   -0.001233
| 60> O        -1.963154    0.171420    1.360424
| 61> O        -2.389301    0.025993   -1.076898
| 62> H        -2.292041   -0.571472   -1.826683
| 63> O        -0.595192   -1.490667   -0.073320
| 64> O        -0.301622    1.044117   -0.177851
| 65> H         1.762975    2.032906   -1.208883
| 66> H         1.602618    2.016932    1.184303
| 67> H         2.139803   -1.597540    1.235362
| 68> H         3.919365   -0.480293    0.073991
| 69> H         2.231235   -1.615380   -1.201344
| 70> H        -2.439559   -0.573885    1.742527
| 71> *
| 72>
| 73>
| 74>
| 75>
| 76>                          ****END OF INPUT****
 Total Charge           Charge          ....    0
 Multiplicity           Mult            ....    1
 Number of Electrons    NEL             ....   82
MP2 TOTAL ENERGY:    -1223.438209699 Eh
FINAL SINGLE POINT ENERGY     -1223.438209699137
MP2 TOTAL ENERGY:    -1223.859966937 Eh
FINAL SINGLE POINT ENERGY     -1223.859966936664

CARTESIAN COORDINATES (ANGSTROEM)
---------------------------------
  Si     2.476305   -0.829874    0.022495
  Si     1.361790    1.224550   -0.039610
  P     -1.244239   -0.182909   -0.001233
  O     -1.963154    0.171420    1.360424
  O     -2.389301    0.025993   -1.076898
  H     -2.292041   -0.571472   -1.826683
  O     -0.595192   -1.490667   -0.073320
  O     -0.301622    1.044117   -0.177851
  H      1.762975    2.032906   -1.208883
  H      1.602618    2.016932    1.184303
  H      2.139803   -1.597540    1.235362
  H      3.919365   -0.480293    0.073991
  H      2.231235   -1.615380   -1.201344
  H     -2.439559   -0.573885    1.742527

 Multiplicity           Mult            ....    1
 Number of Electrons    NEL             ....   82
 Basis Dimension        Dim             ....  894

ORBITAL ENERGIES
----------------

  NO   OCC          E(Eh)            E(eV)
   0   2.0000     -80.103303     -2179.7217
   1   2.0000     -68.807193     -1872.3389
   2   2.0000     -68.764204     -1871.1691
   3   2.0000     -20.609043      -560.8006
   4   2.0000     -20.607443      -560.7570
   5   2.0000     -20.590668      -560.3006
   6   2.0000     -20.517592      -558.3121
   7   2.0000      -7.620925      -207.3759
   8   2.0000      -6.152450      -167.4167
   9   2.0000      -6.114876      -166.3942
  10   2.0000      -5.519838      -150.2024
  11   2.0000      -5.519686      -150.1983
  12   2.0000      -5.518702      -150.1715
  13   2.0000      -4.259441      -115.9053
  14   2.0000      -4.258511      -115.8800
  15   2.0000      -4.258441      -115.8781
  16   2.0000      -4.221132      -114.8628
  17   2.0000      -4.220946      -114.8578
  18   2.0000      -4.220765      -114.8529
  19   2.0000      -1.468246       -39.9530
  20   2.0000      -1.397580       -38.0301
  21   2.0000      -1.385046       -37.6890
  22   2.0000      -1.310160       -35.6513
  23   2.0000      -0.884822       -24.0772
  24   2.0000      -0.777251       -21.1501
  25   2.0000      -0.765672       -20.8350
  26   2.0000      -0.727059       -19.7843
  27   2.0000      -0.690514       -18.7898
  28   2.0000      -0.648926       -17.6582
  29   2.0000      -0.642697       -17.4887
  30   2.0000      -0.610393       -16.6096
  31   2.0000      -0.601890       -16.3783
  32   2.0000      -0.589531       -16.0420
  33   2.0000      -0.563353       -15.3296
  34   2.0000      -0.546572       -14.8730
  35   2.0000      -0.492720       -13.4076
  36   2.0000      -0.490594       -13.3498
  37   2.0000      -0.483185       -13.1481
  38   2.0000      -0.467723       -12.7274
  39   2.0000      -0.465872       -12.6770
  40   2.0000      -0.404993       -11.0204
  41   0.0000       0.022622         0.6156
  42   0.0000       0.030686         0.8350
  43   0.0000       0.031420         0.8550
  44   0.0000       0.033390         0.9086
  45   0.0000       0.047232         1.2853

MULLIKEN ATOMIC CHARGES
-----------------------
   0 Si:    0.557292
   1 Si:    0.976248
   2 P :    2.717887
   3 O :   -0.910374
   4 O :   -0.917713
   5 H :    0.373874
   6 O :   -1.159571
   7 O :   -0.997769
   8 H :   -0.206990
   9 H :   -0.214226
  10 H :   -0.144914
  11 H :   -0.318429
  12 H :   -0.150938
  13 H :    0.395623
Sum of atomic charges:   -0.0000000

LOEWDIN ATOMIC CHARGES
----------------------
   0 Si:    0.997243
   1 Si:    0.375477
   2 P :   -1.116862
   3 O :    1.096265
   4 O :    1.095086
   5 H :   -0.864984
   6 O :    0.322535
   7 O :    0.429716
   8 H :   -0.279972
   9 H :   -0.275557
  10 H :   -0.303427
  11 H :   -0.323710
  12 H :   -0.303512
  13 H :   -0.848298

  Mayer bond orders larger than 0.100000
B(  0-Si,  1-Si) :   0.8640 B(  0-Si, 10-H ) :   0.8252 B(  0-Si, 11-H ) :   0.7697
B(  0-Si, 12-H ) :   0.8227 B(  1-Si,  7-O ) :   0.4293 B(  1-Si,  8-H ) :   0.8751
B(  1-Si,  9-H ) :   0.8628 B(  2-P ,  3-O ) :   0.5951 B(  2-P ,  4-O ) :   0.5428
B(  2-P ,  6-O ) :   1.3317 B(  2-P ,  7-O ) :   0.7606 B(  3-O , 13-H ) :   0.8945
B(  4-O ,  5-H ) :   0.9100

MP2 TOTAL ENERGY:    -1223.996581417 Eh
FINAL SINGLE POINT ENERGY     -1223.996581417460

DIPOLE MOMENT
-------------
                                X             Y             Z
Electronic contribution:     -7.95704       0.70180      -0.12977
Nuclear contribution   :      7.58691      -0.62538       0.00194
                        -----------------------------------------
Total Dipole Moment    :     -0.37013       0.07642      -0.12782
                        -----------------------------------------
Magnitude (a.u.)       :      0.39897
Magnitude (Debye)      :      1.01410

Rotational constants in cm-1:     0.088051     0.031494     0.027889
Rotational constants in MHz :  2639.709909   944.176420   836.079297

                             ****ORCA TERMINATED NORMALLY****
TOTAL RUN TIME: 0 days 1 hours 16 minutes 5 seconds 487 msec
