                         Program Version 5.0.4 -  RELEASE  -
|  1> ! ri-mp2 aug-cc-pvdz aug-cc-pvdz/c tightscf
|  2> %pal nprocs 16 end
|  3> %maxcore 3800
|  4> %base "DZ_P-N_53_AB"
|  5> %scf
|  6> STABPerform true
|  7> STABRestartUHFifUnstable true
|  8> end
|  9>
| 10> *xyz 0 1
| 11> P        -1.125780   -0.011003    0.005378
| 12> N         0.474032    0.539248   -0.054346
| 13> N         1.552459   -0.364258   -0.032417
| 14> H        -1.057930   -1.050141    0.975991
| 15> H        -1.087628   -0.915432   -1.079143
| 16> H         1.931605   -0.476686    0.900724
| 17> H         2.279732   -0.049268   -0.660141
| 18> H         0.635482    1.431644    0.389244
| 19> *
| 20>
| 21> $new_job
| 22> ! ri-mp2 aug-cc-pvtz aug-cc-pvtz/c tightscf
| 23> %pal nprocs 16 end
| 24> %maxcore 3800
| 25> %base "TZ_P-N_53_AB"
| 26>
| 27> *xyz 0 1
| 28> P        -1.125780   -0.011003    0.005378
| 29> N         0.474032    0.539248   -0.054346
| 30> N         1.552459   -0.364258   -0.032417
| 31> H        -1.057930   -1.050141    0.975991
| 32> H        -1.087628   -0.915432   -1.079143
| 33> H         1.931605   -0.476686    0.900724
| 34> H         2.279732   -0.049268   -0.660141
| 35> H         0.635482    1.431644    0.389244
| 36> *
| 37>
| 38> $new_job
| 39> ! ri-mp2 aug-cc-pvqz aug-cc-pvqz/c tightscf
| 40> %pal nprocs 16 end
| 41> %maxcore 3800
| 42> %base "QZ_P-N_53_AB"
| 43>
| 44> *xyz 0 1
| 45> P        -1.125780   -0.011003    0.005378
| 46> N         0.474032    0.539248   -0.054346
| 47> N         1.552459   -0.364258   -0.032417
| 48> H        -1.057930   -1.050141    0.975991
| 49> H        -1.087628   -0.915432   -1.079143
| 50> H         1.931605   -0.476686    0.900724
| 51> H         2.279732   -0.049268   -0.660141
| 52> H         0.635482    1.431644    0.389244
| 53> *
| 54>
| 55>
| 56>
| 57>
| 58>                          ****END OF INPUT****
 Total Charge           Charge          ....    0
 Multiplicity           Mult            ....    1
 Number of Electrons    NEL             ....   34
MP2 TOTAL ENERGY:     -453.008139430 Eh
FINAL SINGLE POINT ENERGY      -453.008139430361
MP2 TOTAL ENERGY:     -453.157938604 Eh
FINAL SINGLE POINT ENERGY      -453.157938604462

CARTESIAN COORDINATES (ANGSTROEM)
---------------------------------
  P     -1.125780   -0.011003    0.005378
  N      0.474032    0.539248   -0.054346
  N      1.552459   -0.364258   -0.032417
  H     -1.057930   -1.050141    0.975991
  H     -1.087628   -0.915432   -1.079143
  H      1.931605   -0.476686    0.900724
  H      2.279732   -0.049268   -0.660141
  H      0.635482    1.431644    0.389244

 Multiplicity           Mult            ....    1
 Number of Electrons    NEL             ....   34
 Basis Dimension        Dim             ....  474

ORBITAL ENERGIES
----------------

  NO   OCC          E(Eh)            E(eV)
   0   2.0000     -79.949332     -2175.5319
   1   2.0000     -15.581032      -423.9814
   2   2.0000     -15.577672      -423.8900
   3   2.0000      -7.488704      -203.7780
   4   2.0000      -5.382935      -146.4771
   5   2.0000      -5.382481      -146.4647
   6   2.0000      -5.381965      -146.4507
   7   2.0000      -1.275743       -34.7147
   8   2.0000      -1.036732       -28.2109
   9   2.0000      -0.815788       -22.1987
  10   2.0000      -0.693256       -18.8644
  11   2.0000      -0.679616       -18.4933
  12   2.0000      -0.591757       -16.1025
  13   2.0000      -0.526611       -14.3298
  14   2.0000      -0.424469       -11.5504
  15   2.0000      -0.395023       -10.7491
  16   2.0000      -0.363929        -9.9030
  17   0.0000       0.022791         0.6202
  18   0.0000       0.038926         1.0592
  19   0.0000       0.040025         1.0891
  20   0.0000       0.041301         1.1238
  21   0.0000       0.062001         1.6871

MULLIKEN ATOMIC CHARGES
-----------------------
   0 P :    0.510449
   1 N :   -0.564657
   2 N :   -0.506283
   3 H :   -0.103888
   4 H :   -0.072928
   5 H :    0.240758
   6 H :    0.256995
   7 H :    0.239554
Sum of atomic charges:   -0.0000000

LOEWDIN ATOMIC CHARGES
----------------------
   0 P :    1.306444
   1 N :    0.349912
   2 N :    1.028689
   3 H :   -0.480470
   4 H :   -0.488005
   5 H :   -0.536074
   6 H :   -0.541369
   7 H :   -0.639126

  Mayer bond orders larger than 0.100000
B(  0-P ,  1-N ) :   0.8858 B(  0-P ,  3-H ) :   0.8815 B(  0-P ,  4-H ) :   0.9260
B(  1-N ,  2-N ) :   0.8079 B(  1-N ,  7-H ) :   0.9598 B(  2-N ,  5-H ) :   0.9528
B(  2-N ,  6-H ) :   0.9396

MP2 TOTAL ENERGY:     -453.205733783 Eh
FINAL SINGLE POINT ENERGY      -453.205733782650

DIPOLE MOMENT
-------------
                                X             Y             Z
Electronic contribution:     -3.00137       1.28629      -0.14034
Nuclear contribution   :      3.77506      -1.04554       0.51963
                        -----------------------------------------
Total Dipole Moment    :      0.77369       0.24075       0.37929
                        -----------------------------------------
Magnitude (a.u.)       :      0.89466
Magnitude (Debye)      :      2.27405

Rotational constants in cm-1:     1.228924     0.184623     0.172284
Rotational constants in MHz : 36842.213401  5534.844529  5164.936989

                             ****ORCA TERMINATED NORMALLY****
TOTAL RUN TIME: 0 days 0 hours 8 minutes 30 seconds 941 msec
