                         Program Version 5.0.4 -  RELEASE  -
|  1> ! ri-mp2 aug-cc-pvdz aug-cc-pvdz/c tightscf
|  2> %pal nprocs 16 end
|  3> %maxcore 3800
|  4> %base "DZ_P-F_25_AB"
|  5>
|  6> *xyz 0 1
|  7> F        -3.006131    0.000000   -0.502850
|  8> O        -0.953741    2.419495   -0.313416
|  9> O        -0.953741   -2.419495   -0.313417
| 10> P        -1.889877    0.000000    0.631723
| 11> C        -0.682267    1.295173    0.003100
| 12> C         0.675876    0.695973    0.017733
| 13> C         1.867350    1.404921    0.000740
| 14> C         3.053273    0.697393   -0.010217
| 15> C         3.053273   -0.697393   -0.010217
| 16> C         1.867350   -1.404921    0.000740
| 17> C         0.675876   -0.695973    0.017734
| 18> C        -0.682267   -1.295173    0.003100
| 19> H         1.850440    2.486073   -0.010956
| 20> H         3.995760    1.228133   -0.024943
| 21> H         3.995760   -1.228132   -0.024943
| 22> H         1.850440   -2.486072   -0.010955
| 23> *
| 24>
| 25> $new_job
| 26> ! ri-mp2 aug-cc-pvtz aug-cc-pvtz/c tightscf
| 27> %pal nprocs 16 end
| 28> %maxcore 3800
| 29> %base "TZ_P-F_25_AB"
| 30>
| 31> *xyz 0 1
| 32> F        -3.006131    0.000000   -0.502850
| 33> O        -0.953741    2.419495   -0.313416
| 34> O        -0.953741   -2.419495   -0.313417
| 35> P        -1.889877    0.000000    0.631723
| 36> C        -0.682267    1.295173    0.003100
| 37> C         0.675876    0.695973    0.017733
| 38> C         1.867350    1.404921    0.000740
| 39> C         3.053273    0.697393   -0.010217
| 40> C         3.053273   -0.697393   -0.010217
| 41> C         1.867350   -1.404921    0.000740
| 42> C         0.675876   -0.695973    0.017734
| 43> C        -0.682267   -1.295173    0.003100
| 44> H         1.850440    2.486073   -0.010956
| 45> H         3.995760    1.228133   -0.024943
| 46> H         3.995760   -1.228132   -0.024943
| 47> H         1.850440   -2.486072   -0.010955
| 48> *
| 49>
| 50> $new_job
| 51> ! ri-mp2 aug-cc-pvqz aug-cc-pvqz/c tightscf
| 52> %pal nprocs 16 end
| 53> %maxcore 3800
| 54> %base "QZ_P-F_25_AB"
| 55>
| 56> *xyz 0 1
| 57> F        -3.006131    0.000000   -0.502850
| 58> O        -0.953741    2.419495   -0.313416
| 59> O        -0.953741   -2.419495   -0.313417
| 60> P        -1.889877    0.000000    0.631723
| 61> C        -0.682267    1.295173    0.003100
| 62> C         0.675876    0.695973    0.017733
| 63> C         1.867350    1.404921    0.000740
| 64> C         3.053273    0.697393   -0.010217
| 65> C         3.053273   -0.697393   -0.010217
| 66> C         1.867350   -1.404921    0.000740
| 67> C         0.675876   -0.695973    0.017734
| 68> C        -0.682267   -1.295173    0.003100
| 69> H         1.850440    2.486073   -0.010956
| 70> H         3.995760    1.228133   -0.024943
| 71> H         3.995760   -1.228132   -0.024943
| 72> H         1.850440   -2.486072   -0.010955
| 73> *
| 74>
| 75>
| 76>
| 77>
| 78>                          ****END OF INPUT****
 Total Charge           Charge          ....    0
 Multiplicity           Mult            ....    1
 Number of Electrons    NEL             ....   92
MP2 TOTAL ENERGY:     -897.006498268 Eh
FINAL SINGLE POINT ENERGY      -897.006498268290
MP2 TOTAL ENERGY:     -897.513840572 Eh
FINAL SINGLE POINT ENERGY      -897.513840571770

CARTESIAN COORDINATES (ANGSTROEM)
---------------------------------
  F     -3.006131    0.000000   -0.502850
  O     -0.953741    2.419495   -0.313416
  O     -0.953741   -2.419495   -0.313417
  P     -1.889877    0.000000    0.631723
  C     -0.682267    1.295173    0.003100
  C      0.675876    0.695973    0.017733
  C      1.867350    1.404921    0.000740
  C      3.053273    0.697393   -0.010217
  C      3.053273   -0.697393   -0.010217
  C      1.867350   -1.404921    0.000740
  C      0.675876   -0.695973    0.017734
  C     -0.682267   -1.295173    0.003100
  H      1.850440    2.486073   -0.010956
  H      3.995760    1.228133   -0.024943
  H      3.995760   -1.228132   -0.024943
  H      1.850440   -2.486072   -0.010955

 Multiplicity           Mult            ....    1
 Number of Electrons    NEL             ....   92
 Basis Dimension        Dim             .... 1148

ORBITAL ENERGIES
----------------

  NO   OCC          E(Eh)            E(eV)
   0   2.0000     -80.031669     -2177.7724
   1   2.0000     -26.319915      -716.2013
   2   2.0000     -20.582192      -560.0699
   3   2.0000     -20.582192      -560.0699
   4   2.0000     -11.361044      -309.1497
   5   2.0000     -11.361036      -309.1495
   6   2.0000     -11.283399      -307.0369
   7   2.0000     -11.282161      -307.0032
   8   2.0000     -11.278629      -306.9071
   9   2.0000     -11.277553      -306.8778
  10   2.0000     -11.275994      -306.8354
  11   2.0000     -11.275858      -306.8317
  12   2.0000      -7.566933      -205.9067
  13   2.0000      -5.460985      -148.6009
  14   2.0000      -5.459832      -148.5696
  15   2.0000      -5.459103      -148.5498
  16   2.0000      -1.627423       -44.2844
  17   2.0000      -1.426538       -38.8181
  18   2.0000      -1.424109       -38.7520
  19   2.0000      -1.213324       -33.0162
  20   2.0000      -1.104303       -30.0496
  21   2.0000      -1.069654       -29.1068
  22   2.0000      -0.965388       -26.2695
  23   2.0000      -0.919284       -25.0150
  24   2.0000      -0.865691       -23.5566
  25   2.0000      -0.801538       -21.8110
  26   2.0000      -0.795640       -21.6505
  27   2.0000      -0.732334       -19.9278
  28   2.0000      -0.715866       -19.4797
  29   2.0000      -0.709947       -19.3186
  30   2.0000      -0.699194       -19.0260
  31   2.0000      -0.676666       -18.4130
  32   2.0000      -0.659912       -17.9571
  33   2.0000      -0.650436       -17.6993
  34   2.0000      -0.644655       -17.5420
  35   2.0000      -0.629676       -17.1344
  36   2.0000      -0.597184       -16.2502
  37   2.0000      -0.569088       -15.4857
  38   2.0000      -0.560277       -15.2459
  39   2.0000      -0.549278       -14.9466
  40   2.0000      -0.528381       -14.3780
  41   2.0000      -0.503562       -13.7026
  42   2.0000      -0.405823       -11.0430
  43   2.0000      -0.389158       -10.5895
  44   2.0000      -0.384167       -10.4537
  45   2.0000      -0.380603       -10.3567
  46   0.0000       0.015932         0.4335
  47   0.0000       0.025548         0.6952
  48   0.0000       0.025792         0.7018
  49   0.0000       0.033761         0.9187
  50   0.0000       0.034262         0.9323

MULLIKEN ATOMIC CHARGES
-----------------------
   0 F :   -0.696488
   1 O :   -0.792879
   2 O :   -0.792879
   3 P :    1.128910
   4 C :    0.562875
   5 C :    0.080097
   6 C :   -0.266916
   7 C :   -0.398644
   8 C :   -0.398653
   9 C :   -0.266934
  10 C :    0.080081
  11 C :    0.562890
  12 H :    0.332134
  13 H :    0.267134
  14 H :    0.267134
  15 H :    0.332140
Sum of atomic charges:    0.0000000

LOEWDIN ATOMIC CHARGES
----------------------
   0 F :    0.296868
   1 O :    0.640423
   2 O :    0.640422
   3 P :    0.438643
   4 C :   -0.856263
   5 C :   -0.261497
   6 C :    0.355784
   7 C :    0.372123
   8 C :    0.372123
   9 C :    0.355785
  10 C :   -0.261497
  11 C :   -0.856263
  12 H :   -0.307240
  13 H :   -0.311085
  14 H :   -0.311086
  15 H :   -0.307241

  Mayer bond orders larger than 0.100000
B(  0-F ,  3-P ) :   0.6116 B(  0-F ,  4-C ) :  -0.1535 B(  0-F , 11-C ) :  -0.1535
B(  1-O ,  4-C ) :   0.9603 B(  1-O ,  5-C ) :   0.4886 B(  2-O , 10-C ) :   0.4886
B(  2-O , 11-C ) :   0.9603 B(  3-P ,  4-C ) :   1.0082 B(  3-P ,  5-C ) :  -0.1337
B(  3-P , 10-C ) :  -0.1337 B(  3-P , 11-C ) :   1.0082 B(  4-C ,  5-C ) :   0.8522
B(  4-C , 10-C ) :  -0.1791 B(  4-C , 11-C ) :  -0.1281 B(  5-C ,  6-C ) :   0.9240
B(  5-C ,  7-C ) :  -0.1512 B(  5-C ,  9-C ) :  -0.1495 B(  5-C , 10-C ) :   0.8606
B(  5-C , 11-C ) :  -0.1791 B(  5-C , 12-H ) :  -0.1134 B(  6-C ,  7-C ) :   1.2827
B(  6-C ,  9-C ) :   0.1616 B(  6-C , 10-C ) :  -0.1496 B(  6-C , 12-H ) :   0.9196
B(  6-C , 13-H ) :  -0.1341 B(  7-C ,  8-C ) :   1.1463 B(  7-C , 13-H ) :   1.1032
B(  7-C , 14-H ) :  -0.1010 B(  8-C ,  9-C ) :   1.2827 B(  8-C , 10-C ) :  -0.1512
B(  8-C , 13-H ) :  -0.1010 B(  8-C , 14-H ) :   1.1032 B(  9-C , 10-C ) :   0.9240
B(  9-C , 14-H ) :  -0.1341 B(  9-C , 15-H ) :   0.9196 B( 10-C , 11-C ) :   0.8522
B( 10-C , 15-H ) :  -0.1134

MP2 TOTAL ENERGY:     -897.680998611 Eh
FINAL SINGLE POINT ENERGY      -897.680998611453

DIPOLE MOMENT
-------------
                                X             Y             Z
Electronic contribution:    -13.52602      -0.00000       0.73220
Nuclear contribution   :     15.59117       0.00000      -0.17716
                        -----------------------------------------
Total Dipole Moment    :      2.06516       0.00000       0.55503
                        -----------------------------------------
Magnitude (a.u.)       :      2.13844
Magnitude (Debye)      :      5.43549

Rotational constants in cm-1:     0.050447     0.024109     0.016981
Rotational constants in MHz :  1512.367154   722.770095   509.068992

                             ****ORCA TERMINATED NORMALLY****
TOTAL RUN TIME: 0 days 0 hours 48 minutes 25 seconds 173 msec
