                         Program Version 5.0.4 -  RELEASE  -
|  1> ! ri-mp2 aug-cc-pvdz aug-cc-pvdz/c tightscf
|  2> %pal nprocs 16 end
|  3> %maxcore 3800
|  4> %base "DZ_Si-Cl_29_A"
|  5> %scf
|  6> STABPerform true
|  7> STABRestartUHFifUnstable true
|  8> end
|  9>
| 10> *xyz 0 2
| 11> Si         0.094441    0.000000   -0.406570
| 12> C        -1.678343    0.000000    0.152631
| 13> F         0.824442   -1.275266    0.219713
| 14> F         0.824441    1.275267    0.219712
| 15> H        -1.699736   -0.000005    1.244663
| 16> H        -2.196172   -0.886216   -0.211653
| 17> H        -2.196170    0.886220   -0.211645
| 18> *
| 19>
| 20> $new_job
| 21> ! ri-mp2 aug-cc-pvtz aug-cc-pvtz/c tightscf
| 22> %pal nprocs 16 end
| 23> %maxcore 3800
| 24> %base "TZ_Si-Cl_29_A"
| 25>
| 26> *xyz 0 2
| 27> Si         0.094441    0.000000   -0.406570
| 28> C        -1.678343    0.000000    0.152631
| 29> F         0.824442   -1.275266    0.219713
| 30> F         0.824441    1.275267    0.219712
| 31> H        -1.699736   -0.000005    1.244663
| 32> H        -2.196172   -0.886216   -0.211653
| 33> H        -2.196170    0.886220   -0.211645
| 34> *
| 35>
| 36> $new_job
| 37> ! ri-mp2 aug-cc-pvqz aug-cc-pvqz/c tightscf
| 38> %pal nprocs 16 end
| 39> %maxcore 3800
| 40> %base "QZ_Si-Cl_29_A"
| 41>
| 42> *xyz 0 2
| 43> Si         0.094441    0.000000   -0.406570
| 44> C        -1.678343    0.000000    0.152631
| 45> F         0.824442   -1.275266    0.219713
| 46> F         0.824441    1.275267    0.219712
| 47> H        -1.699736   -0.000005    1.244663
| 48> H        -2.196172   -0.886216   -0.211653
| 49> H        -2.196170    0.886220   -0.211645
| 50> *
| 51>
| 52>
| 53>
| 54>
| 55>                          ****END OF INPUT****
 Total Charge           Charge          ....    0
 Multiplicity           Mult            ....    2
 Number of Electrons    NEL             ....   41
MP2 TOTAL ENERGY:     -528.188058351 Eh
FINAL SINGLE POINT ENERGY      -528.188058351181
MP2 TOTAL ENERGY:     -528.437372875 Eh
FINAL SINGLE POINT ENERGY      -528.437372874718

CARTESIAN COORDINATES (ANGSTROEM)
---------------------------------
  Si     0.094441    0.000000   -0.406570
  C     -1.678343    0.000000    0.152631
  F      0.824442   -1.275266    0.219713
  F      0.824441    1.275267    0.219712
  H     -1.699736   -0.000005    1.244663
  H     -2.196172   -0.886216   -0.211653
  H     -2.196170    0.886220   -0.211645

 Multiplicity           Mult            ....    2
 Number of Electrons    NEL             ....   41
 Basis Dimension        Dim             ....  462

ORBITAL ENERGIES
----------------
                 SPIN UP ORBITALS
  NO   OCC          E(Eh)            E(eV)
   0   1.0000     -68.853552     -1873.6004
   1   1.0000     -26.292986      -715.4685
   2   1.0000     -26.292978      -715.4683
   3   1.0000     -11.231566      -305.6264
   4   1.0000      -6.193514      -168.5341
   5   1.0000      -4.304720      -117.1374
   6   1.0000      -4.297719      -116.9469
   7   1.0000      -4.296266      -116.9073
   8   1.0000      -1.607701       -43.7478
   9   1.0000      -1.589048       -43.2402
  10   1.0000      -0.979395       -26.6507
  11   1.0000      -0.788586       -21.4585
  12   1.0000      -0.720892       -19.6165
  13   1.0000      -0.695614       -18.9286
  14   1.0000      -0.688952       -18.7473
  15   1.0000      -0.666331       -18.1318
  16   1.0000      -0.644707       -17.5434
  17   1.0000      -0.584953       -15.9174
  18   1.0000      -0.578462       -15.7408
  19   1.0000      -0.539101       -14.6697
  20   1.0000      -0.365206        -9.9378
  21   0.0000       0.024909         0.6778
  22   0.0000       0.036813         1.0017
  23   0.0000       0.038345         1.0434
  24   0.0000       0.039449         1.0734
  25   0.0000       0.059351         1.6150

                 SPIN DOWN ORBITALS
  NO   OCC          E(Eh)            E(eV)
   0   1.0000     -68.847780     -1873.4433
   1   1.0000     -26.290034      -715.3882
   2   1.0000     -26.290025      -715.3879
   3   1.0000     -11.227542      -305.5169
   4   1.0000      -6.183803      -168.2698
   5   1.0000      -4.293978      -116.8451
   6   1.0000      -4.293022      -116.8191
   7   1.0000      -4.284836      -116.5963
   8   1.0000      -1.599194       -43.5163
   9   1.0000      -1.580623       -43.0109
  10   1.0000      -0.966757       -26.3068
  11   1.0000      -0.771811       -21.0021
  12   1.0000      -0.710525       -19.3344
  13   1.0000      -0.686757       -18.6876
  14   1.0000      -0.674637       -18.3578
  15   1.0000      -0.652514       -17.7558
  16   1.0000      -0.642029       -17.4705
  17   1.0000      -0.577083       -15.7032
  18   1.0000      -0.576207       -15.6794
  19   1.0000      -0.504513       -13.7285
  20   0.0000       0.015149         0.4122
  21   0.0000       0.036810         1.0017
  22   0.0000       0.037414         1.0181
  23   0.0000       0.039727         1.0810
  24   0.0000       0.051245         1.3945

MULLIKEN ATOMIC CHARGES AND SPIN POPULATIONS
--------------------------------------------
   0 Si:    1.686236    0.901050
   1 C :   -0.934659    0.113601
   2 F :   -0.715842   -0.002583
   3 F :   -0.715842   -0.002583
   4 H :    0.220505    0.012155
   5 H :    0.229801   -0.010820
   6 H :    0.229801   -0.010820
Sum of atomic charges         :    0.0000000

LOEWDIN ATOMIC CHARGES AND SPIN POPULATIONS
-------------------------------------------
   0 Si:   -0.416847    0.581228
   1 C :    0.879732    0.146894
   2 F :    0.337817    0.102753
   3 F :    0.337817    0.102753
   4 H :   -0.369418    0.024209
   5 H :   -0.384550    0.021082
   6 H :   -0.384551    0.021082

  Mayer bond orders larger than 0.100000
B(  0-Si,  1-C ) :   0.9097 B(  0-Si,  2-F ) :   0.3998 B(  0-Si,  3-F ) :   0.3998
B(  1-C ,  4-H ) :   0.9534 B(  1-C ,  5-H ) :   0.9585 B(  1-C ,  6-H ) :   0.9585

MP2 TOTAL ENERGY:     -528.519109791 Eh
FINAL SINGLE POINT ENERGY      -528.519109790594

DIPOLE MOMENT
-------------
                                X             Y             Z
Electronic contribution:      6.48619       0.00000      -0.68235
Nuclear contribution   :     -7.33419      -0.00000       0.39117
                        -----------------------------------------
Total Dipole Moment    :     -0.84800      -0.00000      -0.29118
                        -----------------------------------------
Magnitude (a.u.)       :      0.89660
Magnitude (Debye)      :      2.27897

Rotational constants in cm-1:     0.234970     0.210130     0.124656
Rotational constants in MHz :  7044.210740  6299.539728  3737.082845

                             ****ORCA TERMINATED NORMALLY****
TOTAL RUN TIME: 0 days 0 hours 18 minutes 37 seconds 978 msec
