                         Program Version 5.0.4 -  RELEASE  -
|  1> ! ri-mp2 aug-cc-pvdz aug-cc-pvdz/c tightscf
|  2> %pal nprocs 16 end
|  3> %maxcore 3800
|  4> %base "DZ_B-Cl_33_AB"
|  5>
|  6> *xyz 0 1
|  7> Cl        -0.835396   -1.534704   -0.029172
|  8> Cl        -0.834950    1.534942   -0.029172
|  9> B        -0.031413    0.000001    0.033982
| 10> N         1.366852   -0.000193    0.393760
| 11> O         2.373124   -0.000337   -0.241797
| 12> *
| 13>
| 14> $new_job
| 15> ! ri-mp2 aug-cc-pvtz aug-cc-pvtz/c tightscf
| 16> %pal nprocs 16 end
| 17> %maxcore 3800
| 18> %base "TZ_B-Cl_33_AB"
| 19>
| 20> *xyz 0 1
| 21> Cl        -0.835396   -1.534704   -0.029172
| 22> Cl        -0.834950    1.534942   -0.029172
| 23> B        -0.031413    0.000001    0.033982
| 24> N         1.366852   -0.000193    0.393760
| 25> O         2.373124   -0.000337   -0.241797
| 26> *
| 27>
| 28> $new_job
| 29> ! ri-mp2 aug-cc-pvqz aug-cc-pvqz/c tightscf
| 30> %pal nprocs 16 end
| 31> %maxcore 3800
| 32> %base "QZ_B-Cl_33_AB"
| 33>
| 34> *xyz 0 1
| 35> Cl        -0.835396   -1.534704   -0.029172
| 36> Cl        -0.834950    1.534942   -0.029172
| 37> B        -0.031413    0.000001    0.033982
| 38> N         1.366852   -0.000193    0.393760
| 39> O         2.373124   -0.000337   -0.241797
| 40> *
| 41>
| 42>
| 43>
| 44>
| 45>                          ****END OF INPUT****
 Total Charge           Charge          ....    0
 Multiplicity           Mult            ....    1
 Number of Electrons    NEL             ....   54
MP2 TOTAL ENERGY:    -1073.746541500 Eh
FINAL SINGLE POINT ENERGY     -1073.746541500110
MP2 TOTAL ENERGY:    -1073.989745720 Eh
FINAL SINGLE POINT ENERGY     -1073.989745720012

CARTESIAN COORDINATES (ANGSTROEM)
---------------------------------
  Cl    -0.835396   -1.534704   -0.029172
  Cl    -0.834950    1.534942   -0.029172
  B     -0.031413    0.000001    0.033982
  N      1.366852   -0.000193    0.393760
  O      2.373124   -0.000337   -0.241797

 Multiplicity           Mult            ....    1
 Number of Electrons    NEL             ....   54
 Basis Dimension        Dim             ....  408

ORBITAL ENERGIES
----------------

  NO   OCC          E(Eh)            E(eV)
   0   2.0000    -104.870772     -2853.6788
   1   2.0000    -104.870771     -2853.6788
   2   2.0000     -20.668657      -562.4227
   3   2.0000     -15.706259      -427.3890
   4   2.0000     -10.598260      -288.3933
   5   2.0000     -10.598253      -288.3931
   6   2.0000      -8.065139      -219.4636
   7   2.0000      -8.065138      -219.4636
   8   2.0000      -8.063900      -219.4299
   9   2.0000      -8.063898      -219.4298
  10   2.0000      -8.063695      -219.4243
  11   2.0000      -8.063694      -219.4243
  12   2.0000      -7.753986      -210.9967
  13   2.0000      -1.549246       -42.1571
  14   2.0000      -1.178719       -32.0746
  15   2.0000      -1.132668       -30.8215
  16   2.0000      -1.026476       -27.9318
  17   2.0000      -0.774698       -21.0806
  18   2.0000      -0.704013       -19.1572
  19   2.0000      -0.664893       -18.0927
  20   2.0000      -0.649225       -17.6663
  21   2.0000      -0.577303       -15.7092
  22   2.0000      -0.544758       -14.8236
  23   2.0000      -0.516746       -14.0614
  24   2.0000      -0.495599       -13.4859
  25   2.0000      -0.485248       -13.2043
  26   2.0000      -0.403626       -10.9832
  27   0.0000       0.032797         0.8925
  28   0.0000       0.038460         1.0466
  29   0.0000       0.038896         1.0584
  30   0.0000       0.040380         1.0988
  31   0.0000       0.053576         1.4579

MULLIKEN ATOMIC CHARGES
-----------------------
   0 Cl:   -0.156955
   1 Cl:   -0.156957
   2 B :    0.729234
   3 N :    0.009576
   4 O :   -0.424897
Sum of atomic charges:    0.0000000

LOEWDIN ATOMIC CHARGES
----------------------
   0 Cl:    1.239028
   1 Cl:    1.239024
   2 B :   -2.678598
   3 N :   -0.196591
   4 O :    0.397137

  Mayer bond orders larger than 0.100000
B(  0-Cl,  2-B ) :   1.1544 B(  1-Cl,  2-B ) :   1.1544 B(  2-B ,  3-N ) :   0.8337
B(  3-N ,  4-O ) :   1.8256

MP2 TOTAL ENERGY:    -1074.073047912 Eh
FINAL SINGLE POINT ENERGY     -1074.073047911540

DIPOLE MOMENT
-------------
                                X             Y             Z
Electronic contribution:     -2.72257       0.00037      -0.13128
Nuclear contribution   :      2.23347      -0.00032       0.04955
                        -----------------------------------------
Total Dipole Moment    :     -0.48910       0.00006      -0.08173
                        -----------------------------------------
Magnitude (a.u.)       :      0.49588
Magnitude (Debye)      :      1.26044

Rotational constants in cm-1:     0.099829     0.099039     0.050666
Rotational constants in MHz :  2992.785557  2969.120104  1518.942489

                             ****ORCA TERMINATED NORMALLY****
TOTAL RUN TIME: 0 days 0 hours 1 minutes 41 seconds 444 msec
