                         Program Version 5.0.4 -  RELEASE  -
|  1> ! ri-mp2 aug-cc-pvdz aug-cc-pvdz/c tightscf
|  2> %pal nprocs 16 end
|  3> %maxcore 3800
|  4> %base "DZ_B-B_70_AB"
|  5> %scf
|  6> STABPerform true
|  7> STABRestartUHFifUnstable true
|  8> end
|  9>
| 10> *xyz 0 1
| 11> B         0.551606   -1.172763   -0.551778
| 12> B        -0.597853   -1.153119    0.543844
| 13> B        -1.783790    0.009110    0.137115
| 14> O        -1.490557    1.328923    0.025246
| 15> C        -3.267691   -0.435974   -0.118934
| 16> H        -3.761562   -0.596998    0.844776
| 17> H        -3.341154   -1.383154   -0.657476
| 18> H        -3.831810    0.324288   -0.661498
| 19> B         1.757759   -0.051571   -0.158624
| 20> O         1.385017    1.268826   -0.076050
| 21> C         3.237532   -0.474829    0.145663
| 22> H         3.296643   -1.414730    0.696983
| 23> H         3.805994    0.279625    0.697027
| 24> H         3.753648   -0.650133   -0.803732
| 25> H        -0.548536    1.535082    0.111158
| 26> H         2.099895    1.870855    0.157968
| 27> H        -0.671564   -1.693239    1.604251
| 28> H         0.585115   -1.747060   -1.596177
| 29> *
| 30>
| 31> $new_job
| 32> ! ri-mp2 aug-cc-pvtz aug-cc-pvtz/c tightscf
| 33> %pal nprocs 16 end
| 34> %maxcore 3800
| 35> %base "TZ_B-B_70_AB"
| 36>
| 37> *xyz 0 1
| 38> B         0.551606   -1.172763   -0.551778
| 39> B        -0.597853   -1.153119    0.543844
| 40> B        -1.783790    0.009110    0.137115
| 41> O        -1.490557    1.328923    0.025246
| 42> C        -3.267691   -0.435974   -0.118934
| 43> H        -3.761562   -0.596998    0.844776
| 44> H        -3.341154   -1.383154   -0.657476
| 45> H        -3.831810    0.324288   -0.661498
| 46> B         1.757759   -0.051571   -0.158624
| 47> O         1.385017    1.268826   -0.076050
| 48> C         3.237532   -0.474829    0.145663
| 49> H         3.296643   -1.414730    0.696983
| 50> H         3.805994    0.279625    0.697027
| 51> H         3.753648   -0.650133   -0.803732
| 52> H        -0.548536    1.535082    0.111158
| 53> H         2.099895    1.870855    0.157968
| 54> H        -0.671564   -1.693239    1.604251
| 55> H         0.585115   -1.747060   -1.596177
| 56> *
| 57>
| 58> $new_job
| 59> ! ri-mp2 aug-cc-pvqz aug-cc-pvqz/c tightscf
| 60> %pal nprocs 16 end
| 61> %maxcore 3800
| 62> %base "QZ_B-B_70_AB"
| 63>
| 64> *xyz 0 1
| 65> B         0.551606   -1.172763   -0.551778
| 66> B        -0.597853   -1.153119    0.543844
| 67> B        -1.783790    0.009110    0.137115
| 68> O        -1.490557    1.328923    0.025246
| 69> C        -3.267691   -0.435974   -0.118934
| 70> H        -3.761562   -0.596998    0.844776
| 71> H        -3.341154   -1.383154   -0.657476
| 72> H        -3.831810    0.324288   -0.661498
| 73> B         1.757759   -0.051571   -0.158624
| 74> O         1.385017    1.268826   -0.076050
| 75> C         3.237532   -0.474829    0.145663
| 76> H         3.296643   -1.414730    0.696983
| 77> H         3.805994    0.279625    0.697027
| 78> H         3.753648   -0.650133   -0.803732
| 79> H        -0.548536    1.535082    0.111158
| 80> H         2.099895    1.870855    0.157968
| 81> H        -0.671564   -1.693239    1.604251
| 82> H         0.585115   -1.747060   -1.596177
| 83> *
| 84>
| 85>
| 86>
| 87>
| 88>                          ****END OF INPUT****
 Total Charge           Charge          ....    0
 Multiplicity           Mult            ....    1
 Number of Electrons    NEL             ....   58
MP2 TOTAL ENERGY:     -331.153482918 Eh
FINAL SINGLE POINT ENERGY      -331.153482918406
MP2 TOTAL ENERGY:     -331.453515053 Eh
FINAL SINGLE POINT ENERGY      -331.453515053448

CARTESIAN COORDINATES (ANGSTROEM)
---------------------------------
  B      0.551606   -1.172763   -0.551778
  B     -0.597853   -1.153119    0.543844
  B     -1.783790    0.009110    0.137115
  O     -1.490557    1.328923    0.025246
  C     -3.267691   -0.435974   -0.118934
  H     -3.761562   -0.596998    0.844776
  H     -3.341154   -1.383154   -0.657476
  H     -3.831810    0.324288   -0.661498
  B      1.757759   -0.051571   -0.158624
  O      1.385017    1.268826   -0.076050
  C      3.237532   -0.474829    0.145663
  H      3.296643   -1.414730    0.696983
  H      3.805994    0.279625    0.697027
  H      3.753648   -0.650133   -0.803732
  H     -0.548536    1.535082    0.111158
  H      2.099895    1.870855    0.157968
  H     -0.671564   -1.693239    1.604251
  H      0.585115   -1.747060   -1.596177

 Multiplicity           Mult            ....    1
 Number of Electrons    NEL             ....   58
 Basis Dimension        Dim             .... 1100

ORBITAL ENERGIES
----------------

  NO   OCC          E(Eh)            E(eV)
   0   2.0000     -20.589549      -560.2701
   1   2.0000     -20.546369      -559.0951
   2   2.0000     -11.205717      -304.9231
   3   2.0000     -11.177299      -304.1498
   4   2.0000      -7.614457      -207.1999
   5   2.0000      -7.588112      -206.4830
   6   2.0000      -7.559893      -205.7151
   7   2.0000      -7.556242      -205.6158
   8   2.0000      -1.384379       -37.6709
   9   2.0000      -1.342697       -36.5367
  10   2.0000      -0.961263       -26.1573
  11   2.0000      -0.934502       -25.4291
  12   2.0000      -0.791524       -21.5385
  13   2.0000      -0.736745       -20.0479
  14   2.0000      -0.719849       -19.5881
  15   2.0000      -0.645308       -17.5597
  16   2.0000      -0.626536       -17.0489
  17   2.0000      -0.578867       -15.7518
  18   2.0000      -0.573573       -15.6077
  19   2.0000      -0.563233       -15.3264
  20   2.0000      -0.544498       -14.8165
  21   2.0000      -0.540350       -14.7037
  22   2.0000      -0.533028       -14.5044
  23   2.0000      -0.513518       -13.9735
  24   2.0000      -0.507724       -13.8159
  25   2.0000      -0.497367       -13.5341
  26   2.0000      -0.465357       -12.6630
  27   2.0000      -0.405299       -11.0288
  28   2.0000      -0.362706        -9.8697
  29   0.0000       0.015447         0.4203
  30   0.0000       0.024946         0.6788
  31   0.0000       0.028778         0.7831
  32   0.0000       0.031661         0.8615
  33   0.0000       0.041530         1.1301

MULLIKEN ATOMIC CHARGES
-----------------------
   0 B :    0.504415
   1 B :    0.580618
   2 B :    0.846540
   3 O :   -1.326075
   4 C :   -1.092142
   5 H :    0.299753
   6 H :    0.323709
   7 H :    0.356739
   8 B :    0.876680
   9 O :   -1.111264
  10 C :   -1.102396
  11 H :    0.329538
  12 H :    0.310630
  13 H :    0.313676
  14 H :    0.417633
  15 H :    0.301128
  16 H :   -0.421604
  17 H :   -0.407579
Sum of atomic charges:   -0.0000000

LOEWDIN ATOMIC CHARGES
----------------------
   0 B :    0.172974
   1 B :    0.172693
   2 B :   -0.749114
   3 O :    1.392998
   4 C :    1.035561
   5 H :   -0.301597
   6 H :   -0.305594
   7 H :   -0.310148
   8 B :   -0.710099
   9 O :    1.421119
  10 C :    1.057005
  11 H :   -0.298138
  12 H :   -0.302936
  13 H :   -0.293467
  14 H :   -0.945214
  15 H :   -0.726523
  16 H :   -0.154023
  17 H :   -0.155494

  Mayer bond orders larger than 0.100000
B(  0-B ,  1-B ) :   1.0055 B(  0-B ,  8-B ) :   0.9609 B(  0-B ,  9-O ) :  -0.1618
B(  0-B , 17-H ) :   0.7703 B(  1-B ,  2-B ) :   0.8752 B(  1-B , 16-H ) :   0.7548
B(  2-B ,  3-O ) :   0.4695 B(  2-B ,  4-C ) :   0.9389 B(  3-O , 14-H ) :   0.8685
B(  4-C ,  5-H ) :   0.8971 B(  4-C ,  6-H ) :   0.9047 B(  4-C ,  7-H ) :   0.8633
B(  8-B ,  9-O ) :   0.3412 B(  8-B , 10-C ) :   0.8981 B(  9-O , 15-H ) :   1.0002
B( 10-C , 11-H ) :   0.8935 B( 10-C , 12-H ) :   0.8868 B( 10-C , 13-H ) :   0.8996

MP2 TOTAL ENERGY:     -331.547906637 Eh
FINAL SINGLE POINT ENERGY      -331.547906637332

DIPOLE MOMENT
-------------
                                X             Y             Z
Electronic contribution:     -0.14616       1.50719      -0.22187
Nuclear contribution   :      1.43781      -1.52035       0.41464
                        -----------------------------------------
Total Dipole Moment    :      1.29165      -0.01316       0.19276
                        -----------------------------------------
Magnitude (a.u.)       :      1.30602
Magnitude (Debye)      :      3.31963

Rotational constants in cm-1:     0.139412     0.033928     0.028768
Rotational constants in MHz :  4179.469124  1017.127251   862.435064

                             ****ORCA TERMINATED NORMALLY****
TOTAL RUN TIME: 0 days 2 hours 2 minutes 53 seconds 75 msec
