                         Program Version 5.0.4 -  RELEASE  -
|  1> ! ri-mp2 aug-cc-pvdz aug-cc-pvdz/c tightscf
|  2> %pal nprocs 16 end
|  3> %maxcore 3800
|  4> %base "DZ_Si-Cl_81_AB"
|  5>
|  6> *xyz 0 1
|  7> C        -1.576549   -0.651038   -1.069826
|  8> C        -2.939321   -0.580326   -0.833424
|  9> C        -3.411956    0.107652    0.269992
| 10> C        -2.523355    0.726182    1.136048
| 11> C        -1.163892    0.654928    0.898332
| 12> C        -0.672456   -0.036603   -0.207387
| 13> H        -1.217371   -1.189995   -1.938500
| 14> H        -3.631347   -1.060745   -1.512081
| 15> Si         1.133968   -0.184998   -0.543808
| 16> H        -0.478773    1.147270    1.577220
| 17> Cl         2.006189   -1.528034    0.735488
| 18> Cl         2.062124    1.621183   -0.277490
| 19> H        -2.893416    1.266657    1.997020
| 20> H        -4.476295    0.165380    0.456110
| 21> H         1.385498   -0.646887   -1.914828
| 22> *
| 23>
| 24> $new_job
| 25> ! ri-mp2 aug-cc-pvtz aug-cc-pvtz/c tightscf
| 26> %pal nprocs 16 end
| 27> %maxcore 3800
| 28> %base "TZ_Si-Cl_81_AB"
| 29>
| 30> *xyz 0 1
| 31> C        -1.576549   -0.651038   -1.069826
| 32> C        -2.939321   -0.580326   -0.833424
| 33> C        -3.411956    0.107652    0.269992
| 34> C        -2.523355    0.726182    1.136048
| 35> C        -1.163892    0.654928    0.898332
| 36> C        -0.672456   -0.036603   -0.207387
| 37> H        -1.217371   -1.189995   -1.938500
| 38> H        -3.631347   -1.060745   -1.512081
| 39> Si         1.133968   -0.184998   -0.543808
| 40> H        -0.478773    1.147270    1.577220
| 41> Cl         2.006189   -1.528034    0.735488
| 42> Cl         2.062124    1.621183   -0.277490
| 43> H        -2.893416    1.266657    1.997020
| 44> H        -4.476295    0.165380    0.456110
| 45> H         1.385498   -0.646887   -1.914828
| 46> *
| 47>
| 48> $new_job
| 49> ! ri-mp2 aug-cc-pvqz aug-cc-pvqz/c tightscf
| 50> %pal nprocs 16 end
| 51> %maxcore 3800
| 52> %base "QZ_Si-Cl_81_AB"
| 53>
| 54> *xyz 0 1
| 55> C        -1.576549   -0.651038   -1.069826
| 56> C        -2.939321   -0.580326   -0.833424
| 57> C        -3.411956    0.107652    0.269992
| 58> C        -2.523355    0.726182    1.136048
| 59> C        -1.163892    0.654928    0.898332
| 60> C        -0.672456   -0.036603   -0.207387
| 61> H        -1.217371   -1.189995   -1.938500
| 62> H        -3.631347   -1.060745   -1.512081
| 63> Si         1.133968   -0.184998   -0.543808
| 64> H        -0.478773    1.147270    1.577220
| 65> Cl         2.006189   -1.528034    0.735488
| 66> Cl         2.062124    1.621183   -0.277490
| 67> H        -2.893416    1.266657    1.997020
| 68> H        -4.476295    0.165380    0.456110
| 69> H         1.385498   -0.646887   -1.914828
| 70> *
| 71>
| 72>
| 73>
| 74>
| 75>                          ****END OF INPUT****
 Total Charge           Charge          ....    0
 Multiplicity           Mult            ....    1
 Number of Electrons    NEL             ....   90
MP2 TOTAL ENERGY:    -1439.982865303 Eh
FINAL SINGLE POINT ENERGY     -1439.982865302734
MP2 TOTAL ENERGY:    -1440.346687353 Eh
FINAL SINGLE POINT ENERGY     -1440.346687353304

CARTESIAN COORDINATES (ANGSTROEM)
---------------------------------
  C     -1.576549   -0.651038   -1.069826
  C     -2.939321   -0.580326   -0.833424
  C     -3.411956    0.107652    0.269992
  C     -2.523355    0.726182    1.136048
  C     -1.163892    0.654928    0.898332
  C     -0.672456   -0.036603   -0.207387
  H     -1.217371   -1.189995   -1.938500
  H     -3.631347   -1.060745   -1.512081
  Si     1.133968   -0.184998   -0.543808
  H     -0.478773    1.147270    1.577220
  Cl     2.006189   -1.528034    0.735488
  Cl     2.062124    1.621183   -0.277490
  H     -2.893416    1.266657    1.997020
  H     -4.476295    0.165380    0.456110
  H      1.385498   -0.646887   -1.914828

 Multiplicity           Mult            ....    1
 Number of Electrons    NEL             ....   90
 Basis Dimension        Dim             .... 1008

ORBITAL ENERGIES
----------------

  NO   OCC          E(Eh)            E(eV)
   0   2.0000    -104.832815     -2852.6459
   1   2.0000    -104.830504     -2852.5830
   2   2.0000     -68.852007     -1873.5583
   3   2.0000     -11.254305      -306.2452
   4   2.0000     -11.251913      -306.1801
   5   2.0000     -11.250763      -306.1488
   6   2.0000     -11.245017      -305.9925
   7   2.0000     -11.244549      -305.9797
   8   2.0000     -11.237388      -305.7849
   9   2.0000     -10.560468      -287.3649
  10   2.0000     -10.558143      -287.3017
  11   2.0000      -8.027249      -218.4326
  12   2.0000      -8.026124      -218.4019
  13   2.0000      -8.026107      -218.4015
  14   2.0000      -8.024911      -218.3689
  15   2.0000      -8.023792      -218.3385
  16   2.0000      -8.023767      -218.3378
  17   2.0000      -6.193237      -168.5266
  18   2.0000      -4.300525      -117.0232
  19   2.0000      -4.299835      -117.0045
  20   2.0000      -4.298904      -116.9791
  21   2.0000      -1.171659       -31.8825
  22   2.0000      -1.118466       -30.4350
  23   2.0000      -1.088741       -29.6261
  24   2.0000      -1.033978       -28.1360
  25   2.0000      -1.031708       -28.0742
  26   2.0000      -0.843392       -22.9499
  27   2.0000      -0.841304       -22.8931
  28   2.0000      -0.739686       -20.1279
  29   2.0000      -0.690781       -18.7971
  30   2.0000      -0.644063       -17.5258
  31   2.0000      -0.640695       -17.4342
  32   2.0000      -0.604684       -16.4543
  33   2.0000      -0.577374       -15.7111
  34   2.0000      -0.554241       -15.0817
  35   2.0000      -0.549104       -14.9419
  36   2.0000      -0.519358       -14.1325
  37   2.0000      -0.509432       -13.8623
  38   2.0000      -0.509245       -13.8573
  39   2.0000      -0.473738       -12.8911
  40   2.0000      -0.470876       -12.8132
  41   2.0000      -0.457072       -12.4376
  42   2.0000      -0.444789       -12.1033
  43   2.0000      -0.356995        -9.7143
  44   2.0000      -0.353555        -9.6207
  45   0.0000       0.020288         0.5521
  46   0.0000       0.026747         0.7278
  47   0.0000       0.030789         0.8378
  48   0.0000       0.040708         1.1077
  49   0.0000       0.041720         1.1352

MULLIKEN ATOMIC CHARGES
-----------------------
   0 C :   -0.549297
   1 C :   -0.278843
   2 C :   -0.380389
   3 C :   -0.228431
   4 C :   -0.437021
   5 C :    0.040805
   6 H :    0.299171
   7 H :    0.270308
   8 Si:    1.946274
   9 H :    0.333432
  10 Cl:   -0.639197
  11 Cl:   -0.665181
  12 H :    0.270376
  13 H :    0.342477
  14 H :   -0.324482
Sum of atomic charges:    0.0000000

LOEWDIN ATOMIC CHARGES
----------------------
   0 C :    0.238407
   1 C :    0.344553
   2 C :    0.341392
   3 C :    0.345400
   4 C :    0.227117
   5 C :   -0.204186
   6 H :   -0.342733
   7 H :   -0.318499
   8 Si:   -1.176164
   9 H :   -0.346454
  10 Cl:    0.905314
  11 Cl:    0.920909
  12 H :   -0.317989
  13 H :   -0.315953
  14 H :   -0.301115

  Mayer bond orders larger than 0.100000
B(  0-C ,  1-C ) :   1.3447 B(  0-C ,  2-C ) :   0.1597 B(  0-C ,  3-C ) :   0.1421
B(  0-C ,  5-C ) :   0.7902 B(  0-C ,  6-H ) :   0.9605 B(  0-C ,  7-H ) :  -0.1382
B(  1-C ,  2-C ) :   1.1571 B(  1-C ,  3-C ) :  -0.1051 B(  1-C ,  4-C ) :   0.1246
B(  1-C ,  5-C ) :  -0.3055 B(  1-C ,  7-H ) :   1.0838 B(  2-C ,  3-C ) :   1.1536
B(  2-C ,  4-C ) :   0.1155 B(  2-C , 13-H ) :   0.9809 B(  3-C ,  4-C ) :   1.2726
B(  3-C ,  5-C ) :  -0.2849 B(  3-C , 12-H ) :   1.0801 B(  4-C ,  5-C ) :   0.9901
B(  4-C ,  8-Si) :  -0.1299 B(  4-C ,  9-H ) :   0.9156 B(  4-C , 12-H ) :  -0.1368
B(  5-C ,  6-H ) :  -0.1256 B(  5-C ,  8-Si) :   1.1691 B(  5-C ,  9-H ) :  -0.1409
B(  5-C , 14-H ) :  -0.1362 B(  8-Si, 10-Cl) :   0.3513 B(  8-Si, 11-Cl) :   0.3293
B(  8-Si, 14-H ) :   0.7951

MP2 TOTAL ENERGY:    -1440.465843279 Eh
FINAL SINGLE POINT ENERGY     -1440.465843279055

DIPOLE MOMENT
-------------
                                X             Y             Z
Electronic contribution:     15.37639       0.37296       1.62884
Nuclear contribution   :    -16.41621      -0.42027      -1.86799
                        -----------------------------------------
Total Dipole Moment    :     -1.03982      -0.04730      -0.23915
                        -----------------------------------------
Magnitude (a.u.)       :      1.06801
Magnitude (Debye)      :      2.71468

Rotational constants in cm-1:     0.056378     0.020086     0.017744
Rotational constants in MHz :  1690.160822   602.166865   531.938189

                             ****ORCA TERMINATED NORMALLY****
TOTAL RUN TIME: 0 days 0 hours 30 minutes 11 seconds 149 msec
