                         Program Version 5.0.4 -  RELEASE  -
|  1> ! ri-mp2 aug-cc-pvdz aug-cc-pvdz/c tightscf
|  2> %pal nprocs 16 end
|  3> %maxcore 3800
|  4> %base "DZ_B-F_2_AB"
|  5>
|  6> *xyz 0 1
|  7> F         0.871816    1.396186    0.000008
|  8> F         1.965962   -0.583073   -0.000000
|  9> S        -0.722204   -0.827606   -0.000005
| 10> B         0.821659    0.074504    0.000001
| 11> C        -1.925420    0.531289   -0.000001
| 12> H        -2.911127    0.073803   -0.000002
| 13> H        -1.814696    1.144814   -0.888992
| 14> H        -1.814696    1.144808    0.888994
| 15> *
| 16>
| 17> $new_job
| 18> ! ri-mp2 aug-cc-pvtz aug-cc-pvtz/c tightscf
| 19> %pal nprocs 16 end
| 20> %maxcore 3800
| 21> %base "TZ_B-F_2_AB"
| 22>
| 23> *xyz 0 1
| 24> F         0.871816    1.396186    0.000008
| 25> F         1.965962   -0.583073   -0.000000
| 26> S        -0.722204   -0.827606   -0.000005
| 27> B         0.821659    0.074504    0.000001
| 28> C        -1.925420    0.531289   -0.000001
| 29> H        -2.911127    0.073803   -0.000002
| 30> H        -1.814696    1.144814   -0.888992
| 31> H        -1.814696    1.144808    0.888994
| 32> *
| 33>
| 34> $new_job
| 35> ! ri-mp2 aug-cc-pvqz aug-cc-pvqz/c tightscf
| 36> %pal nprocs 16 end
| 37> %maxcore 3800
| 38> %base "QZ_B-F_2_AB"
| 39>
| 40> *xyz 0 1
| 41> F         0.871816    1.396186    0.000008
| 42> F         1.965962   -0.583073   -0.000000
| 43> S        -0.722204   -0.827606   -0.000005
| 44> B         0.821659    0.074504    0.000001
| 45> C        -1.925420    0.531289   -0.000001
| 46> H        -2.911127    0.073803   -0.000002
| 47> H        -1.814696    1.144814   -0.888992
| 48> H        -1.814696    1.144808    0.888994
| 49> *
| 50>
| 51>
| 52>
| 53>
| 54>                          ****END OF INPUT****
 Total Charge           Charge          ....    0
 Multiplicity           Mult            ....    1
 Number of Electrons    NEL             ....   48
MP2 TOTAL ENERGY:     -661.663480455 Eh
FINAL SINGLE POINT ENERGY      -661.663480454516
MP2 TOTAL ENERGY:     -661.950672056 Eh
FINAL SINGLE POINT ENERGY      -661.950672056041

CARTESIAN COORDINATES (ANGSTROEM)
---------------------------------
  F      0.871816    1.396186    0.000008
  F      1.965962   -0.583073   -0.000000
  S     -0.722204   -0.827606   -0.000005
  B      0.821659    0.074504    0.000001
  C     -1.925420    0.531289   -0.000001
  H     -2.911127    0.073803   -0.000002
  H     -1.814696    1.144814   -0.888992
  H     -1.814696    1.144808    0.888994

 Multiplicity           Mult            ....    1
 Number of Electrons    NEL             ....   48
 Basis Dimension        Dim             ....  542

ORBITAL ENERGIES
----------------

  NO   OCC          E(Eh)            E(eV)
   0   2.0000     -91.963239     -2502.4469
   1   2.0000     -26.318681      -716.1677
   2   2.0000     -26.314371      -716.0504
   3   2.0000     -11.270293      -306.6803
   4   2.0000      -8.968013      -244.0320
   5   2.0000      -7.732205      -210.4040
   6   2.0000      -6.649576      -180.9441
   7   2.0000      -6.648724      -180.9210
   8   2.0000      -6.648210      -180.9070
   9   2.0000      -1.650008       -44.8990
  10   2.0000      -1.618686       -44.0467
  11   2.0000      -1.060531       -28.8585
  12   2.0000      -0.898803       -24.4577
  13   2.0000      -0.816378       -22.2148
  14   2.0000      -0.767517       -20.8852
  15   2.0000      -0.723070       -19.6757
  16   2.0000      -0.720782       -19.6135
  17   2.0000      -0.666486       -18.1360
  18   2.0000      -0.659640       -17.9497
  19   2.0000      -0.607765       -16.5381
  20   2.0000      -0.606605       -16.5066
  21   2.0000      -0.531731       -14.4691
  22   2.0000      -0.462693       -12.5905
  23   2.0000      -0.388854       -10.5813
  24   0.0000       0.023065         0.6276
  25   0.0000       0.035427         0.9640
  26   0.0000       0.039215         1.0671
  27   0.0000       0.039410         1.0724
  28   0.0000       0.051769         1.4087

MULLIKEN ATOMIC CHARGES
-----------------------
   0 F :   -0.726814
   1 F :   -0.756326
   2 S :    0.039619
   3 B :    1.413677
   4 C :   -0.889894
   5 H :    0.387435
   6 H :    0.266151
   7 H :    0.266152
Sum of atomic charges:    0.0000000

LOEWDIN ATOMIC CHARGES
----------------------
   0 F :    0.771480
   1 F :    0.730688
   2 S :    1.360785
   3 B :   -2.259949
   4 C :    0.520970
   5 H :   -0.386564
   6 H :   -0.368705
   7 H :   -0.368705

  Mayer bond orders larger than 0.100000
B(  0-F ,  3-B ) :   0.4260 B(  1-F ,  3-B ) :   0.3834 B(  2-S ,  3-B ) :   1.3233
B(  2-S ,  4-C ) :   0.9575 B(  4-C ,  5-H ) :   0.8352 B(  4-C ,  6-H ) :   0.9173
B(  4-C ,  7-H ) :   0.9173

MP2 TOTAL ENERGY:     -662.041867535 Eh
FINAL SINGLE POINT ENERGY      -662.041867535371

DIPOLE MOMENT
-------------
                                X             Y             Z
Electronic contribution:      8.54467      -1.10021       0.00001
Nuclear contribution   :     -9.38397       1.43436      -0.00001
                        -----------------------------------------
Total Dipole Moment    :     -0.83930       0.33415      -0.00000
                        -----------------------------------------
Magnitude (a.u.)       :      0.90337
Magnitude (Debye)      :      2.29619

Rotational constants in cm-1:     0.231237     0.097794     0.069632
Rotational constants in MHz :  6932.325372  2931.784032  2087.526766

                             ****ORCA TERMINATED NORMALLY****
TOTAL RUN TIME: 0 days 0 hours 3 minutes 6 seconds 199 msec
