                         Program Version 5.0.4 -  RELEASE  -
|  1> ! ri-mp2 aug-cc-pvdz aug-cc-pvdz/c tightscf
|  2> %pal nprocs 16 end
|  3> %maxcore 3800
|  4> %base "DZ_B-B_65_AB"
|  5> %scf
|  6> STABPerform true
|  7> STABRestartUHFifUnstable true
|  8> end
|  9>
| 10> *xyz 0 1
| 11> B         2.465942   -1.474563   -0.437697
| 12> B         1.426779   -0.827221    0.616515
| 13> B        -0.073979   -0.159629    0.186963
| 14> O        -1.137134   -1.000624    0.137235
| 15> O        -0.275371    1.155953   -0.103920
| 16> C        -2.438622   -0.527907   -0.175541
| 17> H        -3.110894   -1.382409   -0.147513
| 18> H        -2.461736   -0.079596   -1.169235
| 19> H        -2.767757    0.217308    0.549224
| 20> C         0.769034    2.105383   -0.040889
| 21> H         0.551725    2.900456   -0.751872
| 22> H         1.734820    1.663834   -0.299675
| 23> H         0.831010    2.535472    0.960001
| 24> H         1.715312   -0.805678    1.780442
| 25> H         2.418816   -2.628384   -0.743942
| 26> H         3.312556   -0.821432   -0.974282
| 27> *
| 28>
| 29> $new_job
| 30> ! ri-mp2 aug-cc-pvtz aug-cc-pvtz/c tightscf
| 31> %pal nprocs 16 end
| 32> %maxcore 3800
| 33> %base "TZ_B-B_65_AB"
| 34>
| 35> *xyz 0 1
| 36> B         2.465942   -1.474563   -0.437697
| 37> B         1.426779   -0.827221    0.616515
| 38> B        -0.073979   -0.159629    0.186963
| 39> O        -1.137134   -1.000624    0.137235
| 40> O        -0.275371    1.155953   -0.103920
| 41> C        -2.438622   -0.527907   -0.175541
| 42> H        -3.110894   -1.382409   -0.147513
| 43> H        -2.461736   -0.079596   -1.169235
| 44> H        -2.767757    0.217308    0.549224
| 45> C         0.769034    2.105383   -0.040889
| 46> H         0.551725    2.900456   -0.751872
| 47> H         1.734820    1.663834   -0.299675
| 48> H         0.831010    2.535472    0.960001
| 49> H         1.715312   -0.805678    1.780442
| 50> H         2.418816   -2.628384   -0.743942
| 51> H         3.312556   -0.821432   -0.974282
| 52> *
| 53>
| 54> $new_job
| 55> ! ri-mp2 aug-cc-pvqz aug-cc-pvqz/c tightscf
| 56> %pal nprocs 16 end
| 57> %maxcore 3800
| 58> %base "QZ_B-B_65_AB"
| 59>
| 60> *xyz 0 1
| 61> B         2.465942   -1.474563   -0.437697
| 62> B         1.426779   -0.827221    0.616515
| 63> B        -0.073979   -0.159629    0.186963
| 64> O        -1.137134   -1.000624    0.137235
| 65> O        -0.275371    1.155953   -0.103920
| 66> C        -2.438622   -0.527907   -0.175541
| 67> H        -3.110894   -1.382409   -0.147513
| 68> H        -2.461736   -0.079596   -1.169235
| 69> H        -2.767757    0.217308    0.549224
| 70> C         0.769034    2.105383   -0.040889
| 71> H         0.551725    2.900456   -0.751872
| 72> H         1.734820    1.663834   -0.299675
| 73> H         0.831010    2.535472    0.960001
| 74> H         1.715312   -0.805678    1.780442
| 75> H         2.418816   -2.628384   -0.743942
| 76> H         3.312556   -0.821432   -0.974282
| 77> *
| 78>
| 79>
| 80>
| 81>
| 82>                          ****END OF INPUT****
 Total Charge           Charge          ....    0
 Multiplicity           Mult            ....    1
 Number of Electrons    NEL             ....   52
MP2 TOTAL ENERGY:     -305.744121830 Eh
FINAL SINGLE POINT ENERGY      -305.744121829565
MP2 TOTAL ENERGY:     -306.023541935 Eh
FINAL SINGLE POINT ENERGY      -306.023541935324

CARTESIAN COORDINATES (ANGSTROEM)
---------------------------------
  B      2.465942   -1.474563   -0.437697
  B      1.426779   -0.827221    0.616515
  B     -0.073979   -0.159629    0.186963
  O     -1.137134   -1.000624    0.137235
  O     -0.275371    1.155953   -0.103920
  C     -2.438622   -0.527907   -0.175541
  H     -3.110894   -1.382409   -0.147513
  H     -2.461736   -0.079596   -1.169235
  H     -2.767757    0.217308    0.549224
  C      0.769034    2.105383   -0.040889
  H      0.551725    2.900456   -0.751872
  H      1.734820    1.663834   -0.299675
  H      0.831010    2.535472    0.960001
  H      1.715312   -0.805678    1.780442
  H      2.418816   -2.628384   -0.743942
  H      3.312556   -0.821432   -0.974282

 Multiplicity           Mult            ....    1
 Number of Electrons    NEL             ....   52
 Basis Dimension        Dim             ....  974

ORBITAL ENERGIES
----------------

  NO   OCC          E(Eh)            E(eV)
   0   2.0000     -20.559299      -559.4470
   1   2.0000     -20.550177      -559.1988
   2   2.0000     -11.283576      -307.0417
   3   2.0000     -11.267970      -306.6170
   4   2.0000      -7.615970      -207.2411
   5   2.0000      -7.580699      -206.2813
   6   2.0000      -7.565418      -205.8655
   7   2.0000      -1.387380       -37.7525
   8   2.0000      -1.349111       -36.7112
   9   2.0000      -0.947770       -25.7901
  10   2.0000      -0.932503       -25.3747
  11   2.0000      -0.755185       -20.5496
  12   2.0000      -0.714461       -19.4415
  13   2.0000      -0.678062       -18.4510
  14   2.0000      -0.654804       -17.8181
  15   2.0000      -0.648213       -17.6388
  16   2.0000      -0.618783       -16.8379
  17   2.0000      -0.597405       -16.2562
  18   2.0000      -0.592282       -16.1168
  19   2.0000      -0.514478       -13.9997
  20   2.0000      -0.493514       -13.4292
  21   2.0000      -0.488798       -13.3009
  22   2.0000      -0.486610       -13.2413
  23   2.0000      -0.451564       -12.2877
  24   2.0000      -0.443287       -12.0624
  25   2.0000      -0.405667       -11.0388
  26   0.0000       0.022587         0.6146
  27   0.0000       0.028678         0.7804
  28   0.0000       0.030166         0.8209
  29   0.0000       0.030919         0.8413
  30   0.0000       0.042256         1.1498

MULLIKEN ATOMIC CHARGES
-----------------------
   0 B :    0.185869
   1 B :    0.462098
   2 B :    1.579532
   3 O :   -1.149404
   4 O :   -1.104250
   5 C :   -0.718727
   6 H :    0.489026
   7 H :    0.326108
   8 H :    0.318739
   9 C :   -0.739889
  10 H :    0.443725
  11 H :    0.269064
  12 H :    0.342050
  13 H :   -0.295416
  14 H :   -0.206363
  15 H :   -0.202162
Sum of atomic charges:    0.0000000

LOEWDIN ATOMIC CHARGES
----------------------
   0 B :    0.481078
   1 B :    0.125776
   2 B :   -1.258225
   3 O :    0.932847
   4 O :    0.958473
   5 C :    0.583778
   6 H :   -0.315961
   7 H :   -0.305180
   8 H :   -0.304567
   9 C :    0.592851
  10 H :   -0.301182
  11 H :   -0.323633
  12 H :   -0.287476
  13 H :   -0.176081
  14 H :   -0.201868
  15 H :   -0.200629

  Mayer bond orders larger than 0.100000
B(  0-B ,  1-B ) :   1.0320 B(  0-B ,  2-B ) :  -0.1055 B(  0-B , 14-H ) :   0.9494
B(  0-B , 15-H ) :   0.9669 B(  1-B ,  2-B ) :   0.8957 B(  1-B ,  3-O ) :  -0.1963
B(  1-B , 13-H ) :   0.9226 B(  2-B ,  3-O ) :   0.1653 B(  2-B ,  4-O ) :   0.4795
B(  2-B , 13-H ) :  -0.1003 B(  3-O ,  5-C ) :   0.9774 B(  4-O ,  9-C ) :   0.9650
B(  5-C ,  6-H ) :   0.7578 B(  5-C ,  7-H ) :   0.8738 B(  5-C ,  8-H ) :   0.8892
B(  9-C , 10-H ) :   0.8082 B(  9-C , 11-H ) :   0.9057 B(  9-C , 12-H ) :   0.8821

MP2 TOTAL ENERGY:     -306.110391731 Eh
FINAL SINGLE POINT ENERGY      -306.110391731179

DIPOLE MOMENT
-------------
                                X             Y             Z
Electronic contribution:      0.88288      -2.94989       1.07156
Nuclear contribution   :     -0.87680       3.59050      -1.09261
                        -----------------------------------------
Total Dipole Moment    :      0.00607       0.64061      -0.02105
                        -----------------------------------------
Magnitude (a.u.)       :      0.64098
Magnitude (Debye)      :      1.62925

Rotational constants in cm-1:     0.100167     0.067068     0.043353
Rotational constants in MHz :  3002.944646  2010.662984  1299.695503

                             ****ORCA TERMINATED NORMALLY****
TOTAL RUN TIME: 0 days 1 hours 41 minutes 13 seconds 94 msec
