                         Program Version 5.0.4 -  RELEASE  -
|  1> ! ri-mp2 aug-cc-pvdz aug-cc-pvdz/c tightscf
|  2> %pal nprocs 16 end
|  3> %maxcore 3800
|  4> %base "DZ_B-F_64_AB"
|  5>
|  6> *xyz 0 1
|  7> F        -2.414413   -1.124859   -0.000003
|  8> B        -1.711817   -0.016384   -0.000005
|  9> F        -2.385176    1.123758    0.000001
| 10> C        -0.154288   -0.005454   -0.000002
| 11> C         0.547794    1.194261   -0.000002
| 12> N         0.467520   -1.193873    0.000000
| 13> C         1.788065   -1.208761    0.000002
| 14> C         1.931605    1.168341    0.000002
| 15> C         2.565026   -0.057221    0.000004
| 16> H         0.008348    2.131580   -0.000003
| 17> H         2.502298    2.087462    0.000004
| 18> H         3.643931   -0.131427    0.000007
| 19> H         2.258955   -2.185673    0.000004
| 20> *
| 21>
| 22> $new_job
| 23> ! ri-mp2 aug-cc-pvtz aug-cc-pvtz/c tightscf
| 24> %pal nprocs 16 end
| 25> %maxcore 3800
| 26> %base "TZ_B-F_64_AB"
| 27>
| 28> *xyz 0 1
| 29> F        -2.414413   -1.124859   -0.000003
| 30> B        -1.711817   -0.016384   -0.000005
| 31> F        -2.385176    1.123758    0.000001
| 32> C        -0.154288   -0.005454   -0.000002
| 33> C         0.547794    1.194261   -0.000002
| 34> N         0.467520   -1.193873    0.000000
| 35> C         1.788065   -1.208761    0.000002
| 36> C         1.931605    1.168341    0.000002
| 37> C         2.565026   -0.057221    0.000004
| 38> H         0.008348    2.131580   -0.000003
| 39> H         2.502298    2.087462    0.000004
| 40> H         3.643931   -0.131427    0.000007
| 41> H         2.258955   -2.185673    0.000004
| 42> *
| 43>
| 44> $new_job
| 45> ! ri-mp2 aug-cc-pvqz aug-cc-pvqz/c tightscf
| 46> %pal nprocs 16 end
| 47> %maxcore 3800
| 48> %base "QZ_B-F_64_AB"
| 49>
| 50> *xyz 0 1
| 51> F        -2.414413   -1.124859   -0.000003
| 52> B        -1.711817   -0.016384   -0.000005
| 53> F        -2.385176    1.123758    0.000001
| 54> C        -0.154288   -0.005454   -0.000002
| 55> C         0.547794    1.194261   -0.000002
| 56> N         0.467520   -1.193873    0.000000
| 57> C         1.788065   -1.208761    0.000002
| 58> C         1.931605    1.168341    0.000002
| 59> C         2.565026   -0.057221    0.000004
| 60> H         0.008348    2.131580   -0.000003
| 61> H         2.502298    2.087462    0.000004
| 62> H         3.643931   -0.131427    0.000007
| 63> H         2.258955   -2.185673    0.000004
| 64> *
| 65>
| 66>
| 67>
| 68>
| 69>                          ****END OF INPUT****
 Total Charge           Charge          ....    0
 Multiplicity           Mult            ....    1
 Number of Electrons    NEL             ....   64
MP2 TOTAL ENERGY:     -471.174066868 Eh
FINAL SINGLE POINT ENERGY      -471.174066868076
MP2 TOTAL ENERGY:     -471.579520503 Eh
FINAL SINGLE POINT ENERGY      -471.579520503143

CARTESIAN COORDINATES (ANGSTROEM)
---------------------------------
  F     -2.414413   -1.124859   -0.000003
  B     -1.711817   -0.016384   -0.000005
  F     -2.385176    1.123758    0.000001
  C     -0.154288   -0.005454   -0.000002
  C      0.547794    1.194261   -0.000002
  N      0.467520   -1.193873    0.000000
  C      1.788065   -1.208761    0.000002
  C      1.931605    1.168341    0.000002
  C      2.565026   -0.057221    0.000004
  H      0.008348    2.131580   -0.000003
  H      2.502298    2.087462    0.000004
  H      3.643931   -0.131427    0.000007
  H      2.258955   -2.185673    0.000004

 Multiplicity           Mult            ....    1
 Number of Electrons    NEL             ....   64
 Basis Dimension        Dim             ....  904

ORBITAL ENERGIES
----------------

  NO   OCC          E(Eh)            E(eV)
   0   2.0000     -26.308512      -715.8910
   1   2.0000     -26.303652      -715.7587
   2   2.0000     -15.578033      -423.8998
   3   2.0000     -11.281849      -306.9947
   4   2.0000     -11.267420      -306.6021
   5   2.0000     -11.266698      -306.5824
   6   2.0000     -11.257732      -306.3385
   7   2.0000     -11.256510      -306.3052
   8   2.0000      -7.704360      -209.6463
   9   2.0000      -1.640702       -44.6458
  10   2.0000      -1.608147       -43.7599
  11   2.0000      -1.275240       -34.7011
  12   2.0000      -1.106232       -30.1021
  13   2.0000      -1.051433       -28.6109
  14   2.0000      -0.881267       -23.9805
  15   2.0000      -0.872916       -23.7533
  16   2.0000      -0.813112       -22.1259
  17   2.0000      -0.756712       -20.5912
  18   2.0000      -0.753853       -20.5134
  19   2.0000      -0.709732       -19.3128
  20   2.0000      -0.700118       -19.0512
  21   2.0000      -0.677892       -18.4464
  22   2.0000      -0.654545       -17.8111
  23   2.0000      -0.653959       -17.7951
  24   2.0000      -0.643293       -17.5049
  25   2.0000      -0.597579       -16.2610
  26   2.0000      -0.580146       -15.7866
  27   2.0000      -0.558415       -15.1952
  28   2.0000      -0.519965       -14.1490
  29   2.0000      -0.426576       -11.6077
  30   2.0000      -0.398481       -10.8432
  31   2.0000      -0.366144        -9.9633
  32   0.0000       0.017844         0.4856
  33   0.0000       0.027529         0.7491
  34   0.0000       0.032005         0.8709
  35   0.0000       0.039178         1.0661
  36   0.0000       0.043041         1.1712

MULLIKEN ATOMIC CHARGES
-----------------------
   0 F :   -0.843624
   1 B :    1.822899
   2 F :   -0.854699
   3 C :    0.368122
   4 C :   -0.430177
   5 N :   -0.596537
   6 C :   -0.375549
   7 C :   -0.173987
   8 C :   -0.300161
   9 H :    0.280939
  10 H :    0.273272
  11 H :    0.374834
  12 H :    0.454668
Sum of atomic charges:    0.0000000

LOEWDIN ATOMIC CHARGES
----------------------
   0 F :    0.831718
   1 B :   -1.755601
   2 F :    0.826331
   3 C :   -0.256652
   4 C :    0.302493
   5 N :    0.575154
   6 C :    0.087682
   7 C :    0.347861
   8 C :    0.341743
   9 H :   -0.327417
  10 H :   -0.308341
  11 H :   -0.318893
  12 H :   -0.346077

  Mayer bond orders larger than 0.100000
B(  0-F ,  1-B ) :   0.2624 B(  1-B ,  2-F ) :   0.2304 B(  1-B ,  3-C ) :   0.9899
B(  2-F ,  3-C ) :  -0.1840 B(  3-C ,  4-C ) :   1.0134 B(  3-C ,  5-N ) :   1.0633
B(  3-C ,  7-C ) :  -0.3129 B(  4-C ,  5-N ) :   0.1074 B(  4-C ,  6-C ) :   0.1995
B(  4-C ,  7-C ) :   1.2401 B(  4-C ,  9-H ) :   0.9142 B(  4-C , 10-H ) :  -0.1228
B(  5-N ,  6-C ) :   1.3095 B(  6-C ,  8-C ) :   1.2376 B(  6-C , 11-H ) :  -0.1059
B(  6-C , 12-H ) :   0.8929 B(  7-C ,  8-C ) :   1.2098 B(  7-C , 10-H ) :   1.0735
B(  8-C , 11-H ) :   0.9297

MP2 TOTAL ENERGY:     -471.709541842 Eh
FINAL SINGLE POINT ENERGY      -471.709541842005

DIPOLE MOMENT
-------------
                                X             Y             Z
Electronic contribution:    -12.37961      -1.07516      -0.00002
Nuclear contribution   :     13.76786       1.80837       0.00002
                        -----------------------------------------
Total Dipole Moment    :      1.38825       0.73321      -0.00000
                        -----------------------------------------
Magnitude (a.u.)       :      1.56998
Magnitude (Debye)      :      3.99056

Rotational constants in cm-1:     0.126855     0.038063     0.029278
Rotational constants in MHz :  3803.020842  1141.090801   877.729391

                             ****ORCA TERMINATED NORMALLY****
TOTAL RUN TIME: 0 days 0 hours 16 minutes 46 seconds 726 msec
