                         Program Version 5.0.4 -  RELEASE  -
|  1> ! ri-mp2 aug-cc-pvdz aug-cc-pvdz/c tightscf
|  2> %pal nprocs 16 end
|  3> %maxcore 3800
|  4> %base "DZ_Si-Cl_10_AB"
|  5> %scf
|  6> STABPerform true
|  7> STABRestartUHFifUnstable true
|  8> end
|  9>
| 10> *xyz 0 1
| 11> C         1.307545   -0.106563   -0.000005
| 12> O         2.346816    0.487660   -0.000012
| 13> Si        -0.297661    0.926425    0.000008
| 14> O         1.273138   -1.448461    0.000009
| 15> Cl        -1.901136   -0.374400   -0.000006
| 16> H         0.357563   -1.761371    0.000017
| 17> H        -0.337953    1.741012   -1.220731
| 18> H        -0.337949    1.741000    1.220760
| 19> *
| 20>
| 21> $new_job
| 22> ! ri-mp2 aug-cc-pvtz aug-cc-pvtz/c tightscf
| 23> %pal nprocs 16 end
| 24> %maxcore 3800
| 25> %base "TZ_Si-Cl_10_AB"
| 26>
| 27> *xyz 0 1
| 28> C         1.307545   -0.106563   -0.000005
| 29> O         2.346816    0.487660   -0.000012
| 30> Si        -0.297661    0.926425    0.000008
| 31> O         1.273138   -1.448461    0.000009
| 32> Cl        -1.901136   -0.374400   -0.000006
| 33> H         0.357563   -1.761371    0.000017
| 34> H        -0.337953    1.741012   -1.220731
| 35> H        -0.337949    1.741000    1.220760
| 36> *
| 37>
| 38> $new_job
| 39> ! ri-mp2 aug-cc-pvqz aug-cc-pvqz/c tightscf
| 40> %pal nprocs 16 end
| 41> %maxcore 3800
| 42> %base "QZ_Si-Cl_10_AB"
| 43>
| 44> *xyz 0 1
| 45> C         1.307545   -0.106563   -0.000005
| 46> O         2.346816    0.487660   -0.000012
| 47> Si        -0.297661    0.926425    0.000008
| 48> O         1.273138   -1.448461    0.000009
| 49> Cl        -1.901136   -0.374400   -0.000006
| 50> H         0.357563   -1.761371    0.000017
| 51> H        -0.337953    1.741012   -1.220731
| 52> H        -0.337949    1.741000    1.220760
| 53> *
| 54>
| 55>
| 56>
| 57>
| 58>                          ****END OF INPUT****
 Total Charge           Charge          ....    0
 Multiplicity           Mult            ....    1
 Number of Electrons    NEL             ....   56
MP2 TOTAL ENERGY:     -938.633149709 Eh
FINAL SINGLE POINT ENERGY      -938.633149709389
MP2 TOTAL ENERGY:     -938.890574113 Eh
FINAL SINGLE POINT ENERGY      -938.890574113168

CARTESIAN COORDINATES (ANGSTROEM)
---------------------------------
  C      1.307545   -0.106563   -0.000005
  O      2.346816    0.487660   -0.000012
  Si    -0.297661    0.926425    0.000008
  O      1.273138   -1.448461    0.000009
  Cl    -1.901136   -0.374400   -0.000006
  H      0.357563   -1.761371    0.000017
  H     -0.337953    1.741012   -1.220731
  H     -0.337949    1.741000    1.220760

 Multiplicity           Mult            ....    1
 Number of Electrons    NEL             ....   56
 Basis Dimension        Dim             ....  546

ORBITAL ENERGIES
----------------

  NO   OCC          E(Eh)            E(eV)
   0   2.0000    -104.858694     -2853.3501
   1   2.0000     -68.848774     -1873.4704
   2   2.0000     -20.623980      -561.2070
   3   2.0000     -20.564711      -559.5942
   4   2.0000     -11.383767      -309.7681
   5   2.0000     -10.586093      -288.0622
   6   2.0000      -8.052862      -219.1295
   7   2.0000      -8.051801      -219.1006
   8   2.0000      -8.051743      -219.0991
   9   2.0000      -6.194620      -168.5642
  10   2.0000      -4.301684      -117.0548
  11   2.0000      -4.300441      -117.0209
  12   2.0000      -4.300219      -117.0149
  13   2.0000      -1.474475       -40.1225
  14   2.0000      -1.382303       -37.6144
  15   2.0000      -1.128697       -30.7134
  16   2.0000      -0.862610       -23.4728
  17   2.0000      -0.805992       -21.9322
  18   2.0000      -0.689575       -18.7643
  19   2.0000      -0.674602       -18.3568
  20   2.0000      -0.642615       -17.4865
  21   2.0000      -0.582424       -15.8486
  22   2.0000      -0.556426       -15.1411
  23   2.0000      -0.551784       -15.0148
  24   2.0000      -0.509685       -13.8692
  25   2.0000      -0.499230       -13.5847
  26   2.0000      -0.477218       -12.9858
  27   2.0000      -0.433364       -11.7924
  28   0.0000       0.022883         0.6227
  29   0.0000       0.032955         0.8968
  30   0.0000       0.035686         0.9711
  31   0.0000       0.039875         1.0851
  32   0.0000       0.051097         1.3904

MULLIKEN ATOMIC CHARGES
-----------------------
   0 C :    0.648239
   1 O :   -0.717101
   2 Si:    1.250827
   3 O :   -0.732034
   4 Cl:   -0.573386
   5 H :    0.411896
   6 H :   -0.144220
   7 H :   -0.144220
Sum of atomic charges:    0.0000000

LOEWDIN ATOMIC CHARGES
----------------------
   0 C :   -1.123180
   1 O :    0.574250
   2 Si:   -0.010105
   3 O :    1.162445
   4 Cl:    0.915997
   5 H :   -0.932475
   6 H :   -0.293468
   7 H :   -0.293463

  Mayer bond orders larger than 0.100000
B(  0-C ,  1-O ) :   1.6378 B(  0-C ,  2-Si) :   0.7189 B(  0-C ,  3-O ) :   0.9399
B(  2-Si,  4-Cl) :   0.4980 B(  2-Si,  6-H ) :   0.9005 B(  2-Si,  7-H ) :   0.9005
B(  3-O ,  5-H ) :   0.8389

MP2 TOTAL ENERGY:     -938.977714104 Eh
FINAL SINGLE POINT ENERGY      -938.977714103774

DIPOLE MOMENT
-------------
                                X             Y             Z
Electronic contribution:     -3.63757      -1.97060      -0.00003
Nuclear contribution   :      2.35572       2.07819       0.00005
                        -----------------------------------------
Total Dipole Moment    :     -1.28186       0.10759       0.00002
                        -----------------------------------------
Magnitude (a.u.)       :      1.28636
Magnitude (Debye)      :      3.26967

Rotational constants in cm-1:     0.214087     0.062771     0.049394
Rotational constants in MHz :  6418.157666  1881.825943  1480.784940

                             ****ORCA TERMINATED NORMALLY****
TOTAL RUN TIME: 0 days 0 hours 14 minutes 31 seconds 438 msec
