                         Program Version 5.0.4 -  RELEASE  -
|  1> ! ri-mp2 aug-cc-pvdz aug-cc-pvdz/c tightscf
|  2> %pal nprocs 16 end
|  3> %maxcore 3800
|  4> %base "DZ_P-Si_31_AB"
|  5>
|  6> *xyz 0 1
|  7> Si         0.586810   -0.687943   -0.092121
|  8> P        -1.456127    0.209542    0.167960
|  9> N         1.763724    0.734309    0.083956
| 10> O        -1.631863    0.559759    1.573137
| 11> O        -1.532427    1.335113   -0.931802
| 12> O         2.903053    0.571841    0.438907
| 13> O         1.273383    1.815863   -0.232643
| 14> F         0.964538   -1.737176    1.004838
| 15> F         0.920575   -1.266802   -1.512278
| 16> H        -0.815886    1.984144   -0.837584
| 17> O        -2.487692   -0.831622   -0.430003
| 18> H        -3.065275   -1.208076    0.246373
| 19> *
| 20>
| 21> $new_job
| 22> ! ri-mp2 aug-cc-pvtz aug-cc-pvtz/c tightscf
| 23> %pal nprocs 16 end
| 24> %maxcore 3800
| 25> %base "TZ_P-Si_31_AB"
| 26>
| 27> *xyz 0 1
| 28> Si         0.586810   -0.687943   -0.092121
| 29> P        -1.456127    0.209542    0.167960
| 30> N         1.763724    0.734309    0.083956
| 31> O        -1.631863    0.559759    1.573137
| 32> O        -1.532427    1.335113   -0.931802
| 33> O         2.903053    0.571841    0.438907
| 34> O         1.273383    1.815863   -0.232643
| 35> F         0.964538   -1.737176    1.004838
| 36> F         0.920575   -1.266802   -1.512278
| 37> H        -0.815886    1.984144   -0.837584
| 38> O        -2.487692   -0.831622   -0.430003
| 39> H        -3.065275   -1.208076    0.246373
| 40> *
| 41>
| 42> $new_job
| 43> ! ri-mp2 aug-cc-pvqz aug-cc-pvqz/c tightscf
| 44> %pal nprocs 16 end
| 45> %maxcore 3800
| 46> %base "QZ_P-Si_31_AB"
| 47>
| 48> *xyz 0 1
| 49> Si         0.586810   -0.687943   -0.092121
| 50> P        -1.456127    0.209542    0.167960
| 51> N         1.763724    0.734309    0.083956
| 52> O        -1.631863    0.559759    1.573137
| 53> O        -1.532427    1.335113   -0.931802
| 54> O         2.903053    0.571841    0.438907
| 55> O         1.273383    1.815863   -0.232643
| 56> F         0.964538   -1.737176    1.004838
| 57> F         0.920575   -1.266802   -1.512278
| 58> H        -0.815886    1.984144   -0.837584
| 59> O        -2.487692   -0.831622   -0.430003
| 60> H        -3.065275   -1.208076    0.246373
| 61> *
| 62>
| 63>
| 64>
| 65>
| 66>                          ****END OF INPUT****
 Total Charge           Charge          ....    0
 Multiplicity           Mult            ....    1
 Number of Electrons    NEL             ....   96
MP2 TOTAL ENERGY:    -1260.447786040 Eh
FINAL SINGLE POINT ENERGY     -1260.447786039748
MP2 TOTAL ENERGY:    -1261.094859268 Eh
FINAL SINGLE POINT ENERGY     -1261.094859268458

CARTESIAN COORDINATES (ANGSTROEM)
---------------------------------
  Si     0.586810   -0.687943   -0.092121
  P     -1.456127    0.209542    0.167960
  N      1.763724    0.734309    0.083956
  O     -1.631863    0.559759    1.573137
  O     -1.532427    1.335113   -0.931802
  O      2.903053    0.571841    0.438907
  O      1.273383    1.815863   -0.232643
  F      0.964538   -1.737176    1.004838
  F      0.920575   -1.266802   -1.512278
  H     -0.815886    1.984144   -0.837584
  O     -2.487692   -0.831622   -0.430003
  H     -3.065275   -1.208076    0.246373

 Multiplicity           Mult            ....    1
 Number of Electrons    NEL             ....   96
 Basis Dimension        Dim             ....  900

ORBITAL ENERGIES
----------------

  NO   OCC          E(Eh)            E(eV)
   0   2.0000     -80.109687     -2179.8954
   1   2.0000     -68.939349     -1875.9351
   2   2.0000     -26.359168      -717.2694
   3   2.0000     -26.358012      -717.2380
   4   2.0000     -20.646797      -561.8279
   5   2.0000     -20.639635      -561.6330
   6   2.0000     -20.635763      -561.5277
   7   2.0000     -20.630862      -561.3943
   8   2.0000     -20.544842      -559.0536
   9   2.0000     -15.855139      -431.4403
  10   2.0000      -7.632201      -207.6827
  11   2.0000      -6.276468      -170.7914
  12   2.0000      -5.530481      -150.4921
  13   2.0000      -5.529884      -150.4758
  14   2.0000      -5.528966      -150.4508
  15   2.0000      -4.384402      -119.3056
  16   2.0000      -4.384267      -119.3020
  17   2.0000      -4.382851      -119.2634
  18   2.0000      -1.675451       -45.5913
  19   2.0000      -1.655631       -45.0520
  20   2.0000      -1.638135       -44.5759
  21   2.0000      -1.476836       -40.1867
  22   2.0000      -1.438414       -39.1412
  23   2.0000      -1.421654       -38.6852
  24   2.0000      -1.338262       -36.4159
  25   2.0000      -1.000654       -27.2292
  26   2.0000      -0.900074       -24.4923
  27   2.0000      -0.858849       -23.3705
  28   2.0000      -0.810931       -22.0666
  29   2.0000      -0.786812       -21.4102
  30   2.0000      -0.774290       -21.0695
  31   2.0000      -0.765030       -20.8175
  32   2.0000      -0.753463       -20.5028
  33   2.0000      -0.748081       -20.3563
  34   2.0000      -0.737210       -20.0605
  35   2.0000      -0.723700       -19.6929
  36   2.0000      -0.718663       -19.5558
  37   2.0000      -0.708330       -19.2746
  38   2.0000      -0.687763       -18.7150
  39   2.0000      -0.651510       -17.7285
  40   2.0000      -0.612872       -16.6771
  41   2.0000      -0.597258       -16.2522
  42   2.0000      -0.550647       -14.9839
  43   2.0000      -0.539373       -14.6771
  44   2.0000      -0.511647       -13.9226
  45   2.0000      -0.504159       -13.7189
  46   2.0000      -0.489695       -13.3253
  47   2.0000      -0.468019       -12.7354
  48   0.0000       0.017728         0.4824
  49   0.0000       0.033211         0.9037
  50   0.0000       0.034237         0.9316
  51   0.0000       0.036097         0.9822
  52   0.0000       0.043695         1.1890

MULLIKEN ATOMIC CHARGES
-----------------------
   0 Si:    2.105938
   1 P :    2.122680
   2 N :    0.604783
   3 O :   -1.155033
   4 O :   -0.905593
   5 O :   -0.538000
   6 O :   -0.603922
   7 F :   -0.719070
   8 F :   -0.717150
   9 H :    0.402761
  10 O :   -0.985247
  11 H :    0.387854
Sum of atomic charges:   -0.0000000

LOEWDIN ATOMIC CHARGES
----------------------
   0 Si:   -0.974792
   1 P :   -0.615391
   2 N :   -0.859002
   3 O :    0.267481
   4 O :    1.072579
   5 O :    0.476466
   6 O :    0.482624
   7 F :    0.467611
   8 F :    0.462942
   9 H :   -0.981401
  10 O :    1.063650
  11 H :   -0.862767

  Mayer bond orders larger than 0.100000
B(  0-Si,  1-P ) :   0.9491 B(  0-Si,  2-N ) :   0.4858 B(  0-Si,  7-F ) :   0.4228
B(  0-Si,  8-F ) :   0.4782 B(  1-P ,  3-O ) :   1.3705 B(  1-P ,  4-O ) :   0.7101
B(  1-P , 10-O ) :   0.5513 B(  2-N ,  5-O ) :   1.3889 B(  2-N ,  6-O ) :   1.2759
B(  4-O ,  9-H ) :   0.8394 B(  5-O ,  6-O ) :   0.1541 B( 10-O , 11-H ) :   0.9155

MP2 TOTAL ENERGY:    -1261.310146203 Eh
FINAL SINGLE POINT ENERGY     -1261.310146203416

DIPOLE MOMENT
-------------
                                X             Y             Z
Electronic contribution:      3.33329      -4.27960      -0.37523
Nuclear contribution   :     -4.11311       3.40251      -0.22165
                        -----------------------------------------
Total Dipole Moment    :     -0.77981      -0.87708      -0.59688
                        -----------------------------------------
Magnitude (a.u.)       :      1.31668
Magnitude (Debye)      :      3.34674

Rotational constants in cm-1:     0.049164     0.026854     0.023390
Rotational constants in MHz :  1473.904448   805.072926   701.205900

                             ****ORCA TERMINATED NORMALLY****
TOTAL RUN TIME: 0 days 0 hours 18 minutes 8 seconds 261 msec
