                         Program Version 5.0.4 -  RELEASE  -
|  1> ! ri-mp2 aug-cc-pvdz aug-cc-pvdz/c tightscf
|  2> %pal nprocs 16 end
|  3> %maxcore 3800
|  4> %base "DZ_B-S_25_B"
|  5> %scf
|  6> STABPerform true
|  7> STABRestartUHFifUnstable true
|  8> end
|  9>
| 10> *xyz 0 2
| 11> B        -0.002294   -0.616148    0.000002
| 12> S        -1.579026    0.164811    0.000007
| 13> S         1.638060    0.003026   -0.000006
| 14> H         1.408124    1.334389   -0.000012
| 15> H        -2.341197   -0.939044   -0.000015
| 16> *
| 17>
| 18> $new_job
| 19> ! ri-mp2 aug-cc-pvtz aug-cc-pvtz/c tightscf
| 20> %pal nprocs 16 end
| 21> %maxcore 3800
| 22> %base "TZ_B-S_25_B"
| 23>
| 24> *xyz 0 2
| 25> B        -0.002294   -0.616148    0.000002
| 26> S        -1.579026    0.164811    0.000007
| 27> S         1.638060    0.003026   -0.000006
| 28> H         1.408124    1.334389   -0.000012
| 29> H        -2.341197   -0.939044   -0.000015
| 30> *
| 31>
| 32> $new_job
| 33> ! ri-mp2 aug-cc-pvqz aug-cc-pvqz/c tightscf
| 34> %pal nprocs 16 end
| 35> %maxcore 3800
| 36> %base "QZ_B-S_25_B"
| 37>
| 38> *xyz 0 2
| 39> B        -0.002294   -0.616148    0.000002
| 40> S        -1.579026    0.164811    0.000007
| 41> S         1.638060    0.003026   -0.000006
| 42> H         1.408124    1.334389   -0.000012
| 43> H        -2.341197   -0.939044   -0.000015
| 44> *
| 45>
| 46>
| 47>
| 48>
| 49>                          ****END OF INPUT****
 Total Charge           Charge          ....    0
 Multiplicity           Mult            ....    2
 Number of Electrons    NEL             ....   39
MP2 TOTAL ENERGY:     -821.267647377 Eh
FINAL SINGLE POINT ENERGY      -821.267647376953
MP2 TOTAL ENERGY:     -821.388933962 Eh
FINAL SINGLE POINT ENERGY      -821.388933961647

CARTESIAN COORDINATES (ANGSTROEM)
---------------------------------
  B     -0.002294   -0.616148    0.000002
  S     -1.579026    0.164811    0.000007
  S      1.638060    0.003026   -0.000006
  H      1.408124    1.334389   -0.000012
  H     -2.341197   -0.939044   -0.000015

 Multiplicity           Mult            ....    2
 Number of Electrons    NEL             ....   39
 Basis Dimension        Dim             ....  340

ORBITAL ENERGIES
----------------
                 SPIN UP ORBITALS
  NO   OCC          E(Eh)            E(eV)
   0   1.0000     -91.971292     -2502.6661
   1   1.0000     -91.970031     -2502.6318
   2   1.0000      -8.975928      -244.2474
   3   1.0000      -8.974677      -244.2134
   4   1.0000      -7.671956      -208.7645
   5   1.0000      -6.657619      -181.1630
   6   1.0000      -6.656858      -181.1423
   7   1.0000      -6.655805      -181.1136
   8   1.0000      -6.655555      -181.1069
   9   1.0000      -6.654843      -181.0875
  10   1.0000      -6.654353      -181.0742
  11   1.0000      -1.025081       -27.8939
  12   1.0000      -0.980430       -26.6789
  13   1.0000      -0.666863       -18.1463
  14   1.0000      -0.603777       -16.4296
  15   1.0000      -0.525623       -14.3029
  16   1.0000      -0.479290       -13.0422
  17   1.0000      -0.444561       -12.0971
  18   1.0000      -0.378940       -10.3115
  19   1.0000      -0.341857        -9.3024
  20   0.0000       0.026528         0.7219
  21   0.0000       0.033904         0.9226
  22   0.0000       0.038723         1.0537
  23   0.0000       0.042235         1.1493
  24   0.0000       0.058619         1.5951

                 SPIN DOWN ORBITALS
  NO   OCC          E(Eh)            E(eV)
   0   1.0000     -91.971514     -2502.6721
   1   1.0000     -91.970381     -2502.6413
   2   1.0000      -8.976210      -244.2551
   3   1.0000      -8.974703      -244.2141
   4   1.0000      -7.652162      -208.2259
   5   1.0000      -6.657923      -181.1713
   6   1.0000      -6.656929      -181.1443
   7   1.0000      -6.656865      -181.1425
   8   1.0000      -6.656285      -181.1267
   9   1.0000      -6.655447      -181.1039
  10   1.0000      -6.655254      -181.0987
  11   1.0000      -1.012969       -27.5643
  12   1.0000      -0.978116       -26.6159
  13   1.0000      -0.630869       -17.1668
  14   1.0000      -0.583942       -15.8899
  15   1.0000      -0.500238       -13.6122
  16   1.0000      -0.470189       -12.7945
  17   1.0000      -0.440790       -11.9945
  18   1.0000      -0.384681       -10.4677
  19   0.0000       0.022552         0.6137
  20   0.0000       0.034287         0.9330
  21   0.0000       0.038421         1.0455
  22   0.0000       0.042502         1.1565
  23   0.0000       0.056779         1.5450

MULLIKEN ATOMIC CHARGES AND SPIN POPULATIONS
--------------------------------------------
   0 B :    0.001231    1.054621
   1 S :   -0.133786   -0.048168
   2 S :   -0.082037   -0.100632
   3 H :    0.091873    0.073590
   4 H :    0.122719    0.020589
Sum of atomic charges         :   -0.0000000

LOEWDIN ATOMIC CHARGES AND SPIN POPULATIONS
-------------------------------------------
   0 B :   -1.362595    0.571856
   1 S :    1.524023    0.182446
   2 S :    1.487929    0.174031
   3 H :   -0.811327    0.034080
   4 H :   -0.838031    0.037587

  Mayer bond orders larger than 0.100000
B(  0-B ,  1-S ) :   1.2879 B(  0-B ,  2-S ) :   1.3151 B(  1-S ,  4-H ) :   0.9816
B(  2-S ,  3-H ) :   0.9756

MP2 TOTAL ENERGY:     -821.429327643 Eh
FINAL SINGLE POINT ENERGY      -821.429327642839

DIPOLE MOMENT
-------------
                                X             Y             Z
Electronic contribution:      0.61790      -0.72124       0.00002
Nuclear contribution   :     -0.88817       0.84401      -0.00003
                        -----------------------------------------
Total Dipole Moment    :     -0.27026       0.12277      -0.00001
                        -----------------------------------------
Magnitude (a.u.)       :      0.29684
Magnitude (Debye)      :      0.75451

Rotational constants in cm-1:     2.232846     0.097122     0.093073
Rotational constants in MHz : 66939.045869  2911.641394  2790.273145

                             ****ORCA TERMINATED NORMALLY****
TOTAL RUN TIME: 0 days 0 hours 9 minutes 17 seconds 529 msec
