                         Program Version 5.0.4 -  RELEASE  -
|  1> ! ri-mp2 aug-cc-pvdz aug-cc-pvdz/c tightscf
|  2> %pal nprocs 16 end
|  3> %maxcore 3800
|  4> %base "DZ_P-F_8_AB"
|  5>
|  6> *xyz 0 1
|  7> F        -3.833271    0.515046   -0.079778
|  8> N        -0.316003   -0.963381    0.036352
|  9> P        -2.932004   -0.810891    0.102146
| 10> C        -1.261861   -0.063823    0.034833
| 11> C        -1.023988    1.326931    0.029689
| 12> H        -1.856168    2.015896    0.031722
| 13> C         0.266684    1.757813    0.014613
| 14> H         0.499568    2.815711    0.007930
| 15> C         2.681784    1.187645   -0.015555
| 16> H         2.939485    2.239350   -0.022222
| 17> C         3.653944    0.233127   -0.026198
| 18> H         4.696743    0.519970   -0.041429
| 19> C         3.308711   -1.133958   -0.017405
| 20> H         4.092642   -1.879525   -0.025534
| 21> C         2.002203   -1.520312    0.002201
| 22> H         1.713878   -2.562243    0.010809
| 23> C         0.975076   -0.552389    0.012728
| 24> C         1.319079    0.819601    0.003491
| 25> H        -2.924422   -1.205350   -1.260320
| 26> *
| 27>
| 28> $new_job
| 29> ! ri-mp2 aug-cc-pvtz aug-cc-pvtz/c tightscf
| 30> %pal nprocs 16 end
| 31> %maxcore 3800
| 32> %base "TZ_P-F_8_AB"
| 33>
| 34> *xyz 0 1
| 35> F        -3.833271    0.515046   -0.079778
| 36> N        -0.316003   -0.963381    0.036352
| 37> P        -2.932004   -0.810891    0.102146
| 38> C        -1.261861   -0.063823    0.034833
| 39> C        -1.023988    1.326931    0.029689
| 40> H        -1.856168    2.015896    0.031722
| 41> C         0.266684    1.757813    0.014613
| 42> H         0.499568    2.815711    0.007930
| 43> C         2.681784    1.187645   -0.015555
| 44> H         2.939485    2.239350   -0.022222
| 45> C         3.653944    0.233127   -0.026198
| 46> H         4.696743    0.519970   -0.041429
| 47> C         3.308711   -1.133958   -0.017405
| 48> H         4.092642   -1.879525   -0.025534
| 49> C         2.002203   -1.520312    0.002201
| 50> H         1.713878   -2.562243    0.010809
| 51> C         0.975076   -0.552389    0.012728
| 52> C         1.319079    0.819601    0.003491
| 53> H        -2.924422   -1.205350   -1.260320
| 54> *
| 55>
| 56> $new_job
| 57> ! ri-mp2 aug-cc-pvqz aug-cc-pvqz/c tightscf
| 58> %pal nprocs 16 end
| 59> %maxcore 3800
| 60> %base "QZ_P-F_8_AB"
| 61>
| 62> *xyz 0 1
| 63> F        -3.833271    0.515046   -0.079778
| 64> N        -0.316003   -0.963381    0.036352
| 65> P        -2.932004   -0.810891    0.102146
| 66> C        -1.261861   -0.063823    0.034833
| 67> C        -1.023988    1.326931    0.029689
| 68> H        -1.856168    2.015896    0.031722
| 69> C         0.266684    1.757813    0.014613
| 70> H         0.499568    2.815711    0.007930
| 71> C         2.681784    1.187645   -0.015555
| 72> H         2.939485    2.239350   -0.022222
| 73> C         3.653944    0.233127   -0.026198
| 74> H         4.696743    0.519970   -0.041429
| 75> C         3.308711   -1.133958   -0.017405
| 76> H         4.092642   -1.879525   -0.025534
| 77> C         2.002203   -1.520312    0.002201
| 78> H         1.713878   -2.562243    0.010809
| 79> C         0.975076   -0.552389    0.012728
| 80> C         1.319079    0.819601    0.003491
| 81> H        -2.924422   -1.205350   -1.260320
| 82> *
| 83>
| 84>
| 85>
| 86>
| 87>                          ****END OF INPUT****
 Total Charge           Charge          ....    0
 Multiplicity           Mult            ....    1
 Number of Electrons    NEL             ....   92
MP2 TOTAL ENERGY:     -841.288262263 Eh
FINAL SINGLE POINT ENERGY      -841.288262263279
MP2 TOTAL ENERGY:     -841.758699580 Eh
FINAL SINGLE POINT ENERGY      -841.758699579945

CARTESIAN COORDINATES (ANGSTROEM)
---------------------------------
  F     -3.833271    0.515046   -0.079778
  N     -0.316003   -0.963381    0.036352
  P     -2.932004   -0.810891    0.102146
  C     -1.261861   -0.063823    0.034833
  C     -1.023988    1.326931    0.029689
  H     -1.856168    2.015896    0.031722
  C      0.266684    1.757813    0.014613
  H      0.499568    2.815711    0.007930
  C      2.681784    1.187645   -0.015555
  H      2.939485    2.239350   -0.022222
  C      3.653944    0.233127   -0.026198
  H      4.696743    0.519970   -0.041429
  C      3.308711   -1.133958   -0.017405
  H      4.092642   -1.879525   -0.025534
  C      2.002203   -1.520312    0.002201
  H      1.713878   -2.562243    0.010809
  C      0.975076   -0.552389    0.012728
  C      1.319079    0.819601    0.003491
  H     -2.924422   -1.205350   -1.260320

 Multiplicity           Mult            ....    1
 Number of Electrons    NEL             ....   92
 Basis Dimension        Dim             .... 1286

ORBITAL ENERGIES
----------------

  NO   OCC          E(Eh)            E(eV)
   0   2.0000     -80.004961     -2177.0457
   1   2.0000     -26.294963      -715.5223
   2   2.0000     -15.571684      -423.7271
   3   2.0000     -11.288931      -307.1874
   4   2.0000     -11.280698      -306.9634
   5   2.0000     -11.265977      -306.5628
   6   2.0000     -11.252846      -306.2055
   7   2.0000     -11.248041      -306.0748
   8   2.0000     -11.247000      -306.0464
   9   2.0000     -11.246343      -306.0285
  10   2.0000     -11.243152      -305.9417
  11   2.0000     -11.238051      -305.8029
  12   2.0000      -7.539885      -205.1707
  13   2.0000      -5.434089      -147.8691
  14   2.0000      -5.432780      -147.8335
  15   2.0000      -5.431764      -147.8058
  16   2.0000      -1.601171       -43.5701
  17   2.0000      -1.280438       -34.8425
  18   2.0000      -1.159671       -31.5562
  19   2.0000      -1.105812       -30.0907
  20   2.0000      -1.038057       -28.2470
  21   2.0000      -1.021042       -27.7840
  22   2.0000      -0.912907       -24.8415
  23   2.0000      -0.877640       -23.8818
  24   2.0000      -0.834358       -22.7040
  25   2.0000      -0.830283       -22.5932
  26   2.0000      -0.735099       -20.0031
  27   2.0000      -0.716402       -19.4943
  28   2.0000      -0.709603       -19.3093
  29   2.0000      -0.690314       -18.7844
  30   2.0000      -0.666723       -18.1425
  31   2.0000      -0.649944       -17.6859
  32   2.0000      -0.630238       -17.1497
  33   2.0000      -0.619912       -16.8687
  34   2.0000      -0.603016       -16.4089
  35   2.0000      -0.582976       -15.8636
  36   2.0000      -0.579506       -15.7692
  37   2.0000      -0.542767       -14.7694
  38   2.0000      -0.523084       -14.2338
  39   2.0000      -0.503419       -13.6987
  40   2.0000      -0.481179       -13.0935
  41   2.0000      -0.427929       -11.6445
  42   2.0000      -0.422993       -11.5102
  43   2.0000      -0.388604       -10.5744
  44   2.0000      -0.331342        -9.0163
  45   2.0000      -0.318393        -8.6639
  46   0.0000       0.020664         0.5623
  47   0.0000       0.025515         0.6943
  48   0.0000       0.030256         0.8233
  49   0.0000       0.038461         1.0466
  50   0.0000       0.040232         1.0948

MULLIKEN ATOMIC CHARGES
-----------------------
   0 F :   -0.720667
   1 N :   -0.603924
   2 P :    0.995966
   3 C :   -0.292672
   4 C :   -0.344940
   5 H :    0.328499
   6 C :   -0.212846
   7 H :    0.262114
   8 C :   -0.316711
   9 H :    0.214923
  10 C :   -0.492079
  11 H :    0.254766
  12 C :   -0.366206
  13 H :    0.259361
  14 C :   -0.775265
  15 H :    0.292213
  16 C :    0.990866
  17 C :    0.603151
  18 H :   -0.076550
Sum of atomic charges:    0.0000000

LOEWDIN ATOMIC CHARGES
----------------------
   0 F :    0.271879
   1 N :    0.500610
   2 P :    0.693240
   3 C :   -0.582622
   4 C :    0.277369
   5 H :   -0.360569
   6 C :    0.358806
   7 H :   -0.303376
   8 C :    0.352235
   9 H :   -0.316710
  10 C :    0.351685
  11 H :   -0.322033
  12 C :    0.349626
  13 H :   -0.319780
  14 C :    0.340683
  15 H :   -0.323489
  16 C :   -0.377520
  17 C :   -0.126012
  18 H :   -0.464020

  Mayer bond orders larger than 0.100000
B(  0-F ,  2-P ) :   0.4282 B(  0-F ,  3-C ) :  -0.1374 B(  1-N ,  2-P ) :  -0.1089
B(  1-N ,  3-C ) :   1.2599 B(  1-N ,  4-C ) :   0.1049 B(  1-N , 14-C ) :   0.1594
B(  1-N , 16-C ) :   0.4460 B(  2-P ,  3-C ) :   0.9098 B(  2-P ,  4-C ) :  -0.1240
B(  2-P , 18-H ) :   0.8965 B(  3-C ,  4-C ) :   0.8731 B(  3-C ,  5-H ) :  -0.1053
B(  3-C ,  6-C ) :  -0.2566 B(  4-C ,  5-H ) :   0.9883 B(  4-C ,  6-C ) :   1.2993
B(  4-C ,  7-H ) :  -0.1628 B(  4-C , 17-C ) :  -0.2950 B(  5-H ,  6-C ) :  -0.1290
B(  6-C ,  7-H ) :   1.0583 B(  6-C ,  8-C ) :  -0.1418 B(  6-C , 16-C ) :  -0.1891
B(  6-C , 17-C ) :   0.6755 B(  7-H , 17-C ) :  -0.1447 B(  8-C ,  9-H ) :   1.0935
B(  8-C , 10-C ) :   1.3977 B(  8-C , 11-H ) :  -0.1727 B(  8-C , 14-C ) :   0.1799
B(  8-C , 16-C ) :  -0.1472 B(  8-C , 17-C ) :   0.5274 B(  9-H , 17-C ) :  -0.1704
B( 10-C , 11-H ) :   1.1319 B( 10-C , 12-C ) :   1.1083 B( 10-C , 14-C ) :   0.1094
B( 10-C , 17-C ) :  -0.2825 B( 12-C , 13-H ) :   1.1336 B( 12-C , 14-C ) :   1.4091
B( 12-C , 16-C ) :  -0.3948 B( 13-H , 14-C ) :  -0.1662 B( 14-C , 15-H ) :   0.9322
B( 14-C , 16-C ) :   0.8022 B( 14-C , 17-C ) :  -0.1804 B( 16-C , 17-C ) :   1.2560

MP2 TOTAL ENERGY:     -841.910941576 Eh
FINAL SINGLE POINT ENERGY      -841.910941576360

DIPOLE MOMENT
-------------
                                X             Y             Z
Electronic contribution:    -14.20495      -1.55946       1.05111
Nuclear contribution   :     15.17994       2.12371      -1.27062
                        -----------------------------------------
Total Dipole Moment    :      0.97499       0.56424      -0.21951
                        -----------------------------------------
Magnitude (a.u.)       :      1.14768
Magnitude (Debye)      :      2.91716

Rotational constants in cm-1:     0.084132     0.015298     0.012986
Rotational constants in MHz :  2522.214622   458.615093   389.298581

                             ****ORCA TERMINATED NORMALLY****
TOTAL RUN TIME: 0 days 1 hours 3 minutes 34 seconds 992 msec
