                         Program Version 5.0.4 -  RELEASE  -
|  1> ! ri-mp2 aug-cc-pvdz aug-cc-pvdz/c tightscf
|  2> %pal nprocs 16 end
|  3> %maxcore 3800
|  4> %base "DZ_B-P_76_AB"
|  5> %scf
|  6> STABPerform true
|  7> STABRestartUHFifUnstable true
|  8> end
|  9>
| 10> *xyz 0 1
| 11> C        -2.893491   -0.655568    0.537101
| 12> C        -1.572384   -1.324134    0.173194
| 13> C        -3.154805    0.573676   -0.323842
| 14> H        -2.864650   -0.357755    1.590305
| 15> H        -3.712253   -1.371121    0.437801
| 16> C        -1.993575    1.556141   -0.243845
| 17> H        -4.084357    1.058809   -0.019653
| 18> H        -3.290968    0.261389   -1.364625
| 19> C        -0.670358    0.890521   -0.608785
| 20> H        -1.924993    1.952236    0.774394
| 21> H        -2.172330    2.411138   -0.899222
| 22> C        -0.400623   -0.343021    0.250656
| 23> H         0.147154    1.604411   -0.503831
| 24> H        -0.696190    0.588022   -1.661129
| 25> H        -1.639007   -1.720653   -0.846089
| 26> H        -1.386784   -2.178792    0.825789
| 27> B         2.496501    0.182568    0.128139
| 28> O         2.306747    1.073807    1.136214
| 29> O         3.651690    0.277417   -0.594052
| 30> H         3.746507   -0.366118   -1.299493
| 31> H         3.043605    1.687846    1.232830
| 32> P         1.195014   -1.218750   -0.114232
| 33> H        -0.293473   -0.019297    1.291635
| 34> H         1.163946   -1.177188   -1.530101
| 35> *
| 36>
| 37> $new_job
| 38> ! ri-mp2 aug-cc-pvtz aug-cc-pvtz/c tightscf
| 39> %pal nprocs 16 end
| 40> %maxcore 3800
| 41> %base "TZ_B-P_76_AB"
| 42>
| 43> *xyz 0 1
| 44> C        -2.893491   -0.655568    0.537101
| 45> C        -1.572384   -1.324134    0.173194
| 46> C        -3.154805    0.573676   -0.323842
| 47> H        -2.864650   -0.357755    1.590305
| 48> H        -3.712253   -1.371121    0.437801
| 49> C        -1.993575    1.556141   -0.243845
| 50> H        -4.084357    1.058809   -0.019653
| 51> H        -3.290968    0.261389   -1.364625
| 52> C        -0.670358    0.890521   -0.608785
| 53> H        -1.924993    1.952236    0.774394
| 54> H        -2.172330    2.411138   -0.899222
| 55> C        -0.400623   -0.343021    0.250656
| 56> H         0.147154    1.604411   -0.503831
| 57> H        -0.696190    0.588022   -1.661129
| 58> H        -1.639007   -1.720653   -0.846089
| 59> H        -1.386784   -2.178792    0.825789
| 60> B         2.496501    0.182568    0.128139
| 61> O         2.306747    1.073807    1.136214
| 62> O         3.651690    0.277417   -0.594052
| 63> H         3.746507   -0.366118   -1.299493
| 64> H         3.043605    1.687846    1.232830
| 65> P         1.195014   -1.218750   -0.114232
| 66> H        -0.293473   -0.019297    1.291635
| 67> H         1.163946   -1.177188   -1.530101
| 68> *
| 69>
| 70> $new_job
| 71> ! ri-mp2 aug-cc-pvqz aug-cc-pvqz/c tightscf
| 72> %pal nprocs 16 end
| 73> %maxcore 3800
| 74> %base "QZ_B-P_76_AB"
| 75>
| 76> *xyz 0 1
| 77> C        -2.893491   -0.655568    0.537101
| 78> C        -1.572384   -1.324134    0.173194
| 79> C        -3.154805    0.573676   -0.323842
| 80> H        -2.864650   -0.357755    1.590305
| 81> H        -3.712253   -1.371121    0.437801
| 82> C        -1.993575    1.556141   -0.243845
| 83> H        -4.084357    1.058809   -0.019653
| 84> H        -3.290968    0.261389   -1.364625
| 85> C        -0.670358    0.890521   -0.608785
| 86> H        -1.924993    1.952236    0.774394
| 87> H        -2.172330    2.411138   -0.899222
| 88> C        -0.400623   -0.343021    0.250656
| 89> H         0.147154    1.604411   -0.503831
| 90> H        -0.696190    0.588022   -1.661129
| 91> H        -1.639007   -1.720653   -0.846089
| 92> H        -1.386784   -2.178792    0.825789
| 93> B         2.496501    0.182568    0.128139
| 94> O         2.306747    1.073807    1.136214
| 95> O         3.651690    0.277417   -0.594052
| 96> H         3.746507   -0.366118   -1.299493
| 97> H         3.043605    1.687846    1.232830
| 98> P         1.195014   -1.218750   -0.114232
| 99> H        -0.293473   -0.019297    1.291635
|100> H         1.163946   -1.177188   -1.530101
|101> *
|102>
|103>
|104>
|105>
|106>                          ****END OF INPUT****
 Total Charge           Charge          ....    0
 Multiplicity           Mult            ....    1
 Number of Electrons    NEL             ....   86
MP2 TOTAL ENERGY:     -752.182599238 Eh
FINAL SINGLE POINT ENERGY      -752.182599237789
MP2 TOTAL ENERGY:     -752.598547504 Eh
FINAL SINGLE POINT ENERGY      -752.598547504024

CARTESIAN COORDINATES (ANGSTROEM)
---------------------------------
  C     -2.893491   -0.655568    0.537101
  C     -1.572384   -1.324134    0.173194
  C     -3.154805    0.573676   -0.323842
  H     -2.864650   -0.357755    1.590305
  H     -3.712253   -1.371121    0.437801
  C     -1.993575    1.556141   -0.243845
  H     -4.084357    1.058809   -0.019653
  H     -3.290968    0.261389   -1.364625
  C     -0.670358    0.890521   -0.608785
  H     -1.924993    1.952236    0.774394
  H     -2.172330    2.411138   -0.899222
  C     -0.400623   -0.343021    0.250656
  H      0.147154    1.604411   -0.503831
  H     -0.696190    0.588022   -1.661129
  H     -1.639007   -1.720653   -0.846089
  H     -1.386784   -2.178792    0.825789
  B      2.496501    0.182568    0.128139
  O      2.306747    1.073807    1.136214
  O      3.651690    0.277417   -0.594052
  H      3.746507   -0.366118   -1.299493
  H      3.043605    1.687846    1.232830
  P      1.195014   -1.218750   -0.114232
  H     -0.293473   -0.019297    1.291635
  H      1.163946   -1.177188   -1.530101

 Multiplicity           Mult            ....    1
 Number of Electrons    NEL             ....   86
 Basis Dimension        Dim             .... 1448

ORBITAL ENERGIES
----------------

  NO   OCC          E(Eh)            E(eV)
   0   2.0000     -79.911298     -2174.4970
   1   2.0000     -20.574900      -559.8715
   2   2.0000     -20.568149      -559.6878
   3   2.0000     -11.227654      -305.5200
   4   2.0000     -11.215604      -305.1921
   5   2.0000     -11.215084      -305.1779
   6   2.0000     -11.212429      -305.1057
   7   2.0000     -11.212058      -305.0956
   8   2.0000     -11.211429      -305.0785
   9   2.0000      -7.647539      -208.1001
  10   2.0000      -7.456977      -202.9147
  11   2.0000      -5.351328      -145.6170
  12   2.0000      -5.350878      -145.6048
  13   2.0000      -5.350219      -145.5869
  14   2.0000      -1.391374       -37.8612
  15   2.0000      -1.350344       -36.7447
  16   2.0000      -1.120549       -30.4917
  17   2.0000      -1.013497       -27.5786
  18   2.0000      -1.005103       -27.3502
  19   2.0000      -0.864960       -23.5367
  20   2.0000      -0.833025       -22.6678
  21   2.0000      -0.793751       -21.5991
  22   2.0000      -0.765606       -20.8332
  23   2.0000      -0.750734       -20.4285
  24   2.0000      -0.729629       -19.8542
  25   2.0000      -0.645815       -17.5735
  26   2.0000      -0.617603       -16.8058
  27   2.0000      -0.606183       -16.4951
  28   2.0000      -0.600483       -16.3400
  29   2.0000      -0.581294       -15.8178
  30   2.0000      -0.578061       -15.7298
  31   2.0000      -0.568445       -15.4682
  32   2.0000      -0.528967       -14.3939
  33   2.0000      -0.526047       -14.3145
  34   2.0000      -0.511225       -13.9111
  35   2.0000      -0.507573       -13.8118
  36   2.0000      -0.483309       -13.1515
  37   2.0000      -0.482040       -13.1170
  38   2.0000      -0.461600       -12.5608
  39   2.0000      -0.451727       -12.2921
  40   2.0000      -0.433185       -11.7876
  41   2.0000      -0.406755       -11.0684
  42   2.0000      -0.338710        -9.2168
  43   0.0000       0.021813         0.5936
  44   0.0000       0.026774         0.7286
  45   0.0000       0.029550         0.8041
  46   0.0000       0.031385         0.8540
  47   0.0000       0.039270         1.0686

MULLIKEN ATOMIC CHARGES
-----------------------
   0 C :   -0.517021
   1 C :   -0.410283
   2 C :   -0.434979
   3 H :    0.126617
   4 H :    0.232331
   5 C :   -0.464973
   6 H :    0.252961
   7 H :    0.124366
   8 C :   -0.403503
   9 H :    0.129249
  10 H :    0.236904
  11 C :    0.164938
  12 H :    0.335379
  13 H :    0.203464
  14 H :    0.179600
  15 H :    0.264169
  16 B :    1.364558
  17 O :   -1.018133
  18 O :   -1.223600
  19 H :    0.355394
  20 H :    0.328713
  21 P :    0.160047
  22 H :    0.150610
  23 H :   -0.136808
Sum of atomic charges:    0.0000000

LOEWDIN ATOMIC CHARGES
----------------------
   0 C :    0.536244
   1 C :    0.449336
   2 C :    0.532711
   3 H :   -0.261723
   4 H :   -0.257485
   5 C :    0.542988
   6 H :   -0.258655
   7 H :   -0.262711
   8 C :    0.465303
   9 H :   -0.259277
  10 H :   -0.256160
  11 C :   -0.065020
  12 H :   -0.290164
  13 H :   -0.274126
  14 H :   -0.273629
  15 H :   -0.279970
  16 B :   -1.434652
  17 O :    1.302975
  18 O :    1.313385
  19 H :   -0.815311
  20 H :   -0.790990
  21 P :    1.394018
  22 H :   -0.339177
  23 H :   -0.417913

  Mayer bond orders larger than 0.100000
B(  0-C ,  1-C ) :   0.8581 B(  0-C ,  2-C ) :   0.8976 B(  0-C ,  3-H ) :   1.0455
B(  0-C ,  4-H ) :   1.0010 B(  0-C , 11-C ) :  -0.1037 B(  1-C , 11-C ) :   0.5238
B(  1-C , 14-H ) :   1.0124 B(  1-C , 15-H ) :   0.9947 B(  2-C ,  5-C ) :   0.8740
B(  2-C ,  6-H ) :   0.9571 B(  2-C ,  7-H ) :   1.0410 B(  5-C ,  8-C ) :   0.8331
B(  5-C ,  9-H ) :   1.0426 B(  5-C , 10-H ) :   0.9861 B(  8-C , 11-C ) :   0.7437
B(  8-C , 12-H ) :   0.9314 B(  8-C , 13-H ) :   0.9635 B( 11-C , 16-B ) :  -0.1322
B( 11-C , 21-P ) :   0.6627 B( 11-C , 22-H ) :   1.0102 B( 16-B , 17-O ) :   0.3929
B( 16-B , 18-O ) :   0.4610 B( 16-B , 21-P ) :   1.0932 B( 17-O , 18-O ) :  -0.1094
B( 17-O , 20-H ) :   0.9674 B( 18-O , 19-H ) :   0.9195 B( 21-P , 23-H ) :   0.9482

MP2 TOTAL ENERGY:     -752.729491240 Eh
FINAL SINGLE POINT ENERGY      -752.729491240280

DIPOLE MOMENT
-------------
                                X             Y             Z
Electronic contribution:     17.17668      -3.11728       1.55717
Nuclear contribution   :    -17.18502       3.44093      -1.97632
                        -----------------------------------------
Total Dipole Moment    :     -0.00835       0.32365      -0.41915
                        -----------------------------------------
Magnitude (a.u.)       :      0.52963
Magnitude (Debye)      :      1.34621

Rotational constants in cm-1:     0.076686     0.019665     0.017453
Rotational constants in MHz :  2298.989584   589.527508   523.241471

                             ****ORCA TERMINATED NORMALLY****
TOTAL RUN TIME: 0 days 8 hours 18 minutes 45 seconds 963 msec
