                         Program Version 5.0.4 -  RELEASE  -
|  1> ! ri-mp2 aug-cc-pvdz aug-cc-pvdz/c tightscf
|  2> %pal nprocs 16 end
|  3> %maxcore 3800
|  4> %base "DZ_Si-S_50_AB"
|  5> %scf
|  6> STABPerform true
|  7> STABRestartUHFifUnstable true
|  8> end
|  9>
| 10> *xyz 0 1
| 11> Si        -1.570605   -0.352282   -0.413388
| 12> S         0.349329   -1.121440    0.224521
| 13> C         1.315755    0.348192   -0.092177
| 14> C         2.780620    0.195553    0.200702
| 15> C        -2.208338    0.993070    0.695517
| 16> H        -2.269624    0.647689    1.727436
| 17> H        -3.208131    1.293958    0.377047
| 18> H        -1.555407    1.862530    0.652648
| 19> O         0.822988    1.361727   -0.507262
| 20> H         3.205456   -0.574741   -0.443331
| 21> H         2.925375   -0.123618    1.232654
| 22> H         3.282507    1.143730    0.026418
| 23> H        -2.419886   -1.560268   -0.322436
| 24> H        -1.473214    0.071003   -1.821492
| 25> *
| 26>
| 27> $new_job
| 28> ! ri-mp2 aug-cc-pvtz aug-cc-pvtz/c tightscf
| 29> %pal nprocs 16 end
| 30> %maxcore 3800
| 31> %base "TZ_Si-S_50_AB"
| 32>
| 33> *xyz 0 1
| 34> Si        -1.570605   -0.352282   -0.413388
| 35> S         0.349329   -1.121440    0.224521
| 36> C         1.315755    0.348192   -0.092177
| 37> C         2.780620    0.195553    0.200702
| 38> C        -2.208338    0.993070    0.695517
| 39> H        -2.269624    0.647689    1.727436
| 40> H        -3.208131    1.293958    0.377047
| 41> H        -1.555407    1.862530    0.652648
| 42> O         0.822988    1.361727   -0.507262
| 43> H         3.205456   -0.574741   -0.443331
| 44> H         2.925375   -0.123618    1.232654
| 45> H         3.282507    1.143730    0.026418
| 46> H        -2.419886   -1.560268   -0.322436
| 47> H        -1.473214    0.071003   -1.821492
| 48> *
| 49>
| 50> $new_job
| 51> ! ri-mp2 aug-cc-pvqz aug-cc-pvqz/c tightscf
| 52> %pal nprocs 16 end
| 53> %maxcore 3800
| 54> %base "QZ_Si-S_50_AB"
| 55>
| 56> *xyz 0 1
| 57> Si        -1.570605   -0.352282   -0.413388
| 58> S         0.349329   -1.121440    0.224521
| 59> C         1.315755    0.348192   -0.092177
| 60> C         2.780620    0.195553    0.200702
| 61> C        -2.208338    0.993070    0.695517
| 62> H        -2.269624    0.647689    1.727436
| 63> H        -3.208131    1.293958    0.377047
| 64> H        -1.555407    1.862530    0.652648
| 65> O         0.822988    1.361727   -0.507262
| 66> H         3.205456   -0.574741   -0.443331
| 67> H         2.925375   -0.123618    1.232654
| 68> H         3.282507    1.143730    0.026418
| 69> H        -2.419886   -1.560268   -0.322436
| 70> H        -1.473214    0.071003   -1.821492
| 71> *
| 72>
| 73>
| 74>
| 75>
| 76>                          ****END OF INPUT****
 Total Charge           Charge          ....    0
 Multiplicity           Mult            ....    1
 Number of Electrons    NEL             ....   64
MP2 TOTAL ENERGY:     -880.532875921 Eh
FINAL SINGLE POINT ENERGY      -880.532875921449
MP2 TOTAL ENERGY:     -880.796740893 Eh
FINAL SINGLE POINT ENERGY      -880.796740893208

CARTESIAN COORDINATES (ANGSTROEM)
---------------------------------
  Si    -1.570605   -0.352282   -0.413388
  S      0.349329   -1.121440    0.224521
  C      1.315755    0.348192   -0.092177
  C      2.780620    0.195553    0.200702
  C     -2.208338    0.993070    0.695517
  H     -2.269624    0.647689    1.727436
  H     -3.208131    1.293958    0.377047
  H     -1.555407    1.862530    0.652648
  O      0.822988    1.361727   -0.507262
  H      3.205456   -0.574741   -0.443331
  H      2.925375   -0.123618    1.232654
  H      3.282507    1.143730    0.026418
  H     -2.419886   -1.560268   -0.322436
  H     -1.473214    0.071003   -1.821492

 Multiplicity           Mult            ....    1
 Number of Electrons    NEL             ....   64
 Basis Dimension        Dim             ....  856

ORBITAL ENERGIES
----------------

  NO   OCC          E(Eh)            E(eV)
   0   2.0000     -91.952481     -2502.1542
   1   2.0000     -68.788854     -1871.8399
   2   2.0000     -20.562146      -559.5245
   3   2.0000     -11.369340      -309.3755
   4   2.0000     -11.245434      -306.0038
   5   2.0000     -11.207030      -304.9588
   6   2.0000      -8.958010      -243.7599
   7   2.0000      -6.639429      -180.6680
   8   2.0000      -6.638445      -180.6413
   9   2.0000      -6.637960      -180.6281
  10   2.0000      -6.136190      -166.9742
  11   2.0000      -4.243094      -115.4605
  12   2.0000      -4.242271      -115.4381
  13   2.0000      -4.241701      -115.4226
  14   2.0000      -1.416058       -38.5329
  15   2.0000      -1.051747       -28.6195
  16   2.0000      -0.978921       -26.6378
  17   2.0000      -0.946541       -25.7567
  18   2.0000      -0.756901       -20.5963
  19   2.0000      -0.687185       -18.6992
  20   2.0000      -0.647855       -17.6290
  21   2.0000      -0.633007       -17.2250
  22   2.0000      -0.621455       -16.9106
  23   2.0000      -0.573205       -15.5977
  24   2.0000      -0.564404       -15.3582
  25   2.0000      -0.552674       -15.0390
  26   2.0000      -0.530468       -14.4348
  27   2.0000      -0.476054       -12.9541
  28   2.0000      -0.468980       -12.7616
  29   2.0000      -0.444199       -12.0873
  30   2.0000      -0.413843       -11.2612
  31   2.0000      -0.381293       -10.3755
  32   0.0000       0.023063         0.6276
  33   0.0000       0.030094         0.8189
  34   0.0000       0.035041         0.9535
  35   0.0000       0.036793         1.0012
  36   0.0000       0.047421         1.2904

MULLIKEN ATOMIC CHARGES
-----------------------
   0 Si:    1.176974
   1 S :   -0.209163
   2 C :    0.480567
   3 C :   -0.806954
   4 C :   -1.000610
   5 H :    0.257869
   6 H :    0.271140
   7 H :    0.282172
   8 O :   -0.755945
   9 H :    0.286329
  10 H :    0.270792
  11 H :    0.335842
  12 H :   -0.361623
  13 H :   -0.227390
Sum of atomic charges:   -0.0000000

LOEWDIN ATOMIC CHARGES
----------------------
   0 Si:    0.312244
   1 S :    1.157764
   2 C :   -1.188771
   3 C :    0.780166
   4 C :    0.876516
   5 H :   -0.361732
   6 H :   -0.357748
   7 H :   -0.381506
   8 O :    0.647238
   9 H :   -0.316358
  10 H :   -0.320214
  11 H :   -0.322940
  12 H :   -0.277171
  13 H :   -0.247488

  Mayer bond orders larger than 0.100000
B(  0-Si,  1-S ) :   0.6829 B(  0-Si,  4-C ) :   0.8690 B(  0-Si, 12-H ) :   0.7751
B(  0-Si, 13-H ) :   0.8209 B(  1-S ,  2-C ) :   0.8878 B(  2-C ,  3-C ) :   0.8196
B(  2-C ,  8-O ) :   1.4770 B(  3-C ,  9-H ) :   0.9458 B(  3-C , 10-H ) :   0.9410
B(  3-C , 11-H ) :   0.9428 B(  4-C ,  5-H ) :   0.9409 B(  4-C ,  6-H ) :   0.9449
B(  4-C ,  7-H ) :   0.9310

MP2 TOTAL ENERGY:     -880.881431482 Eh
FINAL SINGLE POINT ENERGY      -880.881431481565

DIPOLE MOMENT
-------------
                                X             Y             Z
Electronic contribution:      1.67954      -3.03637      -1.09400
Nuclear contribution   :     -1.41485       2.83667       1.43857
                        -----------------------------------------
Total Dipole Moment    :      0.26469      -0.19970       0.34457
                        -----------------------------------------
Magnitude (a.u.)       :      0.47820
Magnitude (Debye)      :      1.21548

Rotational constants in cm-1:     0.137591     0.049911     0.041192
Rotational constants in MHz :  4124.874198  1496.280173  1234.900663

                             ****ORCA TERMINATED NORMALLY****
TOTAL RUN TIME: 0 days 0 hours 57 minutes 5 seconds 755 msec
