                         Program Version 5.0.4 -  RELEASE  -
|  1> ! ri-mp2 aug-cc-pvdz aug-cc-pvdz/c tightscf
|  2> %pal nprocs 16 end
|  3> %maxcore 3800
|  4> %base "DZ_B-S_33_AB"
|  5> %scf
|  6> STABPerform true
|  7> STABRestartUHFifUnstable true
|  8> end
|  9>
| 10> *xyz 0 1
| 11> S         0.803634    1.610209   -0.000001
| 12> B        -0.010706    0.003852    0.000001
| 13> S         1.007234   -1.487035   -0.000001
| 14> S        -1.790813   -0.281171    0.000001
| 15> H         2.202106   -0.881295    0.000001
| 16> H        -0.282087    2.393388    0.000000
| 17> H        -2.187379    0.996611    0.000004
| 18> *
| 19>
| 20> $new_job
| 21> ! ri-mp2 aug-cc-pvtz aug-cc-pvtz/c tightscf
| 22> %pal nprocs 16 end
| 23> %maxcore 3800
| 24> %base "TZ_B-S_33_AB"
| 25>
| 26> *xyz 0 1
| 27> S         0.803634    1.610209   -0.000001
| 28> B        -0.010706    0.003852    0.000001
| 29> S         1.007234   -1.487035   -0.000001
| 30> S        -1.790813   -0.281171    0.000001
| 31> H         2.202106   -0.881295    0.000001
| 32> H        -0.282087    2.393388    0.000000
| 33> H        -2.187379    0.996611    0.000004
| 34> *
| 35>
| 36> $new_job
| 37> ! ri-mp2 aug-cc-pvqz aug-cc-pvqz/c tightscf
| 38> %pal nprocs 16 end
| 39> %maxcore 3800
| 40> %base "QZ_B-S_33_AB"
| 41>
| 42> *xyz 0 1
| 43> S         0.803634    1.610209   -0.000001
| 44> B        -0.010706    0.003852    0.000001
| 45> S         1.007234   -1.487035   -0.000001
| 46> S        -1.790813   -0.281171    0.000001
| 47> H         2.202106   -0.881295    0.000001
| 48> H        -0.282087    2.393388    0.000000
| 49> H        -2.187379    0.996611    0.000004
| 50> *
| 51>
| 52>
| 53>
| 54>
| 55>                          ****END OF INPUT****
 Total Charge           Charge          ....    0
 Multiplicity           Mult            ....    1
 Number of Electrons    NEL             ....   56
MP2 TOTAL ENERGY:    -1219.643587450 Eh
FINAL SINGLE POINT ENERGY     -1219.643587449900
MP2 TOTAL ENERGY:    -1219.819279142 Eh
FINAL SINGLE POINT ENERGY     -1219.819279141961

CARTESIAN COORDINATES (ANGSTROEM)
---------------------------------
  S      0.803634    1.610209   -0.000001
  B     -0.010706    0.003852    0.000001
  S      1.007234   -1.487035   -0.000001
  S     -1.790813   -0.281171    0.000001
  H      2.202106   -0.881295    0.000001
  H     -0.282087    2.393388    0.000000
  H     -2.187379    0.996611    0.000004

 Multiplicity           Mult            ....    1
 Number of Electrons    NEL             ....   56
 Basis Dimension        Dim             ....  470

ORBITAL ENERGIES
----------------

  NO   OCC          E(Eh)            E(eV)
   0   2.0000     -91.969640     -2502.6211
   1   2.0000     -91.967325     -2502.5581
   2   2.0000     -91.963811     -2502.4625
   3   2.0000      -8.974525      -244.2092
   4   2.0000      -8.972217      -244.1464
   5   2.0000      -8.968789      -244.0532
   6   2.0000      -7.686024      -209.1473
   7   2.0000      -6.656100      -181.1217
   8   2.0000      -6.655101      -181.0945
   9   2.0000      -6.654584      -181.0804
  10   2.0000      -6.653786      -181.0587
  11   2.0000      -6.652805      -181.0320
  12   2.0000      -6.652277      -181.0177
  13   2.0000      -6.650338      -180.9649
  14   2.0000      -6.649418      -180.9399
  15   2.0000      -6.648858      -180.9246
  16   2.0000      -1.042319       -28.3629
  17   2.0000      -0.974791       -26.5254
  18   2.0000      -0.973016       -26.4771
  19   2.0000      -0.671067       -18.2607
  20   2.0000      -0.609609       -16.5883
  21   2.0000      -0.542351       -14.7581
  22   2.0000      -0.536783       -14.6066
  23   2.0000      -0.469226       -12.7683
  24   2.0000      -0.465565       -12.6687
  25   2.0000      -0.444168       -12.0864
  26   2.0000      -0.383853       -10.4452
  27   2.0000      -0.377671       -10.2769
  28   0.0000       0.023533         0.6404
  29   0.0000       0.035132         0.9560
  30   0.0000       0.039763         1.0820
  31   0.0000       0.041477         1.1287
  32   0.0000       0.050586         1.3765

MULLIKEN ATOMIC CHARGES
-----------------------
   0 S :   -0.076820
   1 B :    0.021669
   2 S :   -0.018483
   3 S :   -0.033936
   4 H :    0.043125
   5 H :    0.029143
   6 H :    0.035301
Sum of atomic charges:    0.0000000

LOEWDIN ATOMIC CHARGES
----------------------
   0 S :    1.593473
   1 B :   -2.224368
   2 S :    1.532939
   3 S :    1.569064
   4 H :   -0.825232
   5 H :   -0.819088
   6 H :   -0.826786

  Mayer bond orders larger than 0.100000
B(  0-S ,  1-B ) :   1.1932 B(  0-S ,  5-H ) :   1.0512 B(  1-B ,  2-S ) :   1.1799
B(  1-B ,  3-S ) :   1.1906 B(  2-S ,  4-H ) :   1.0465 B(  3-S ,  6-H ) :   1.0479

MP2 TOTAL ENERGY:    -1219.877533024 Eh
FINAL SINGLE POINT ENERGY     -1219.877533023702

DIPOLE MOMENT
-------------
                                X             Y             Z
Electronic contribution:      0.16505      -1.73996      -0.00000
Nuclear contribution   :     -0.24794       2.39998       0.00000
                        -----------------------------------------
Total Dipole Moment    :     -0.08289       0.66003       0.00000
                        -----------------------------------------
Magnitude (a.u.)       :      0.66521
Magnitude (Debye)      :      1.69083

Rotational constants in cm-1:     0.105306     0.099273     0.051100
Rotational constants in MHz :  3156.986856  2976.136873  1531.947733

                             ****ORCA TERMINATED NORMALLY****
TOTAL RUN TIME: 0 days 0 hours 12 minutes 48 seconds 574 msec
