                         Program Version 5.0.4 -  RELEASE  -
|  1> ! ri-mp2 aug-cc-pvdz aug-cc-pvdz/c tightscf
|  2> %pal nprocs 16 end
|  3> %maxcore 3800
|  4> %base "DZ_B-P_23_AB"
|  5>
|  6> *xyz 0 1
|  7> P        -0.421104   -0.102353    1.080102
|  8> N        -0.849333   -1.500446   -0.027062
|  9> B        -1.102782    1.352862   -0.024982
| 10> O        -0.071392   -2.417266   -0.133845
| 11> O        -1.961097   -1.488565   -0.546046
| 12> O        -0.524111    2.553996    0.220406
| 13> O        -2.114549    1.212303   -0.895131
| 14> C         1.391246   -0.032792    0.827677
| 15> C         1.912766    0.163884   -0.589714
| 16> H         1.804195   -0.938970    1.273135
| 17> H         1.707645    0.795947    1.469479
| 18> C         3.433138    0.189801   -0.635469
| 19> H         1.518049    1.098699   -0.992069
| 20> H         1.544646   -0.641485   -1.226776
| 21> H         3.832159    0.999830   -0.022355
| 22> H         3.791992    0.334858   -1.654422
| 23> H         3.852292   -0.747026   -0.265051
| 24> H        -2.408006    0.286949   -0.966699
| 25> H        -0.920880    3.276196   -0.280474
| 26> *
| 27>
| 28> $new_job
| 29> ! ri-mp2 aug-cc-pvtz aug-cc-pvtz/c tightscf
| 30> %pal nprocs 16 end
| 31> %maxcore 3800
| 32> %base "TZ_B-P_23_AB"
| 33>
| 34> *xyz 0 1
| 35> P        -0.421104   -0.102353    1.080102
| 36> N        -0.849333   -1.500446   -0.027062
| 37> B        -1.102782    1.352862   -0.024982
| 38> O        -0.071392   -2.417266   -0.133845
| 39> O        -1.961097   -1.488565   -0.546046
| 40> O        -0.524111    2.553996    0.220406
| 41> O        -2.114549    1.212303   -0.895131
| 42> C         1.391246   -0.032792    0.827677
| 43> C         1.912766    0.163884   -0.589714
| 44> H         1.804195   -0.938970    1.273135
| 45> H         1.707645    0.795947    1.469479
| 46> C         3.433138    0.189801   -0.635469
| 47> H         1.518049    1.098699   -0.992069
| 48> H         1.544646   -0.641485   -1.226776
| 49> H         3.832159    0.999830   -0.022355
| 50> H         3.791992    0.334858   -1.654422
| 51> H         3.852292   -0.747026   -0.265051
| 52> H        -2.408006    0.286949   -0.966699
| 53> H        -0.920880    3.276196   -0.280474
| 54> *
| 55>
| 56> $new_job
| 57> ! ri-mp2 aug-cc-pvqz aug-cc-pvqz/c tightscf
| 58> %pal nprocs 16 end
| 59> %maxcore 3800
| 60> %base "QZ_B-P_23_AB"
| 61>
| 62> *xyz 0 1
| 63> P        -0.421104   -0.102353    1.080102
| 64> N        -0.849333   -1.500446   -0.027062
| 65> B        -1.102782    1.352862   -0.024982
| 66> O        -0.071392   -2.417266   -0.133845
| 67> O        -1.961097   -1.488565   -0.546046
| 68> O        -0.524111    2.553996    0.220406
| 69> O        -2.114549    1.212303   -0.895131
| 70> C         1.391246   -0.032792    0.827677
| 71> C         1.912766    0.163884   -0.589714
| 72> H         1.804195   -0.938970    1.273135
| 73> H         1.707645    0.795947    1.469479
| 74> C         3.433138    0.189801   -0.635469
| 75> H         1.518049    1.098699   -0.992069
| 76> H         1.544646   -0.641485   -1.226776
| 77> H         3.832159    0.999830   -0.022355
| 78> H         3.791992    0.334858   -1.654422
| 79> H         3.852292   -0.747026   -0.265051
| 80> H        -2.408006    0.286949   -0.966699
| 81> H        -0.920880    3.276196   -0.280474
| 82> *
| 83>
| 84>
| 85>
| 86>
| 87>                          ****END OF INPUT****
 Total Charge           Charge          ....    0
 Multiplicity           Mult            ....    1
 Number of Electrons    NEL             ....   86
MP2 TOTAL ENERGY:     -839.888776445 Eh
FINAL SINGLE POINT ENERGY      -839.888776444693
MP2 TOTAL ENERGY:     -840.363349620 Eh
FINAL SINGLE POINT ENERGY      -840.363349619748

CARTESIAN COORDINATES (ANGSTROEM)
---------------------------------
  P     -0.421104   -0.102353    1.080102
  N     -0.849333   -1.500446   -0.027062
  B     -1.102782    1.352862   -0.024982
  O     -0.071392   -2.417266   -0.133845
  O     -1.961097   -1.488565   -0.546046
  O     -0.524111    2.553996    0.220406
  O     -2.114549    1.212303   -0.895131
  C      1.391246   -0.032792    0.827677
  C      1.912766    0.163884   -0.589714
  H      1.804195   -0.938970    1.273135
  H      1.707645    0.795947    1.469479
  C      3.433138    0.189801   -0.635469
  H      1.518049    1.098699   -0.992069
  H      1.544646   -0.641485   -1.226776
  H      3.832159    0.999830   -0.022355
  H      3.791992    0.334858   -1.654422
  H      3.852292   -0.747026   -0.265051
  H     -2.408006    0.286949   -0.966699
  H     -0.920880    3.276196   -0.280474

 Multiplicity           Mult            ....    1
 Number of Electrons    NEL             ....   86
 Basis Dimension        Dim             .... 1218

ORBITAL ENERGIES
----------------

  NO   OCC          E(Eh)            E(eV)
   0   2.0000     -79.987812     -2176.5790
   1   2.0000     -20.612680      -560.8995
   2   2.0000     -20.603240      -560.6427
   3   2.0000     -20.592423      -560.3483
   4   2.0000     -20.580252      -560.0171
   5   2.0000     -15.838480      -430.9870
   6   2.0000     -11.256247      -306.2981
   7   2.0000     -11.238757      -305.8221
   8   2.0000     -11.223990      -305.4203
   9   2.0000      -7.673702      -208.8120
  10   2.0000      -7.530417      -204.9131
  11   2.0000      -5.424764      -147.6153
  12   2.0000      -5.423119      -147.5706
  13   2.0000      -5.422578      -147.5559
  14   2.0000      -1.612087       -43.8671
  15   2.0000      -1.411956       -38.4213
  16   2.0000      -1.404442       -38.2168
  17   2.0000      -1.368931       -37.2505
  18   2.0000      -1.092526       -29.7292
  19   2.0000      -1.012237       -27.5444
  20   2.0000      -0.946265       -25.7492
  21   2.0000      -0.843080       -22.9414
  22   2.0000      -0.819412       -22.2973
  23   2.0000      -0.800375       -21.7793
  24   2.0000      -0.756060       -20.5734
  25   2.0000      -0.733093       -19.9485
  26   2.0000      -0.721371       -19.6295
  27   2.0000      -0.696786       -18.9605
  28   2.0000      -0.652412       -17.7530
  29   2.0000      -0.634311       -17.2605
  30   2.0000      -0.600257       -16.3338
  31   2.0000      -0.593497       -16.1499
  32   2.0000      -0.591225       -16.0880
  33   2.0000      -0.563816       -15.3422
  34   2.0000      -0.553958       -15.0740
  35   2.0000      -0.523986       -14.2584
  36   2.0000      -0.509654       -13.8684
  37   2.0000      -0.504686       -13.7332
  38   2.0000      -0.495436       -13.4815
  39   2.0000      -0.471719       -12.8361
  40   2.0000      -0.467487       -12.7210
  41   2.0000      -0.462011       -12.5720
  42   2.0000      -0.384131       -10.4527
  43   0.0000       0.018873         0.5136
  44   0.0000       0.027744         0.7550
  45   0.0000       0.029842         0.8120
  46   0.0000       0.035825         0.9748
  47   0.0000       0.043380         1.1804

MULLIKEN ATOMIC CHARGES
-----------------------
   0 P :    0.589777
   1 N :    0.767029
   2 B :    1.468314
   3 O :   -0.647889
   4 O :   -0.680320
   5 O :   -1.035650
   6 O :   -1.228990
   7 C :   -0.602875
   8 C :   -0.369104
   9 H :    0.320171
  10 H :    0.279853
  11 C :   -0.849167
  12 H :    0.286822
  13 H :    0.269261
  14 H :    0.221641
  15 H :    0.279385
  16 H :    0.233657
  17 H :    0.366918
  18 H :    0.331167
Sum of atomic charges:   -0.0000000

LOEWDIN ATOMIC CHARGES
----------------------
   0 P :    0.979564
   1 N :   -0.977045
   2 B :   -1.423659
   3 O :    0.484972
   4 O :    0.538416
   5 O :    1.306305
   6 O :    1.331413
   7 C :    0.338711
   8 C :    0.445600
   9 H :   -0.351858
  10 H :   -0.342884
  11 C :    0.937126
  12 H :   -0.300758
  13 H :   -0.305659
  14 H :   -0.279808
  15 H :   -0.277491
  16 H :   -0.279763
  17 H :   -1.045770
  18 H :   -0.777412

  Mayer bond orders larger than 0.100000
B(  0-P ,  1-N ) :   0.6435 B(  0-P ,  2-B ) :   1.0124 B(  0-P ,  7-C ) :   0.8324
B(  1-N ,  3-O ) :   1.2401 B(  1-N ,  4-O ) :   1.0925 B(  2-B ,  5-O ) :   0.3132
B(  2-B ,  6-O ) :   0.4745 B(  3-O ,  4-O ) :   0.1116 B(  5-O ,  6-O ) :  -0.1141
B(  5-O , 18-H ) :   0.9485 B(  6-O , 17-H ) :   0.8649 B(  7-C ,  8-C ) :   0.8627
B(  7-C ,  9-H ) :   0.8793 B(  7-C , 10-H ) :   0.9009 B(  8-C , 11-C ) :   0.9222
B(  8-C , 12-H ) :   0.8872 B(  8-C , 13-H ) :   0.8668 B( 11-C , 14-H ) :   0.9696
B( 11-C , 15-H ) :   0.9856 B( 11-C , 16-H ) :   0.9758

MP2 TOTAL ENERGY:     -840.518196327 Eh
FINAL SINGLE POINT ENERGY      -840.518196326520

DIPOLE MOMENT
-------------
                                X             Y             Z
Electronic contribution:    -14.81304      -2.15815       3.84459
Nuclear contribution   :     15.60676       3.39043      -3.61958
                        -----------------------------------------
Total Dipole Moment    :      0.79372       1.23227       0.22501
                        -----------------------------------------
Magnitude (a.u.)       :      1.48294
Magnitude (Debye)      :      3.76934

Rotational constants in cm-1:     0.041418     0.032571     0.022170
Rotational constants in MHz :  1241.679324   976.452538   664.651773

                             ****ORCA TERMINATED NORMALLY****
TOTAL RUN TIME: 0 days 0 hours 45 minutes 29 seconds 105 msec
