                         Program Version 5.0.4 -  RELEASE  -
|  1> ! ri-mp2 aug-cc-pvdz aug-cc-pvdz/c tightscf
|  2> %pal nprocs 16 end
|  3> %maxcore 3800
|  4> %base "DZ_P-P_6_A"
|  5> %scf
|  6> STABPerform true
|  7> STABRestartUHFifUnstable true
|  8> end
|  9>
| 10> *xyz 0 2
| 11> N         1.266541    0.537792    0.051132
| 12> P         0.082537   -0.670271   -0.011632
| 13> H         1.079482    1.489451   -0.220525
| 14> H         2.232090    0.272577   -0.043805
| 15> C        -1.385921    0.429897    0.007607
| 16> H        -1.400841    1.096816   -0.857765
| 17> H        -1.413012    1.034354    0.916387
| 18> H        -2.286041   -0.183055   -0.023374
| 19> *
| 20>
| 21> $new_job
| 22> ! ri-mp2 aug-cc-pvtz aug-cc-pvtz/c tightscf
| 23> %pal nprocs 16 end
| 24> %maxcore 3800
| 25> %base "TZ_P-P_6_A"
| 26>
| 27> *xyz 0 2
| 28> N         1.266541    0.537792    0.051132
| 29> P         0.082537   -0.670271   -0.011632
| 30> H         1.079482    1.489451   -0.220525
| 31> H         2.232090    0.272577   -0.043805
| 32> C        -1.385921    0.429897    0.007607
| 33> H        -1.400841    1.096816   -0.857765
| 34> H        -1.413012    1.034354    0.916387
| 35> H        -2.286041   -0.183055   -0.023374
| 36> *
| 37>
| 38> $new_job
| 39> ! ri-mp2 aug-cc-pvqz aug-cc-pvqz/c tightscf
| 40> %pal nprocs 16 end
| 41> %maxcore 3800
| 42> %base "QZ_P-P_6_A"
| 43>
| 44> *xyz 0 2
| 45> N         1.266541    0.537792    0.051132
| 46> P         0.082537   -0.670271   -0.011632
| 47> H         1.079482    1.489451   -0.220525
| 48> H         2.232090    0.272577   -0.043805
| 49> C        -1.385921    0.429897    0.007607
| 50> H        -1.400841    1.096816   -0.857765
| 51> H        -1.413012    1.034354    0.916387
| 52> H        -2.286041   -0.183055   -0.023374
| 53> *
| 54>
| 55>
| 56>
| 57>
| 58>                          ****END OF INPUT****
 Total Charge           Charge          ....    0
 Multiplicity           Mult            ....    2
 Number of Electrons    NEL             ....   33
MP2 TOTAL ENERGY:     -436.412008917 Eh
FINAL SINGLE POINT ENERGY      -436.412008916628
MP2 TOTAL ENERGY:     -436.547464783 Eh
FINAL SINGLE POINT ENERGY      -436.547464783482

CARTESIAN COORDINATES (ANGSTROEM)
---------------------------------
  N      1.266541    0.537792    0.051132
  P      0.082537   -0.670271   -0.011632
  H      1.079482    1.489451   -0.220525
  H      2.232090    0.272577   -0.043805
  C     -1.385921    0.429897    0.007607
  H     -1.400841    1.096816   -0.857765
  H     -1.413012    1.034354    0.916387
  H     -2.286041   -0.183055   -0.023374

 Multiplicity           Mult            ....    2
 Number of Electrons    NEL             ....   33
 Basis Dimension        Dim             ....  474

ORBITAL ENERGIES
----------------
                 SPIN UP ORBITALS
  NO   OCC          E(Eh)            E(eV)
   0   1.0000     -79.946775     -2175.4623
   1   1.0000     -15.557187      -423.3326
   2   1.0000     -11.221825      -305.3614
   3   1.0000      -7.486427      -203.7160
   4   1.0000      -5.390421      -146.6808
   5   1.0000      -5.377794      -146.3372
   6   1.0000      -5.375809      -146.2832
   7   1.0000      -1.172877       -31.9156
   8   1.0000      -0.972198       -26.4548
   9   1.0000      -0.770788       -20.9742
  10   1.0000      -0.681077       -18.5331
  11   1.0000      -0.585410       -15.9298
  12   1.0000      -0.579842       -15.7783
  13   1.0000      -0.526991       -14.3402
  14   1.0000      -0.479596       -13.0505
  15   1.0000      -0.400204       -10.8901
  16   1.0000      -0.288338        -7.8461
  17   0.0000       0.024654         0.6709
  18   0.0000       0.033508         0.9118
  19   0.0000       0.040879         1.1124
  20   0.0000       0.042613         1.1596
  21   0.0000       0.058425         1.5898

                 SPIN DOWN ORBITALS
  NO   OCC          E(Eh)            E(eV)
   0   1.0000     -79.940437     -2175.2899
   1   1.0000     -15.551193      -423.1695
   2   1.0000     -11.222843      -305.3891
   3   1.0000      -7.478575      -203.5024
   4   1.0000      -5.374138      -146.2377
   5   1.0000      -5.373426      -146.2184
   6   1.0000      -5.359638      -145.8432
   7   1.0000      -1.155691       -31.4480
   8   1.0000      -0.964008       -26.2320
   9   1.0000      -0.733229       -19.9522
  10   1.0000      -0.677591       -18.4382
  11   1.0000      -0.574019       -15.6198
  12   1.0000      -0.565226       -15.3806
  13   1.0000      -0.515720       -14.0335
  14   1.0000      -0.422213       -11.4890
  15   1.0000      -0.375400       -10.2151
  16   0.0000       0.024751         0.6735
  17   0.0000       0.033715         0.9174
  18   0.0000       0.041120         1.1189
  19   0.0000       0.042576         1.1585
  20   0.0000       0.058472         1.5911

MULLIKEN ATOMIC CHARGES AND SPIN POPULATIONS
--------------------------------------------
   0 N :   -0.854603    0.104805
   1 P :    0.556357    0.967665
   2 H :    0.265740   -0.005848
   3 H :    0.228931   -0.014772
   4 C :   -0.981460   -0.095415
   5 H :    0.223125    0.020739
   6 H :    0.227192    0.028385
   7 H :    0.334717   -0.005558
Sum of atomic charges         :   -0.0000000

LOEWDIN ATOMIC CHARGES AND SPIN POPULATIONS
-------------------------------------------
   0 N :    0.902541    0.195975
   1 P :    0.892394    0.565823
   2 H :   -0.619511    0.017200
   3 H :   -0.636741    0.014428
   4 C :    0.631773    0.155309
   5 H :   -0.381310    0.019424
   6 H :   -0.381138    0.020152
   7 H :   -0.408008    0.011688

  Mayer bond orders larger than 0.100000
B(  0-N ,  1-P ) :   0.9045 B(  0-N ,  2-H ) :   0.9415 B(  0-N ,  3-H ) :   1.0032
B(  1-P ,  4-C ) :   0.9311 B(  4-C ,  5-H ) :   0.9418 B(  4-C ,  6-H ) :   0.9382
B(  4-C ,  7-H ) :   0.9037

MP2 TOTAL ENERGY:     -436.588973330 Eh
FINAL SINGLE POINT ENERGY      -436.588973329673

DIPOLE MOMENT
-------------
                                X             Y             Z
Electronic contribution:      1.94087      -3.64536       0.01488
Nuclear contribution   :     -1.85783       4.34775      -0.21751
                        -----------------------------------------
Total Dipole Moment    :      0.08304       0.70239      -0.20263
                        -----------------------------------------
Magnitude (a.u.)       :      0.73573
Magnitude (Debye)      :      1.87009

Rotational constants in cm-1:     0.643575     0.268302     0.196754
Rotational constants in MHz : 19293.893759  8043.496990  5898.535279

                             ****ORCA TERMINATED NORMALLY****
TOTAL RUN TIME: 0 days 0 hours 22 minutes 24 seconds 442 msec
