                         Program Version 5.0.4 -  RELEASE  -
|  1> ! ri-mp2 aug-cc-pvdz aug-cc-pvdz/c tightscf
|  2> %pal nprocs 16 end
|  3> %maxcore 3800
|  4> %base "DZ_B-Si_34_A"
|  5> %scf
|  6> STABPerform true
|  7> STABRestartUHFifUnstable true
|  8> end
|  9>
| 10> *xyz 0 2
| 11> C         0.079285   -0.017740   -0.505037
| 12> C        -0.846867    1.084334    0.093797
| 13> C        -0.932076   -1.070377    0.019379
| 14> C        -1.985033    0.047273    0.140524
| 15> H        -0.644791   -1.458526    0.997813
| 16> H        -1.155697   -1.912503   -0.633042
| 17> H        -2.611443    0.103385   -0.749593
| 18> H        -2.627061    0.043317    1.020112
| 19> H        -0.995465    1.981170   -0.504876
| 20> H        -0.532815    1.383483    1.094471
| 21> Si         1.861802   -0.095498    0.054356
| 22> H         0.035749    0.025062   -1.594948
| 23> H         1.929148   -0.163263    1.537705
| 24> H         2.645287    1.073910   -0.420607
| 25> *
| 26>
| 27> $new_job
| 28> ! ri-mp2 aug-cc-pvtz aug-cc-pvtz/c tightscf
| 29> %pal nprocs 16 end
| 30> %maxcore 3800
| 31> %base "TZ_B-Si_34_A"
| 32>
| 33> *xyz 0 2
| 34> C         0.079285   -0.017740   -0.505037
| 35> C        -0.846867    1.084334    0.093797
| 36> C        -0.932076   -1.070377    0.019379
| 37> C        -1.985033    0.047273    0.140524
| 38> H        -0.644791   -1.458526    0.997813
| 39> H        -1.155697   -1.912503   -0.633042
| 40> H        -2.611443    0.103385   -0.749593
| 41> H        -2.627061    0.043317    1.020112
| 42> H        -0.995465    1.981170   -0.504876
| 43> H        -0.532815    1.383483    1.094471
| 44> Si         1.861802   -0.095498    0.054356
| 45> H         0.035749    0.025062   -1.594948
| 46> H         1.929148   -0.163263    1.537705
| 47> H         2.645287    1.073910   -0.420607
| 48> *
| 49>
| 50> $new_job
| 51> ! ri-mp2 aug-cc-pvqz aug-cc-pvqz/c tightscf
| 52> %pal nprocs 16 end
| 53> %maxcore 3800
| 54> %base "QZ_B-Si_34_A"
| 55>
| 56> *xyz 0 2
| 57> C         0.079285   -0.017740   -0.505037
| 58> C        -0.846867    1.084334    0.093797
| 59> C        -0.932076   -1.070377    0.019379
| 60> C        -1.985033    0.047273    0.140524
| 61> H        -0.644791   -1.458526    0.997813
| 62> H        -1.155697   -1.912503   -0.633042
| 63> H        -2.611443    0.103385   -0.749593
| 64> H        -2.627061    0.043317    1.020112
| 65> H        -0.995465    1.981170   -0.504876
| 66> H        -0.532815    1.383483    1.094471
| 67> Si         1.861802   -0.095498    0.054356
| 68> H         0.035749    0.025062   -1.594948
| 69> H         1.929148   -0.163263    1.537705
| 70> H         2.645287    1.073910   -0.420607
| 71> *
| 72>
| 73>
| 74>
| 75>
| 76>                          ****END OF INPUT****
 Total Charge           Charge          ....    0
 Multiplicity           Mult            ....    2
 Number of Electrons    NEL             ....   47
MP2 TOTAL ENERGY:     -446.257968655 Eh
FINAL SINGLE POINT ENERGY      -446.257968654924
MP2 TOTAL ENERGY:     -446.438982295 Eh
FINAL SINGLE POINT ENERGY      -446.438982295095

CARTESIAN COORDINATES (ANGSTROEM)
---------------------------------
  C      0.079285   -0.017740   -0.505037
  C     -0.846867    1.084334    0.093797
  C     -0.932076   -1.070377    0.019379
  C     -1.985033    0.047273    0.140524
  H     -0.644791   -1.458526    0.997813
  H     -1.155697   -1.912503   -0.633042
  H     -2.611443    0.103385   -0.749593
  H     -2.627061    0.043317    1.020112
  H     -0.995465    1.981170   -0.504876
  H     -0.532815    1.383483    1.094471
  Si     1.861802   -0.095498    0.054356
  H      0.035749    0.025062   -1.594948
  H      1.929148   -0.163263    1.537705
  H      2.645287    1.073910   -0.420607

 Multiplicity           Mult            ....    2
 Number of Electrons    NEL             ....   47
 Basis Dimension        Dim             ....  818

ORBITAL ENERGIES
----------------
                 SPIN UP ORBITALS
  NO   OCC          E(Eh)            E(eV)
   0   1.0000     -68.766654     -1871.2358
   1   1.0000     -11.225642      -305.4652
   2   1.0000     -11.224220      -305.4266
   3   1.0000     -11.220192      -305.3169
   4   1.0000     -11.217110      -305.2331
   5   1.0000      -6.117504      -166.4658
   6   1.0000      -4.230228      -115.1104
   7   1.0000      -4.220463      -114.8446
   8   1.0000      -4.220039      -114.8331
   9   1.0000      -1.131422       -30.7876
  10   1.0000      -0.902824       -24.5671
  11   1.0000      -0.900590       -24.5063
  12   1.0000      -0.758710       -20.6456
  13   1.0000      -0.704931       -19.1821
  14   1.0000      -0.654245       -17.8029
  15   1.0000      -0.605844       -16.4859
  16   1.0000      -0.545618       -14.8470
  17   1.0000      -0.524624       -14.2757
  18   1.0000      -0.504741       -13.7347
  19   1.0000      -0.474956       -12.9242
  20   1.0000      -0.452813       -12.3217
  21   1.0000      -0.444222       -12.0879
  22   1.0000      -0.411792       -11.2054
  23   1.0000      -0.314631        -8.5616
  24   0.0000       0.024659         0.6710
  25   0.0000       0.031591         0.8596
  26   0.0000       0.032777         0.8919
  27   0.0000       0.033964         0.9242
  28   0.0000       0.046623         1.2687

                 SPIN DOWN ORBITALS
  NO   OCC          E(Eh)            E(eV)
   0   1.0000     -68.761074     -1871.0839
   1   1.0000     -11.224323      -305.4294
   2   1.0000     -11.224193      -305.4258
   3   1.0000     -11.220156      -305.3160
   4   1.0000     -11.216728      -305.2227
   5   1.0000      -6.108986      -166.2340
   6   1.0000      -4.216738      -114.7433
   7   1.0000      -4.216334      -114.7323
   8   1.0000      -4.208058      -114.5071
   9   1.0000      -1.129369       -30.7317
  10   1.0000      -0.900932       -24.5156
  11   1.0000      -0.896473       -24.3943
  12   1.0000      -0.754527       -20.5317
  13   1.0000      -0.677986       -18.4489
  14   1.0000      -0.652543       -17.7566
  15   1.0000      -0.595959       -16.2169
  16   1.0000      -0.544908       -14.8277
  17   1.0000      -0.521101       -14.1799
  18   1.0000      -0.497377       -13.5343
  19   1.0000      -0.468504       -12.7486
  20   1.0000      -0.450823       -12.2675
  21   1.0000      -0.441147       -12.0042
  22   1.0000      -0.402641       -10.9564
  23   0.0000       0.023742         0.6461
  24   0.0000       0.028438         0.7738
  25   0.0000       0.031853         0.8668
  26   0.0000       0.033210         0.9037
  27   0.0000       0.045934         1.2499

MULLIKEN ATOMIC CHARGES AND SPIN POPULATIONS
--------------------------------------------
   0 C :   -0.343447   -0.037180
   1 C :   -0.608458    0.038506
   2 C :   -0.611980    0.015793
   3 C :   -0.578906    0.002020
   4 H :    0.254460    0.001591
   5 H :    0.359696   -0.002326
   6 H :    0.241723   -0.000214
   7 H :    0.315450    0.000513
   8 H :    0.362445   -0.001285
   9 H :    0.264161   -0.006705
  10 Si:    0.498720    0.985831
  11 H :    0.329245    0.001491
  12 H :   -0.220290    0.001397
  13 H :   -0.262820    0.000569
Sum of atomic charges         :   -0.0000000

LOEWDIN ATOMIC CHARGES AND SPIN POPULATIONS
-------------------------------------------
   0 C :    0.021496    0.137244
   1 C :    0.471657    0.023974
   2 C :    0.462300    0.017762
   3 C :    0.538371    0.004963
   4 H :   -0.288399    0.002501
   5 H :   -0.254994    0.001267
   6 H :   -0.269674    0.000719
   7 H :   -0.254314    0.000904
   8 H :   -0.253988    0.003726
   9 H :   -0.286306    0.008488
  10 Si:    1.116062    0.534216
  11 H :   -0.351979    0.012484
  12 H :   -0.316807    0.125019
  13 H :   -0.333426    0.126732

  Mayer bond orders larger than 0.100000
B(  0-C ,  1-C ) :   0.9567 B(  0-C ,  2-C ) :   0.9441 B(  0-C , 10-Si) :   0.7212
B(  0-C , 11-H ) :   0.8668 B(  1-C ,  3-C ) :   1.0462 B(  1-C ,  8-H ) :   0.8112
B(  1-C ,  9-H ) :   0.9138 B(  2-C ,  3-C ) :   1.0610 B(  2-C ,  4-H ) :   0.9203
B(  2-C ,  5-H ) :   0.8164 B(  2-C , 10-Si) :   0.1067 B(  3-C ,  6-H ) :   0.9088
B(  3-C ,  7-H ) :   0.8669 B( 10-Si, 12-H ) :   0.8363 B( 10-Si, 13-H ) :   0.8252

MP2 TOTAL ENERGY:     -446.494641102 Eh
FINAL SINGLE POINT ENERGY      -446.494641102095

DIPOLE MOMENT
-------------
                                X             Y             Z
Electronic contribution:      3.80423      -1.08340      -0.88713
Nuclear contribution   :     -4.21664       1.12078       0.77051
                        -----------------------------------------
Total Dipole Moment    :     -0.41241       0.03738      -0.11662
                        -----------------------------------------
Magnitude (a.u.)       :      0.43021
Magnitude (Debye)      :      1.09351

Rotational constants in cm-1:     0.311438     0.082459     0.072540
Rotational constants in MHz :  9336.680494  2472.051785  2174.679834

                             ****ORCA TERMINATED NORMALLY****
TOTAL RUN TIME: 0 days 2 hours 30 minutes 43 seconds 734 msec
