                         Program Version 5.0.4 -  RELEASE  -
|  1> ! ri-mp2 aug-cc-pvdz aug-cc-pvdz/c tightscf
|  2> %pal nprocs 16 end
|  3> %maxcore 3800
|  4> %base "DZ_B-Si_38_AB"
|  5>
|  6> *xyz 0 1
|  7> B         1.681969    0.563676    0.171993
|  8> C        -0.622243    0.275818    0.705584
|  9> C        -1.413572    1.239272    0.087851
| 10> C        -1.024256   -1.054776    0.630866
| 11> C        -2.188190   -1.409509   -0.027714
| 12> C        -2.970491   -0.439597   -0.631299
| 13> C        -2.579183    0.887200   -0.569292
| 14> H        -3.881348   -0.715770   -1.145212
| 15> H        -3.184987    1.653636   -1.034559
| 16> H        -1.117261    2.279491    0.133925
| 17> H        -0.421174   -1.818837    1.104665
| 18> H        -2.485712   -2.449059   -0.067641
| 19> Si         2.482186   -1.208935   -0.387996
| 20> C         2.060505    1.846421   -0.632279
| 21> H         1.337649    2.659068   -0.546709
| 22> H         2.299223    1.684862   -1.683696
| 23> H         2.988635    2.207167   -0.164793
| 24> C         0.679328    0.655324    1.379531
| 25> H         0.603554    1.660746    1.796168
| 26> H         0.890394   -0.046129    2.185997
| 27> H         3.962912   -1.088425   -0.437106
| 28> H         2.035357   -1.586261   -1.751817
| 29> H         2.160915   -2.334700    0.523267
| 30> *
| 31>
| 32> $new_job
| 33> ! ri-mp2 aug-cc-pvtz aug-cc-pvtz/c tightscf
| 34> %pal nprocs 16 end
| 35> %maxcore 3800
| 36> %base "TZ_B-Si_38_AB"
| 37>
| 38> *xyz 0 1
| 39> B         1.681969    0.563676    0.171993
| 40> C        -0.622243    0.275818    0.705584
| 41> C        -1.413572    1.239272    0.087851
| 42> C        -1.024256   -1.054776    0.630866
| 43> C        -2.188190   -1.409509   -0.027714
| 44> C        -2.970491   -0.439597   -0.631299
| 45> C        -2.579183    0.887200   -0.569292
| 46> H        -3.881348   -0.715770   -1.145212
| 47> H        -3.184987    1.653636   -1.034559
| 48> H        -1.117261    2.279491    0.133925
| 49> H        -0.421174   -1.818837    1.104665
| 50> H        -2.485712   -2.449059   -0.067641
| 51> Si         2.482186   -1.208935   -0.387996
| 52> C         2.060505    1.846421   -0.632279
| 53> H         1.337649    2.659068   -0.546709
| 54> H         2.299223    1.684862   -1.683696
| 55> H         2.988635    2.207167   -0.164793
| 56> C         0.679328    0.655324    1.379531
| 57> H         0.603554    1.660746    1.796168
| 58> H         0.890394   -0.046129    2.185997
| 59> H         3.962912   -1.088425   -0.437106
| 60> H         2.035357   -1.586261   -1.751817
| 61> H         2.160915   -2.334700    0.523267
| 62> *
| 63>
| 64> $new_job
| 65> ! ri-mp2 aug-cc-pvqz aug-cc-pvqz/c tightscf
| 66> %pal nprocs 16 end
| 67> %maxcore 3800
| 68> %base "QZ_B-Si_38_AB"
| 69>
| 70> *xyz 0 1
| 71> B         1.681969    0.563676    0.171993
| 72> C        -0.622243    0.275818    0.705584
| 73> C        -1.413572    1.239272    0.087851
| 74> C        -1.024256   -1.054776    0.630866
| 75> C        -2.188190   -1.409509   -0.027714
| 76> C        -2.970491   -0.439597   -0.631299
| 77> C        -2.579183    0.887200   -0.569292
| 78> H        -3.881348   -0.715770   -1.145212
| 79> H        -3.184987    1.653636   -1.034559
| 80> H        -1.117261    2.279491    0.133925
| 81> H        -0.421174   -1.818837    1.104665
| 82> H        -2.485712   -2.449059   -0.067641
| 83> Si         2.482186   -1.208935   -0.387996
| 84> C         2.060505    1.846421   -0.632279
| 85> H         1.337649    2.659068   -0.546709
| 86> H         2.299223    1.684862   -1.683696
| 87> H         2.988635    2.207167   -0.164793
| 88> C         0.679328    0.655324    1.379531
| 89> H         0.603554    1.660746    1.796168
| 90> H         0.890394   -0.046129    2.185997
| 91> H         3.962912   -1.088425   -0.437106
| 92> H         2.035357   -1.586261   -1.751817
| 93> H         2.160915   -2.334700    0.523267
| 94> *
| 95>
| 96>
| 97>
| 98>
| 99>                          ****END OF INPUT****
 Total Charge           Charge          ....    0
 Multiplicity           Mult            ....    1
 Number of Electrons    NEL             ....   80
MP2 TOTAL ENERGY:     -625.460442052 Eh
FINAL SINGLE POINT ENERGY      -625.460442052179
MP2 TOTAL ENERGY:     -625.797586698 Eh
FINAL SINGLE POINT ENERGY      -625.797586698126

CARTESIAN COORDINATES (ANGSTROEM)
---------------------------------
  B      1.681969    0.563676    0.171993
  C     -0.622243    0.275818    0.705584
  C     -1.413572    1.239272    0.087851
  C     -1.024256   -1.054776    0.630866
  C     -2.188190   -1.409509   -0.027714
  C     -2.970491   -0.439597   -0.631299
  C     -2.579183    0.887200   -0.569292
  H     -3.881348   -0.715770   -1.145212
  H     -3.184987    1.653636   -1.034559
  H     -1.117261    2.279491    0.133925
  H     -0.421174   -1.818837    1.104665
  H     -2.485712   -2.449059   -0.067641
  Si     2.482186   -1.208935   -0.387996
  C      2.060505    1.846421   -0.632279
  H      1.337649    2.659068   -0.546709
  H      2.299223    1.684862   -1.683696
  H      2.988635    2.207167   -0.164793
  C      0.679328    0.655324    1.379531
  H      0.603554    1.660746    1.796168
  H      0.890394   -0.046129    2.185997
  H      3.962912   -1.088425   -0.437106
  H      2.035357   -1.586261   -1.751817
  H      2.160915   -2.334700    0.523267

 Multiplicity           Mult            ....    1
 Number of Electrons    NEL             ....   80
 Basis Dimension        Dim             .... 1402

ORBITAL ENERGIES
----------------

  NO   OCC          E(Eh)            E(eV)
   0   2.0000     -68.743366     -1870.6021
   1   2.0000     -11.248739      -306.0938
   2   2.0000     -11.235145      -305.7238
   3   2.0000     -11.234694      -305.7116
   4   2.0000     -11.231879      -305.6350
   5   2.0000     -11.231203      -305.6166
   6   2.0000     -11.230952      -305.6098
   7   2.0000     -11.207715      -304.9774
   8   2.0000     -11.197653      -304.7036
   9   2.0000      -7.595073      -206.6724
  10   2.0000      -6.095326      -165.8623
  11   2.0000      -4.201548      -114.3299
  12   2.0000      -4.201462      -114.3276
  13   2.0000      -4.200971      -114.3142
  14   2.0000      -1.164100       -31.6768
  15   2.0000      -1.055150       -28.7121
  16   2.0000      -1.020354       -27.7652
  17   2.0000      -0.962193       -26.1826
  18   2.0000      -0.926589       -25.2138
  19   2.0000      -0.832888       -22.6640
  20   2.0000      -0.802392       -21.8342
  21   2.0000      -0.721025       -19.6201
  22   2.0000      -0.699650       -19.0385
  23   2.0000      -0.643911       -17.5217
  24   2.0000      -0.635469       -17.2920
  25   2.0000      -0.617772       -16.8104
  26   2.0000      -0.591037       -16.0829
  27   2.0000      -0.575817       -15.6688
  28   2.0000      -0.567206       -15.4345
  29   2.0000      -0.550275       -14.9737
  30   2.0000      -0.544274       -14.8104
  31   2.0000      -0.512367       -13.9422
  32   2.0000      -0.494057       -13.4440
  33   2.0000      -0.493285       -13.4230
  34   2.0000      -0.471456       -12.8290
  35   2.0000      -0.467316       -12.7163
  36   2.0000      -0.451058       -12.2739
  37   2.0000      -0.387989       -10.5577
  38   2.0000      -0.342055        -9.3078
  39   2.0000      -0.326999        -8.8981
  40   0.0000       0.021182         0.5764
  41   0.0000       0.026764         0.7283
  42   0.0000       0.028354         0.7716
  43   0.0000       0.034062         0.9269
  44   0.0000       0.038576         1.0497

MULLIKEN ATOMIC CHARGES
-----------------------
   0 B :    0.526820
   1 C :    0.611146
   2 C :   -0.490171
   3 C :   -0.519352
   4 C :   -0.359394
   5 C :   -0.360463
   6 C :   -0.354634
   7 H :    0.350420
   8 H :    0.237881
   9 H :    0.256518
  10 H :    0.292092
  11 H :    0.233655
  12 Si:    0.491234
  13 C :   -1.199291
  14 H :    0.302515
  15 H :    0.357570
  16 H :    0.315232
  17 C :   -0.580516
  18 H :    0.259416
  19 H :    0.306498
  20 H :   -0.308995
  21 H :   -0.173227
  22 H :   -0.194957
Sum of atomic charges:    0.0000000

LOEWDIN ATOMIC CHARGES
----------------------
   0 B :   -0.570882
   1 C :   -0.114106
   2 C :    0.352773
   3 C :    0.332190
   4 C :    0.354470
   5 C :    0.341966
   6 C :    0.353996
   7 H :   -0.321699
   8 H :   -0.316733
   9 H :   -0.312291
  10 H :   -0.324769
  11 H :   -0.315328
  12 Si:    1.216395
  13 C :    1.014720
  14 H :   -0.305412
  15 H :   -0.302314
  16 H :   -0.293722
  17 C :    0.601497
  18 H :   -0.293782
  19 H :   -0.302910
  20 H :   -0.270065
  21 H :   -0.260075
  22 H :   -0.263920

  Mayer bond orders larger than 0.100000
B(  0-B , 12-Si) :   0.4389 B(  0-B , 13-C ) :   0.9666 B(  0-B , 17-C ) :   0.9925
B(  1-C ,  2-C ) :   0.9522 B(  1-C ,  3-C ) :   0.8612 B(  1-C ,  4-C ) :  -0.3557
B(  1-C ,  6-C ) :  -0.3436 B(  1-C , 10-H ) :  -0.1040 B(  1-C , 17-C ) :   0.7538
B(  2-C ,  4-C ) :   0.1376 B(  2-C ,  6-C ) :   1.3162 B(  2-C ,  8-H ) :  -0.1492
B(  2-C ,  9-H ) :   0.9845 B(  2-C , 17-C ) :  -0.1314 B(  3-C ,  4-C ) :   1.3279
B(  3-C ,  6-C ) :   0.1345 B(  3-C , 10-H ) :   0.9612 B(  3-C , 11-H ) :  -0.1523
B(  4-C ,  5-C ) :   1.1604 B(  4-C , 11-H ) :   1.1590 B(  5-C ,  6-C ) :   1.1589
B(  5-C ,  7-H ) :   0.9876 B(  6-C ,  8-H ) :   1.1517 B( 12-Si, 20-H ) :   0.5901
B( 12-Si, 21-H ) :   0.6877 B( 12-Si, 22-H ) :   0.6431 B( 13-C , 14-H ) :   0.8979
B( 13-C , 15-H ) :   0.8710 B( 13-C , 16-H ) :   0.8925 B( 17-C , 18-H ) :   0.9457
B( 17-C , 19-H ) :   0.9718

MP2 TOTAL ENERGY:     -625.903006007 Eh
FINAL SINGLE POINT ENERGY      -625.903006007103

DIPOLE MOMENT
-------------
                                X             Y             Z
Electronic contribution:     -3.96901      -1.34295       1.37455
Nuclear contribution   :      3.73579       1.75010      -1.22007
                        -----------------------------------------
Total Dipole Moment    :     -0.23322       0.40715       0.15448
                        -----------------------------------------
Magnitude (a.u.)       :      0.49399
Magnitude (Debye)      :      1.25563

Rotational constants in cm-1:     0.061546     0.024431     0.020469
Rotational constants in MHz :  1845.091704   732.420018   613.639300

                             ****ORCA TERMINATED NORMALLY****
TOTAL RUN TIME: 0 days 1 hours 17 minutes 45 seconds 578 msec
