                         Program Version 5.0.4 -  RELEASE  -
|  1> ! ri-mp2 aug-cc-pvdz aug-cc-pvdz/c tightscf
|  2> %pal nprocs 16 end
|  3> %maxcore 3800
|  4> %base "DZ_B-P_77_AB"
|  5> %scf
|  6> STABPerform true
|  7> STABRestartUHFifUnstable true
|  8> end
|  9>
| 10> *xyz 0 1
| 11> B         1.570000    0.137623   -0.003756
| 12> O         1.429566    1.493355    0.044267
| 13> O         2.816885   -0.391996    0.055022
| 14> C        -1.256169   -0.022937    0.512792
| 15> C        -2.686735   -0.267269    0.134911
| 16> C        -1.994091    0.948620   -0.380185
| 17> H        -3.435861   -0.139187    0.903152
| 18> H        -2.890592   -1.064813   -0.565716
| 19> H        -1.733252    0.970086   -1.430186
| 20> H        -2.271959    1.908355    0.033463
| 21> H         3.504990    0.278998    0.128232
| 22> H         0.514644    1.788556    0.018301
| 23> P         0.057844   -1.038879   -0.253989
| 24> H        -1.094861    0.311545    1.529843
| 25> H         0.339588   -1.919825    0.812108
| 26> *
| 27>
| 28> $new_job
| 29> ! ri-mp2 aug-cc-pvtz aug-cc-pvtz/c tightscf
| 30> %pal nprocs 16 end
| 31> %maxcore 3800
| 32> %base "TZ_B-P_77_AB"
| 33>
| 34> *xyz 0 1
| 35> B         1.570000    0.137623   -0.003756
| 36> O         1.429566    1.493355    0.044267
| 37> O         2.816885   -0.391996    0.055022
| 38> C        -1.256169   -0.022937    0.512792
| 39> C        -2.686735   -0.267269    0.134911
| 40> C        -1.994091    0.948620   -0.380185
| 41> H        -3.435861   -0.139187    0.903152
| 42> H        -2.890592   -1.064813   -0.565716
| 43> H        -1.733252    0.970086   -1.430186
| 44> H        -2.271959    1.908355    0.033463
| 45> H         3.504990    0.278998    0.128232
| 46> H         0.514644    1.788556    0.018301
| 47> P         0.057844   -1.038879   -0.253989
| 48> H        -1.094861    0.311545    1.529843
| 49> H         0.339588   -1.919825    0.812108
| 50> *
| 51>
| 52> $new_job
| 53> ! ri-mp2 aug-cc-pvqz aug-cc-pvqz/c tightscf
| 54> %pal nprocs 16 end
| 55> %maxcore 3800
| 56> %base "QZ_B-P_77_AB"
| 57>
| 58> *xyz 0 1
| 59> B         1.570000    0.137623   -0.003756
| 60> O         1.429566    1.493355    0.044267
| 61> O         2.816885   -0.391996    0.055022
| 62> C        -1.256169   -0.022937    0.512792
| 63> C        -2.686735   -0.267269    0.134911
| 64> C        -1.994091    0.948620   -0.380185
| 65> H        -3.435861   -0.139187    0.903152
| 66> H        -2.890592   -1.064813   -0.565716
| 67> H        -1.733252    0.970086   -1.430186
| 68> H        -2.271959    1.908355    0.033463
| 69> H         3.504990    0.278998    0.128232
| 70> H         0.514644    1.788556    0.018301
| 71> P         0.057844   -1.038879   -0.253989
| 72> H        -1.094861    0.311545    1.529843
| 73> H         0.339588   -1.919825    0.812108
| 74> *
| 75>
| 76>
| 77>
| 78>
| 79>                          ****END OF INPUT****
 Total Charge           Charge          ....    0
 Multiplicity           Mult            ....    1
 Number of Electrons    NEL             ....   62
MP2 TOTAL ENERGY:     -634.571852117 Eh
FINAL SINGLE POINT ENERGY      -634.571852117452
MP2 TOTAL ENERGY:     -634.878730069 Eh
FINAL SINGLE POINT ENERGY      -634.878730069415

CARTESIAN COORDINATES (ANGSTROEM)
---------------------------------
  B      1.570000    0.137623   -0.003756
  O      1.429566    1.493355    0.044267
  O      2.816885   -0.391996    0.055022
  C     -1.256169   -0.022937    0.512792
  C     -2.686735   -0.267269    0.134911
  C     -1.994091    0.948620   -0.380185
  H     -3.435861   -0.139187    0.903152
  H     -2.890592   -1.064813   -0.565716
  H     -1.733252    0.970086   -1.430186
  H     -2.271959    1.908355    0.033463
  H      3.504990    0.278998    0.128232
  H      0.514644    1.788556    0.018301
  P      0.057844   -1.038879   -0.253989
  H     -1.094861    0.311545    1.529843
  H      0.339588   -1.919825    0.812108

 Multiplicity           Mult            ....    1
 Number of Electrons    NEL             ....   62
 Basis Dimension        Dim             ....  932

ORBITAL ENERGIES
----------------

  NO   OCC          E(Eh)            E(eV)
   0   2.0000     -79.918663     -2174.6974
   1   2.0000     -20.572999      -559.8198
   2   2.0000     -20.566754      -559.6498
   3   2.0000     -11.244223      -305.9709
   4   2.0000     -11.241134      -305.8868
   5   2.0000     -11.236505      -305.7608
   6   2.0000      -7.646600      -208.0746
   7   2.0000      -7.463780      -203.0998
   8   2.0000      -5.358065      -145.8004
   9   2.0000      -5.357652      -145.7891
  10   2.0000      -5.357184      -145.7764
  11   2.0000      -1.389674       -37.8150
  12   2.0000      -1.349650       -36.7258
  13   2.0000      -1.156507       -31.4702
  14   2.0000      -0.890929       -24.2434
  15   2.0000      -0.837282       -22.7836
  16   2.0000      -0.787161       -21.4197
  17   2.0000      -0.757028       -20.5998
  18   2.0000      -0.727314       -19.7912
  19   2.0000      -0.677437       -18.4340
  20   2.0000      -0.619657       -16.8617
  21   2.0000      -0.617205       -16.7950
  22   2.0000      -0.579420       -15.7668
  23   2.0000      -0.567335       -15.4380
  24   2.0000      -0.529464       -14.4074
  25   2.0000      -0.508787       -13.8448
  26   2.0000      -0.506727       -13.7888
  27   2.0000      -0.478675       -13.0254
  28   2.0000      -0.427338       -11.6285
  29   2.0000      -0.419188       -11.4067
  30   2.0000      -0.347490        -9.4557
  31   0.0000       0.021144         0.5754
  32   0.0000       0.029253         0.7960
  33   0.0000       0.031942         0.8692
  34   0.0000       0.034366         0.9351
  35   0.0000       0.045518         1.2386

MULLIKEN ATOMIC CHARGES
-----------------------
   0 B :    1.290217
   1 O :   -1.127568
   2 O :   -1.009297
   3 C :   -0.402650
   4 C :   -0.769649
   5 C :   -0.562051
   6 H :    0.347570
   7 H :    0.303789
   8 H :    0.338752
   9 H :    0.346292
  10 H :    0.327936
  11 H :    0.348208
  12 P :    0.302757
  13 H :    0.378702
  14 H :   -0.113010
Sum of atomic charges:    0.0000000

LOEWDIN ATOMIC CHARGES
----------------------
   0 B :   -1.418672
   1 O :    1.334565
   2 O :    1.277964
   3 C :   -0.073926
   4 C :    0.524865
   5 C :    0.512251
   6 H :   -0.271346
   7 H :   -0.291639
   8 H :   -0.285821
   9 H :   -0.267053
  10 H :   -0.804865
  11 H :   -0.859547
  12 P :    1.379624
  13 H :   -0.322778
  14 H :   -0.433622

  Mayer bond orders larger than 0.100000
B(  0-B ,  1-O ) :   0.4503 B(  0-B ,  2-O ) :   0.4546 B(  0-B , 12-P ) :   1.0774
B(  1-O ,  2-O ) :  -0.1558 B(  1-O , 11-H ) :   0.8999 B(  2-O , 10-H ) :   0.9316
B(  2-O , 12-P ) :  -0.1424 B(  3-C ,  4-C ) :   0.9723 B(  3-C ,  5-C ) :   0.8563
B(  3-C , 12-P ) :   0.5540 B(  3-C , 13-H ) :   0.8540 B(  4-C ,  5-C ) :   1.0921
B(  4-C ,  6-H ) :   0.9029 B(  4-C ,  7-H ) :   0.8976 B(  5-C ,  8-H ) :   0.8511
B(  5-C ,  9-H ) :   0.8468 B( 12-P , 14-H ) :   0.9700

MP2 TOTAL ENERGY:     -634.977114931 Eh
FINAL SINGLE POINT ENERGY      -634.977114930660

DIPOLE MOMENT
-------------
                                X             Y             Z
Electronic contribution:      7.70915      -2.31173      -1.25596
Nuclear contribution   :     -8.21902       2.99261       1.65523
                        -----------------------------------------
Total Dipole Moment    :     -0.50988       0.68088       0.39927
                        -----------------------------------------
Magnitude (a.u.)       :      0.93968
Magnitude (Debye)      :      2.38847

Rotational constants in cm-1:     0.153713     0.042663     0.035261
Rotational constants in MHz :  4608.187427  1279.001920  1057.112710

                             ****ORCA TERMINATED NORMALLY****
TOTAL RUN TIME: 0 days 1 hours 40 minutes 26 seconds 826 msec
