                         Program Version 5.0.4 -  RELEASE  -
|  1> ! ri-mp2 aug-cc-pvdz aug-cc-pvdz/c tightscf
|  2> %pal nprocs 16 end
|  3> %maxcore 3800
|  4> %base "DZ_Si-Si_89_A"
|  5> %scf
|  6> STABPerform true
|  7> STABRestartUHFifUnstable true
|  8> end
|  9>
| 10> *xyz 0 2
| 11> Si         1.784592   -0.339611   -0.057157
| 12> N         0.194868    0.428464   -0.014314
| 13> H         2.719613    0.818348   -0.041997
| 14> H         2.012118   -1.183053    1.136821
| 15> C        -0.823199   -0.481485   -0.018022
| 16> O        -0.545597   -1.668143   -0.078268
| 17> C        -2.241393    0.008888    0.052569
| 18> H        -2.396434    0.641350    0.927016
| 19> H        -2.901321   -0.851142    0.100905
| 20> H        -2.486513    0.602819   -0.828974
| 21> C        -0.043911    1.861761    0.001491
| 22> H         0.906223    2.379351   -0.101951
| 23> H        -0.498487    2.184526    0.940319
| 24> H        -0.687768    2.173260   -0.821837
| 25> *
| 26>
| 27> $new_job
| 28> ! ri-mp2 aug-cc-pvtz aug-cc-pvtz/c tightscf
| 29> %pal nprocs 16 end
| 30> %maxcore 3800
| 31> %base "TZ_Si-Si_89_A"
| 32>
| 33> *xyz 0 2
| 34> Si         1.784592   -0.339611   -0.057157
| 35> N         0.194868    0.428464   -0.014314
| 36> H         2.719613    0.818348   -0.041997
| 37> H         2.012118   -1.183053    1.136821
| 38> C        -0.823199   -0.481485   -0.018022
| 39> O        -0.545597   -1.668143   -0.078268
| 40> C        -2.241393    0.008888    0.052569
| 41> H        -2.396434    0.641350    0.927016
| 42> H        -2.901321   -0.851142    0.100905
| 43> H        -2.486513    0.602819   -0.828974
| 44> C        -0.043911    1.861761    0.001491
| 45> H         0.906223    2.379351   -0.101951
| 46> H        -0.498487    2.184526    0.940319
| 47> H        -0.687768    2.173260   -0.821837
| 48> *
| 49>
| 50> $new_job
| 51> ! ri-mp2 aug-cc-pvqz aug-cc-pvqz/c tightscf
| 52> %pal nprocs 16 end
| 53> %maxcore 3800
| 54> %base "QZ_Si-Si_89_A"
| 55>
| 56> *xyz 0 2
| 57> Si         1.784592   -0.339611   -0.057157
| 58> N         0.194868    0.428464   -0.014314
| 59> H         2.719613    0.818348   -0.041997
| 60> H         2.012118   -1.183053    1.136821
| 61> C        -0.823199   -0.481485   -0.018022
| 62> O        -0.545597   -1.668143   -0.078268
| 63> C        -2.241393    0.008888    0.052569
| 64> H        -2.396434    0.641350    0.927016
| 65> H        -2.901321   -0.851142    0.100905
| 66> H        -2.486513    0.602819   -0.828974
| 67> C        -0.043911    1.861761    0.001491
| 68> H         0.906223    2.379351   -0.101951
| 69> H        -0.498487    2.184526    0.940319
| 70> H        -0.687768    2.173260   -0.821837
| 71> *
| 72>
| 73>
| 74>
| 75>
| 76>                          ****END OF INPUT****
 Total Charge           Charge          ....    0
 Multiplicity           Mult            ....    2
 Number of Electrons    NEL             ....   55
MP2 TOTAL ENERGY:     -537.417398844 Eh
FINAL SINGLE POINT ENERGY      -537.417398843507
MP2 TOTAL ENERGY:     -537.674486487 Eh
FINAL SINGLE POINT ENERGY      -537.674486486662

CARTESIAN COORDINATES (ANGSTROEM)
---------------------------------
  Si     1.784592   -0.339611   -0.057157
  N      0.194868    0.428464   -0.014314
  H      2.719613    0.818348   -0.041997
  H      2.012118   -1.183053    1.136821
  C     -0.823199   -0.481485   -0.018022
  O     -0.545597   -1.668143   -0.078268
  C     -2.241393    0.008888    0.052569
  H     -2.396434    0.641350    0.927016
  H     -2.901321   -0.851142    0.100905
  H     -2.486513    0.602819   -0.828974
  C     -0.043911    1.861761    0.001491
  H      0.906223    2.379351   -0.101951
  H     -0.498487    2.184526    0.940319
  H     -0.687768    2.173260   -0.821837

 Multiplicity           Mult            ....    2
 Number of Electrons    NEL             ....   55
 Basis Dimension        Dim             ....  852

ORBITAL ENERGIES
----------------
                 SPIN UP ORBITALS
  NO   OCC          E(Eh)            E(eV)
   0   1.0000     -68.792653     -1871.9433
   1   1.0000     -20.524511      -558.5003
   2   1.0000     -15.574890      -423.8143
   3   1.0000     -11.353618      -308.9477
   4   1.0000     -11.273632      -306.7711
   5   1.0000     -11.240712      -305.8753
   6   1.0000      -6.139575      -167.0663
   7   1.0000      -4.251399      -115.6864
   8   1.0000      -4.242760      -115.4514
   9   1.0000      -4.241945      -115.4292
  10   1.0000      -1.394271       -37.9400
  11   1.0000      -1.226381       -33.3715
  12   1.0000      -1.015527       -27.6339
  13   1.0000      -0.957643       -26.0588
  14   1.0000      -0.788362       -21.4524
  15   1.0000      -0.698396       -19.0043
  16   1.0000      -0.684380       -18.6229
  17   1.0000      -0.654117       -17.7994
  18   1.0000      -0.632242       -17.2042
  19   1.0000      -0.588186       -16.0054
  20   1.0000      -0.577870       -15.7246
  21   1.0000      -0.569362       -15.4931
  22   1.0000      -0.533970       -14.5301
  23   1.0000      -0.520447       -14.1621
  24   1.0000      -0.481453       -13.1010
  25   1.0000      -0.437612       -11.9080
  26   1.0000      -0.408788       -11.1237
  27   1.0000      -0.319757        -8.7010
  28   0.0000       0.019378         0.5273
  29   0.0000       0.030899         0.8408
  30   0.0000       0.034007         0.9254
  31   0.0000       0.036630         0.9968
  32   0.0000       0.048752         1.3266

                 SPIN DOWN ORBITALS
  NO   OCC          E(Eh)            E(eV)
   0   1.0000     -68.786729     -1871.7820
   1   1.0000     -20.523980      -558.4859
   2   1.0000     -15.573226      -423.7690
   3   1.0000     -11.353503      -308.9445
   4   1.0000     -11.273575      -306.7696
   5   1.0000     -11.240724      -305.8757
   6   1.0000      -6.130103      -166.8086
   7   1.0000      -4.238891      -115.3461
   8   1.0000      -4.238211      -115.3276
   9   1.0000      -4.229765      -115.0977
  10   1.0000      -1.392777       -37.8994
  11   1.0000      -1.222295       -33.2603
  12   1.0000      -1.014874       -27.6161
  13   1.0000      -0.956310       -26.0225
  14   1.0000      -0.777089       -21.1457
  15   1.0000      -0.686754       -18.6875
  16   1.0000      -0.682346       -18.5676
  17   1.0000      -0.649942       -17.6858
  18   1.0000      -0.614343       -16.7171
  19   1.0000      -0.587740       -15.9932
  20   1.0000      -0.575492       -15.6599
  21   1.0000      -0.568830       -15.4787
  22   1.0000      -0.528788       -14.3890
  23   1.0000      -0.514626       -14.0037
  24   1.0000      -0.470173       -12.7941
  25   1.0000      -0.429466       -11.6864
  26   1.0000      -0.396688       -10.7944
  27   0.0000       0.019560         0.5323
  28   0.0000       0.029220         0.7951
  29   0.0000       0.031183         0.8485
  30   0.0000       0.036316         0.9882
  31   0.0000       0.045090         1.2270

MULLIKEN ATOMIC CHARGES AND SPIN POPULATIONS
--------------------------------------------
   0 Si:    0.436454    0.912173
   1 N :   -0.329437   -0.026815
   2 H :   -0.316109    0.037168
   3 H :   -0.197472    0.038573
   4 C :    1.022304    0.031655
   5 O :   -0.820184    0.004000
   6 C :   -0.736177   -0.000450
   7 H :    0.234424   -0.000255
   8 H :    0.332690   -0.000769
   9 H :    0.244391    0.002257
  10 C :   -0.862321    0.000776
  11 H :    0.404217    0.000794
  12 H :    0.296788    0.002239
  13 H :    0.290433   -0.001346
Sum of atomic charges         :    0.0000000

LOEWDIN ATOMIC CHARGES AND SPIN POPULATIONS
-------------------------------------------
   0 Si:    0.891363    0.540739
   1 N :    0.261696    0.119502
   2 H :   -0.318026    0.128635
   3 H :   -0.305100    0.123189
   4 C :   -0.969695    0.038985
   5 O :    0.691954    0.026286
   6 C :    0.891815    0.002551
   7 H :   -0.293912    0.000186
   8 H :   -0.312522    0.000176
   9 H :   -0.291703    0.000974
  10 C :    0.674008    0.012963
  11 H :   -0.340469    0.003557
  12 H :   -0.284947    0.001894
  13 H :   -0.294463    0.000363

  Mayer bond orders larger than 0.100000
B(  0-Si,  1-N ) :   0.7491 B(  0-Si,  2-H ) :   0.8550 B(  0-Si,  3-H ) :   0.9094
B(  1-N ,  4-C ) :   1.0430 B(  1-N ,  5-O ) :   0.1719 B(  1-N , 10-C ) :   0.7868
B(  4-C ,  5-O ) :   1.2457 B(  4-C ,  6-C ) :   0.8038 B(  5-O ,  6-C ) :   0.1042
B(  6-C ,  7-H ) :   0.9803 B(  6-C ,  8-H ) :   0.9435 B(  6-C ,  9-H ) :   0.9570
B( 10-C , 11-H ) :   0.8237 B( 10-C , 12-H ) :   0.9621 B( 10-C , 13-H ) :   0.9593

MP2 TOTAL ENERGY:     -537.755962527 Eh
FINAL SINGLE POINT ENERGY      -537.755962526806

DIPOLE MOMENT
-------------
                                X             Y             Z
Electronic contribution:      2.97305      -5.30017      -1.26399
Nuclear contribution   :     -3.48565       6.83542       1.32665
                        -----------------------------------------
Total Dipole Moment    :     -0.51261       1.53525       0.06266
                        -----------------------------------------
Magnitude (a.u.)       :      1.61978
Magnitude (Debye)      :      4.11715

Rotational constants in cm-1:     0.143085     0.083701     0.054390
Rotational constants in MHz :  4289.575671  2509.289306  1630.576899

                             ****ORCA TERMINATED NORMALLY****
TOTAL RUN TIME: 0 days 3 hours 45 minutes 52 seconds 888 msec
