                         Program Version 5.0.4 -  RELEASE  -
|  1> ! ri-mp2 aug-cc-pvdz aug-cc-pvdz/c tightscf
|  2> %pal nprocs 16 end
|  3> %maxcore 3800
|  4> %base "DZ_B-F_54_A"
|  5> %scf
|  6> STABPerform true
|  7> STABRestartUHFifUnstable true
|  8> end
|  9>
| 10> *xyz 0 2
| 11> F         2.374681   -0.655367    0.155211
| 12> B         1.490460    0.123030   -0.396189
| 13> C         0.035371    0.344385    0.217805
| 14> O        -0.760099   -0.591134   -0.453646
| 15> O        -0.430868    1.660691    0.094208
| 16> C        -2.029874   -0.804256    0.137109
| 17> H        -1.921619   -1.189233    1.155949
| 18> H        -2.544268   -1.542197   -0.473314
| 19> H        -2.609687    0.119520    0.161520
| 20> H        -0.281335    1.954422   -0.811918
| 21> H         0.027239    0.143410    1.297817
| 22> *
| 23>
| 24> $new_job
| 25> ! ri-mp2 aug-cc-pvtz aug-cc-pvtz/c tightscf
| 26> %pal nprocs 16 end
| 27> %maxcore 3800
| 28> %base "TZ_B-F_54_A"
| 29>
| 30> *xyz 0 2
| 31> F         2.374681   -0.655367    0.155211
| 32> B         1.490460    0.123030   -0.396189
| 33> C         0.035371    0.344385    0.217805
| 34> O        -0.760099   -0.591134   -0.453646
| 35> O        -0.430868    1.660691    0.094208
| 36> C        -2.029874   -0.804256    0.137109
| 37> H        -1.921619   -1.189233    1.155949
| 38> H        -2.544268   -1.542197   -0.473314
| 39> H        -2.609687    0.119520    0.161520
| 40> H        -0.281335    1.954422   -0.811918
| 41> H         0.027239    0.143410    1.297817
| 42> *
| 43>
| 44> $new_job
| 45> ! ri-mp2 aug-cc-pvqz aug-cc-pvqz/c tightscf
| 46> %pal nprocs 16 end
| 47> %maxcore 3800
| 48> %base "QZ_B-F_54_A"
| 49>
| 50> *xyz 0 2
| 51> F         2.374681   -0.655367    0.155211
| 52> B         1.490460    0.123030   -0.396189
| 53> C         0.035371    0.344385    0.217805
| 54> O        -0.760099   -0.591134   -0.453646
| 55> O        -0.430868    1.660691    0.094208
| 56> C        -2.029874   -0.804256    0.137109
| 57> H        -1.921619   -1.189233    1.155949
| 58> H        -2.544268   -1.542197   -0.473314
| 59> H        -2.609687    0.119520    0.161520
| 60> H        -0.281335    1.954422   -0.811918
| 61> H         0.027239    0.143410    1.297817
| 62> *
| 63>
| 64>
| 65>
| 66>
| 67>                          ****END OF INPUT****
 Total Charge           Charge          ....    0
 Multiplicity           Mult            ....    2
 Number of Electrons    NEL             ....   47
MP2 TOTAL ENERGY:     -353.458955091 Eh
FINAL SINGLE POINT ENERGY      -353.458955091004
MP2 TOTAL ENERGY:     -353.767635501 Eh
FINAL SINGLE POINT ENERGY      -353.767635501378

CARTESIAN COORDINATES (ANGSTROEM)
---------------------------------
  F      2.374681   -0.655367    0.155211
  B      1.490460    0.123030   -0.396189
  C      0.035371    0.344385    0.217805
  O     -0.760099   -0.591134   -0.453646
  O     -0.430868    1.660691    0.094208
  C     -2.029874   -0.804256    0.137109
  H     -1.921619   -1.189233    1.155949
  H     -2.544268   -1.542197   -0.473314
  H     -2.609687    0.119520    0.161520
  H     -0.281335    1.954422   -0.811918
  H      0.027239    0.143410    1.297817

 Multiplicity           Mult            ....    2
 Number of Electrons    NEL             ....   47
 Basis Dimension        Dim             ....  710

ORBITAL ENERGIES
----------------
                 SPIN UP ORBITALS
  NO   OCC          E(Eh)            E(eV)
   0   1.0000     -26.327891      -716.4183
   1   1.0000     -20.573584      -559.8357
   2   1.0000     -20.573515      -559.8338
   3   1.0000     -11.330380      -308.3153
   4   1.0000     -11.276659      -306.8535
   5   1.0000      -7.689696      -209.2473
   6   1.0000      -1.647110       -44.8201
   7   1.0000      -1.425243       -38.7828
   8   1.0000      -1.352725       -36.8095
   9   1.0000      -0.980800       -26.6889
  10   1.0000      -0.885656       -24.0999
  11   1.0000      -0.809504       -22.0277
  12   1.0000      -0.742026       -20.1915
  13   1.0000      -0.717496       -19.5241
  14   1.0000      -0.697207       -18.9720
  15   1.0000      -0.683701       -18.6044
  16   1.0000      -0.679807       -18.4985
  17   1.0000      -0.608624       -16.5615
  18   1.0000      -0.591479       -16.0950
  19   1.0000      -0.555156       -15.1066
  20   1.0000      -0.489164       -13.3108
  21   1.0000      -0.487071       -13.2539
  22   1.0000      -0.456276       -12.4159
  23   1.0000      -0.358782        -9.7629
  24   0.0000       0.025256         0.6872
  25   0.0000       0.032401         0.8817
  26   0.0000       0.033343         0.9073
  27   0.0000       0.036141         0.9834
  28   0.0000       0.049320         1.3421

                 SPIN DOWN ORBITALS
  NO   OCC          E(Eh)            E(eV)
   0   1.0000     -26.324726      -716.3322
   1   1.0000     -20.574008      -559.8472
   2   1.0000     -20.573746      -559.8401
   3   1.0000     -11.326871      -308.2198
   4   1.0000     -11.276667      -306.8537
   5   1.0000      -7.671006      -208.7387
   6   1.0000      -1.638344       -44.5816
   7   1.0000      -1.424549       -38.7639
   8   1.0000      -1.353307       -36.8253
   9   1.0000      -0.975436       -26.5430
  10   1.0000      -0.879979       -23.9454
  11   1.0000      -0.796837       -21.6830
  12   1.0000      -0.726548       -19.7704
  13   1.0000      -0.703240       -19.1361
  14   1.0000      -0.694986       -18.9115
  15   1.0000      -0.679649       -18.4942
  16   1.0000      -0.669748       -18.2248
  17   1.0000      -0.607745       -16.5376
  18   1.0000      -0.589825       -16.0499
  19   1.0000      -0.550489       -14.9796
  20   1.0000      -0.487381       -13.2623
  21   1.0000      -0.466109       -12.6835
  22   1.0000      -0.455802       -12.4030
  23   0.0000       0.021169         0.5760
  24   0.0000       0.030994         0.8434
  25   0.0000       0.033674         0.9163
  26   0.0000       0.036655         0.9974
  27   0.0000       0.049704         1.3525

MULLIKEN ATOMIC CHARGES AND SPIN POPULATIONS
--------------------------------------------
   0 F :   -0.730650   -0.016811
   1 B :    0.785405    1.016941
   2 C :    0.678509    0.016617
   3 O :   -0.807172   -0.008724
   4 O :   -0.882645   -0.009533
   5 C :   -0.607808   -0.002637
   6 H :    0.272509    0.000331
   7 H :    0.385429    0.000501
   8 H :    0.277387    0.000062
   9 H :    0.376721   -0.002160
  10 H :    0.252315    0.005414
Sum of atomic charges         :    0.0000000

LOEWDIN ATOMIC CHARGES AND SPIN POPULATIONS
-------------------------------------------
   0 F :    0.747989    0.148165
   1 B :   -0.670011    0.573301
   2 C :   -0.568710    0.178651
   3 O :    0.828785    0.020858
   4 O :    1.238769    0.016640
   5 C :    0.575262    0.004666
   6 H :   -0.310567    0.001824
   7 H :   -0.324019    0.001091
   8 H :   -0.315754    0.001197
   9 H :   -0.812662    0.029614
  10 H :   -0.389083    0.023993

  Mayer bond orders larger than 0.100000
B(  0-F ,  1-B ) :   0.4192 B(  1-B ,  2-C ) :   0.8572 B(  2-C ,  3-O ) :   0.6815
B(  2-C ,  4-O ) :   0.5809 B(  2-C , 10-H ) :   0.9133 B(  3-O ,  5-C ) :   0.8943
B(  4-O ,  9-H ) :   0.8478 B(  5-C ,  6-H ) :   0.9064 B(  5-C ,  7-H ) :   0.8677
B(  5-C ,  8-H ) :   0.9173

MP2 TOTAL ENERGY:     -353.866541066 Eh
FINAL SINGLE POINT ENERGY      -353.866541066168

DIPOLE MOMENT
-------------
                                X             Y             Z
Electronic contribution:     10.17503      -0.04805      -1.41194
Nuclear contribution   :    -10.58311       0.04942       1.44773
                        -----------------------------------------
Total Dipole Moment    :     -0.40809       0.00137       0.03579
                        -----------------------------------------
Magnitude (a.u.)       :      0.40966
Magnitude (Debye)      :      1.04127

Rotational constants in cm-1:     0.198509     0.076848     0.059406
Rotational constants in MHz :  5951.144770  2303.833161  1780.942525

                             ****ORCA TERMINATED NORMALLY****
TOTAL RUN TIME: 0 days 1 hours 20 minutes 56 seconds 217 msec
