                         Program Version 5.0.4 -  RELEASE  -
|  1> ! ri-mp2 aug-cc-pvdz aug-cc-pvdz/c tightscf
|  2> %pal nprocs 16 end
|  3> %maxcore 3800
|  4> %base "DZ_B-B_32_AB"
|  5>
|  6> *xyz 0 1
|  7> B         2.367870   -0.128135    0.000003
|  8> B         0.831472   -0.770696   -0.000002
|  9> N        -0.365578   -0.069773   -0.000000
| 10> C        -1.671974   -0.697562   -0.000008
| 11> H        -2.246201   -0.401483    0.883135
| 12> H        -1.562313   -1.777956   -0.000012
| 13> H        -2.246195   -0.401476   -0.883152
| 14> C        -0.442364    1.377195    0.000008
| 15> H         0.555722    1.810360    0.000013
| 16> H        -0.975379    1.741127    0.883456
| 17> H        -0.975374    1.741138   -0.883438
| 18> H         0.750963   -1.971681   -0.000011
| 19> H         2.973572    0.082367   -1.010077
| 20> H         2.973568    0.082365    1.010085
| 21> *
| 22>
| 23> $new_job
| 24> ! ri-mp2 aug-cc-pvtz aug-cc-pvtz/c tightscf
| 25> %pal nprocs 16 end
| 26> %maxcore 3800
| 27> %base "TZ_B-B_32_AB"
| 28>
| 29> *xyz 0 1
| 30> B         2.367870   -0.128135    0.000003
| 31> B         0.831472   -0.770696   -0.000002
| 32> N        -0.365578   -0.069773   -0.000000
| 33> C        -1.671974   -0.697562   -0.000008
| 34> H        -2.246201   -0.401483    0.883135
| 35> H        -1.562313   -1.777956   -0.000012
| 36> H        -2.246195   -0.401476   -0.883152
| 37> C        -0.442364    1.377195    0.000008
| 38> H         0.555722    1.810360    0.000013
| 39> H        -0.975379    1.741127    0.883456
| 40> H        -0.975374    1.741138   -0.883438
| 41> H         0.750963   -1.971681   -0.000011
| 42> H         2.973572    0.082367   -1.010077
| 43> H         2.973568    0.082365    1.010085
| 44> *
| 45>
| 46> $new_job
| 47> ! ri-mp2 aug-cc-pvqz aug-cc-pvqz/c tightscf
| 48> %pal nprocs 16 end
| 49> %maxcore 3800
| 50> %base "QZ_B-B_32_AB"
| 51>
| 52> *xyz 0 1
| 53> B         2.367870   -0.128135    0.000003
| 54> B         0.831472   -0.770696   -0.000002
| 55> N        -0.365578   -0.069773   -0.000000
| 56> C        -1.671974   -0.697562   -0.000008
| 57> H        -2.246201   -0.401483    0.883135
| 58> H        -1.562313   -1.777956   -0.000012
| 59> H        -2.246195   -0.401476   -0.883152
| 60> C        -0.442364    1.377195    0.000008
| 61> H         0.555722    1.810360    0.000013
| 62> H        -0.975379    1.741127    0.883456
| 63> H        -0.975374    1.741138   -0.883438
| 64> H         0.750963   -1.971681   -0.000011
| 65> H         2.973572    0.082367   -1.010077
| 66> H         2.973568    0.082365    1.010085
| 67> *
| 68>
| 69>
| 70>
| 71>
| 72>                          ****END OF INPUT****
 Total Charge           Charge          ....    0
 Multiplicity           Mult            ....    1
 Number of Electrons    NEL             ....   38
MP2 TOTAL ENERGY:     -185.447473073 Eh
FINAL SINGLE POINT ENERGY      -185.447473073377
MP2 TOTAL ENERGY:     -185.623987685 Eh
FINAL SINGLE POINT ENERGY      -185.623987685465

CARTESIAN COORDINATES (ANGSTROEM)
---------------------------------
  B      2.367870   -0.128135    0.000003
  B      0.831472   -0.770696   -0.000002
  N     -0.365578   -0.069773   -0.000000
  C     -1.671974   -0.697562   -0.000008
  H     -2.246201   -0.401483    0.883135
  H     -1.562313   -1.777956   -0.000012
  H     -2.246195   -0.401476   -0.883152
  C     -0.442364    1.377195    0.000008
  H      0.555722    1.810360    0.000013
  H     -0.975379    1.741127    0.883456
  H     -0.975374    1.741138   -0.883438
  H      0.750963   -1.971681   -0.000011
  H      2.973572    0.082367   -1.010077
  H      2.973568    0.082365    1.010085

 Multiplicity           Mult            ....    1
 Number of Electrons    NEL             ....   38
 Basis Dimension        Dim             ....  814

ORBITAL ENERGIES
----------------

  NO   OCC          E(Eh)            E(eV)
   0   2.0000     -15.557383      -423.3379
   1   2.0000     -11.254772      -306.2579
   2   2.0000     -11.249178      -306.1057
   3   2.0000      -7.576582      -206.1693
   4   2.0000      -7.557119      -205.6397
   5   2.0000      -1.218064       -33.1452
   6   2.0000      -0.963687       -26.2233
   7   2.0000      -0.882037       -24.0014
   8   2.0000      -0.723194       -19.6791
   9   2.0000      -0.662570       -18.0295
  10   2.0000      -0.632540       -17.2123
  11   2.0000      -0.623479       -16.9657
  12   2.0000      -0.563101       -15.3228
  13   2.0000      -0.550156       -14.9705
  14   2.0000      -0.524490       -14.2721
  15   2.0000      -0.508552       -13.8384
  16   2.0000      -0.479590       -13.0503
  17   2.0000      -0.406311       -11.0563
  18   2.0000      -0.379898       -10.3376
  19   0.0000       0.023032         0.6267
  20   0.0000       0.030951         0.8422
  21   0.0000       0.032148         0.8748
  22   0.0000       0.032545         0.8856
  23   0.0000       0.045127         1.2280

MULLIKEN ATOMIC CHARGES
-----------------------
   0 B :    0.530560
   1 B :    0.512883
   2 N :   -0.124154
   3 C :   -0.846648
   4 H :    0.301241
   5 H :    0.333498
   6 H :    0.301242
   7 C :   -0.932491
   8 H :    0.314133
   9 H :    0.313375
  10 H :    0.313375
  11 H :   -0.463456
  12 H :   -0.276778
  13 H :   -0.276779
Sum of atomic charges:    0.0000000

LOEWDIN ATOMIC CHARGES
----------------------
   0 B :    0.481434
   1 B :   -0.206539
   2 N :    0.512531
   3 C :    0.754215
   4 H :   -0.273739
   5 H :   -0.315307
   6 H :   -0.273739
   7 C :    0.753396
   8 H :   -0.308994
   9 H :   -0.268124
  10 H :   -0.268124
  11 H :   -0.174174
  12 H :   -0.206417
  13 H :   -0.206418

  Mayer bond orders larger than 0.100000
B(  0-B ,  1-B ) :   1.0823 B(  0-B ,  2-N ) :  -0.1485 B(  0-B , 11-H ) :  -0.1069
B(  0-B , 12-H ) :   0.9562 B(  0-B , 13-H ) :   0.9561 B(  1-B ,  2-N ) :   1.1465
B(  1-B , 11-H ) :   0.8271 B(  2-N ,  3-C ) :   0.8924 B(  2-N ,  7-C ) :   0.8946
B(  3-C ,  4-H ) :   0.9431 B(  3-C ,  5-H ) :   0.9028 B(  3-C ,  6-H ) :   0.9431
B(  7-C ,  8-H ) :   0.8909 B(  7-C ,  9-H ) :   0.9313 B(  7-C , 10-H ) :   0.9313

MP2 TOTAL ENERGY:     -185.677842866 Eh
FINAL SINGLE POINT ENERGY      -185.677842866296

DIPOLE MOMENT
-------------
                                X             Y             Z
Electronic contribution:      2.82578      -1.37465       0.00000
Nuclear contribution   :     -3.46010       1.69134      -0.00000
                        -----------------------------------------
Total Dipole Moment    :     -0.63432       0.31669       0.00000
                        -----------------------------------------
Magnitude (a.u.)       :      0.70898
Magnitude (Debye)      :      1.80209

Rotational constants in cm-1:     0.294328     0.116888     0.088218
Rotational constants in MHz :  8823.739481  3504.206103  2644.713052

                             ****ORCA TERMINATED NORMALLY****
TOTAL RUN TIME: 0 days 0 hours 11 minutes 47 seconds 992 msec
