                         Program Version 5.0.4 -  RELEASE  -
|  1> ! ri-mp2 aug-cc-pvdz aug-cc-pvdz/c tightscf
|  2> %pal nprocs 16 end
|  3> %maxcore 3800
|  4> %base "DZ_P-N_54_AB"
|  5> %scf
|  6> STABPerform true
|  7> STABRestartUHFifUnstable true
|  8> end
|  9>
| 10> *xyz 0 1
| 11> C        -2.827571   -0.661449    0.407762
| 12> B        -1.537039    0.059971   -0.110534
| 13> H        -3.091811   -0.210375    1.371613
| 14> H        -2.723666   -1.733946    0.576116
| 15> H        -3.685864   -0.491238   -0.246555
| 16> C        -1.612492    1.508618   -0.694215
| 17> H        -2.224678    1.494082   -1.602534
| 18> H        -0.649861    1.951513   -0.944989
| 19> H        -2.138639    2.173066   -0.002157
| 20> P         0.057710   -0.947104   -0.165509
| 21> N         1.366893    0.131035   -0.075522
| 22> C         2.644926   -0.342587   -0.572469
| 23> H         3.194615   -0.938122    0.170042
| 24> H         3.272616    0.508301   -0.847855
| 25> H         2.494587   -0.957621   -1.457198
| 26> C         1.496477    1.001001    1.074398
| 27> H         2.227288    1.786153    0.866805
| 28> H         1.828306    0.460601    1.972825
| 29> H         0.543515    1.476661    1.298195
| 30> H        -0.003147   -1.563108    1.116799
| 31> *
| 32>
| 33> $new_job
| 34> ! ri-mp2 aug-cc-pvtz aug-cc-pvtz/c tightscf
| 35> %pal nprocs 16 end
| 36> %maxcore 3800
| 37> %base "TZ_P-N_54_AB"
| 38>
| 39> *xyz 0 1
| 40> C        -2.827571   -0.661449    0.407762
| 41> B        -1.537039    0.059971   -0.110534
| 42> H        -3.091811   -0.210375    1.371613
| 43> H        -2.723666   -1.733946    0.576116
| 44> H        -3.685864   -0.491238   -0.246555
| 45> C        -1.612492    1.508618   -0.694215
| 46> H        -2.224678    1.494082   -1.602534
| 47> H        -0.649861    1.951513   -0.944989
| 48> H        -2.138639    2.173066   -0.002157
| 49> P         0.057710   -0.947104   -0.165509
| 50> N         1.366893    0.131035   -0.075522
| 51> C         2.644926   -0.342587   -0.572469
| 52> H         3.194615   -0.938122    0.170042
| 53> H         3.272616    0.508301   -0.847855
| 54> H         2.494587   -0.957621   -1.457198
| 55> C         1.496477    1.001001    1.074398
| 56> H         2.227288    1.786153    0.866805
| 57> H         1.828306    0.460601    1.972825
| 58> H         0.543515    1.476661    1.298195
| 59> H        -0.003147   -1.563108    1.116799
| 60> *
| 61>
| 62> $new_job
| 63> ! ri-mp2 aug-cc-pvqz aug-cc-pvqz/c tightscf
| 64> %pal nprocs 16 end
| 65> %maxcore 3800
| 66> %base "QZ_P-N_54_AB"
| 67>
| 68> *xyz 0 1
| 69> C        -2.827571   -0.661449    0.407762
| 70> B        -1.537039    0.059971   -0.110534
| 71> H        -3.091811   -0.210375    1.371613
| 72> H        -2.723666   -1.733946    0.576116
| 73> H        -3.685864   -0.491238   -0.246555
| 74> C        -1.612492    1.508618   -0.694215
| 75> H        -2.224678    1.494082   -1.602534
| 76> H        -0.649861    1.951513   -0.944989
| 77> H        -2.138639    2.173066   -0.002157
| 78> P         0.057710   -0.947104   -0.165509
| 79> N         1.366893    0.131035   -0.075522
| 80> C         2.644926   -0.342587   -0.572469
| 81> H         3.194615   -0.938122    0.170042
| 82> H         3.272616    0.508301   -0.847855
| 83> H         2.494587   -0.957621   -1.457198
| 84> C         1.496477    1.001001    1.074398
| 85> H         2.227288    1.786153    0.866805
| 86> H         1.828306    0.460601    1.972825
| 87> H         0.543515    1.476661    1.298195
| 88> H        -0.003147   -1.563108    1.116799
| 89> *
| 90>
| 91>
| 92>
| 93>
| 94>                          ****END OF INPUT****
 Total Charge           Charge          ....    0
 Multiplicity           Mult            ....    1
 Number of Electrons    NEL             ....   64
MP2 TOTAL ENERGY:     -579.933335285 Eh
FINAL SINGLE POINT ENERGY      -579.933335284814
MP2 TOTAL ENERGY:     -580.209771184 Eh
FINAL SINGLE POINT ENERGY      -580.209771184398

CARTESIAN COORDINATES (ANGSTROEM)
---------------------------------
  C     -2.827571   -0.661449    0.407762
  B     -1.537039    0.059971   -0.110534
  H     -3.091811   -0.210375    1.371613
  H     -2.723666   -1.733946    0.576116
  H     -3.685864   -0.491238   -0.246555
  C     -1.612492    1.508618   -0.694215
  H     -2.224678    1.494082   -1.602534
  H     -0.649861    1.951513   -0.944989
  H     -2.138639    2.173066   -0.002157
  P      0.057710   -0.947104   -0.165509
  N      1.366893    0.131035   -0.075522
  C      2.644926   -0.342587   -0.572469
  H      3.194615   -0.938122    0.170042
  H      3.272616    0.508301   -0.847855
  H      2.494587   -0.957621   -1.457198
  C      1.496477    1.001001    1.074398
  H      2.227288    1.786153    0.866805
  H      1.828306    0.460601    1.972825
  H      0.543515    1.476661    1.298195
  H     -0.003147   -1.563108    1.116799

 Multiplicity           Mult            ....    1
 Number of Electrons    NEL             ....   64
 Basis Dimension        Dim             .... 1162

ORBITAL ENERGIES
----------------

  NO   OCC          E(Eh)            E(eV)
   0   2.0000     -79.923688     -2174.8341
   1   2.0000     -15.548783      -423.1039
   2   2.0000     -11.248976      -306.1002
   3   2.0000     -11.245330      -306.0010
   4   2.0000     -11.193326      -304.5859
   5   2.0000     -11.190722      -304.5150
   6   2.0000      -7.590606      -206.5509
   7   2.0000      -7.466505      -203.1739
   8   2.0000      -5.361101      -145.8830
   9   2.0000      -5.360600      -145.8693
  10   2.0000      -5.360361      -145.8628
  11   2.0000      -1.213810       -33.0295
  12   2.0000      -0.973110       -26.4797
  13   2.0000      -0.957115       -26.0444
  14   2.0000      -0.924197       -25.1487
  15   2.0000      -0.893229       -24.3060
  16   2.0000      -0.774455       -21.0740
  17   2.0000      -0.642818       -17.4920
  18   2.0000      -0.634442       -17.2640
  19   2.0000      -0.612082       -16.6556
  20   2.0000      -0.595919       -16.2158
  21   2.0000      -0.563499       -15.3336
  22   2.0000      -0.560454       -15.2507
  23   2.0000      -0.546598       -14.8737
  24   2.0000      -0.541494       -14.7348
  25   2.0000      -0.529088       -14.3972
  26   2.0000      -0.516475       -14.0540
  27   2.0000      -0.512345       -13.9416
  28   2.0000      -0.459328       -12.4989
  29   2.0000      -0.435750       -11.8573
  30   2.0000      -0.358361        -9.7515
  31   2.0000      -0.331589        -9.0230
  32   0.0000       0.021812         0.5935
  33   0.0000       0.030391         0.8270
  34   0.0000       0.032203         0.8763
  35   0.0000       0.033599         0.9143
  36   0.0000       0.043775         1.1912

MULLIKEN ATOMIC CHARGES
-----------------------
   0 C :   -1.069592
   1 B :    0.170565
   2 H :    0.288237
   3 H :    0.299487
   4 H :    0.298085
   5 C :   -1.084762
   6 H :    0.324603
   7 H :    0.351953
   8 H :    0.307633
   9 P :    0.613351
  10 N :   -0.377474
  11 C :   -0.958761
  12 H :    0.309411
  13 H :    0.320533
  14 H :    0.331995
  15 C :   -0.999340
  16 H :    0.348145
  17 H :    0.337999
  18 H :    0.352737
  19 H :   -0.164807
Sum of atomic charges:    0.0000000

LOEWDIN ATOMIC CHARGES
----------------------
   0 C :    0.984184
   1 B :   -0.707525
   2 H :   -0.297994
   3 H :   -0.322039
   4 H :   -0.300073
   5 C :    1.006289
   6 H :   -0.294104
   7 H :   -0.323094
   8 H :   -0.293320
   9 P :    1.233148
  10 N :    0.192820
  11 C :    0.648210
  12 H :   -0.280771
  13 H :   -0.299879
  14 H :   -0.333706
  15 C :    0.660959
  16 H :   -0.291290
  17 H :   -0.274403
  18 H :   -0.326805
  19 H :   -0.380608

  Mayer bond orders larger than 0.100000
B(  0-C ,  1-B ) :   0.9709 B(  0-C ,  2-H ) :   0.9091 B(  0-C ,  3-H ) :   0.9015
B(  0-C ,  4-H ) :   0.9174 B(  1-B ,  5-C ) :   0.9698 B(  1-B ,  9-P ) :   1.0776
B(  1-B , 10-N ) :  -0.2090 B(  5-C ,  6-H ) :   0.8949 B(  5-C ,  7-H ) :   0.8785
B(  5-C ,  8-H ) :   0.8994 B(  9-P , 10-N ) :   0.6440 B(  9-P , 19-H ) :   0.9895
B( 10-N , 11-C ) :   0.8337 B( 10-N , 15-C ) :   0.9881 B( 11-C , 12-H ) :   0.9541
B( 11-C , 13-H ) :   0.9386 B( 11-C , 14-H ) :   0.9358 B( 15-C , 16-H ) :   0.9138
B( 15-C , 17-H ) :   0.8861 B( 15-C , 18-H ) :   0.8834

MP2 TOTAL ENERGY:     -580.293565834 Eh
FINAL SINGLE POINT ENERGY      -580.293565834121

DIPOLE MOMENT
-------------
                                X             Y             Z
Electronic contribution:     -0.14491      -4.52741      -2.21212
Nuclear contribution   :      0.24141       4.94441       2.58749
                        -----------------------------------------
Total Dipole Moment    :      0.09651       0.41701       0.37536
                        -----------------------------------------
Magnitude (a.u.)       :      0.56930
Magnitude (Debye)      :      1.44705

Rotational constants in cm-1:     0.119441     0.041148     0.036241
Rotational constants in MHz :  3580.743391  1233.586869  1086.470305

                             ****ORCA TERMINATED NORMALLY****
TOTAL RUN TIME: 0 days 3 hours 6 minutes 7 seconds 664 msec
