                         Program Version 5.0.4 -  RELEASE  -
|  1> ! ri-mp2 aug-cc-pvdz aug-cc-pvdz/c tightscf
|  2> %pal nprocs 16 end
|  3> %maxcore 3800
|  4> %base "DZ_B-F_31_A"
|  5> %scf
|  6> STABPerform true
|  7> STABRestartUHFifUnstable true
|  8> end
|  9>
| 10> *xyz 0 2
| 11> F        -1.679794   -0.228859    0.000001
| 12> B        -0.642230    0.544033    0.000002
| 13> C         0.802346    0.064668   -0.000006
| 14> N         1.930746   -0.149777    0.000002
| 15> *
| 16>
| 17> $new_job
| 18> ! ri-mp2 aug-cc-pvtz aug-cc-pvtz/c tightscf
| 19> %pal nprocs 16 end
| 20> %maxcore 3800
| 21> %base "TZ_B-F_31_A"
| 22>
| 23> *xyz 0 2
| 24> F        -1.679794   -0.228859    0.000001
| 25> B        -0.642230    0.544033    0.000002
| 26> C         0.802346    0.064668   -0.000006
| 27> N         1.930746   -0.149777    0.000002
| 28> *
| 29>
| 30> $new_job
| 31> ! ri-mp2 aug-cc-pvqz aug-cc-pvqz/c tightscf
| 32> %pal nprocs 16 end
| 33> %maxcore 3800
| 34> %base "QZ_B-F_31_A"
| 35>
| 36> *xyz 0 2
| 37> F        -1.679794   -0.228859    0.000001
| 38> B        -0.642230    0.544033    0.000002
| 39> C         0.802346    0.064668   -0.000006
| 40> N         1.930746   -0.149777    0.000002
| 41> *
| 42>
| 43>
| 44>
| 45>
| 46>                          ****END OF INPUT****
 Total Charge           Charge          ....    0
 Multiplicity           Mult            ....    2
 Number of Electrons    NEL             ....   27
MP2 TOTAL ENERGY:     -216.986805904 Eh
FINAL SINGLE POINT ENERGY      -216.986805904084
MP2 TOTAL ENERGY:     -217.166212432 Eh
FINAL SINGLE POINT ENERGY      -217.166212432427

CARTESIAN COORDINATES (ANGSTROEM)
---------------------------------
  F     -1.679794   -0.228859    0.000001
  B     -0.642230    0.544033    0.000002
  C      0.802346    0.064668   -0.000006
  N      1.930746   -0.149777    0.000002

 Multiplicity           Mult            ....    2
 Number of Electrons    NEL             ....   27
 Basis Dimension        Dim             ....  320

ORBITAL ENERGIES
----------------
                 SPIN UP ORBITALS
  NO   OCC          E(Eh)            E(eV)
   0   1.0000     -26.363875      -717.3975
   1   1.0000     -15.617591      -424.9763
   2   1.0000     -11.277494      -306.8762
   3   1.0000      -7.752386      -210.9531
   4   1.0000      -1.683466       -45.8094
   5   1.0000      -1.260342       -34.2957
   6   1.0000      -0.875977       -23.8366
   7   1.0000      -0.800849       -21.7922
   8   1.0000      -0.741518       -20.1777
   9   1.0000      -0.731384       -19.9020
  10   1.0000      -0.603930       -16.4338
  11   1.0000      -0.532958       -14.5025
  12   1.0000      -0.514576       -14.0023
  13   1.0000      -0.410157       -11.1609
  14   0.0000       0.013861         0.3772
  15   0.0000       0.029897         0.8135
  16   0.0000       0.034867         0.9488
  17   0.0000       0.039049         1.0626
  18   0.0000       0.040984         1.1152

                 SPIN DOWN ORBITALS
  NO   OCC          E(Eh)            E(eV)
   0   1.0000     -26.360901      -717.3166
   1   1.0000     -15.608467      -424.7280
   2   1.0000     -11.280490      -306.9577
   3   1.0000      -7.730268      -210.3513
   4   1.0000      -1.675348       -45.5885
   5   1.0000      -1.243401       -33.8347
   6   1.0000      -0.857156       -23.3244
   7   1.0000      -0.783390       -21.3171
   8   1.0000      -0.733362       -19.9558
   9   1.0000      -0.711100       -19.3500
  10   1.0000      -0.585091       -15.9211
  11   1.0000      -0.506576       -13.7846
  12   1.0000      -0.501816       -13.6551
  13   0.0000       0.018143         0.4937
  14   0.0000       0.028376         0.7722
  15   0.0000       0.034589         0.9412
  16   0.0000       0.038857         1.0573
  17   0.0000       0.055001         1.4967

MULLIKEN ATOMIC CHARGES AND SPIN POPULATIONS
--------------------------------------------
   0 F :   -0.644608   -0.020157
   1 B :    0.961934    0.978928
   2 C :    0.109153   -0.241605
   3 N :   -0.426479    0.282833
Sum of atomic charges         :    0.0000000

LOEWDIN ATOMIC CHARGES AND SPIN POPULATIONS
-------------------------------------------
   0 F :    0.715215    0.148871
   1 B :   -0.796779    0.559258
   2 C :   -0.270565    0.147048
   3 N :    0.352128    0.144823

  Mayer bond orders larger than 0.100000
B(  0-F ,  1-B ) :   0.5218 B(  1-B ,  2-C ) :   0.9650 B(  2-C ,  3-N ) :   2.5666

MP2 TOTAL ENERGY:     -217.224092224 Eh
FINAL SINGLE POINT ENERGY      -217.224092223679

DIPOLE MOMENT
-------------
                                X             Y             Z
Electronic contribution:     -2.77760       0.47851      -0.00000
Nuclear contribution   :      1.98722      -0.19369      -0.00000
                        -----------------------------------------
Total Dipole Moment    :     -0.79038       0.28482      -0.00000
                        -----------------------------------------
Magnitude (a.u.)       :      0.84013
Magnitude (Debye)      :      2.13545

Rotational constants in cm-1:     3.698435     0.142948     0.137629
Rotational constants in MHz : 110876.295078  4285.487577  4126.012764

                             ****ORCA TERMINATED NORMALLY****
TOTAL RUN TIME: 0 days 0 hours 8 minutes 8 seconds 474 msec
