                         Program Version 5.0.4 -  RELEASE  -
|  1> ! ri-mp2 aug-cc-pvdz aug-cc-pvdz/c tightscf
|  2> %pal nprocs 16 end
|  3> %maxcore 3800
|  4> %base "DZ_Si-Cl_85_AB"
|  5> %scf
|  6> STABPerform true
|  7> STABRestartUHFifUnstable true
|  8> end
|  9>
| 10> *xyz 0 1
| 11> Si         0.751842    0.805538    0.035054
| 12> C        -0.866803    0.062451    0.490348
| 13> C        -1.920013    0.104185   -0.319501
| 14> Cl         2.211829   -0.651559   -0.083725
| 15> C        -3.267437   -0.461013   -0.023155
| 16> H        -0.978457   -0.425994    1.455503
| 17> H        -1.819481    0.584155   -1.290724
| 18> H        -3.299445   -0.926514    0.960918
| 19> H        -3.542730   -1.208044   -0.771042
| 20> H        -4.030404    0.319576   -0.064535
| 21> H         1.224962    1.772020    1.043867
| 22> H         0.644188    1.450042   -1.287562
| 23> *
| 24>
| 25> $new_job
| 26> ! ri-mp2 aug-cc-pvtz aug-cc-pvtz/c tightscf
| 27> %pal nprocs 16 end
| 28> %maxcore 3800
| 29> %base "TZ_Si-Cl_85_AB"
| 30>
| 31> *xyz 0 1
| 32> Si         0.751842    0.805538    0.035054
| 33> C        -0.866803    0.062451    0.490348
| 34> C        -1.920013    0.104185   -0.319501
| 35> Cl         2.211829   -0.651559   -0.083725
| 36> C        -3.267437   -0.461013   -0.023155
| 37> H        -0.978457   -0.425994    1.455503
| 38> H        -1.819481    0.584155   -1.290724
| 39> H        -3.299445   -0.926514    0.960918
| 40> H        -3.542730   -1.208044   -0.771042
| 41> H        -4.030404    0.319576   -0.064535
| 42> H         1.224962    1.772020    1.043867
| 43> H         0.644188    1.450042   -1.287562
| 44> *
| 45>
| 46> $new_job
| 47> ! ri-mp2 aug-cc-pvqz aug-cc-pvqz/c tightscf
| 48> %pal nprocs 16 end
| 49> %maxcore 3800
| 50> %base "QZ_Si-Cl_85_AB"
| 51>
| 52> *xyz 0 1
| 53> Si         0.751842    0.805538    0.035054
| 54> C        -0.866803    0.062451    0.490348
| 55> C        -1.920013    0.104185   -0.319501
| 56> Cl         2.211829   -0.651559   -0.083725
| 57> C        -3.267437   -0.461013   -0.023155
| 58> H        -0.978457   -0.425994    1.455503
| 59> H        -1.819481    0.584155   -1.290724
| 60> H        -3.299445   -0.926514    0.960918
| 61> H        -3.542730   -1.208044   -0.771042
| 62> H        -4.030404    0.319576   -0.064535
| 63> H         1.224962    1.772020    1.043867
| 64> H         0.644188    1.450042   -1.287562
| 65> *
| 66>
| 67>
| 68>
| 69>
| 70>                          ****END OF INPUT****
 Total Charge           Charge          ....    0
 Multiplicity           Mult            ....    1
 Number of Electrons    NEL             ....   56
MP2 TOTAL ENERGY:     -866.841569731 Eh
FINAL SINGLE POINT ENERGY      -866.841569731238
MP2 TOTAL ENERGY:     -867.053323954 Eh
FINAL SINGLE POINT ENERGY      -867.053323954072

CARTESIAN COORDINATES (ANGSTROEM)
---------------------------------
  Si     0.751842    0.805538    0.035054
  C     -0.866803    0.062451    0.490348
  C     -1.920013    0.104185   -0.319501
  Cl     2.211829   -0.651559   -0.083725
  C     -3.267437   -0.461013   -0.023155
  H     -0.978457   -0.425994    1.455503
  H     -1.819481    0.584155   -1.290724
  H     -3.299445   -0.926514    0.960918
  H     -3.542730   -1.208044   -0.771042
  H     -4.030404    0.319576   -0.064535
  H      1.224962    1.772020    1.043867
  H      0.644188    1.450042   -1.287562

 Multiplicity           Mult            ....    1
 Number of Electrons    NEL             ....   56
 Basis Dimension        Dim             ....  730

ORBITAL ENERGIES
----------------

  NO   OCC          E(Eh)            E(eV)
   0   2.0000    -104.815642     -2852.1786
   1   2.0000     -68.805425     -1872.2908
   2   2.0000     -11.258703      -306.3649
   3   2.0000     -11.232904      -305.6629
   4   2.0000     -11.218253      -305.2642
   5   2.0000     -10.543160      -286.8940
   6   2.0000      -8.009953      -217.9619
   7   2.0000      -8.008883      -217.9328
   8   2.0000      -8.008865      -217.9323
   9   2.0000      -6.150925      -167.3752
  10   2.0000      -4.257972      -115.8653
  11   2.0000      -4.257083      -115.8411
  12   2.0000      -4.256706      -115.8309
  13   2.0000      -1.090771       -29.6814
  14   2.0000      -1.079758       -29.3817
  15   2.0000      -0.949233       -25.8300
  16   2.0000      -0.775923       -21.1139
  17   2.0000      -0.712661       -19.3925
  18   2.0000      -0.607931       -16.5426
  19   2.0000      -0.602311       -16.3897
  20   2.0000      -0.582477       -15.8500
  21   2.0000      -0.529485       -14.4080
  22   2.0000      -0.520656       -14.1678
  23   2.0000      -0.514752       -14.0071
  24   2.0000      -0.485607       -13.2140
  25   2.0000      -0.441453       -12.0125
  26   2.0000      -0.436566       -11.8796
  27   2.0000      -0.378945       -10.3116
  28   0.0000       0.022872         0.6224
  29   0.0000       0.030842         0.8393
  30   0.0000       0.033009         0.8982
  31   0.0000       0.036636         0.9969
  32   0.0000       0.047177         1.2837

MULLIKEN ATOMIC CHARGES
-----------------------
   0 Si:    1.384026
   1 C :   -0.878875
   2 C :   -0.330612
   3 Cl:   -0.621300
   4 C :   -0.660662
   5 H :    0.394336
   6 H :    0.431057
   7 H :    0.233580
   8 H :    0.247197
   9 H :    0.245117
  10 H :   -0.216018
  11 H :   -0.227847
Sum of atomic charges:   -0.0000000

LOEWDIN ATOMIC CHARGES
----------------------
   0 Si:   -0.047815
   1 C :    0.271653
   2 C :    0.264396
   3 Cl:    0.859797
   4 C :    0.895698
   5 H :   -0.415944
   6 H :   -0.352909
   7 H :   -0.314009
   8 H :   -0.291376
   9 H :   -0.291868
  10 H :   -0.297795
  11 H :   -0.279828

  Mayer bond orders larger than 0.100000
B(  0-Si,  1-C ) :   1.0669 B(  0-Si,  3-Cl) :   0.3920 B(  0-Si, 10-H ) :   0.8218
B(  0-Si, 11-H ) :   0.8240 B(  1-C ,  2-C ) :   1.5181 B(  1-C ,  5-H ) :   0.7810
B(  2-C ,  4-C ) :   0.8006 B(  2-C ,  6-H ) :   0.7506 B(  4-C ,  7-H ) :   0.9534
B(  4-C ,  8-H ) :   0.9804 B(  4-C ,  9-H ) :   0.9878

MP2 TOTAL ENERGY:     -867.121257065 Eh
FINAL SINGLE POINT ENERGY      -867.121257065065

DIPOLE MOMENT
-------------
                                X             Y             Z
Electronic contribution:     13.73395      -2.16950      -0.16916
Nuclear contribution   :    -14.80641       2.41506       0.16184
                        -----------------------------------------
Total Dipole Moment    :     -1.07246       0.24556      -0.00732
                        -----------------------------------------
Magnitude (a.u.)       :      1.10024
Magnitude (Debye)      :      2.79658

Rotational constants in cm-1:     0.298679     0.039412     0.036706
Rotational constants in MHz :  8954.158613  1181.531256  1100.409249

                             ****ORCA TERMINATED NORMALLY****
TOTAL RUN TIME: 0 days 2 hours 18 minutes 54 seconds 907 msec
