                         Program Version 5.0.4 -  RELEASE  -
|  1> ! ri-mp2 aug-cc-pvdz aug-cc-pvdz/c tightscf
|  2> %pal nprocs 16 end
|  3> %maxcore 3800
|  4> %base "DZ_Si-Si_56_AB"
|  5> %scf
|  6> STABPerform true
|  7> STABRestartUHFifUnstable true
|  8> end
|  9>
| 10> *xyz 0 1
| 11> Si        -1.044463   -1.155656    0.509809
| 12> Si         1.048699   -1.100956   -0.531017
| 13> C        -1.889923    0.490087   -0.036817
| 14> O        -1.226032    1.485190   -0.197658
| 15> H        -0.979651   -1.097639    1.984523
| 16> H        -1.927287   -2.278286    0.113624
| 17> O        -3.210039    0.562724   -0.246767
| 18> C         2.065444    0.425575    0.062774
| 19> H         0.802545   -0.988079   -1.984713
| 20> H         1.824978   -2.313680   -0.225462
| 21> O         3.236808    0.272913    0.271453
| 22> O         1.484108    1.613485    0.213752
| 23> H        -3.632043   -0.292637   -0.100720
| 24> H         0.520279    1.594418    0.027669
| 25> *
| 26>
| 27> $new_job
| 28> ! ri-mp2 aug-cc-pvtz aug-cc-pvtz/c tightscf
| 29> %pal nprocs 16 end
| 30> %maxcore 3800
| 31> %base "TZ_Si-Si_56_AB"
| 32>
| 33> *xyz 0 1
| 34> Si        -1.044463   -1.155656    0.509809
| 35> Si         1.048699   -1.100956   -0.531017
| 36> C        -1.889923    0.490087   -0.036817
| 37> O        -1.226032    1.485190   -0.197658
| 38> H        -0.979651   -1.097639    1.984523
| 39> H        -1.927287   -2.278286    0.113624
| 40> O        -3.210039    0.562724   -0.246767
| 41> C         2.065444    0.425575    0.062774
| 42> H         0.802545   -0.988079   -1.984713
| 43> H         1.824978   -2.313680   -0.225462
| 44> O         3.236808    0.272913    0.271453
| 45> O         1.484108    1.613485    0.213752
| 46> H        -3.632043   -0.292637   -0.100720
| 47> H         0.520279    1.594418    0.027669
| 48> *
| 49>
| 50> $new_job
| 51> ! ri-mp2 aug-cc-pvqz aug-cc-pvqz/c tightscf
| 52> %pal nprocs 16 end
| 53> %maxcore 3800
| 54> %base "QZ_Si-Si_56_AB"
| 55>
| 56> *xyz 0 1
| 57> Si        -1.044463   -1.155656    0.509809
| 58> Si         1.048699   -1.100956   -0.531017
| 59> C        -1.889923    0.490087   -0.036817
| 60> O        -1.226032    1.485190   -0.197658
| 61> H        -0.979651   -1.097639    1.984523
| 62> H        -1.927287   -2.278286    0.113624
| 63> O        -3.210039    0.562724   -0.246767
| 64> C         2.065444    0.425575    0.062774
| 65> H         0.802545   -0.988079   -1.984713
| 66> H         1.824978   -2.313680   -0.225462
| 67> O         3.236808    0.272913    0.271453
| 68> O         1.484108    1.613485    0.213752
| 69> H        -3.632043   -0.292637   -0.100720
| 70> H         0.520279    1.594418    0.027669
| 71> *
| 72>
| 73>
| 74>
| 75>
| 76>                          ****END OF INPUT****
 Total Charge           Charge          ....    0
 Multiplicity           Mult            ....    1
 Number of Electrons    NEL             ....   78
MP2 TOTAL ENERGY:     -957.869828323 Eh
FINAL SINGLE POINT ENERGY      -957.869828322968
MP2 TOTAL ENERGY:     -958.255911978 Eh
FINAL SINGLE POINT ENERGY      -958.255911977874

CARTESIAN COORDINATES (ANGSTROEM)
---------------------------------
  Si    -1.044463   -1.155656    0.509809
  Si     1.048699   -1.100956   -0.531017
  C     -1.889923    0.490087   -0.036817
  O     -1.226032    1.485190   -0.197658
  H     -0.979651   -1.097639    1.984523
  H     -1.927287   -2.278286    0.113624
  O     -3.210039    0.562724   -0.246767
  C      2.065444    0.425575    0.062774
  H      0.802545   -0.988079   -1.984713
  H      1.824978   -2.313680   -0.225462
  O      3.236808    0.272913    0.271453
  O      1.484108    1.613485    0.213752
  H     -3.632043   -0.292637   -0.100720
  H      0.520279    1.594418    0.027669

 Multiplicity           Mult            ....    1
 Number of Electrons    NEL             ....   78
 Basis Dimension        Dim             ....  924

ORBITAL ENERGIES
----------------

  NO   OCC          E(Eh)            E(eV)
   0   2.0000     -68.818600     -1872.6493
   1   2.0000     -68.805360     -1872.2890
   2   2.0000     -20.644901      -561.7763
   3   2.0000     -20.590946      -560.3081
   4   2.0000     -20.587009      -560.2010
   5   2.0000     -20.542728      -558.9961
   6   2.0000     -11.406846      -310.3960
   7   2.0000     -11.366930      -309.3099
   8   2.0000      -6.169800      -167.8888
   9   2.0000      -6.156167      -167.5178
  10   2.0000      -4.276008      -116.3561
  11   2.0000      -4.275664      -116.3467
  12   2.0000      -4.275503      -116.3423
  13   2.0000      -4.262492      -115.9883
  14   2.0000      -4.262093      -115.9775
  15   2.0000      -4.261914      -115.9726
  16   2.0000      -1.497885       -40.7595
  17   2.0000      -1.449876       -39.4531
  18   2.0000      -1.402573       -38.1659
  19   2.0000      -1.356376       -36.9089
  20   2.0000      -0.889784       -24.2123
  21   2.0000      -0.844666       -22.9845
  22   2.0000      -0.833085       -22.6694
  23   2.0000      -0.784285       -21.3415
  24   2.0000      -0.703681       -19.1481
  25   2.0000      -0.695680       -18.9304
  26   2.0000      -0.664771       -18.0893
  27   2.0000      -0.655100       -17.8262
  28   2.0000      -0.649274       -17.6677
  29   2.0000      -0.618088       -16.8190
  30   2.0000      -0.601824       -16.3765
  31   2.0000      -0.547925       -14.9098
  32   2.0000      -0.533557       -14.5188
  33   2.0000      -0.519351       -14.1323
  34   2.0000      -0.514745       -14.0069
  35   2.0000      -0.471892       -12.8408
  36   2.0000      -0.462585       -12.5876
  37   2.0000      -0.452435       -12.3114
  38   2.0000      -0.407837       -11.0978
  39   0.0000       0.010250         0.2789
  40   0.0000       0.022612         0.6153
  41   0.0000       0.026559         0.7227
  42   0.0000       0.037393         1.0175
  43   0.0000       0.044194         1.2026

MULLIKEN ATOMIC CHARGES
-----------------------
   0 Si:    0.858259
   1 Si:    0.824705
   2 C :    0.823073
   3 O :   -0.815853
   4 H :   -0.181361
   5 H :   -0.249824
   6 O :   -0.782257
   7 C :    0.731889
   8 H :   -0.179032
   9 H :   -0.212285
  10 O :   -0.808427
  11 O :   -0.817663
  12 H :    0.370248
  13 H :    0.438527
Sum of atomic charges:   -0.0000000

LOEWDIN ATOMIC CHARGES
----------------------
   0 Si:    0.759295
   1 Si:    0.731148
   2 C :   -1.003865
   3 O :    0.731849
   4 H :   -0.263302
   5 H :   -0.265306
   6 O :    1.190947
   7 C :   -1.101977
   8 H :   -0.263312
   9 H :   -0.270667
  10 O :    0.568880
  11 O :    1.170826
  12 H :   -0.834993
  13 H :   -1.149523

  Mayer bond orders larger than 0.100000
B(  0-Si,  1-Si) :   0.8341 B(  0-Si,  2-C ) :   0.6234 B(  0-Si,  4-H ) :   0.8018
B(  0-Si,  5-H ) :   0.8148 B(  1-Si,  7-C ) :   0.7322 B(  1-Si,  8-H ) :   0.8133
B(  1-Si,  9-H ) :   0.8409 B(  2-C ,  3-O ) :   1.5429 B(  2-C ,  6-O ) :   0.8239
B(  6-O , 12-H ) :   0.8350 B(  7-C , 10-O ) :   1.5369 B(  7-C , 11-O ) :   0.8994
B( 11-O , 13-H ) :   0.7459

MP2 TOTAL ENERGY:     -958.385478183 Eh
FINAL SINGLE POINT ENERGY      -958.385478182579

DIPOLE MOMENT
-------------
                                X             Y             Z
Electronic contribution:      1.04649       3.01952       0.10076
Nuclear contribution   :     -3.30245      -5.04773      -0.17858
                        -----------------------------------------
Total Dipole Moment    :     -2.25596      -2.02821      -0.07782
                        -----------------------------------------
Magnitude (a.u.)       :      3.03464
Magnitude (Debye)      :      7.71345

Rotational constants in cm-1:     0.083503     0.028262     0.022634
Rotational constants in MHz :  2503.370948   847.282883   678.557957

                             ****ORCA TERMINATED NORMALLY****
TOTAL RUN TIME: 0 days 1 hours 38 minutes 40 seconds 767 msec
