                         Program Version 5.0.4 -  RELEASE  -
|  1> ! ri-mp2 aug-cc-pvdz aug-cc-pvdz/c tightscf
|  2> %pal nprocs 16 end
|  3> %maxcore 3800
|  4> %base "DZ_B-Cl_74_A"
|  5> %scf
|  6> STABPerform true
|  7> STABRestartUHFifUnstable true
|  8> end
|  9>
| 10> *xyz 0 2
| 11> C         1.617301   -0.049323    0.402923
| 12> O         1.176671    1.016166   -0.370922
| 13> C        -0.000044    1.654641    0.025261
| 14> O        -1.176737    1.016116   -0.370904
| 15> C        -1.617291   -0.049410    0.402932
| 16> O        -1.225626   -1.308917   -0.105654
| 17> B         0.000049   -1.814531   -0.323035
| 18> O         1.225696   -1.308861   -0.105630
| 19> H        -0.000069    2.618877   -0.474317
| 20> H        -0.000038    1.783029    1.116419
| 21> H        -2.703296   -0.046328    0.367795
| 22> H        -1.273411    0.055851    1.437852
| 23> H         1.273437    0.055938    1.437849
| 24> H         2.703306   -0.046181    0.367763
| 25> *
| 26>
| 27> $new_job
| 28> ! ri-mp2 aug-cc-pvtz aug-cc-pvtz/c tightscf
| 29> %pal nprocs 16 end
| 30> %maxcore 3800
| 31> %base "TZ_B-Cl_74_A"
| 32>
| 33> *xyz 0 2
| 34> C         1.617301   -0.049323    0.402923
| 35> O         1.176671    1.016166   -0.370922
| 36> C        -0.000044    1.654641    0.025261
| 37> O        -1.176737    1.016116   -0.370904
| 38> C        -1.617291   -0.049410    0.402932
| 39> O        -1.225626   -1.308917   -0.105654
| 40> B         0.000049   -1.814531   -0.323035
| 41> O         1.225696   -1.308861   -0.105630
| 42> H        -0.000069    2.618877   -0.474317
| 43> H        -0.000038    1.783029    1.116419
| 44> H        -2.703296   -0.046328    0.367795
| 45> H        -1.273411    0.055851    1.437852
| 46> H         1.273437    0.055938    1.437849
| 47> H         2.703306   -0.046181    0.367763
| 48> *
| 49>
| 50> $new_job
| 51> ! ri-mp2 aug-cc-pvqz aug-cc-pvqz/c tightscf
| 52> %pal nprocs 16 end
| 53> %maxcore 3800
| 54> %base "QZ_B-Cl_74_A"
| 55>
| 56> *xyz 0 2
| 57> C         1.617301   -0.049323    0.402923
| 58> O         1.176671    1.016166   -0.370922
| 59> C        -0.000044    1.654641    0.025261
| 60> O        -1.176737    1.016116   -0.370904
| 61> C        -1.617291   -0.049410    0.402932
| 62> O        -1.225626   -1.308917   -0.105654
| 63> B         0.000049   -1.814531   -0.323035
| 64> O         1.225696   -1.308861   -0.105630
| 65> H        -0.000069    2.618877   -0.474317
| 66> H        -0.000038    1.783029    1.116419
| 67> H        -2.703296   -0.046328    0.367795
| 68> H        -1.273411    0.055851    1.437852
| 69> H         1.273437    0.055938    1.437849
| 70> H         2.703306   -0.046181    0.367763
| 71> *
| 72>
| 73>
| 74>
| 75>
| 76>                          ****END OF INPUT****
 Total Charge           Charge          ....    0
 Multiplicity           Mult            ....    2
 Number of Electrons    NEL             ....   61
MP2 TOTAL ENERGY:     -442.552302017 Eh
FINAL SINGLE POINT ENERGY      -442.552302017092
MP2 TOTAL ENERGY:     -442.938537970 Eh
FINAL SINGLE POINT ENERGY      -442.938537969934

CARTESIAN COORDINATES (ANGSTROEM)
---------------------------------
  C      1.617301   -0.049323    0.402923
  O      1.176671    1.016166   -0.370922
  C     -0.000044    1.654641    0.025261
  O     -1.176737    1.016116   -0.370904
  C     -1.617291   -0.049410    0.402932
  O     -1.225626   -1.308917   -0.105654
  B      0.000049   -1.814531   -0.323035
  O      1.225696   -1.308861   -0.105630
  H     -0.000069    2.618877   -0.474317
  H     -0.000038    1.783029    1.116419
  H     -2.703296   -0.046328    0.367795
  H     -1.273411    0.055851    1.437852
  H      1.273437    0.055938    1.437849
  H      2.703306   -0.046181    0.367763

 Multiplicity           Mult            ....    2
 Number of Electrons    NEL             ....   61
 Basis Dimension        Dim             ....  916

ORBITAL ENERGIES
----------------
                 SPIN UP ORBITALS
  NO   OCC          E(Eh)            E(eV)
   0   1.0000     -20.588859      -560.2513
   1   1.0000     -20.588841      -560.2508
   2   1.0000     -20.576799      -559.9232
   3   1.0000     -20.576780      -559.9227
   4   1.0000     -11.358024      -309.0675
   5   1.0000     -11.358023      -309.0675
   6   1.0000     -11.353969      -308.9572
   7   1.0000      -7.664309      -208.5564
   8   1.0000      -1.469274       -39.9810
   9   1.0000      -1.420344       -38.6495
  10   1.0000      -1.393826       -37.9279
  11   1.0000      -1.350726       -36.7551
  12   1.0000      -1.017860       -27.6974
  13   1.0000      -0.945283       -25.7225
  14   1.0000      -0.891206       -24.2509
  15   1.0000      -0.786132       -21.3917
  16   1.0000      -0.738731       -20.1019
  17   1.0000      -0.737025       -20.0555
  18   1.0000      -0.722618       -19.6634
  19   1.0000      -0.685419       -18.6512
  20   1.0000      -0.675121       -18.3710
  21   1.0000      -0.648201       -17.6384
  22   1.0000      -0.600658       -16.3447
  23   1.0000      -0.563868       -15.3436
  24   1.0000      -0.533695       -14.5226
  25   1.0000      -0.519021       -14.1233
  26   1.0000      -0.514104       -13.9895
  27   1.0000      -0.494515       -13.4564
  28   1.0000      -0.489269       -13.3137
  29   1.0000      -0.462895       -12.5960
  30   1.0000      -0.332935        -9.0596
  31   0.0000       0.020193         0.5495
  32   0.0000       0.029987         0.8160
  33   0.0000       0.031516         0.8576
  34   0.0000       0.035844         0.9754
  35   0.0000       0.046095         1.2543

                 SPIN DOWN ORBITALS
  NO   OCC          E(Eh)            E(eV)
   0   1.0000     -20.588759      -560.2486
   1   1.0000     -20.588741      -560.2481
   2   1.0000     -20.575047      -559.8755
   3   1.0000     -20.575028      -559.8750
   4   1.0000     -11.356547      -309.0273
   5   1.0000     -11.356546      -309.0273
   6   1.0000     -11.353981      -308.9575
   7   1.0000      -7.642229      -207.9556
   8   1.0000      -1.467955       -39.9451
   9   1.0000      -1.418337       -38.5949
  10   1.0000      -1.388636       -37.7867
  11   1.0000      -1.347569       -36.6692
  12   1.0000      -1.013164       -27.5696
  13   1.0000      -0.938895       -25.5486
  14   1.0000      -0.885999       -24.1093
  15   1.0000      -0.779596       -21.2139
  16   1.0000      -0.736143       -20.0315
  17   1.0000      -0.731498       -19.9051
  18   1.0000      -0.717217       -19.5165
  19   1.0000      -0.683955       -18.6114
  20   1.0000      -0.672160       -18.2904
  21   1.0000      -0.639979       -17.4147
  22   1.0000      -0.595524       -16.2050
  23   1.0000      -0.564012       -15.3475
  24   1.0000      -0.529641       -14.4123
  25   1.0000      -0.514139       -13.9904
  26   1.0000      -0.513449       -13.9717
  27   1.0000      -0.492362       -13.3978
  28   1.0000      -0.486890       -13.2489
  29   1.0000      -0.463649       -12.6165
  30   0.0000       0.020337         0.5534
  31   0.0000       0.030014         0.8167
  32   0.0000       0.031523         0.8578
  33   0.0000       0.034163         0.9296
  34   0.0000       0.044973         1.2238

MULLIKEN ATOMIC CHARGES AND SPIN POPULATIONS
--------------------------------------------
   0 C :    0.227605    0.047636
   1 O :   -0.910944    0.000744
   2 C :    0.117566   -0.004372
   3 O :   -0.910944    0.000744
   4 C :    0.227591    0.047636
   5 O :   -1.027730   -0.106532
   6 B :    1.009149    1.130774
   7 O :   -1.027726   -0.106539
   8 H :    0.566545   -0.000320
   9 H :    0.180475    0.001009
  10 H :    0.548781   -0.004025
  11 H :    0.225429   -0.001365
  12 H :    0.225426   -0.001363
  13 H :    0.548778   -0.004027
Sum of atomic charges         :   -0.0000000

LOEWDIN ATOMIC CHARGES AND SPIN POPULATIONS
-------------------------------------------
   0 C :   -0.195883    0.032001
   1 O :    0.903621    0.004922
   2 C :   -0.177014    0.002437
   3 O :    0.903621    0.004922
   4 C :   -0.195883    0.032001
   5 O :    0.850059    0.163597
   6 B :   -0.870502    0.581584
   7 O :    0.850059    0.163597
   8 H :   -0.349779    0.000240
   9 H :   -0.347830    0.000153
  10 H :   -0.345664    0.003370
  11 H :   -0.339570    0.003903
  12 H :   -0.339570    0.003903
  13 H :   -0.345664    0.003370

  Mayer bond orders larger than 0.100000
B(  0-C ,  1-O ) :   0.8329 B(  0-C ,  7-O ) :   0.7022 B(  0-C , 12-H ) :   0.9026
B(  0-C , 13-H ) :   0.6731 B(  1-O ,  2-C ) :   0.8182 B(  2-C ,  3-O ) :   0.8182
B(  2-C ,  8-H ) :   0.6365 B(  2-C ,  9-H ) :   0.9791 B(  3-O ,  4-C ) :   0.8329
B(  4-C ,  5-O ) :   0.7022 B(  4-C , 10-H ) :   0.6730 B(  4-C , 11-H ) :   0.9026
B(  5-O ,  6-B ) :   0.4566 B(  6-B ,  7-O ) :   0.4566

MP2 TOTAL ENERGY:     -443.062617002 Eh
FINAL SINGLE POINT ENERGY      -443.062617002054

DIPOLE MOMENT
-------------
                                X             Y             Z
Electronic contribution:      0.00010      -4.74062      -3.08656
Nuclear contribution   :     -0.00011       5.75729       4.40917
                        -----------------------------------------
Total Dipole Moment    :     -0.00001       1.01667       1.32261
                        -----------------------------------------
Magnitude (a.u.)       :      1.66820
Magnitude (Debye)      :      4.24024

Rotational constants in cm-1:     0.092738     0.089310     0.049663
Rotational constants in MHz :  2780.208023  2677.446403  1488.855804

                             ****ORCA TERMINATED NORMALLY****
TOTAL RUN TIME: 0 days 2 hours 43 minutes 43 seconds 824 msec
