                         Program Version 5.0.4 -  RELEASE  -
|  1> ! ri-mp2 aug-cc-pvdz aug-cc-pvdz/c tightscf
|  2> %pal nprocs 16 end
|  3> %maxcore 3800
|  4> %base "DZ_Si-Cl_23_AB"
|  5> %scf
|  6> STABPerform true
|  7> STABRestartUHFifUnstable true
|  8> end
|  9>
| 10> *xyz 0 1
| 11> Si         0.065454    0.811159    0.000001
| 12> C        -1.531695   -0.051098    0.000006
| 13> C        -2.593909   -0.607980    0.000000
| 14> Cl         1.588319   -0.562464   -0.000002
| 15> H        -3.535304   -1.104922   -0.000001
| 16> H         0.185579    1.632526    1.213214
| 17> H         0.185568    1.632523   -1.213216
| 18> *
| 19>
| 20> $new_job
| 21> ! ri-mp2 aug-cc-pvtz aug-cc-pvtz/c tightscf
| 22> %pal nprocs 16 end
| 23> %maxcore 3800
| 24> %base "TZ_Si-Cl_23_AB"
| 25>
| 26> *xyz 0 1
| 27> Si         0.065454    0.811159    0.000001
| 28> C        -1.531695   -0.051098    0.000006
| 29> C        -2.593909   -0.607980    0.000000
| 30> Cl         1.588319   -0.562464   -0.000002
| 31> H        -3.535304   -1.104922   -0.000001
| 32> H         0.185579    1.632526    1.213214
| 33> H         0.185568    1.632523   -1.213216
| 34> *
| 35>
| 36> $new_job
| 37> ! ri-mp2 aug-cc-pvqz aug-cc-pvqz/c tightscf
| 38> %pal nprocs 16 end
| 39> %maxcore 3800
| 40> %base "QZ_Si-Cl_23_AB"
| 41>
| 42> *xyz 0 1
| 43> Si         0.065454    0.811159    0.000001
| 44> C        -1.531695   -0.051098    0.000006
| 45> C        -2.593909   -0.607980    0.000000
| 46> Cl         1.588319   -0.562464   -0.000002
| 47> H        -3.535304   -1.104922   -0.000001
| 48> H         0.185579    1.632526    1.213214
| 49> H         0.185568    1.632523   -1.213216
| 50> *
| 51>
| 52>
| 53>
| 54>
| 55>                          ****END OF INPUT****
 Total Charge           Charge          ....    0
 Multiplicity           Mult            ....    1
 Number of Electrons    NEL             ....   46
MP2 TOTAL ENERGY:     -826.422980827 Eh
FINAL SINGLE POINT ENERGY      -826.422980826556
MP2 TOTAL ENERGY:     -826.592658977 Eh
FINAL SINGLE POINT ENERGY      -826.592658976620

CARTESIAN COORDINATES (ANGSTROEM)
---------------------------------
  Si     0.065454    0.811159    0.000001
  C     -1.531695   -0.051098    0.000006
  C     -2.593909   -0.607980    0.000000
  Cl     1.588319   -0.562464   -0.000002
  H     -3.535304   -1.104922   -0.000001
  H      0.185579    1.632526    1.213214
  H      0.185568    1.632523   -1.213216

 Multiplicity           Mult            ....    1
 Number of Electrons    NEL             ....   46
 Basis Dimension        Dim             ....  466

ORBITAL ENERGIES
----------------

  NO   OCC          E(Eh)            E(eV)
   0   2.0000    -104.829896     -2852.5665
   1   2.0000     -68.832251     -1873.0208
   2   2.0000     -11.255975      -306.2906
   3   2.0000     -11.228501      -305.5430
   4   2.0000     -10.557393      -287.2813
   5   2.0000      -8.024202      -218.3496
   6   2.0000      -8.023060      -218.3186
   7   2.0000      -8.023044      -218.3181
   8   2.0000      -6.176349      -168.0670
   9   2.0000      -4.283633      -116.5636
  10   2.0000      -4.282896      -116.5435
  11   2.0000      -4.282449      -116.5314
  12   2.0000      -1.101678       -29.9782
  13   2.0000      -1.041166       -28.3316
  14   2.0000      -0.787043       -21.4165
  15   2.0000      -0.721526       -19.6337
  16   2.0000      -0.584195       -15.8968
  17   2.0000      -0.540500       -14.7077
  18   2.0000      -0.537339       -14.6217
  19   2.0000      -0.468017       -12.7354
  20   2.0000      -0.457615       -12.4523
  21   2.0000      -0.419806       -11.4235
  22   2.0000      -0.416994       -11.3470
  23   0.0000       0.022086         0.6010
  24   0.0000       0.033993         0.9250
  25   0.0000       0.038607         1.0506
  26   0.0000       0.038916         1.0590
  27   0.0000       0.047888         1.3031

MULLIKEN ATOMIC CHARGES
-----------------------
   0 Si:    1.430671
   1 C :   -0.655298
   2 C :   -0.361150
   3 Cl:   -0.552325
   4 H :    0.489115
   5 H :   -0.175506
   6 H :   -0.175507
Sum of atomic charges:    0.0000000

LOEWDIN ATOMIC CHARGES
----------------------
   0 Si:   -0.160152
   1 C :   -0.090052
   2 C :    0.451364
   3 Cl:    0.871798
   4 H :   -0.451231
   5 H :   -0.310864
   6 H :   -0.310863

  Mayer bond orders larger than 0.100000
B(  0-Si,  1-C ) :   0.9856 B(  0-Si,  2-C ) :  -0.2132 B(  0-Si,  3-Cl) :   0.4791
B(  0-Si,  5-H ) :   0.8474 B(  0-Si,  6-H ) :   0.8474 B(  1-C ,  2-C ) :   2.1805
B(  2-C ,  4-H ) :   0.7909

MP2 TOTAL ENERGY:     -826.648063026 Eh
FINAL SINGLE POINT ENERGY      -826.648063025571

DIPOLE MOMENT
-------------
                                X             Y             Z
Electronic contribution:      4.52148      -2.56791       0.00000
Nuclear contribution   :     -5.18860       2.78060      -0.00000
                        -----------------------------------------
Total Dipole Moment    :     -0.66712       0.21269      -0.00000
                        -----------------------------------------
Magnitude (a.u.)       :      0.70021
Magnitude (Debye)      :      1.77978

Rotational constants in cm-1:     0.387864     0.078756     0.067008
Rotational constants in MHz : 11627.869825  2361.057824  2008.853978

                             ****ORCA TERMINATED NORMALLY****
TOTAL RUN TIME: 0 days 0 hours 8 minutes 51 seconds 681 msec
