                         Program Version 5.0.4 -  RELEASE  -
|  1> ! ri-mp2 aug-cc-pvdz aug-cc-pvdz/c tightscf
|  2> %pal nprocs 16 end
|  3> %maxcore 3800
|  4> %base "DZ_B-P_66_AB"
|  5> %scf
|  6> STABPerform true
|  7> STABRestartUHFifUnstable true
|  8> end
|  9>
| 10> *xyz 0 1
| 11> P        -0.835232   -0.786255   -0.259695
| 12> B         0.886065    0.058022   -0.021298
| 13> O         1.961606   -0.739804    0.193519
| 14> O         1.094408    1.403701   -0.124434
| 15> C        -1.984968    0.576860    0.251366
| 16> H        -1.705026    1.073647    1.178996
| 17> H        -2.989842    0.173492    0.364867
| 18> H        -2.035953    1.317321   -0.548704
| 19> H         0.303689    1.931687   -0.254095
| 20> H         2.787702   -0.246882    0.253337
| 21> H        -0.800727   -1.517886    0.946648
| 22> *
| 23>
| 24> $new_job
| 25> ! ri-mp2 aug-cc-pvtz aug-cc-pvtz/c tightscf
| 26> %pal nprocs 16 end
| 27> %maxcore 3800
| 28> %base "TZ_B-P_66_AB"
| 29>
| 30> *xyz 0 1
| 31> P        -0.835232   -0.786255   -0.259695
| 32> B         0.886065    0.058022   -0.021298
| 33> O         1.961606   -0.739804    0.193519
| 34> O         1.094408    1.403701   -0.124434
| 35> C        -1.984968    0.576860    0.251366
| 36> H        -1.705026    1.073647    1.178996
| 37> H        -2.989842    0.173492    0.364867
| 38> H        -2.035953    1.317321   -0.548704
| 39> H         0.303689    1.931687   -0.254095
| 40> H         2.787702   -0.246882    0.253337
| 41> H        -0.800727   -1.517886    0.946648
| 42> *
| 43>
| 44> $new_job
| 45> ! ri-mp2 aug-cc-pvqz aug-cc-pvqz/c tightscf
| 46> %pal nprocs 16 end
| 47> %maxcore 3800
| 48> %base "QZ_B-P_66_AB"
| 49>
| 50> *xyz 0 1
| 51> P        -0.835232   -0.786255   -0.259695
| 52> B         0.886065    0.058022   -0.021298
| 53> O         1.961606   -0.739804    0.193519
| 54> O         1.094408    1.403701   -0.124434
| 55> C        -1.984968    0.576860    0.251366
| 56> H        -1.705026    1.073647    1.178996
| 57> H        -2.989842    0.173492    0.364867
| 58> H        -2.035953    1.317321   -0.548704
| 59> H         0.303689    1.931687   -0.254095
| 60> H         2.787702   -0.246882    0.253337
| 61> H        -0.800727   -1.517886    0.946648
| 62> *
| 63>
| 64>
| 65>
| 66>
| 67>                          ****END OF INPUT****
 Total Charge           Charge          ....    0
 Multiplicity           Mult            ....    1
 Number of Electrons    NEL             ....   48
MP2 TOTAL ENERGY:     -557.418182160 Eh
FINAL SINGLE POINT ENERGY      -557.418182159839
MP2 TOTAL ENERGY:     -557.656583825 Eh
FINAL SINGLE POINT ENERGY      -557.656583824652

CARTESIAN COORDINATES (ANGSTROEM)
---------------------------------
  P     -0.835232   -0.786255   -0.259695
  B      0.886065    0.058022   -0.021298
  O      1.961606   -0.739804    0.193519
  O      1.094408    1.403701   -0.124434
  C     -1.984968    0.576860    0.251366
  H     -1.705026    1.073647    1.178996
  H     -2.989842    0.173492    0.364867
  H     -2.035953    1.317321   -0.548704
  H      0.303689    1.931687   -0.254095
  H      2.787702   -0.246882    0.253337
  H     -0.800727   -1.517886    0.946648

 Multiplicity           Mult            ....    1
 Number of Electrons    NEL             ....   48
 Basis Dimension        Dim             ....  680

ORBITAL ENERGIES
----------------

  NO   OCC          E(Eh)            E(eV)
   0   2.0000     -79.919805     -2174.7285
   1   2.0000     -20.578280      -559.9635
   2   2.0000     -20.567743      -559.6767
   3   2.0000     -11.233969      -305.6918
   4   2.0000      -7.649624      -208.1568
   5   2.0000      -7.464652      -203.1235
   6   2.0000      -5.358954      -145.8245
   7   2.0000      -5.358576      -145.8143
   8   2.0000      -5.357946      -145.7971
   9   2.0000      -1.393083       -37.9077
  10   2.0000      -1.351855       -36.7858
  11   2.0000      -0.985282       -26.8109
  12   2.0000      -0.814918       -22.1750
  13   2.0000      -0.766088       -20.8463
  14   2.0000      -0.725730       -19.7481
  15   2.0000      -0.627452       -17.0738
  16   2.0000      -0.592684       -16.1277
  17   2.0000      -0.576583       -15.6896
  18   2.0000      -0.572382       -15.5753
  19   2.0000      -0.564121       -15.3505
  20   2.0000      -0.509602       -13.8670
  21   2.0000      -0.489013       -13.3067
  22   2.0000      -0.449694       -12.2368
  23   2.0000      -0.347185        -9.4474
  24   0.0000       0.020659         0.5622
  25   0.0000       0.031226         0.8497
  26   0.0000       0.035089         0.9548
  27   0.0000       0.038861         1.0575
  28   0.0000       0.048659         1.3241

MULLIKEN ATOMIC CHARGES
-----------------------
   0 P :    0.361404
   1 B :    1.253211
   2 O :   -0.971974
   3 O :   -1.085902
   4 C :   -0.990238
   5 H :    0.246645
   6 H :    0.351278
   7 H :    0.234302
   8 H :    0.370556
   9 H :    0.329122
  10 H :   -0.098403
Sum of atomic charges:   -0.0000000

LOEWDIN ATOMIC CHARGES
----------------------
   0 P :    1.334467
   1 B :   -1.443216
   2 O :    1.272177
   3 O :    1.322662
   4 C :    0.702186
   5 H :   -0.350064
   6 H :   -0.368199
   7 H :   -0.369366
   8 H :   -0.839985
   9 H :   -0.805490
  10 H :   -0.455172

  Mayer bond orders larger than 0.100000
B(  0-P ,  1-B ) :   1.0416 B(  0-P ,  2-O ) :  -0.1093 B(  0-P ,  4-C ) :   0.8740
B(  0-P , 10-H ) :   0.9449 B(  1-B ,  2-O ) :   0.4727 B(  1-B ,  3-O ) :   0.4913
B(  2-O ,  3-O ) :  -0.1328 B(  2-O ,  9-H ) :   0.9283 B(  3-O ,  8-H ) :   0.8973
B(  4-C ,  5-H ) :   0.9132 B(  4-C ,  6-H ) :   0.8894 B(  4-C ,  7-H ) :   0.9348

MP2 TOTAL ENERGY:     -557.733312360 Eh
FINAL SINGLE POINT ENERGY      -557.733312360358

DIPOLE MOMENT
-------------
                                X             Y             Z
Electronic contribution:      3.97525      -2.53152      -1.87775
Nuclear contribution   :     -4.23104       3.38039       2.16594
                        -----------------------------------------
Total Dipole Moment    :     -0.25579       0.84888       0.28819
                        -----------------------------------------
Magnitude (a.u.)       :      0.93224
Magnitude (Debye)      :      2.36957

Rotational constants in cm-1:     0.214189     0.089039     0.066077
Rotational constants in MHz :  6421.213006  2669.335991  1980.942469

                             ****ORCA TERMINATED NORMALLY****
TOTAL RUN TIME: 0 days 0 hours 25 minutes 50 seconds 912 msec
