                         Program Version 5.0.4 -  RELEASE  -
|  1> ! ri-mp2 aug-cc-pvdz aug-cc-pvdz/c tightscf
|  2> %pal nprocs 16 end
|  3> %maxcore 3800
|  4> %base "DZ_S-S_3_A"
|  5> %scf
|  6> STABPerform true
|  7> STABRestartUHFifUnstable true
|  8> end
|  9>
| 10> *xyz 0 2
| 11> S         2.016983   -0.420205   -0.000005
| 12> C         0.415720    0.313540    0.000001
| 13> O         0.342546    1.516150    0.000006
| 14> C        -0.739646   -0.602436    0.000000
| 15> C        -1.974705   -0.149992    0.740210
| 16> C        -1.974707   -0.149988   -0.740206
| 17> H        -1.901445    0.804925    1.240157
| 18> H        -2.532370   -0.912368    1.263981
| 19> H        -2.532372   -0.912360   -1.263981
| 20> H        -1.901447    0.804933   -1.240147
| 21> H        -0.504437   -1.657793   -0.000004
| 22> *
| 23>
| 24> $new_job
| 25> ! ri-mp2 aug-cc-pvtz aug-cc-pvtz/c tightscf
| 26> %pal nprocs 16 end
| 27> %maxcore 3800
| 28> %base "TZ_S-S_3_A"
| 29>
| 30> *xyz 0 2
| 31> S         2.016983   -0.420205   -0.000005
| 32> C         0.415720    0.313540    0.000001
| 33> O         0.342546    1.516150    0.000006
| 34> C        -0.739646   -0.602436    0.000000
| 35> C        -1.974705   -0.149992    0.740210
| 36> C        -1.974707   -0.149988   -0.740206
| 37> H        -1.901445    0.804925    1.240157
| 38> H        -2.532370   -0.912368    1.263981
| 39> H        -2.532372   -0.912360   -1.263981
| 40> H        -1.901447    0.804933   -1.240147
| 41> H        -0.504437   -1.657793   -0.000004
| 42> *
| 43>
| 44> $new_job
| 45> ! ri-mp2 aug-cc-pvqz aug-cc-pvqz/c tightscf
| 46> %pal nprocs 16 end
| 47> %maxcore 3800
| 48> %base "QZ_S-S_3_A"
| 49>
| 50> *xyz 0 2
| 51> S         2.016983   -0.420205   -0.000005
| 52> C         0.415720    0.313540    0.000001
| 53> O         0.342546    1.516150    0.000006
| 54> C        -0.739646   -0.602436    0.000000
| 55> C        -1.974705   -0.149992    0.740210
| 56> C        -1.974707   -0.149988   -0.740206
| 57> H        -1.901445    0.804925    1.240157
| 58> H        -2.532370   -0.912368    1.263981
| 59> H        -2.532372   -0.912360   -1.263981
| 60> H        -1.901447    0.804933   -1.240147
| 61> H        -0.504437   -1.657793   -0.000004
| 62> *
| 63>
| 64>
| 65>
| 66>
| 67>                          ****END OF INPUT****
 Total Charge           Charge          ....    0
 Multiplicity           Mult            ....    2
 Number of Electrons    NEL             ....   53
MP2 TOTAL ENERGY:     -627.622906185 Eh
FINAL SINGLE POINT ENERGY      -627.622906185187
MP2 TOTAL ENERGY:     -627.870149435 Eh
FINAL SINGLE POINT ENERGY      -627.870149434752

CARTESIAN COORDINATES (ANGSTROEM)
---------------------------------
  S      2.016983   -0.420205   -0.000005
  C      0.415720    0.313540    0.000001
  O      0.342546    1.516150    0.000006
  C     -0.739646   -0.602436    0.000000
  C     -1.974705   -0.149992    0.740210
  C     -1.974707   -0.149988   -0.740206
  H     -1.901445    0.804925    1.240157
  H     -2.532370   -0.912368    1.263981
  H     -2.532372   -0.912360   -1.263981
  H     -1.901447    0.804933   -1.240147
  H     -0.504437   -1.657793   -0.000004

 Multiplicity           Mult            ....    2
 Number of Electrons    NEL             ....   53
 Basis Dimension        Dim             ....  714

ORBITAL ENERGIES
----------------
                 SPIN UP ORBITALS
  NO   OCC          E(Eh)            E(eV)
   0   1.0000     -91.998186     -2503.3979
   1   1.0000     -20.554785      -559.3241
   2   1.0000     -11.368511      -309.3529
   3   1.0000     -11.260069      -306.4020
   4   1.0000     -11.251137      -306.1590
   5   1.0000     -11.250392      -306.1387
   6   1.0000      -9.001202      -244.9352
   7   1.0000      -6.697272      -182.2420
   8   1.0000      -6.678192      -181.7228
   9   1.0000      -6.677088      -181.6928
  10   1.0000      -1.411784       -38.4166
  11   1.0000      -1.176099       -32.0033
  12   1.0000      -1.046564       -28.4785
  13   1.0000      -0.900053       -24.4917
  14   1.0000      -0.845767       -23.0145
  15   1.0000      -0.748445       -20.3662
  16   1.0000      -0.696378       -18.9494
  17   1.0000      -0.671340       -18.2681
  18   1.0000      -0.611632       -16.6433
  19   1.0000      -0.582541       -15.8518
  20   1.0000      -0.577604       -15.7174
  21   1.0000      -0.533754       -14.5242
  22   1.0000      -0.492292       -13.3960
  23   1.0000      -0.449330       -12.2269
  24   1.0000      -0.438619       -11.9354
  25   1.0000      -0.420467       -11.4415
  26   1.0000      -0.404956       -11.0194
  27   0.0000       0.022539         0.6133
  28   0.0000       0.033501         0.9116
  29   0.0000       0.034195         0.9305
  30   0.0000       0.040517         1.1025
  31   0.0000       0.054102         1.4722

                 SPIN DOWN ORBITALS
  NO   OCC          E(Eh)            E(eV)
   0   1.0000     -91.988792     -2503.1423
   1   1.0000     -20.553539      -559.2902
   2   1.0000     -11.369370      -309.3763
   3   1.0000     -11.259797      -306.3947
   4   1.0000     -11.251068      -306.1571
   5   1.0000     -11.250325      -306.1369
   6   1.0000      -8.990830      -244.6529
   7   1.0000      -6.673279      -181.5891
   8   1.0000      -6.671403      -181.5381
   9   1.0000      -6.654968      -181.0909
  10   1.0000      -1.407773       -38.3075
  11   1.0000      -1.175347       -31.9828
  12   1.0000      -0.993950       -27.0467
  13   1.0000      -0.870490       -23.6872
  14   1.0000      -0.845559       -23.0088
  15   1.0000      -0.744582       -20.2611
  16   1.0000      -0.683363       -18.5953
  17   1.0000      -0.666680       -18.1413
  18   1.0000      -0.597262       -16.2523
  19   1.0000      -0.581556       -15.8250
  20   1.0000      -0.573423       -15.6036
  21   1.0000      -0.533494       -14.5171
  22   1.0000      -0.468673       -12.7532
  23   1.0000      -0.438378       -11.9289
  24   1.0000      -0.412138       -11.2148
  25   1.0000      -0.385089       -10.4788
  26   0.0000       0.000084         0.0023
  27   0.0000       0.023040         0.6269
  28   0.0000       0.033539         0.9126
  29   0.0000       0.035933         0.9778
  30   0.0000       0.040953         1.1144

MULLIKEN ATOMIC CHARGES AND SPIN POPULATIONS
--------------------------------------------
   0 S :   -0.018033    1.131812
   1 C :    0.436698   -0.148687
   2 O :   -0.749940    0.008200
   3 C :   -0.379870    0.016383
   4 C :   -0.653509    0.001884
   5 C :   -0.653521    0.001882
   6 H :    0.378890    0.000142
   7 H :    0.374352    0.000135
   8 H :    0.374372    0.000139
   9 H :    0.378878    0.000142
  10 H :    0.511682   -0.012032
Sum of atomic charges         :    0.0000000

LOEWDIN ATOMIC CHARGES AND SPIN POPULATIONS
-------------------------------------------
   0 S :    1.052016    0.738201
   1 C :   -1.350889    0.189908
   2 O :    0.600489    0.026188
   3 C :   -0.040670    0.023526
   4 C :    0.580489    0.001539
   5 C :    0.580489    0.001539
   6 H :   -0.285476    0.000322
   7 H :   -0.263246    0.000173
   8 H :   -0.263247    0.000173
   9 H :   -0.285475    0.000322
  10 H :   -0.324480    0.018108

  Mayer bond orders larger than 0.100000
B(  0-S ,  1-C ) :   1.0234 B(  0-S ,  3-C ) :  -0.1669 B(  1-C ,  2-O ) :   1.4467
B(  1-C ,  3-C ) :   0.8095 B(  2-O ,  3-C ) :   0.1299 B(  3-C ,  4-C ) :   0.8640
B(  3-C ,  5-C ) :   0.8639 B(  3-C , 10-H ) :   0.7292 B(  4-C ,  5-C ) :   1.1093
B(  4-C ,  6-H ) :   0.8300 B(  4-C ,  7-H ) :   0.8453 B(  5-C ,  8-H ) :   0.8453
B(  5-C ,  9-H ) :   0.8300

MP2 TOTAL ENERGY:     -627.950110474 Eh
FINAL SINGLE POINT ENERGY      -627.950110474125

DIPOLE MOMENT
-------------
                                X             Y             Z
Electronic contribution:      8.60858       0.73209      -0.00001
Nuclear contribution   :     -9.27927      -1.80666       0.00001
                        -----------------------------------------
Total Dipole Moment    :     -0.67069      -1.07457      -0.00000
                        -----------------------------------------
Magnitude (a.u.)       :      1.26670
Magnitude (Debye)      :      3.21970

Rotational constants in cm-1:     0.228765     0.061581     0.054649
Rotational constants in MHz :  6858.195771  1846.160178  1638.344458

                             ****ORCA TERMINATED NORMALLY****
TOTAL RUN TIME: 0 days 1 hours 28 minutes 3 seconds 417 msec
