                         Program Version 5.0.4 -  RELEASE  -
|  1> ! ri-mp2 aug-cc-pvdz aug-cc-pvdz/c tightscf
|  2> %pal nprocs 16 end
|  3> %maxcore 3800
|  4> %base "DZ_Si-Si_41_AB"
|  5> %scf
|  6> STABPerform true
|  7> STABRestartUHFifUnstable true
|  8> end
|  9>
| 10> *xyz 0 1
| 11> Si         1.217712   -0.882371    0.478738
| 12> Si        -0.843645   -0.935298   -0.616879
| 13> C        -1.747099    0.684743   -0.110769
| 14> H        -1.666578   -2.082844   -0.183133
| 15> H        -0.634467   -0.978479   -2.081032
| 16> O        -2.257971    0.785522    0.975397
| 17> H        -1.769189    1.542440   -0.813906
| 18> C         1.901949    0.860654    0.037312
| 19> H         1.100782   -0.970843    1.951362
| 20> H         2.189658   -1.903656    0.024204
| 21> O         1.219453    1.638925   -0.584335
| 22> H         2.921895    1.172794    0.348725
| 23> *
| 24>
| 25> $new_job
| 26> ! ri-mp2 aug-cc-pvtz aug-cc-pvtz/c tightscf
| 27> %pal nprocs 16 end
| 28> %maxcore 3800
| 29> %base "TZ_Si-Si_41_AB"
| 30>
| 31> *xyz 0 1
| 32> Si         1.217712   -0.882371    0.478738
| 33> Si        -0.843645   -0.935298   -0.616879
| 34> C        -1.747099    0.684743   -0.110769
| 35> H        -1.666578   -2.082844   -0.183133
| 36> H        -0.634467   -0.978479   -2.081032
| 37> O        -2.257971    0.785522    0.975397
| 38> H        -1.769189    1.542440   -0.813906
| 39> C         1.901949    0.860654    0.037312
| 40> H         1.100782   -0.970843    1.951362
| 41> H         2.189658   -1.903656    0.024204
| 42> O         1.219453    1.638925   -0.584335
| 43> H         2.921895    1.172794    0.348725
| 44> *
| 45>
| 46> $new_job
| 47> ! ri-mp2 aug-cc-pvqz aug-cc-pvqz/c tightscf
| 48> %pal nprocs 16 end
| 49> %maxcore 3800
| 50> %base "QZ_Si-Si_41_AB"
| 51>
| 52> *xyz 0 1
| 53> Si         1.217712   -0.882371    0.478738
| 54> Si        -0.843645   -0.935298   -0.616879
| 55> C        -1.747099    0.684743   -0.110769
| 56> H        -1.666578   -2.082844   -0.183133
| 57> H        -0.634467   -0.978479   -2.081032
| 58> O        -2.257971    0.785522    0.975397
| 59> H        -1.769189    1.542440   -0.813906
| 60> C         1.901949    0.860654    0.037312
| 61> H         1.100782   -0.970843    1.951362
| 62> H         2.189658   -1.903656    0.024204
| 63> O         1.219453    1.638925   -0.584335
| 64> H         2.921895    1.172794    0.348725
| 65> *
| 66>
| 67>
| 68>
| 69>
| 70>                          ****END OF INPUT****
 Total Charge           Charge          ....    0
 Multiplicity           Mult            ....    1
 Number of Electrons    NEL             ....   62
MP2 TOTAL ENERGY:     -807.656977617 Eh
FINAL SINGLE POINT ENERGY      -807.656977617081
MP2 TOTAL ENERGY:     -807.917522707 Eh
FINAL SINGLE POINT ENERGY      -807.917522707435

CARTESIAN COORDINATES (ANGSTROEM)
---------------------------------
  Si     1.217712   -0.882371    0.478738
  Si    -0.843645   -0.935298   -0.616879
  C     -1.747099    0.684743   -0.110769
  H     -1.666578   -2.082844   -0.183133
  H     -0.634467   -0.978479   -2.081032
  O     -2.257971    0.785522    0.975397
  H     -1.769189    1.542440   -0.813906
  C      1.901949    0.860654    0.037312
  H      1.100782   -0.970843    1.951362
  H      2.189658   -1.903656    0.024204
  O      1.219453    1.638925   -0.584335
  H      2.921895    1.172794    0.348725

 Multiplicity           Mult            ....    1
 Number of Electrons    NEL             ....   62
 Basis Dimension        Dim             ....  764

ORBITAL ENERGIES
----------------

  NO   OCC          E(Eh)            E(eV)
   0   2.0000     -68.791964     -1871.9245
   1   2.0000     -68.785856     -1871.7583
   2   2.0000     -20.583734      -560.1119
   3   2.0000     -20.566255      -559.6362
   4   2.0000     -11.334593      -308.4300
   5   2.0000     -11.320962      -308.0590
   6   2.0000      -6.143212      -167.1653
   7   2.0000      -6.137055      -166.9978
   8   2.0000      -4.249194      -115.6265
   9   2.0000      -4.249132      -115.6248
  10   2.0000      -4.249067      -115.6230
  11   2.0000      -4.243145      -115.4619
  12   2.0000      -4.243018      -115.4584
  13   2.0000      -4.242885      -115.4548
  14   2.0000      -1.415189       -38.5092
  15   2.0000      -1.399170       -38.0733
  16   2.0000      -0.865093       -23.5404
  17   2.0000      -0.849801       -23.1243
  18   2.0000      -0.756533       -20.5863
  19   2.0000      -0.703497       -19.1431
  20   2.0000      -0.671447       -18.2710
  21   2.0000      -0.653769       -17.7900
  22   2.0000      -0.608031       -16.5454
  23   2.0000      -0.585616       -15.9354
  24   2.0000      -0.556344       -15.1389
  25   2.0000      -0.536226       -14.5914
  26   2.0000      -0.507164       -13.8006
  27   2.0000      -0.494359       -13.4522
  28   2.0000      -0.437703       -11.9105
  29   2.0000      -0.405864       -11.0441
  30   2.0000      -0.386997       -10.5307
  31   0.0000       0.020280         0.5519
  32   0.0000       0.026302         0.7157
  33   0.0000       0.033212         0.9037
  34   0.0000       0.037938         1.0324
  35   0.0000       0.045542         1.2393

MULLIKEN ATOMIC CHARGES
-----------------------
   0 Si:    0.738917
   1 Si:    0.813681
   2 C :    0.044834
   3 H :   -0.240843
   4 H :   -0.215354
   5 O :   -0.796715
   6 H :    0.450853
   7 C :   -0.170778
   8 H :   -0.175581
   9 H :   -0.212973
  10 O :   -0.788869
  11 H :    0.552828
Sum of atomic charges:    0.0000000

LOEWDIN ATOMIC CHARGES
----------------------
   0 Si:    0.734719
   1 Si:    0.702661
   2 C :   -0.352141
   3 H :   -0.280695
   4 H :   -0.276252
   5 O :    0.603715
   6 H :   -0.433673
   7 C :   -0.327292
   8 H :   -0.274233
   9 H :   -0.283008
  10 O :    0.613727
  11 H :   -0.427528

  Mayer bond orders larger than 0.100000
B(  0-Si,  1-Si) :   0.8396 B(  0-Si,  7-C ) :   0.7679 B(  0-Si,  8-H ) :   0.8179
B(  0-Si,  9-H ) :   0.8170 B(  1-Si,  2-C ) :   0.7137 B(  1-Si,  3-H ) :   0.7984
B(  1-Si,  4-H ) :   0.8229 B(  2-C ,  5-O ) :   1.6130 B(  2-C ,  6-H ) :   0.7534
B(  7-C , 10-O ) :   1.7162 B(  7-C , 11-H ) :   0.6133

MP2 TOTAL ENERGY:     -808.004412495 Eh
FINAL SINGLE POINT ENERGY      -808.004412495374

DIPOLE MOMENT
-------------
                                X             Y             Z
Electronic contribution:     -1.06271       2.13876       0.32310
Nuclear contribution   :      2.07102      -3.02527      -0.72798
                        -----------------------------------------
Total Dipole Moment    :      1.00830      -0.88651      -0.40488
                        -----------------------------------------
Magnitude (a.u.)       :      1.40232
Magnitude (Debye)      :      3.56441

Rotational constants in cm-1:     0.096725     0.053501     0.042600
Rotational constants in MHz :  2899.742730  1603.926702  1277.109537

                             ****ORCA TERMINATED NORMALLY****
TOTAL RUN TIME: 0 days 0 hours 45 minutes 12 seconds 137 msec
