                         Program Version 5.0.4 -  RELEASE  -
|  1> ! ri-mp2 aug-cc-pvdz aug-cc-pvdz/c tightscf
|  2> %pal nprocs 16 end
|  3> %maxcore 3800
|  4> %base "DZ_B-Si_29_AB"
|  5> %scf
|  6> STABPerform true
|  7> STABRestartUHFifUnstable true
|  8> end
|  9>
| 10> *xyz 0 1
| 11> B         1.883221    0.923536   -0.000001
| 12> C        -1.198870    0.048251   -0.000002
| 13> N        -2.270592    0.455572    0.000003
| 14> Si         0.548967   -0.570490   -0.000000
| 15> H         0.687634   -1.413203   -1.205693
| 16> H         0.687635   -1.413196    1.205697
| 17> H         1.570028    2.068229    0.000003
| 18> H         3.040425    0.648844   -0.000005
| 19> *
| 20>
| 21> $new_job
| 22> ! ri-mp2 aug-cc-pvtz aug-cc-pvtz/c tightscf
| 23> %pal nprocs 16 end
| 24> %maxcore 3800
| 25> %base "TZ_B-Si_29_AB"
| 26>
| 27> *xyz 0 1
| 28> B         1.883221    0.923536   -0.000001
| 29> C        -1.198870    0.048251   -0.000002
| 30> N        -2.270592    0.455572    0.000003
| 31> Si         0.548967   -0.570490   -0.000000
| 32> H         0.687634   -1.413203   -1.205693
| 33> H         0.687635   -1.413196    1.205697
| 34> H         1.570028    2.068229    0.000003
| 35> H         3.040425    0.648844   -0.000005
| 36> *
| 37>
| 38> $new_job
| 39> ! ri-mp2 aug-cc-pvqz aug-cc-pvqz/c tightscf
| 40> %pal nprocs 16 end
| 41> %maxcore 3800
| 42> %base "QZ_B-Si_29_AB"
| 43>
| 44> *xyz 0 1
| 45> B         1.883221    0.923536   -0.000001
| 46> C        -1.198870    0.048251   -0.000002
| 47> N        -2.270592    0.455572    0.000003
| 48> Si         0.548967   -0.570490   -0.000000
| 49> H         0.687634   -1.413203   -1.205693
| 50> H         0.687635   -1.413196    1.205697
| 51> H         1.570028    2.068229    0.000003
| 52> H         3.040425    0.648844   -0.000005
| 53> *
| 54>
| 55>
| 56>
| 57>
| 58>                          ****END OF INPUT****
 Total Charge           Charge          ....    0
 Multiplicity           Mult            ....    1
 Number of Electrons    NEL             ....   36
MP2 TOTAL ENERGY:     -408.709877139 Eh
FINAL SINGLE POINT ENERGY      -408.709877138583
MP2 TOTAL ENERGY:     -408.845047544 Eh
FINAL SINGLE POINT ENERGY      -408.845047544345

CARTESIAN COORDINATES (ANGSTROEM)
---------------------------------
  B      1.883221    0.923536   -0.000001
  C     -1.198870    0.048251   -0.000002
  N     -2.270592    0.455572    0.000003
  Si     0.548967   -0.570490   -0.000000
  H      0.687634   -1.413203   -1.205693
  H      0.687635   -1.413196    1.205697
  H      1.570028    2.068229    0.000003
  H      3.040425    0.648844   -0.000005

 Multiplicity           Mult            ....    1
 Number of Electrons    NEL             ....   36
 Basis Dimension        Dim             ....  508

ORBITAL ENERGIES
----------------

  NO   OCC          E(Eh)            E(eV)
   0   2.0000     -68.804901     -1872.2765
   1   2.0000     -15.577678      -423.8902
   2   2.0000     -11.250344      -306.1374
   3   2.0000      -7.639123      -207.8711
   4   2.0000      -6.155309      -167.4945
   5   2.0000      -4.262054      -115.9764
   6   2.0000      -4.261434      -115.9595
   7   2.0000      -4.261086      -115.9500
   8   2.0000      -1.221570       -33.2406
   9   2.0000      -0.815635       -22.1946
  10   2.0000      -0.707697       -19.2574
  11   2.0000      -0.617275       -16.7969
  12   2.0000      -0.550809       -14.9883
  13   2.0000      -0.530052       -14.4234
  14   2.0000      -0.520516       -14.1640
  15   2.0000      -0.494410       -13.4536
  16   2.0000      -0.469729       -12.7820
  17   2.0000      -0.439832       -11.9684
  18   0.0000       0.009641         0.2623
  19   0.0000       0.020722         0.5639
  20   0.0000       0.027274         0.7422
  21   0.0000       0.034400         0.9361
  22   0.0000       0.040833         1.1111

MULLIKEN ATOMIC CHARGES
-----------------------
   0 B :    0.323117
   1 C :   -0.077682
   2 N :   -0.519473
   3 Si:    0.873560
   4 H :   -0.125878
   5 H :   -0.125877
   6 H :   -0.146909
   7 H :   -0.200857
Sum of atomic charges:    0.0000000

LOEWDIN ATOMIC CHARGES
----------------------
   0 B :    0.361167
   1 C :   -0.396460
   2 N :    0.294798
   3 Si:    0.771844
   4 H :   -0.261034
   5 H :   -0.261035
   6 H :   -0.251542
   7 H :   -0.257737

  Mayer bond orders larger than 0.100000
B(  0-B ,  3-Si) :   0.8301 B(  0-B ,  6-H ) :   0.9353 B(  0-B ,  7-H ) :   0.9496
B(  1-C ,  2-N ) :   2.6390 B(  1-C ,  3-Si) :   0.7155 B(  3-Si,  4-H ) :   0.8079
B(  3-Si,  5-H ) :   0.8079

MP2 TOTAL ENERGY:     -408.889225132 Eh
FINAL SINGLE POINT ENERGY      -408.889225132198

DIPOLE MOMENT
-------------
                                X             Y             Z
Electronic contribution:     -2.77656       0.49285      -0.00000
Nuclear contribution   :      4.33593      -0.80040       0.00000
                        -----------------------------------------
Total Dipole Moment    :      1.55937      -0.30755      -0.00000
                        -----------------------------------------
Magnitude (a.u.)       :      1.58940
Magnitude (Debye)      :      4.03994

Rotational constants in cm-1:     0.511591     0.111114     0.094280
Rotational constants in MHz : 15337.115314  3331.125140  2826.437098

                             ****ORCA TERMINATED NORMALLY****
TOTAL RUN TIME: 0 days 0 hours 10 minutes 50 seconds 589 msec
