                         Program Version 5.0.4 -  RELEASE  -
|  1> ! ri-mp2 aug-cc-pvdz aug-cc-pvdz/c tightscf
|  2> %pal nprocs 16 end
|  3> %maxcore 3800
|  4> %base "DZ_S-F_8_AB"
|  5> %scf
|  6> STABPerform true
|  7> STABRestartUHFifUnstable true
|  8> end
|  9>
| 10> *xyz 0 1
| 11> F        -1.386545    0.848899    0.113727
| 12> S        -0.680116   -0.576913   -0.186587
| 13> C         0.912612   -0.261518    0.488018
| 14> F         1.746671    0.458516   -0.339553
| 15> H         1.353318   -1.247251    0.661102
| 16> H         0.811740    0.280227    1.428612
| 17> *
| 18>
| 19> $new_job
| 20> ! ri-mp2 aug-cc-pvtz aug-cc-pvtz/c tightscf
| 21> %pal nprocs 16 end
| 22> %maxcore 3800
| 23> %base "TZ_S-F_8_AB"
| 24>
| 25> *xyz 0 1
| 26> F        -1.386545    0.848899    0.113727
| 27> S        -0.680116   -0.576913   -0.186587
| 28> C         0.912612   -0.261518    0.488018
| 29> F         1.746671    0.458516   -0.339553
| 30> H         1.353318   -1.247251    0.661102
| 31> H         0.811740    0.280227    1.428612
| 32> *
| 33>
| 34> $new_job
| 35> ! ri-mp2 aug-cc-pvqz aug-cc-pvqz/c tightscf
| 36> %pal nprocs 16 end
| 37> %maxcore 3800
| 38> %base "QZ_S-F_8_AB"
| 39>
| 40> *xyz 0 1
| 41> F        -1.386545    0.848899    0.113727
| 42> S        -0.680116   -0.576913   -0.186587
| 43> C         0.912612   -0.261518    0.488018
| 44> F         1.746671    0.458516   -0.339553
| 45> H         1.353318   -1.247251    0.661102
| 46> H         0.811740    0.280227    1.428612
| 47> *
| 48>
| 49>
| 50>
| 51>
| 52>                          ****END OF INPUT****
 Total Charge           Charge          ....    0
 Multiplicity           Mult            ....    1
 Number of Electrons    NEL             ....   42
MP2 TOTAL ENERGY:     -636.117791251 Eh
FINAL SINGLE POINT ENERGY      -636.117791251015
MP2 TOTAL ENERGY:     -636.374625026 Eh
FINAL SINGLE POINT ENERGY      -636.374625026432

CARTESIAN COORDINATES (ANGSTROEM)
---------------------------------
  F     -1.386545    0.848899    0.113727
  S     -0.680116   -0.576913   -0.186587
  C      0.912612   -0.261518    0.488018
  F      1.746671    0.458516   -0.339553
  H      1.353318   -1.247251    0.661102
  H      0.811740    0.280227    1.428612

 Multiplicity           Mult            ....    1
 Number of Electrons    NEL             ....   42
 Basis Dimension        Dim             ....  416

ORBITAL ENERGIES
----------------

  NO   OCC          E(Eh)            E(eV)
   0   2.0000     -92.046699     -2504.7180
   1   2.0000     -26.319326      -716.1853
   2   2.0000     -26.302486      -715.7270
   3   2.0000     -11.363563      -309.2183
   4   2.0000      -9.041804      -246.0400
   5   2.0000      -6.723366      -182.9521
   6   2.0000      -6.721431      -182.8994
   7   2.0000      -6.720239      -182.8670
   8   2.0000      -1.621672       -44.1279
   9   2.0000      -1.614807       -43.9411
  10   2.0000      -1.070930       -29.1415
  11   2.0000      -0.896606       -24.3979
  12   2.0000      -0.742963       -20.2171
  13   2.0000      -0.729355       -19.8468
  14   2.0000      -0.724569       -19.7165
  15   2.0000      -0.694415       -18.8960
  16   2.0000      -0.683309       -18.5938
  17   2.0000      -0.633717       -17.2443
  18   2.0000      -0.565069       -15.3763
  19   2.0000      -0.497779       -13.5453
  20   2.0000      -0.396520       -10.7899
  21   0.0000       0.024879         0.6770
  22   0.0000       0.037640         1.0242
  23   0.0000       0.049126         1.3368
  24   0.0000       0.066488         1.8092
  25   0.0000       0.071075         1.9340

MULLIKEN ATOMIC CHARGES
-----------------------
   0 F :   -0.603666
   1 S :    0.641564
   2 C :   -0.078072
   3 F :   -0.582714
   4 H :    0.324619
   5 H :    0.298269
Sum of atomic charges:    0.0000000

LOEWDIN ATOMIC CHARGES
----------------------
   0 F :    0.076463
   1 S :    0.694788
   2 C :   -0.535339
   3 F :    0.693977
   4 H :   -0.475098
   5 H :   -0.454791

  Mayer bond orders larger than 0.100000
B(  0-F ,  1-S ) :   0.6091 B(  1-S ,  2-C ) :   1.0749 B(  2-C ,  3-F ) :   0.5887
B(  2-C ,  4-H ) :   0.8590 B(  2-C ,  5-H ) :   0.8560

MP2 TOTAL ENERGY:     -636.459117753 Eh
FINAL SINGLE POINT ENERGY      -636.459117752952

DIPOLE MOMENT
-------------
                                X             Y             Z
Electronic contribution:     -1.48125       1.38205      -1.60420
Nuclear contribution   :      1.71710      -2.10175       2.17500
                        -----------------------------------------
Total Dipole Moment    :      0.23585      -0.71971       0.57081
                        -----------------------------------------
Magnitude (a.u.)       :      0.94838
Magnitude (Debye)      :      2.41059

Rotational constants in cm-1:     0.426477     0.129039     0.110446
Rotational constants in MHz : 12785.461308  3868.485091  3311.077297

                             ****ORCA TERMINATED NORMALLY****
TOTAL RUN TIME: 0 days 0 hours 5 minutes 43 seconds 587 msec
