                         Program Version 5.0.4 -  RELEASE  -
|  1> ! ri-mp2 aug-cc-pvdz aug-cc-pvdz/c tightscf
|  2> %pal nprocs 16 end
|  3> %maxcore 3800
|  4> %base "DZ_B-Cl_55_A"
|  5> %scf
|  6> STABPerform true
|  7> STABRestartUHFifUnstable true
|  8> end
|  9>
| 10> *xyz 0 2
| 11> Cl         2.296560    0.128399    0.000024
| 12> B         0.626808   -0.135656   -0.000050
| 13> N        -0.600841   -0.333066    0.000004
| 14> N        -1.844970   -0.658556   -0.000022
| 15> C        -2.710218    0.504283   -0.000004
| 16> H        -3.743897    0.168663    0.000007
| 17> H        -2.524852    1.121243   -0.885016
| 18> H        -2.524828    1.121242    0.885003
| 19> *
| 20>
| 21> $new_job
| 22> ! ri-mp2 aug-cc-pvtz aug-cc-pvtz/c tightscf
| 23> %pal nprocs 16 end
| 24> %maxcore 3800
| 25> %base "TZ_B-Cl_55_A"
| 26>
| 27> *xyz 0 2
| 28> Cl         2.296560    0.128399    0.000024
| 29> B         0.626808   -0.135656   -0.000050
| 30> N        -0.600841   -0.333066    0.000004
| 31> N        -1.844970   -0.658556   -0.000022
| 32> C        -2.710218    0.504283   -0.000004
| 33> H        -3.743897    0.168663    0.000007
| 34> H        -2.524852    1.121243   -0.885016
| 35> H        -2.524828    1.121242    0.885003
| 36> *
| 37>
| 38> $new_job
| 39> ! ri-mp2 aug-cc-pvqz aug-cc-pvqz/c tightscf
| 40> %pal nprocs 16 end
| 41> %maxcore 3800
| 42> %base "QZ_B-Cl_55_A"
| 43>
| 44> *xyz 0 2
| 45> Cl         2.296560    0.128399    0.000024
| 46> B         0.626808   -0.135656   -0.000050
| 47> N        -0.600841   -0.333066    0.000004
| 48> N        -1.844970   -0.658556   -0.000022
| 49> C        -2.710218    0.504283   -0.000004
| 50> H        -3.743897    0.168663    0.000007
| 51> H        -2.524852    1.121243   -0.885016
| 52> H        -2.524828    1.121242    0.885003
| 53> *
| 54>
| 55>
| 56>
| 57>
| 58>                          ****END OF INPUT****
 Total Charge           Charge          ....    0
 Multiplicity           Mult            ....    2
 Number of Electrons    NEL             ....   45
MP2 TOTAL ENERGY:     -633.381166558 Eh
FINAL SINGLE POINT ENERGY      -633.381166558407
MP2 TOTAL ENERGY:     -633.589315531 Eh
FINAL SINGLE POINT ENERGY      -633.589315530574

CARTESIAN COORDINATES (ANGSTROEM)
---------------------------------
  Cl     2.296560    0.128399    0.000024
  B      0.626808   -0.135656   -0.000050
  N     -0.600841   -0.333066    0.000004
  N     -1.844970   -0.658556   -0.000022
  C     -2.710218    0.504283   -0.000004
  H     -3.743897    0.168663    0.000007
  H     -2.524852    1.121243   -0.885016
  H     -2.524828    1.121242    0.885003

 Multiplicity           Mult            ....    2
 Number of Electrons    NEL             ....   45
 Basis Dimension        Dim             ....  542

ORBITAL ENERGIES
----------------
                 SPIN UP ORBITALS
  NO   OCC          E(Eh)            E(eV)
   0   1.0000    -104.876304     -2853.8293
   1   1.0000     -15.622645      -425.1138
   2   1.0000     -15.584342      -424.0715
   3   1.0000     -11.250840      -306.1509
   4   1.0000     -10.603177      -288.5271
   5   1.0000      -8.069803      -219.5905
   6   1.0000      -8.069320      -219.5774
   7   1.0000      -8.068752      -219.5619
   8   1.0000      -7.674112      -208.8232
   9   1.0000      -1.339013       -36.4364
  10   1.0000      -1.154385       -31.4124
  11   1.0000      -1.058124       -28.7930
  12   1.0000      -0.910868       -24.7860
  13   1.0000      -0.699571       -19.0363
  14   1.0000      -0.664850       -18.0915
  15   1.0000      -0.641892       -17.4668
  16   1.0000      -0.626315       -17.0429
  17   1.0000      -0.547699       -14.9036
  18   1.0000      -0.537797       -14.6342
  19   1.0000      -0.511784       -13.9263
  20   1.0000      -0.510770       -13.8988
  21   1.0000      -0.372088       -10.1250
  22   1.0000      -0.349964        -9.5230
  23   0.0000       0.025383         0.6907
  24   0.0000       0.034555         0.9403
  25   0.0000       0.037340         1.0161
  26   0.0000       0.038332         1.0431
  27   0.0000       0.051116         1.3909

                 SPIN DOWN ORBITALS
  NO   OCC          E(Eh)            E(eV)
   0   1.0000    -104.876151     -2853.8252
   1   1.0000     -15.593179      -424.3120
   2   1.0000     -15.591916      -424.2776
   3   1.0000     -11.253729      -306.2295
   4   1.0000     -10.603011      -288.5226
   5   1.0000      -8.070591      -219.6119
   6   1.0000      -8.068505      -219.5552
   7   1.0000      -8.067988      -219.5411
   8   1.0000      -7.668458      -208.6693
   9   1.0000      -1.299375       -35.3578
  10   1.0000      -1.152109       -31.3505
  11   1.0000      -1.039756       -28.2932
  12   1.0000      -0.888662       -24.1817
  13   1.0000      -0.672980       -18.3127
  14   1.0000      -0.637992       -17.3606
  15   1.0000      -0.622692       -16.9443
  16   1.0000      -0.591429       -16.0936
  17   1.0000      -0.535605       -14.5745
  18   1.0000      -0.531032       -14.4501
  19   1.0000      -0.503208       -13.6930
  20   1.0000      -0.476080       -12.9548
  21   1.0000      -0.362101        -9.8533
  22   0.0000       0.025783         0.7016
  23   0.0000       0.034718         0.9447
  24   0.0000       0.037048         1.0081
  25   0.0000       0.038322         1.0428
  26   0.0000       0.051242         1.3944

MULLIKEN ATOMIC CHARGES AND SPIN POPULATIONS
--------------------------------------------
   0 Cl:   -0.257232    0.015691
   1 B :    0.427817    0.294183
   2 N :    0.248714   -0.281484
   3 N :   -0.565353    0.994319
   4 C :   -0.782276   -0.122921
   5 H :    0.408160    0.004484
   6 H :    0.260079    0.047866
   7 H :    0.260092    0.047863
Sum of atomic charges         :    0.0000000

LOEWDIN ATOMIC CHARGES AND SPIN POPULATIONS
-------------------------------------------
   0 Cl:    1.269280    0.057546
   1 B :   -1.419913    0.137811
   2 N :    0.175763    0.128369
   3 N :    0.323462    0.529155
   4 C :    0.638294    0.111016
   5 H :   -0.341217    0.001281
   6 H :   -0.322834    0.017412
   7 H :   -0.322835    0.017411

  Mayer bond orders larger than 0.100000
B(  0-Cl,  1-B ) :   1.1258 B(  1-B ,  2-N ) :   2.1935 B(  1-B ,  3-N ) :   0.1819
B(  2-N ,  3-N ) :   0.2441 B(  3-N ,  4-C ) :   1.0627 B(  4-C ,  5-H ) :   0.8442
B(  4-C ,  6-H ) :   0.9220 B(  4-C ,  7-H ) :   0.9220

MP2 TOTAL ENERGY:     -633.657960633 Eh
FINAL SINGLE POINT ENERGY      -633.657960632631

DIPOLE MOMENT
-------------
                                X             Y             Z
Electronic contribution:     12.07551      -1.56999      -0.00003
Nuclear contribution   :    -11.92168       2.20570      -0.00000
                        -----------------------------------------
Total Dipole Moment    :      0.15383       0.63572      -0.00003
                        -----------------------------------------
Magnitude (a.u.)       :      0.65406
Magnitude (Debye)      :      1.66249

Rotational constants in cm-1:     1.094008     0.046939     0.045391
Rotational constants in MHz : 32797.521543  1407.209029  1360.789051

                             ****ORCA TERMINATED NORMALLY****
TOTAL RUN TIME: 0 days 0 hours 29 minutes 54 seconds 245 msec
