                         Program Version 5.0.4 -  RELEASE  -
|  1> ! ri-mp2 aug-cc-pvdz aug-cc-pvdz/c tightscf
|  2> %pal nprocs 16 end
|  3> %maxcore 3800
|  4> %base "DZ_S-S_1_AB"
|  5> %scf
|  6> STABPerform true
|  7> STABRestartUHFifUnstable true
|  8> end
|  9>
| 10> *xyz 0 1
| 11> S         2.489176    0.579370    0.084409
| 12> S         1.200939   -1.005741   -0.038305
| 13> C        -0.284982   -0.444587    0.847502
| 14> C        -1.431676    0.115835   -0.002822
| 15> C        -2.535375    0.547937    0.963588
| 16> H        -2.873792   -0.289316    1.576752
| 17> H        -3.397667    0.929879    0.415052
| 18> H        -2.186984    1.336936    1.632449
| 19> C        -1.969930   -0.964347   -0.937803
| 20> H        -2.337417   -1.824223   -0.374141
| 21> H        -1.196643   -1.313108   -1.622806
| 22> H        -2.797112   -0.577181   -1.534458
| 23> C        -0.975086    1.320885   -0.820410
| 24> H        -0.540220    2.092250   -0.182870
| 25> H        -1.821292    1.758888   -1.351674
| 26> H        -0.231854    1.031425   -1.563475
| 27> H         0.043599    0.284463    1.587120
| 28> H        -0.634459   -1.326158    1.389523
| 29> H         2.114290    1.263743   -1.009469
| 30> *
| 31>
| 32> $new_job
| 33> ! ri-mp2 aug-cc-pvtz aug-cc-pvtz/c tightscf
| 34> %pal nprocs 16 end
| 35> %maxcore 3800
| 36> %base "TZ_S-S_1_AB"
| 37>
| 38> *xyz 0 1
| 39> S         2.489176    0.579370    0.084409
| 40> S         1.200939   -1.005741   -0.038305
| 41> C        -0.284982   -0.444587    0.847502
| 42> C        -1.431676    0.115835   -0.002822
| 43> C        -2.535375    0.547937    0.963588
| 44> H        -2.873792   -0.289316    1.576752
| 45> H        -3.397667    0.929879    0.415052
| 46> H        -2.186984    1.336936    1.632449
| 47> C        -1.969930   -0.964347   -0.937803
| 48> H        -2.337417   -1.824223   -0.374141
| 49> H        -1.196643   -1.313108   -1.622806
| 50> H        -2.797112   -0.577181   -1.534458
| 51> C        -0.975086    1.320885   -0.820410
| 52> H        -0.540220    2.092250   -0.182870
| 53> H        -1.821292    1.758888   -1.351674
| 54> H        -0.231854    1.031425   -1.563475
| 55> H         0.043599    0.284463    1.587120
| 56> H        -0.634459   -1.326158    1.389523
| 57> H         2.114290    1.263743   -1.009469
| 58> *
| 59>
| 60> $new_job
| 61> ! ri-mp2 aug-cc-pvqz aug-cc-pvqz/c tightscf
| 62> %pal nprocs 16 end
| 63> %maxcore 3800
| 64> %base "QZ_S-S_1_AB"
| 65>
| 66> *xyz 0 1
| 67> S         2.489176    0.579370    0.084409
| 68> S         1.200939   -1.005741   -0.038305
| 69> C        -0.284982   -0.444587    0.847502
| 70> C        -1.431676    0.115835   -0.002822
| 71> C        -2.535375    0.547937    0.963588
| 72> H        -2.873792   -0.289316    1.576752
| 73> H        -3.397667    0.929879    0.415052
| 74> H        -2.186984    1.336936    1.632449
| 75> C        -1.969930   -0.964347   -0.937803
| 76> H        -2.337417   -1.824223   -0.374141
| 77> H        -1.196643   -1.313108   -1.622806
| 78> H        -2.797112   -0.577181   -1.534458
| 79> C        -0.975086    1.320885   -0.820410
| 80> H        -0.540220    2.092250   -0.182870
| 81> H        -1.821292    1.758888   -1.351674
| 82> H        -0.231854    1.031425   -1.563475
| 83> H         0.043599    0.284463    1.587120
| 84> H        -0.634459   -1.326158    1.389523
| 85> H         2.114290    1.263743   -1.009469
| 86> *
| 87>
| 88>
| 89>
| 90>
| 91>                          ****END OF INPUT****
 Total Charge           Charge          ....    0
 Multiplicity           Mult            ....    1
 Number of Electrons    NEL             ....   74
MP2 TOTAL ENERGY:     -992.468053418 Eh
FINAL SINGLE POINT ENERGY      -992.468053417817
MP2 TOTAL ENERGY:     -992.765214715 Eh
FINAL SINGLE POINT ENERGY      -992.765214714524

CARTESIAN COORDINATES (ANGSTROEM)
---------------------------------
  S      2.489176    0.579370    0.084409
  S      1.200939   -1.005741   -0.038305
  C     -0.284982   -0.444587    0.847502
  C     -1.431676    0.115835   -0.002822
  C     -2.535375    0.547937    0.963588
  H     -2.873792   -0.289316    1.576752
  H     -3.397667    0.929879    0.415052
  H     -2.186984    1.336936    1.632449
  C     -1.969930   -0.964347   -0.937803
  H     -2.337417   -1.824223   -0.374141
  H     -1.196643   -1.313108   -1.622806
  H     -2.797112   -0.577181   -1.534458
  C     -0.975086    1.320885   -0.820410
  H     -0.540220    2.092250   -0.182870
  H     -1.821292    1.758888   -1.351674
  H     -0.231854    1.031425   -1.563475
  H      0.043599    0.284463    1.587120
  H     -0.634459   -1.326158    1.389523
  H      2.114290    1.263743   -1.009469

 Multiplicity           Mult            ....    1
 Number of Electrons    NEL             ....   74
 Basis Dimension        Dim             .... 1120

ORBITAL ENERGIES
----------------

  NO   OCC          E(Eh)            E(eV)
   0   2.0000     -91.976805     -2502.8161
   1   2.0000     -91.971436     -2502.6700
   2   2.0000     -11.256865      -306.3149
   3   2.0000     -11.242516      -305.9244
   4   2.0000     -11.217510      -305.2440
   5   2.0000     -11.214610      -305.1650
   6   2.0000     -11.213266      -305.1285
   7   2.0000      -8.977644      -244.2941
   8   2.0000      -8.971915      -244.1382
   9   2.0000      -6.658996      -181.2005
  10   2.0000      -6.657999      -181.1734
  11   2.0000      -6.657077      -181.1483
  12   2.0000      -6.653334      -181.0464
  13   2.0000      -6.652055      -181.0116
  14   2.0000      -6.651340      -180.9922
  15   2.0000      -1.130788       -30.7703
  16   2.0000      -1.055376       -28.7182
  17   2.0000      -0.956383       -26.0245
  18   2.0000      -0.940345       -25.5881
  19   2.0000      -0.938423       -25.5358
  20   2.0000      -0.827815       -22.5260
  21   2.0000      -0.737679       -20.0733
  22   2.0000      -0.639622       -17.4050
  23   2.0000      -0.633189       -17.2300
  24   2.0000      -0.611410       -16.6373
  25   2.0000      -0.580748       -15.8030
  26   2.0000      -0.568897       -15.4805
  27   2.0000      -0.547032       -14.8855
  28   2.0000      -0.527203       -14.3459
  29   2.0000      -0.520376       -14.1601
  30   2.0000      -0.508037       -13.8244
  31   2.0000      -0.484922       -13.1954
  32   2.0000      -0.472173       -12.8485
  33   2.0000      -0.464137       -12.6298
  34   2.0000      -0.445071       -12.1110
  35   2.0000      -0.368130       -10.0173
  36   2.0000      -0.356145        -9.6912
  37   0.0000       0.024453         0.6654
  38   0.0000       0.029865         0.8127
  39   0.0000       0.031804         0.8654
  40   0.0000       0.035392         0.9631
  41   0.0000       0.046924         1.2769

MULLIKEN ATOMIC CHARGES
-----------------------
   0 S :   -0.271616
   1 S :   -0.144978
   2 C :   -0.580131
   3 C :    1.573676
   4 C :   -1.116478
   5 H :    0.238127
   6 H :    0.225831
   7 H :    0.236771
   8 C :   -1.049162
   9 H :    0.208873
  10 H :    0.237081
  11 H :    0.247793
  12 C :   -1.105267
  13 H :    0.253244
  14 H :    0.255161
  15 H :    0.236263
  16 H :    0.221829
  17 H :    0.249814
  18 H :    0.083170
Sum of atomic charges:   -0.0000000

LOEWDIN ATOMIC CHARGES
----------------------
   0 S :    1.065021
   1 S :    0.796119
   2 C :    0.064328
   3 C :   -0.394360
   4 C :    0.899154
   5 H :   -0.268820
   6 H :   -0.268626
   7 H :   -0.267727
   8 C :    0.878192
   9 H :   -0.270182
  10 H :   -0.302029
  11 H :   -0.269041
  12 C :    0.856761
  13 H :   -0.276253
  14 H :   -0.267805
  15 H :   -0.323403
  16 H :   -0.392453
  17 H :   -0.373025
  18 H :   -0.885852

  Mayer bond orders larger than 0.100000
B(  0-S ,  1-S ) :   1.1857 B(  0-S ,  2-C ) :  -0.1387 B(  0-S , 18-H ) :   1.0005
B(  1-S ,  2-C ) :   0.7396 B(  2-C ,  3-C ) :   0.5154 B(  2-C ,  4-C ) :   0.1157
B(  2-C , 16-H ) :   1.0110 B(  2-C , 17-H ) :   0.9974 B(  3-C ,  4-C ) :   0.2467
B(  3-C ,  5-H ) :  -0.1261 B(  3-C ,  6-H ) :  -0.1231 B(  3-C ,  7-H ) :  -0.1353
B(  3-C ,  8-C ) :   0.3573 B(  3-C ,  9-H ) :  -0.1168 B(  3-C , 10-H ) :  -0.1266
B(  3-C , 12-C ) :   0.3773 B(  3-C , 13-H ) :  -0.1017 B(  3-C , 15-H ) :  -0.1205
B(  4-C ,  5-H ) :   1.0440 B(  4-C ,  6-H ) :   1.0493 B(  4-C ,  7-H ) :   1.0575
B(  4-C ,  8-C ) :   0.1366 B(  4-C , 12-C ) :   0.1357 B(  8-C ,  9-H ) :   1.0618
B(  8-C , 10-H ) :   1.0600 B(  8-C , 11-H ) :   1.0188 B(  8-C , 12-C ) :   0.1217
B( 12-C , 13-H ) :   1.0337 B( 12-C , 14-H ) :   1.0387 B( 12-C , 15-H ) :   1.0245

MP2 TOTAL ENERGY:     -992.856887416 Eh
FINAL SINGLE POINT ENERGY      -992.856887415545

DIPOLE MOMENT
-------------
                                X             Y             Z
Electronic contribution:     15.49371      -3.09371       1.05423
Nuclear contribution   :    -16.29065       3.44790      -1.06006
                        -----------------------------------------
Total Dipole Moment    :     -0.79694       0.35419      -0.00584
                        -----------------------------------------
Magnitude (a.u.)       :      0.87212
Magnitude (Debye)      :      2.21676

Rotational constants in cm-1:     0.104905     0.032981     0.030442
Rotational constants in MHz :  3144.961706   988.735865   912.616795

                             ****ORCA TERMINATED NORMALLY****
TOTAL RUN TIME: 0 days 3 hours 25 minutes 41 seconds 159 msec
