                         Program Version 5.0.4 -  RELEASE  -
|  1> ! ri-mp2 aug-cc-pvdz aug-cc-pvdz/c tightscf
|  2> %pal nprocs 16 end
|  3> %maxcore 3800
|  4> %base "DZ_Si-Si_111_A"
|  5> %scf
|  6> STABPerform true
|  7> STABRestartUHFifUnstable true
|  8> end
|  9>
| 10> *xyz 0 2
| 11> Si         1.070460    0.023702   -0.101439
| 12> S        -1.055340   -0.083903    0.034300
| 13> H         1.612202    1.101404    0.764865
| 14> H         1.552095   -1.299957    0.355291
| 15> H        -1.265300    1.209178   -0.248811
| 16> *
| 17>
| 18> $new_job
| 19> ! ri-mp2 aug-cc-pvtz aug-cc-pvtz/c tightscf
| 20> %pal nprocs 16 end
| 21> %maxcore 3800
| 22> %base "TZ_Si-Si_111_A"
| 23>
| 24> *xyz 0 2
| 25> Si         1.070460    0.023702   -0.101439
| 26> S        -1.055340   -0.083903    0.034300
| 27> H         1.612202    1.101404    0.764865
| 28> H         1.552095   -1.299957    0.355291
| 29> H        -1.265300    1.209178   -0.248811
| 30> *
| 31>
| 32> $new_job
| 33> ! ri-mp2 aug-cc-pvqz aug-cc-pvqz/c tightscf
| 34> %pal nprocs 16 end
| 35> %maxcore 3800
| 36> %base "QZ_Si-Si_111_A"
| 37>
| 38> *xyz 0 2
| 39> Si         1.070460    0.023702   -0.101439
| 40> S        -1.055340   -0.083903    0.034300
| 41> H         1.612202    1.101404    0.764865
| 42> H         1.552095   -1.299957    0.355291
| 43> H        -1.265300    1.209178   -0.248811
| 44> *
| 45>
| 46>
| 47>
| 48>
| 49>                          ****END OF INPUT****
 Total Charge           Charge          ....    0
 Multiplicity           Mult            ....    2
 Number of Electrons    NEL             ....   33
MP2 TOTAL ENERGY:     -688.432686201 Eh
FINAL SINGLE POINT ENERGY      -688.432686200842
MP2 TOTAL ENERGY:     -688.519503935 Eh
FINAL SINGLE POINT ENERGY      -688.519503935443

CARTESIAN COORDINATES (ANGSTROEM)
---------------------------------
  Si     1.070460    0.023702   -0.101439
  S     -1.055340   -0.083903    0.034300
  H      1.612202    1.101404    0.764865
  H      1.552095   -1.299957    0.355291
  H     -1.265300    1.209178   -0.248811

 Multiplicity           Mult            ....    2
 Number of Electrons    NEL             ....   33
 Basis Dimension        Dim             ....  306

ORBITAL ENERGIES
----------------
                 SPIN UP ORBITALS
  NO   OCC          E(Eh)            E(eV)
   0   1.0000     -91.958175     -2502.3092
   1   1.0000     -68.808467     -1872.3736
   2   1.0000      -8.962435      -243.8803
   3   1.0000      -6.644773      -180.8135
   4   1.0000      -6.643360      -180.7750
   5   1.0000      -6.642217      -180.7439
   6   1.0000      -6.156275      -167.5208
   7   1.0000      -4.267918      -116.1360
   8   1.0000      -4.259268      -115.9006
   9   1.0000      -4.258585      -115.8820
  10   1.0000      -0.980470       -26.6799
  11   1.0000      -0.712782       -19.3958
  12   1.0000      -0.561010       -15.2658
  13   1.0000      -0.496306       -13.5052
  14   1.0000      -0.470112       -12.7924
  15   1.0000      -0.415100       -11.2955
  16   1.0000      -0.325099        -8.8464
  17   0.0000       0.025677         0.6987
  18   0.0000       0.034700         0.9442
  19   0.0000       0.041185         1.1207
  20   0.0000       0.045996         1.2516
  21   0.0000       0.058135         1.5819

                 SPIN DOWN ORBITALS
  NO   OCC          E(Eh)            E(eV)
   0   1.0000     -91.957100     -2502.2799
   1   1.0000     -68.802830     -1872.2202
   2   1.0000      -8.961235      -243.8476
   3   1.0000      -6.642954      -180.7640
   4   1.0000      -6.642155      -180.7422
   5   1.0000      -6.639399      -180.6672
   6   1.0000      -6.147369      -167.2784
   7   1.0000      -4.255611      -115.8011
   8   1.0000      -4.255070      -115.7863
   9   1.0000      -4.246624      -115.5565
  10   1.0000      -0.971654       -26.4401
  11   1.0000      -0.673428       -18.3249
  12   1.0000      -0.554050       -15.0765
  13   1.0000      -0.486490       -13.2381
  14   1.0000      -0.451241       -12.2789
  15   1.0000      -0.388690       -10.5768
  16   0.0000       0.021253         0.5783
  17   0.0000       0.031186         0.8486
  18   0.0000       0.035791         0.9739
  19   0.0000       0.041548         1.1306
  20   0.0000       0.057283         1.5587

MULLIKEN ATOMIC CHARGES AND SPIN POPULATIONS
--------------------------------------------
   0 Si:    0.733736    0.864708
   1 S :   -0.426741    0.070220
   2 H :   -0.194445    0.050204
   3 H :   -0.205104    0.021366
   4 H :    0.092553   -0.006498
Sum of atomic charges         :   -0.0000000

LOEWDIN ATOMIC CHARGES AND SPIN POPULATIONS
-------------------------------------------
   0 Si:    0.503445    0.554921
   1 S :    1.256309    0.165338
   2 H :   -0.407412    0.137668
   3 H :   -0.423268    0.122103
   4 H :   -0.929073    0.019971

  Mayer bond orders larger than 0.100000
B(  0-Si,  1-S ) :   0.8887 B(  0-Si,  2-H ) :   0.8998 B(  0-Si,  3-H ) :   0.9003
B(  1-S ,  4-H ) :   1.0003

MP2 TOTAL ENERGY:     -688.548011978 Eh
FINAL SINGLE POINT ENERGY      -688.548011977996

DIPOLE MOMENT
-------------
                                X             Y             Z
Electronic contribution:     -1.58379      -0.66558      -0.93345
Nuclear contribution   :      1.83131       0.99266       0.85988
                        -----------------------------------------
Total Dipole Moment    :      0.24752       0.32707      -0.07356
                        -----------------------------------------
Magnitude (a.u.)       :      0.41672
Magnitude (Debye)      :      1.05921

Rotational constants in cm-1:     3.002136     0.222884     0.212890
Rotational constants in MHz : 90001.772613  6681.895136  6382.292075

                             ****ORCA TERMINATED NORMALLY****
TOTAL RUN TIME: 0 days 0 hours 5 minutes 42 seconds 849 msec
