                         Program Version 5.0.4 -  RELEASE  -
|  1> ! ri-mp2 aug-cc-pvdz aug-cc-pvdz/c tightscf
|  2> %pal nprocs 16 end
|  3> %maxcore 3800
|  4> %base "DZ_B-P_61_AB"
|  5>
|  6> *xyz 0 1
|  7> C         2.192988    0.819954   -0.798919
|  8> C         0.880375    1.212843   -0.620013
|  9> C         2.729190   -0.218977   -0.043023
| 10> C         1.905402   -0.853397    0.887536
| 11> C         0.593347   -0.460094    1.047416
| 12> C         0.046202    0.582738    0.299596
| 13> H        -0.021008   -0.976583    1.774271
| 14> H         2.814127    1.327899   -1.526542
| 15> H         0.494718    2.036991   -1.207320
| 16> B        -2.605221   -0.408135   -0.275587
| 17> O        -3.930728   -0.549856   -0.020543
| 18> O        -1.986528   -1.323037   -1.070799
| 19> N         4.029975   -0.645245   -0.241192
| 20> H         4.653986    0.009792   -0.680209
| 21> H         4.453944   -1.156929    0.513505
| 22> H         2.301965   -1.665487    1.484818
| 23> H        -4.308555   -1.331066   -0.439882
| 24> H        -1.036835   -1.183612   -1.149808
| 25> P        -1.690391    1.142813    0.439651
| 26> H        -1.927177    0.838921    1.797857
| 27> *
| 28>
| 29> $new_job
| 30> ! ri-mp2 aug-cc-pvtz aug-cc-pvtz/c tightscf
| 31> %pal nprocs 16 end
| 32> %maxcore 3800
| 33> %base "TZ_B-P_61_AB"
| 34>
| 35> *xyz 0 1
| 36> C         2.192988    0.819954   -0.798919
| 37> C         0.880375    1.212843   -0.620013
| 38> C         2.729190   -0.218977   -0.043023
| 39> C         1.905402   -0.853397    0.887536
| 40> C         0.593347   -0.460094    1.047416
| 41> C         0.046202    0.582738    0.299596
| 42> H        -0.021008   -0.976583    1.774271
| 43> H         2.814127    1.327899   -1.526542
| 44> H         0.494718    2.036991   -1.207320
| 45> B        -2.605221   -0.408135   -0.275587
| 46> O        -3.930728   -0.549856   -0.020543
| 47> O        -1.986528   -1.323037   -1.070799
| 48> N         4.029975   -0.645245   -0.241192
| 49> H         4.653986    0.009792   -0.680209
| 50> H         4.453944   -1.156929    0.513505
| 51> H         2.301965   -1.665487    1.484818
| 52> H        -4.308555   -1.331066   -0.439882
| 53> H        -1.036835   -1.183612   -1.149808
| 54> P        -1.690391    1.142813    0.439651
| 55> H        -1.927177    0.838921    1.797857
| 56> *
| 57>
| 58> $new_job
| 59> ! ri-mp2 aug-cc-pvqz aug-cc-pvqz/c tightscf
| 60> %pal nprocs 16 end
| 61> %maxcore 3800
| 62> %base "QZ_B-P_61_AB"
| 63>
| 64> *xyz 0 1
| 65> C         2.192988    0.819954   -0.798919
| 66> C         0.880375    1.212843   -0.620013
| 67> C         2.729190   -0.218977   -0.043023
| 68> C         1.905402   -0.853397    0.887536
| 69> C         0.593347   -0.460094    1.047416
| 70> C         0.046202    0.582738    0.299596
| 71> H        -0.021008   -0.976583    1.774271
| 72> H         2.814127    1.327899   -1.526542
| 73> H         0.494718    2.036991   -1.207320
| 74> B        -2.605221   -0.408135   -0.275587
| 75> O        -3.930728   -0.549856   -0.020543
| 76> O        -1.986528   -1.323037   -1.070799
| 77> N         4.029975   -0.645245   -0.241192
| 78> H         4.653986    0.009792   -0.680209
| 79> H         4.453944   -1.156929    0.513505
| 80> H         2.301965   -1.665487    1.484818
| 81> H        -4.308555   -1.331066   -0.439882
| 82> H        -1.036835   -1.183612   -1.149808
| 83> P        -1.690391    1.142813    0.439651
| 84> H        -1.927177    0.838921    1.797857
| 85> *
| 86>
| 87>
| 88>
| 89>
| 90>                          ****END OF INPUT****
 Total Charge           Charge          ....    0
 Multiplicity           Mult            ....    1
 Number of Electrons    NEL             ....   88
MP2 TOTAL ENERGY:     -803.825836878 Eh
FINAL SINGLE POINT ENERGY      -803.825836878301
MP2 TOTAL ENERGY:     -804.271137320 Eh
FINAL SINGLE POINT ENERGY      -804.271137320159

CARTESIAN COORDINATES (ANGSTROEM)
---------------------------------
  C      2.192988    0.819954   -0.798919
  C      0.880375    1.212843   -0.620013
  C      2.729190   -0.218977   -0.043023
  C      1.905402   -0.853397    0.887536
  C      0.593347   -0.460094    1.047416
  C      0.046202    0.582738    0.299596
  H     -0.021008   -0.976583    1.774271
  H      2.814127    1.327899   -1.526542
  H      0.494718    2.036991   -1.207320
  B     -2.605221   -0.408135   -0.275587
  O     -3.930728   -0.549856   -0.020543
  O     -1.986528   -1.323037   -1.070799
  N      4.029975   -0.645245   -0.241192
  H      4.653986    0.009792   -0.680209
  H      4.453944   -1.156929    0.513505
  H      2.301965   -1.665487    1.484818
  H     -4.308555   -1.331066   -0.439882
  H     -1.036835   -1.183612   -1.149808
  P     -1.690391    1.142813    0.439651
  H     -1.927177    0.838921    1.797857

 Multiplicity           Mult            ....    1
 Number of Electrons    NEL             ....   88
 Basis Dimension        Dim             .... 1298

ORBITAL ENERGIES
----------------

  NO   OCC          E(Eh)            E(eV)
   0   2.0000     -79.916354     -2174.6345
   1   2.0000     -20.566510      -559.6432
   2   2.0000     -20.562813      -559.5426
   3   2.0000     -15.574698      -423.8091
   4   2.0000     -11.289595      -307.2055
   5   2.0000     -11.245958      -306.0181
   6   2.0000     -11.244351      -305.9743
   7   2.0000     -11.231954      -305.6370
   8   2.0000     -11.230588      -305.5998
   9   2.0000     -11.229933      -305.5820
  10   2.0000      -7.641975      -207.9487
  11   2.0000      -7.461181      -203.0291
  12   2.0000      -5.355525      -145.7313
  13   2.0000      -5.355003      -145.7170
  14   2.0000      -5.354595      -145.7059
  15   2.0000      -1.384444       -37.6726
  16   2.0000      -1.344579       -36.5878
  17   2.0000      -1.241194       -33.7746
  18   2.0000      -1.144356       -31.1395
  19   2.0000      -1.026958       -27.9449
  20   2.0000      -1.007903       -27.4264
  21   2.0000      -0.863232       -23.4897
  22   2.0000      -0.847194       -23.0533
  23   2.0000      -0.798789       -21.7362
  24   2.0000      -0.758350       -20.6358
  25   2.0000      -0.727566       -19.7981
  26   2.0000      -0.710665       -19.3382
  27   2.0000      -0.704418       -19.1682
  28   2.0000      -0.636955       -17.3324
  29   2.0000      -0.615448       -16.7472
  30   2.0000      -0.611654       -16.6440
  31   2.0000      -0.594086       -16.1659
  32   2.0000      -0.593796       -16.1580
  33   2.0000      -0.574812       -15.6414
  34   2.0000      -0.563701       -15.3391
  35   2.0000      -0.548524       -14.9261
  36   2.0000      -0.501621       -13.6498
  37   2.0000      -0.500031       -13.6065
  38   2.0000      -0.488223       -13.2852
  39   2.0000      -0.472280       -12.8514
  40   2.0000      -0.440096       -11.9756
  41   2.0000      -0.354039        -9.6339
  42   2.0000      -0.351688        -9.5699
  43   2.0000      -0.300041        -8.1645
  44   0.0000       0.017275         0.4701
  45   0.0000       0.025724         0.7000
  46   0.0000       0.027717         0.7542
  47   0.0000       0.037638         1.0242
  48   0.0000       0.039255         1.0682

MULLIKEN ATOMIC CHARGES
-----------------------
   0 C :   -0.351131
   1 C :   -0.368465
   2 C :    0.655277
   3 C :   -0.295909
   4 C :   -0.395384
   5 C :    0.135663
   6 H :    0.199834
   7 H :    0.202587
   8 H :    0.307864
   9 B :    1.324761
  10 O :   -1.037410
  11 O :   -1.191490
  12 N :   -0.857579
  13 H :    0.277837
  14 H :    0.281741
  15 H :    0.211005
  16 H :    0.326128
  17 H :    0.419126
  18 P :    0.270405
  19 H :   -0.114859
Sum of atomic charges:   -0.0000000

LOEWDIN ATOMIC CHARGES
----------------------
   0 C :    0.343325
   1 C :    0.238808
   2 C :   -0.245468
   3 C :    0.347675
   4 C :    0.250866
   5 C :   -0.334082
   6 H :   -0.327690
   7 H :   -0.319940
   8 H :   -0.340463
   9 B :   -1.426242
  10 O :    1.276128
  11 O :    1.334069
  12 N :    1.276238
  13 H :   -0.502499
  14 H :   -0.502528
  15 H :   -0.318391
  16 H :   -0.805930
  17 H :   -0.847782
  18 P :    1.346359
  19 H :   -0.442455

  Mayer bond orders larger than 0.100000
B(  0-C ,  1-C ) :   1.3531 B(  0-C ,  2-C ) :   1.1334 B(  0-C ,  4-C ) :   0.1206
B(  0-C ,  5-C ) :  -0.2373 B(  0-C ,  7-H ) :   1.0585 B(  0-C ,  8-H ) :  -0.1273
B(  1-C ,  2-C ) :  -0.1047 B(  1-C ,  3-C ) :   0.1034 B(  1-C ,  5-C ) :   0.9358
B(  1-C ,  7-H ) :  -0.1131 B(  1-C ,  8-H ) :   1.0151 B(  1-C , 18-P ) :  -0.3131
B(  2-C ,  3-C ) :   1.1073 B(  2-C ,  7-H ) :  -0.1136 B(  2-C , 12-N ) :   0.6755
B(  2-C , 15-H ) :  -0.1113 B(  3-C ,  4-C ) :   1.2991 B(  3-C ,  5-C ) :  -0.2293
B(  3-C ,  6-H ) :  -0.1236 B(  3-C , 15-H ) :   1.0597 B(  4-C ,  5-C ) :   0.9365
B(  4-C ,  6-H ) :   1.0829 B(  4-C , 15-H ) :  -0.1469 B(  5-C ,  8-H ) :  -0.1063
B(  5-C ,  9-B ) :  -0.1046 B(  5-C , 11-O ) :  -0.1496 B(  5-C , 18-P ) :   0.8570
B(  9-B , 10-O ) :   0.4349 B(  9-B , 11-O ) :   0.4234 B(  9-B , 18-P ) :   1.0617
B( 10-O , 11-O ) :  -0.1436 B( 10-O , 16-H ) :   0.9357 B( 10-O , 18-P ) :  -0.1555
B( 11-O , 17-H ) :   0.8401 B( 12-N , 13-H ) :   0.9467 B( 12-N , 14-H ) :   0.9373
B( 18-P , 19-H ) :   0.9725

MP2 TOTAL ENERGY:     -804.415374412 Eh
FINAL SINGLE POINT ENERGY      -804.415374411922

DIPOLE MOMENT
-------------
                                X             Y             Z
Electronic contribution:     -9.31233       2.31269      -0.26797
Nuclear contribution   :     10.82521      -2.83027       0.34382
                        -----------------------------------------
Total Dipole Moment    :      1.51288      -0.51758       0.07585
                        -----------------------------------------
Magnitude (a.u.)       :      1.60076
Magnitude (Debye)      :      4.06881

Rotational constants in cm-1:     0.078680     0.015928     0.015045
Rotational constants in MHz :  2358.764684   477.500138   451.023880

                             ****ORCA TERMINATED NORMALLY****
TOTAL RUN TIME: 0 days 1 hours 6 minutes 32 seconds 381 msec
