                         Program Version 5.0.4 -  RELEASE  -
|  1> ! ri-mp2 aug-cc-pvdz aug-cc-pvdz/c tightscf
|  2> %pal nprocs 16 end
|  3> %maxcore 3800
|  4> %base "DZ_Si-Si_15_AB"
|  5> %scf
|  6> STABPerform true
|  7> STABRestartUHFifUnstable true
|  8> end
|  9>
| 10> *xyz 0 1
| 11> Si        -1.517863   -0.137866    0.000000
| 12> Si         0.726485    0.515554    0.000000
| 13> H         1.062182    1.306728   -1.203282
| 14> H        -2.360785    1.079917    0.000000
| 15> F         1.663229   -0.789743    0.000000
| 16> H        -1.826674   -0.936655    1.205871
| 17> H         1.062182    1.306728    1.203282
| 18> H        -1.826674   -0.936655   -1.205871
| 19> *
| 20>
| 21> $new_job
| 22> ! ri-mp2 aug-cc-pvtz aug-cc-pvtz/c tightscf
| 23> %pal nprocs 16 end
| 24> %maxcore 3800
| 25> %base "TZ_Si-Si_15_AB"
| 26>
| 27> *xyz 0 1
| 28> Si        -1.517863   -0.137866    0.000000
| 29> Si         0.726485    0.515554    0.000000
| 30> H         1.062182    1.306728   -1.203282
| 31> H        -2.360785    1.079917    0.000000
| 32> F         1.663229   -0.789743    0.000000
| 33> H        -1.826674   -0.936655    1.205871
| 34> H         1.062182    1.306728    1.203282
| 35> H        -1.826674   -0.936655   -1.205871
| 36> *
| 37>
| 38> $new_job
| 39> ! ri-mp2 aug-cc-pvqz aug-cc-pvqz/c tightscf
| 40> %pal nprocs 16 end
| 41> %maxcore 3800
| 42> %base "QZ_Si-Si_15_AB"
| 43>
| 44> *xyz 0 1
| 45> Si        -1.517863   -0.137866    0.000000
| 46> Si         0.726485    0.515554    0.000000
| 47> H         1.062182    1.306728   -1.203282
| 48> H        -2.360785    1.079917    0.000000
| 49> F         1.663229   -0.789743    0.000000
| 50> H        -1.826674   -0.936655    1.205871
| 51> H         1.062182    1.306728    1.203282
| 52> H        -1.826674   -0.936655   -1.205871
| 53> *
| 54>
| 55>
| 56>
| 57>
| 58>                          ****END OF INPUT****
 Total Charge           Charge          ....    0
 Multiplicity           Mult            ....    1
 Number of Electrons    NEL             ....   42
MP2 TOTAL ENERGY:     -680.689809963 Eh
FINAL SINGLE POINT ENERGY      -680.689809962734
MP2 TOTAL ENERGY:     -680.852669350 Eh
FINAL SINGLE POINT ENERGY      -680.852669350359

CARTESIAN COORDINATES (ANGSTROEM)
---------------------------------
  Si    -1.517863   -0.137866    0.000000
  Si     0.726485    0.515554    0.000000
  H      1.062182    1.306728   -1.203282
  H     -2.360785    1.079917    0.000000
  F      1.663229   -0.789743    0.000000
  H     -1.826674   -0.936655    1.205871
  H      1.062182    1.306728    1.203282
  H     -1.826674   -0.936655   -1.205871

 Multiplicity           Mult            ....    1
 Number of Electrons    NEL             ....   42
 Basis Dimension        Dim             ....  478

ORBITAL ENERGIES
----------------

  NO   OCC          E(Eh)            E(eV)
   0   2.0000     -68.812566     -1872.4851
   1   2.0000     -68.774990     -1871.4626
   2   2.0000     -26.280995      -715.1422
   3   2.0000      -6.156934      -167.5387
   4   2.0000      -6.126180      -166.7018
   5   2.0000      -4.263952      -116.0280
   6   2.0000      -4.263161      -116.0065
   7   2.0000      -4.263117      -116.0053
   8   2.0000      -4.232304      -115.1669
   9   2.0000      -4.232242      -115.1651
  10   2.0000      -4.232200      -115.1640
  11   2.0000      -1.582731       -43.0683
  12   2.0000      -0.782291       -21.2872
  13   2.0000      -0.721097       -19.6221
  14   2.0000      -0.666162       -18.1272
  15   2.0000      -0.664854       -18.0916
  16   2.0000      -0.617216       -16.7953
  17   2.0000      -0.503930       -13.7126
  18   2.0000      -0.494534       -13.4569
  19   2.0000      -0.479903       -13.0588
  20   2.0000      -0.412978       -11.2377
  21   0.0000       0.026880         0.7314
  22   0.0000       0.030380         0.8267
  23   0.0000       0.039882         1.0852
  24   0.0000       0.040765         1.1093
  25   0.0000       0.051461         1.4003

MULLIKEN ATOMIC CHARGES
-----------------------
   0 Si:    0.403728
   1 Si:    1.093783
   2 H :   -0.179150
   3 H :   -0.159165
   4 F :   -0.685961
   5 H :   -0.147043
   6 H :   -0.179150
   7 H :   -0.147043
Sum of atomic charges:   -0.0000000

LOEWDIN ATOMIC CHARGES
----------------------
   0 Si:    1.038288
   1 Si:    0.216739
   2 H :   -0.310490
   3 H :   -0.327138
   4 F :    0.343309
   5 H :   -0.325109
   6 H :   -0.310490
   7 H :   -0.325109

  Mayer bond orders larger than 0.100000
B(  0-Si,  1-Si) :   0.8014 B(  0-Si,  3-H ) :   0.8158 B(  0-Si,  5-H ) :   0.8120
B(  0-Si,  7-H ) :   0.8120 B(  1-Si,  2-H ) :   0.8849 B(  1-Si,  4-F ) :   0.3184
B(  1-Si,  6-H ) :   0.8849

MP2 TOTAL ENERGY:     -680.907161771 Eh
FINAL SINGLE POINT ENERGY      -680.907161771318

DIPOLE MOMENT
-------------
                                X             Y             Z
Electronic contribution:      5.00130      -2.13520      -0.00000
Nuclear contribution   :     -5.39331       2.53431       0.00000
                        -----------------------------------------
Total Dipole Moment    :     -0.39202       0.39911      -0.00000
                        -----------------------------------------
Magnitude (a.u.)       :      0.55943
Magnitude (Debye)      :      1.42196

Rotational constants in cm-1:     0.529794     0.110637     0.097733
Rotational constants in MHz : 15882.830163  3316.815341  2929.953328

                             ****ORCA TERMINATED NORMALLY****
TOTAL RUN TIME: 0 days 0 hours 9 minutes 48 seconds 957 msec
