                         Program Version 5.0.4 -  RELEASE  -
|  1> ! ri-mp2 aug-cc-pvdz aug-cc-pvdz/c tightscf
|  2> %pal nprocs 16 end
|  3> %maxcore 3800
|  4> %base "DZ_B-S_30_AB"
|  5> %scf
|  6> STABPerform true
|  7> STABRestartUHFifUnstable true
|  8> end
|  9>
| 10> *xyz 0 1
| 11> S        -0.324208   -1.181414   -0.283385
| 12> B         0.997145    0.046042   -0.058009
| 13> S         2.646956   -0.601250    0.274054
| 14> S         0.807444    1.822317   -0.138694
| 15> S        -2.074334   -0.136528   -0.540391
| 16> C        -2.593151    0.137133    1.166923
| 17> H        -3.550470    0.655189    1.114389
| 18> H        -1.873891    0.758730    1.694849
| 19> H        -2.723899   -0.810203    1.683083
| 20> H        -0.491903    1.794723   -0.491254
| 21> H         2.319626   -1.901446    0.302094
| 22> *
| 23>
| 24> $new_job
| 25> ! ri-mp2 aug-cc-pvtz aug-cc-pvtz/c tightscf
| 26> %pal nprocs 16 end
| 27> %maxcore 3800
| 28> %base "TZ_B-S_30_AB"
| 29>
| 30> *xyz 0 1
| 31> S        -0.324208   -1.181414   -0.283385
| 32> B         0.997145    0.046042   -0.058009
| 33> S         2.646956   -0.601250    0.274054
| 34> S         0.807444    1.822317   -0.138694
| 35> S        -2.074334   -0.136528   -0.540391
| 36> C        -2.593151    0.137133    1.166923
| 37> H        -3.550470    0.655189    1.114389
| 38> H        -1.873891    0.758730    1.694849
| 39> H        -2.723899   -0.810203    1.683083
| 40> H        -0.491903    1.794723   -0.491254
| 41> H         2.319626   -1.901446    0.302094
| 42> *
| 43>
| 44> $new_job
| 45> ! ri-mp2 aug-cc-pvqz aug-cc-pvqz/c tightscf
| 46> %pal nprocs 16 end
| 47> %maxcore 3800
| 48> %base "QZ_B-S_30_AB"
| 49>
| 50> *xyz 0 1
| 51> S        -0.324208   -1.181414   -0.283385
| 52> B         0.997145    0.046042   -0.058009
| 53> S         2.646956   -0.601250    0.274054
| 54> S         0.807444    1.822317   -0.138694
| 55> S        -2.074334   -0.136528   -0.540391
| 56> C        -2.593151    0.137133    1.166923
| 57> H        -3.550470    0.655189    1.114389
| 58> H        -1.873891    0.758730    1.694849
| 59> H        -2.723899   -0.810203    1.683083
| 60> H        -0.491903    1.794723   -0.491254
| 61> H         2.319626   -1.901446    0.302094
| 62> *
| 63>
| 64>
| 65>
| 66>
| 67>                          ****END OF INPUT****
 Total Charge           Charge          ....    0
 Multiplicity           Mult            ....    1
 Number of Electrons    NEL             ....   80
MP2 TOTAL ENERGY:    -1656.503942084 Eh
FINAL SINGLE POINT ENERGY     -1656.503942084086
MP2 TOTAL ENERGY:    -1656.772922182 Eh
FINAL SINGLE POINT ENERGY     -1656.772922182032

CARTESIAN COORDINATES (ANGSTROEM)
---------------------------------
  S     -0.324208   -1.181414   -0.283385
  B      0.997145    0.046042   -0.058009
  S      2.646956   -0.601250    0.274054
  S      0.807444    1.822317   -0.138694
  S     -2.074334   -0.136528   -0.540391
  C     -2.593151    0.137133    1.166923
  H     -3.550470    0.655189    1.114389
  H     -1.873891    0.758730    1.694849
  H     -2.723899   -0.810203    1.683083
  H     -0.491903    1.794723   -0.491254
  H      2.319626   -1.901446    0.302094

 Multiplicity           Mult            ....    1
 Number of Electrons    NEL             ....   80
 Basis Dimension        Dim             ....  726

ORBITAL ENERGIES
----------------

  NO   OCC          E(Eh)            E(eV)
   0   2.0000     -91.989382     -2503.1583
   1   2.0000     -91.981992     -2502.9572
   2   2.0000     -91.963375     -2502.4506
   3   2.0000     -91.959856     -2502.3549
   4   2.0000     -11.269746      -306.6654
   5   2.0000      -8.989873      -244.6269
   6   2.0000      -8.984603      -244.4835
   7   2.0000      -8.968286      -244.0395
   8   2.0000      -8.965212      -243.9558
   9   2.0000      -7.681280      -209.0182
  10   2.0000      -6.671234      -181.5335
  11   2.0000      -6.670023      -181.5006
  12   2.0000      -6.669203      -181.4782
  13   2.0000      -6.665994      -181.3909
  14   2.0000      -6.664675      -181.3550
  15   2.0000      -6.664346      -181.3461
  16   2.0000      -6.649806      -180.9504
  17   2.0000      -6.648917      -180.9262
  18   2.0000      -6.648341      -180.9105
  19   2.0000      -6.646692      -180.8657
  20   2.0000      -6.645913      -180.8445
  21   2.0000      -6.645366      -180.8296
  22   2.0000      -1.094371       -29.7793
  23   2.0000      -1.025314       -27.9002
  24   2.0000      -0.972908       -26.4742
  25   2.0000      -0.966427       -26.2978
  26   2.0000      -0.834302       -22.7025
  27   2.0000      -0.657870       -17.9016
  28   2.0000      -0.623057       -16.9542
  29   2.0000      -0.612214       -16.6592
  30   2.0000      -0.578575       -15.7438
  31   2.0000      -0.542713       -14.7680
  32   2.0000      -0.530947       -14.4478
  33   2.0000      -0.502394       -13.6708
  34   2.0000      -0.460876       -12.5411
  35   2.0000      -0.450118       -12.2483
  36   2.0000      -0.439754       -11.9663
  37   2.0000      -0.377657       -10.2766
  38   2.0000      -0.374871       -10.2008
  39   2.0000      -0.366181        -9.9643
  40   0.0000       0.023375         0.6361
  41   0.0000       0.031504         0.8573
  42   0.0000       0.035795         0.9740
  43   0.0000       0.038819         1.0563
  44   0.0000       0.048396         1.3169

MULLIKEN ATOMIC CHARGES
-----------------------
   0 S :    0.040322
   1 B :   -0.020133
   2 S :   -0.061281
   3 S :   -0.017646
   4 S :   -0.063255
   5 C :   -0.982982
   6 H :    0.369448
   7 H :    0.309848
   8 H :    0.314129
   9 H :    0.068855
  10 H :    0.042694
Sum of atomic charges:   -0.0000000

LOEWDIN ATOMIC CHARGES
----------------------
   0 S :    0.819028
   1 B :   -2.284807
   2 S :    1.541662
   3 S :    1.582559
   4 S :    0.780646
   5 C :    0.477417
   6 H :   -0.391426
   7 H :   -0.392339
   8 H :   -0.385209
   9 H :   -0.919206
  10 H :   -0.828325

  Mayer bond orders larger than 0.100000
B(  0-S ,  1-B ) :   1.2225 B(  0-S ,  4-S ) :   1.1080 B(  1-B ,  2-S ) :   1.0883
B(  1-B ,  3-S ) :   1.2029 B(  2-S , 10-H ) :   1.0692 B(  3-S ,  9-H ) :   1.0127
B(  4-S ,  5-C ) :   1.0072 B(  5-C ,  6-H ) :   0.8350 B(  5-C ,  7-H ) :   0.8856
B(  5-C ,  8-H ) :   0.8971

MP2 TOTAL ENERGY:    -1656.860260971 Eh
FINAL SINGLE POINT ENERGY     -1656.860260970536

DIPOLE MOMENT
-------------
                                X             Y             Z
Electronic contribution:      6.11440      -0.52017      -3.69560
Nuclear contribution   :     -6.88818       0.44552       4.20719
                        -----------------------------------------
Total Dipole Moment    :     -0.77378      -0.07465       0.51159
                        -----------------------------------------
Magnitude (a.u.)       :      0.93061
Magnitude (Debye)      :      2.36542

Rotational constants in cm-1:     0.080126     0.030867     0.024794
Rotational constants in MHz :  2402.114804   925.367850   743.312918

                             ****ORCA TERMINATED NORMALLY****
TOTAL RUN TIME: 0 days 0 hours 45 minutes 45 seconds 97 msec
