                         Program Version 5.0.4 -  RELEASE  -
|  1> ! ri-mp2 aug-cc-pvdz aug-cc-pvdz/c tightscf
|  2> %pal nprocs 16 end
|  3> %maxcore 3800
|  4> %base "DZ_P-C_16_A"
|  5> %scf
|  6> STABPerform true
|  7> STABRestartUHFifUnstable true
|  8> end
|  9>
| 10> *xyz 0 2
| 11> C         0.000000    0.314491   -0.213284
| 12> C         0.000000    1.774594    0.037102
| 13> H         0.887327    2.228224   -0.401845
| 14> H         0.000000    1.996818    1.110401
| 15> H        -0.887327    2.228224   -0.401844
| 16> Cl        -1.452571   -0.558464    0.022070
| 17> Cl         1.452571   -0.558464    0.022070
| 18> *
| 19>
| 20> $new_job
| 21> ! ri-mp2 aug-cc-pvtz aug-cc-pvtz/c tightscf
| 22> %pal nprocs 16 end
| 23> %maxcore 3800
| 24> %base "TZ_P-C_16_A"
| 25>
| 26> *xyz 0 2
| 27> C         0.000000    0.314491   -0.213284
| 28> C         0.000000    1.774594    0.037102
| 29> H         0.887327    2.228224   -0.401845
| 30> H         0.000000    1.996818    1.110401
| 31> H        -0.887327    2.228224   -0.401844
| 32> Cl        -1.452571   -0.558464    0.022070
| 33> Cl         1.452571   -0.558464    0.022070
| 34> *
| 35>
| 36> $new_job
| 37> ! ri-mp2 aug-cc-pvqz aug-cc-pvqz/c tightscf
| 38> %pal nprocs 16 end
| 39> %maxcore 3800
| 40> %base "QZ_P-C_16_A"
| 41>
| 42> *xyz 0 2
| 43> C         0.000000    0.314491   -0.213284
| 44> C         0.000000    1.774594    0.037102
| 45> H         0.887327    2.228224   -0.401845
| 46> H         0.000000    1.996818    1.110401
| 47> H        -0.887327    2.228224   -0.401844
| 48> Cl        -1.452571   -0.558464    0.022070
| 49> Cl         1.452571   -0.558464    0.022070
| 50> *
| 51>
| 52>
| 53>
| 54>
| 55>                          ****END OF INPUT****
 Total Charge           Charge          ....    0
 Multiplicity           Mult            ....    2
 Number of Electrons    NEL             ....   49
MP2 TOTAL ENERGY:     -997.019870988 Eh
FINAL SINGLE POINT ENERGY      -997.019870987571
MP2 TOTAL ENERGY:     -997.214394273 Eh
FINAL SINGLE POINT ENERGY      -997.214394272747

CARTESIAN COORDINATES (ANGSTROEM)
---------------------------------
  C      0.000000    0.314491   -0.213284
  C      0.000000    1.774594    0.037102
  H      0.887327    2.228224   -0.401845
  H      0.000000    1.996818    1.110401
  H     -0.887327    2.228224   -0.401844
  Cl    -1.452571   -0.558464    0.022070
  Cl     1.452571   -0.558464    0.022070

 Multiplicity           Mult            ....    2
 Number of Electrons    NEL             ....   49
 Basis Dimension        Dim             ....  466

ORBITAL ENERGIES
----------------
                 SPIN UP ORBITALS
  NO   OCC          E(Eh)            E(eV)
   0   1.0000    -104.855060     -2853.2512
   1   1.0000    -104.855060     -2853.2512
   2   1.0000     -11.359520      -309.1082
   3   1.0000     -11.249488      -306.1141
   4   1.0000     -10.580654      -287.9142
   5   1.0000     -10.580644      -287.9140
   6   1.0000      -8.047939      -218.9956
   7   1.0000      -8.047938      -218.9955
   8   1.0000      -8.046043      -218.9440
   9   1.0000      -8.046042      -218.9439
  10   1.0000      -8.045859      -218.9389
  11   1.0000      -8.045859      -218.9389
  12   1.0000      -1.223046       -33.2808
  13   1.0000      -1.111265       -30.2391
  14   1.0000      -1.015682       -27.6381
  15   1.0000      -0.804582       -21.8938
  16   1.0000      -0.647817       -17.6280
  17   1.0000      -0.644099       -17.5268
  18   1.0000      -0.620046       -16.8723
  19   1.0000      -0.548564       -14.9272
  20   1.0000      -0.541523       -14.7356
  21   1.0000      -0.484887       -13.1945
  22   1.0000      -0.474300       -12.9064
  23   1.0000      -0.453119       -12.3300
  24   1.0000      -0.352081        -9.5806
  25   0.0000       0.026684         0.7261
  26   0.0000       0.041804         1.1376
  27   0.0000       0.042477         1.1559
  28   0.0000       0.054212         1.4752
  29   0.0000       0.068949         1.8762

                 SPIN DOWN ORBITALS
  NO   OCC          E(Eh)            E(eV)
   0   1.0000    -104.854723     -2853.2421
   1   1.0000    -104.854723     -2853.2421
   2   1.0000     -11.331176      -308.3370
   3   1.0000     -11.251980      -306.1819
   4   1.0000     -10.580254      -287.9034
   5   1.0000     -10.580243      -287.9031
   6   1.0000      -8.048743      -219.0174
   7   1.0000      -8.048741      -219.0174
   8   1.0000      -8.045632      -218.9328
   9   1.0000      -8.045631      -218.9328
  10   1.0000      -8.043775      -218.8823
  11   1.0000      -8.043773      -218.8822
  12   1.0000      -1.194177       -32.4952
  13   1.0000      -1.107330       -30.1320
  14   1.0000      -1.007302       -27.4101
  15   1.0000      -0.752744       -20.4832
  16   1.0000      -0.635086       -17.2816
  17   1.0000      -0.608046       -16.5458
  18   1.0000      -0.592241       -16.1157
  19   1.0000      -0.544230       -14.8092
  20   1.0000      -0.503440       -13.6993
  21   1.0000      -0.472838       -12.8666
  22   1.0000      -0.462551       -12.5867
  23   1.0000      -0.452339       -12.3088
  24   0.0000       0.026390         0.7181
  25   0.0000       0.041204         1.1212
  26   0.0000       0.042484         1.1560
  27   0.0000       0.054189         1.4745
  28   0.0000       0.069527         1.8919

MULLIKEN ATOMIC CHARGES AND SPIN POPULATIONS
--------------------------------------------
   0 C :    0.028449    1.062362
   1 C :   -0.670557   -0.145287
   2 H :    0.282076    0.009821
   3 H :    0.256891    0.075722
   4 H :    0.282076    0.009822
   5 Cl:   -0.089467   -0.006220
   6 Cl:   -0.089467   -0.006220
Sum of atomic charges         :    0.0000000

LOEWDIN ATOMIC CHARGES AND SPIN POPULATIONS
-------------------------------------------
   0 C :   -1.665634    0.531494
   1 C :    0.605618    0.126581
   2 H :   -0.355109    0.011499
   3 H :   -0.329033    0.026106
   4 H :   -0.355109    0.011499
   5 Cl:    1.049633    0.146411
   6 Cl:    1.049633    0.146411

  Mayer bond orders larger than 0.100000
B(  0-C ,  1-C ) :   0.8812 B(  0-C ,  5-Cl) :   0.9197 B(  0-C ,  6-Cl) :   0.9197
B(  1-C ,  2-H ) :   0.9336 B(  1-C ,  3-H ) :   0.9072 B(  1-C ,  4-H ) :   0.9336

MP2 TOTAL ENERGY:     -997.277978601 Eh
FINAL SINGLE POINT ENERGY      -997.277978600553

DIPOLE MOMENT
-------------
                                X             Y             Z
Electronic contribution:     -0.00000      -6.87052      -0.21307
Nuclear contribution   :      0.00000       7.56408       0.22883
                        -----------------------------------------
Total Dipole Moment    :     -0.00000       0.69356       0.01575
                        -----------------------------------------
Magnitude (a.u.)       :      0.69373
Magnitude (Debye)      :      1.76333

Rotational constants in cm-1:     0.219881     0.109923     0.074690
Rotational constants in MHz :  6591.852032  3295.414818  2239.149728

                             ****ORCA TERMINATED NORMALLY****
TOTAL RUN TIME: 0 days 0 hours 26 minutes 46 seconds 631 msec
