                         Program Version 5.0.4 -  RELEASE  -
|  1> ! ri-mp2 aug-cc-pvdz aug-cc-pvdz/c tightscf
|  2> %pal nprocs 16 end
|  3> %maxcore 3800
|  4> %base "DZ_Si-Si_123_A"
|  5> %scf
|  6> STABPerform true
|  7> STABRestartUHFifUnstable true
|  8> end
|  9>
| 10> *xyz 0 2
| 11> Si        -2.200303    0.000001   -0.122304
| 12> N        -0.508889   -0.000003    0.118397
| 13> H        -2.758620   -1.225883    0.486913
| 14> H        -2.758615    1.225886    0.486914
| 15> C         0.675100    0.000001    0.048678
| 16> S         2.239569    0.000000   -0.023902
| 17> *
| 18>
| 19> $new_job
| 20> ! ri-mp2 aug-cc-pvtz aug-cc-pvtz/c tightscf
| 21> %pal nprocs 16 end
| 22> %maxcore 3800
| 23> %base "TZ_Si-Si_123_A"
| 24>
| 25> *xyz 0 2
| 26> Si        -2.200303    0.000001   -0.122304
| 27> N        -0.508889   -0.000003    0.118397
| 28> H        -2.758620   -1.225883    0.486913
| 29> H        -2.758615    1.225886    0.486914
| 30> C         0.675100    0.000001    0.048678
| 31> S         2.239569    0.000000   -0.023902
| 32> *
| 33>
| 34> $new_job
| 35> ! ri-mp2 aug-cc-pvqz aug-cc-pvqz/c tightscf
| 36> %pal nprocs 16 end
| 37> %maxcore 3800
| 38> %base "QZ_Si-Si_123_A"
| 39>
| 40> *xyz 0 2
| 41> Si        -2.200303    0.000001   -0.122304
| 42> N        -0.508889   -0.000003    0.118397
| 43> H        -2.758620   -1.225883    0.486913
| 44> H        -2.758615    1.225886    0.486914
| 45> C         0.675100    0.000001    0.048678
| 46> S         2.239569    0.000000   -0.023902
| 47> *
| 48>
| 49>
| 50>
| 51>
| 52>                          ****END OF INPUT****
 Total Charge           Charge          ....    0
 Multiplicity           Mult            ....    2
 Number of Electrons    NEL             ....   45
MP2 TOTAL ENERGY:     -780.455830298 Eh
FINAL SINGLE POINT ENERGY      -780.455830297757
MP2 TOTAL ENERGY:     -780.619172887 Eh
FINAL SINGLE POINT ENERGY      -780.619172886755

CARTESIAN COORDINATES (ANGSTROEM)
---------------------------------
  Si    -2.200303    0.000001   -0.122304
  N     -0.508889   -0.000003    0.118397
  H     -2.758620   -1.225883    0.486913
  H     -2.758615    1.225886    0.486914
  C      0.675100    0.000001    0.048678
  S      2.239569    0.000000   -0.023902

 Multiplicity           Mult            ....    2
 Number of Electrons    NEL             ....   45
 Basis Dimension        Dim             ....  420

ORBITAL ENERGIES
----------------
                 SPIN UP ORBITALS
  NO   OCC          E(Eh)            E(eV)
   0   1.0000     -91.954812     -2502.2177
   1   1.0000     -68.829178     -1872.9372
   2   1.0000     -15.596770      -424.4097
   3   1.0000     -11.381987      -309.7196
   4   1.0000      -8.959598      -243.8030
   5   1.0000      -6.641203      -180.7163
   6   1.0000      -6.640047      -180.6849
   7   1.0000      -6.638920      -180.6542
   8   1.0000      -6.175677      -168.0487
   9   1.0000      -4.288037      -116.6834
  10   1.0000      -4.279345      -116.4469
  11   1.0000      -4.278123      -116.4137
  12   1.0000      -1.280212       -34.8363
  13   1.0000      -1.044822       -28.4311
  14   1.0000      -0.849655       -23.1203
  15   1.0000      -0.645807       -17.5733
  16   1.0000      -0.601982       -16.3808
  17   1.0000      -0.589524       -16.0418
  18   1.0000      -0.584715       -15.9109
  19   1.0000      -0.509090       -13.8531
  20   1.0000      -0.405760       -11.0413
  21   1.0000      -0.372577       -10.1383
  22   1.0000      -0.333931        -9.0867
  23   0.0000       0.023883         0.6499
  24   0.0000       0.034239         0.9317
  25   0.0000       0.038381         1.0444
  26   0.0000       0.040849         1.1116
  27   0.0000       0.055539         1.5113

                 SPIN DOWN ORBITALS
  NO   OCC          E(Eh)            E(eV)
   0   1.0000     -91.954173     -2502.2003
   1   1.0000     -68.823337     -1872.7782
   2   1.0000     -15.598242      -424.4497
   3   1.0000     -11.380374      -309.6757
   4   1.0000      -8.958902      -243.7841
   5   1.0000      -6.641054      -180.7123
   6   1.0000      -6.638353      -180.6388
   7   1.0000      -6.637269      -180.6093
   8   1.0000      -6.166476      -167.7983
   9   1.0000      -4.275551      -116.3436
  10   1.0000      -4.274407      -116.3125
  11   1.0000      -4.266234      -116.0901
  12   1.0000      -1.278232       -34.7825
  13   1.0000      -1.043873       -28.4052
  14   1.0000      -0.833315       -22.6756
  15   1.0000      -0.621733       -16.9182
  16   1.0000      -0.594305       -16.1719
  17   1.0000      -0.588726       -16.0201
  18   1.0000      -0.575527       -15.6609
  19   1.0000      -0.498745       -13.5715
  20   1.0000      -0.376636       -10.2488
  21   1.0000      -0.372285       -10.1304
  22   0.0000       0.011120         0.3026
  23   0.0000       0.026194         0.7128
  24   0.0000       0.035160         0.9567
  25   0.0000       0.038760         1.0547
  26   0.0000       0.052607         1.4315

MULLIKEN ATOMIC CHARGES AND SPIN POPULATIONS
--------------------------------------------
   0 Si:    0.450524    0.876770
   1 N :   -0.508032   -0.053403
   2 H :   -0.202053    0.031627
   3 H :   -0.202053    0.031627
   4 C :    0.323140    0.043640
   5 S :    0.138473    0.069738
Sum of atomic charges         :    0.0000000

LOEWDIN ATOMIC CHARGES AND SPIN POPULATIONS
-------------------------------------------
   0 Si:    0.849247    0.539463
   1 N :    0.099789    0.105146
   2 H :   -0.358616    0.128860
   3 H :   -0.358616    0.128860
   4 C :   -1.183764    0.039787
   5 S :    0.951959    0.057884

  Mayer bond orders larger than 0.100000
B(  0-Si,  1-N ) :   0.9861 B(  0-Si,  2-H ) :   0.9109 B(  0-Si,  3-H ) :   0.9109
B(  1-N ,  4-C ) :   1.9838 B(  1-N ,  5-S ) :   0.1231 B(  4-C ,  5-S ) :   1.5670

MP2 TOTAL ENERGY:     -780.672584368 Eh
FINAL SINGLE POINT ENERGY      -780.672584367962

DIPOLE MOMENT
-------------
                                X             Y             Z
Electronic contribution:      4.30748      -0.00000      -0.97602
Nuclear contribution   :     -5.22889       0.00000       0.94182
                        -----------------------------------------
Total Dipole Moment    :     -0.92141       0.00000      -0.03420
                        -----------------------------------------
Magnitude (a.u.)       :      0.92204
Magnitude (Debye)      :      2.34364

Rotational constants in cm-1:     4.075382     0.052350     0.052040
Rotational constants in MHz : 122176.866072  1569.422382  1560.106773

                             ****ORCA TERMINATED NORMALLY****
TOTAL RUN TIME: 0 days 0 hours 13 minutes 42 seconds 357 msec
