                         Program Version 5.0.4 -  RELEASE  -
|  1> ! ri-mp2 aug-cc-pvdz aug-cc-pvdz/c tightscf
|  2> %pal nprocs 16 end
|  3> %maxcore 3800
|  4> %base "DZ_P-Si_46_A"
|  5> %scf
|  6> STABPerform true
|  7> STABRestartUHFifUnstable true
|  8> end
|  9>
| 10> *xyz 0 2
| 11> Si        -0.625869   -0.001021    0.495920
| 12> O        -0.918984    1.405648   -0.304242
| 13> C         1.235854   -0.076134    0.707786
| 14> C         1.985703   -0.039773   -0.626484
| 15> H         1.479721   -0.983854    1.265281
| 16> H         1.533597    0.761679    1.342605
| 17> H         1.697731   -0.875394   -1.264885
| 18> H         3.064397   -0.094145   -0.471896
| 19> H         1.770209    0.879222   -1.170535
| 20> H        -1.760861    1.501181   -0.755045
| 21> O        -1.194719   -1.210135   -0.483089
| 22> H        -1.442345   -2.043054   -0.077568
| 23> *
| 24>
| 25> $new_job
| 26> ! ri-mp2 aug-cc-pvtz aug-cc-pvtz/c tightscf
| 27> %pal nprocs 16 end
| 28> %maxcore 3800
| 29> %base "TZ_P-Si_46_A"
| 30>
| 31> *xyz 0 2
| 32> Si        -0.625869   -0.001021    0.495920
| 33> O        -0.918984    1.405648   -0.304242
| 34> C         1.235854   -0.076134    0.707786
| 35> C         1.985703   -0.039773   -0.626484
| 36> H         1.479721   -0.983854    1.265281
| 37> H         1.533597    0.761679    1.342605
| 38> H         1.697731   -0.875394   -1.264885
| 39> H         3.064397   -0.094145   -0.471896
| 40> H         1.770209    0.879222   -1.170535
| 41> H        -1.760861    1.501181   -0.755045
| 42> O        -1.194719   -1.210135   -0.483089
| 43> H        -1.442345   -2.043054   -0.077568
| 44> *
| 45>
| 46> $new_job
| 47> ! ri-mp2 aug-cc-pvqz aug-cc-pvqz/c tightscf
| 48> %pal nprocs 16 end
| 49> %maxcore 3800
| 50> %base "QZ_P-Si_46_A"
| 51>
| 52> *xyz 0 2
| 53> Si        -0.625869   -0.001021    0.495920
| 54> O        -0.918984    1.405648   -0.304242
| 55> C         1.235854   -0.076134    0.707786
| 56> C         1.985703   -0.039773   -0.626484
| 57> H         1.479721   -0.983854    1.265281
| 58> H         1.533597    0.761679    1.342605
| 59> H         1.697731   -0.875394   -1.264885
| 60> H         3.064397   -0.094145   -0.471896
| 61> H         1.770209    0.879222   -1.170535
| 62> H        -1.760861    1.501181   -0.755045
| 63> O        -1.194719   -1.210135   -0.483089
| 64> H        -1.442345   -2.043054   -0.077568
| 65> *
| 66>
| 67>
| 68>
| 69>
| 70>                          ****END OF INPUT****
 Total Charge           Charge          ....    0
 Multiplicity           Mult            ....    2
 Number of Electrons    NEL             ....   49
MP2 TOTAL ENERGY:     -519.351100016 Eh
FINAL SINGLE POINT ENERGY      -519.351100015995
MP2 TOTAL ENERGY:     -519.604630141 Eh
FINAL SINGLE POINT ENERGY      -519.604630141000

CARTESIAN COORDINATES (ANGSTROEM)
---------------------------------
  Si    -0.625869   -0.001021    0.495920
  O     -0.918984    1.405648   -0.304242
  C      1.235854   -0.076134    0.707786
  C      1.985703   -0.039773   -0.626484
  H      1.479721   -0.983854    1.265281
  H      1.533597    0.761679    1.342605
  H      1.697731   -0.875394   -1.264885
  H      3.064397   -0.094145   -0.471896
  H      1.770209    0.879222   -1.170535
  H     -1.760861    1.501181   -0.755045
  O     -1.194719   -1.210135   -0.483089
  H     -1.442345   -2.043054   -0.077568

 Multiplicity           Mult            ....    2
 Number of Electrons    NEL             ....   49
 Basis Dimension        Dim             ....  726

ORBITAL ENERGIES
----------------
                 SPIN UP ORBITALS
  NO   OCC          E(Eh)            E(eV)
   0   1.0000     -68.801824     -1872.1928
   1   1.0000     -20.558985      -559.4384
   2   1.0000     -20.553770      -559.2965
   3   1.0000     -11.212508      -305.1079
   4   1.0000     -11.209381      -305.0228
   5   1.0000      -6.144514      -167.2007
   6   1.0000      -4.256132      -115.8152
   7   1.0000      -4.248747      -115.6143
   8   1.0000      -4.247588      -115.5828
   9   1.0000      -1.356597       -36.9149
  10   1.0000      -1.332200       -36.2510
  11   1.0000      -1.021883       -27.8069
  12   1.0000      -0.848321       -23.0840
  13   1.0000      -0.754196       -20.5227
  14   1.0000      -0.702690       -19.1212
  15   1.0000      -0.609918       -16.5967
  16   1.0000      -0.598161       -16.2768
  17   1.0000      -0.590829       -16.0773
  18   1.0000      -0.559968       -15.2375
  19   1.0000      -0.532529       -14.4909
  20   1.0000      -0.522341       -14.2136
  21   1.0000      -0.516115       -14.0442
  22   1.0000      -0.490557       -13.3487
  23   1.0000      -0.457457       -12.4480
  24   1.0000      -0.314903        -8.5690
  25   0.0000       0.022839         0.6215
  26   0.0000       0.033383         0.9084
  27   0.0000       0.035010         0.9527
  28   0.0000       0.037504         1.0205
  29   0.0000       0.050719         1.3801

                 SPIN DOWN ORBITALS
  NO   OCC          E(Eh)            E(eV)
   0   1.0000     -68.796853     -1872.0575
   1   1.0000     -20.555338      -559.3392
   2   1.0000     -20.550444      -559.2060
   3   1.0000     -11.212007      -305.0942
   4   1.0000     -11.205797      -304.9252
   5   1.0000      -6.136339      -166.9783
   6   1.0000      -4.245721      -115.5319
   7   1.0000      -4.244959      -115.5112
   8   1.0000      -4.237587      -115.3106
   9   1.0000      -1.346171       -36.6312
  10   1.0000      -1.322129       -35.9770
  11   1.0000      -1.015417       -27.6309
  12   1.0000      -0.840311       -22.8660
  13   1.0000      -0.745426       -20.2841
  14   1.0000      -0.698861       -19.0170
  15   1.0000      -0.603420       -16.4199
  16   1.0000      -0.584192       -15.8967
  17   1.0000      -0.568077       -15.4582
  18   1.0000      -0.552473       -15.0336
  19   1.0000      -0.516958       -14.0671
  20   1.0000      -0.511619       -13.9219
  21   1.0000      -0.507116       -13.7993
  22   1.0000      -0.488881       -13.3031
  23   1.0000      -0.433833       -11.8052
  24   0.0000       0.018711         0.5091
  25   0.0000       0.033804         0.9199
  26   0.0000       0.034849         0.9483
  27   0.0000       0.036409         0.9907
  28   0.0000       0.050936         1.3860

MULLIKEN ATOMIC CHARGES AND SPIN POPULATIONS
--------------------------------------------
   0 Si:    1.398694    0.882750
   1 O :   -0.979840    0.055978
   2 C :   -0.541337    0.061343
   3 C :   -0.907352    0.023965
   4 H :    0.230741   -0.020269
   5 H :    0.223183   -0.011959
   6 H :    0.246627   -0.000761
   7 H :    0.326030    0.006516
   8 H :    0.257340   -0.000464
   9 H :    0.353572   -0.017353
  10 O :   -0.958687    0.047746
  11 H :    0.351030   -0.027492
Sum of atomic charges         :    0.0000000

LOEWDIN ATOMIC CHARGES AND SPIN POPULATIONS
-------------------------------------------
   0 Si:   -0.041065    0.517697
   1 O :    1.063919    0.109165
   2 C :    0.497489    0.130690
   3 C :    0.850404    0.022553
   4 H :   -0.363922    0.020130
   5 H :   -0.360671    0.019126
   6 H :   -0.299560    0.003101
   7 H :   -0.286653    0.005316
   8 H :   -0.302253    0.002969
   9 H :   -0.905463    0.018077
  10 O :    1.066585    0.116783
  11 H :   -0.918812    0.034393

  Mayer bond orders larger than 0.100000
B(  0-Si,  1-O ) :   0.6478 B(  0-Si,  2-C ) :   0.7947 B(  0-Si, 10-O ) :   0.6345
B(  1-O ,  9-H ) :   0.9153 B(  2-C ,  3-C ) :   1.0045 B(  2-C ,  4-H ) :   0.9414
B(  2-C ,  5-H ) :   0.9307 B(  3-C ,  6-H ) :   0.9277 B(  3-C ,  7-H ) :   0.9055
B(  3-C ,  8-H ) :   0.9261 B( 10-O , 11-H ) :   0.9123

MP2 TOTAL ENERGY:     -519.684614794 Eh
FINAL SINGLE POINT ENERGY      -519.684614794451

DIPOLE MOMENT
-------------
                                X             Y             Z
Electronic contribution:     -6.62566       0.36523       1.43706
Nuclear contribution   :      6.40725      -0.85928      -1.18569
                        -----------------------------------------
Total Dipole Moment    :     -0.21841      -0.49405       0.25137
                        -----------------------------------------
Magnitude (a.u.)       :      0.59580
Magnitude (Debye)      :      1.51440

Rotational constants in cm-1:     0.177846     0.100352     0.083165
Rotational constants in MHz :  5331.686966  3008.491417  2493.209718

                             ****ORCA TERMINATED NORMALLY****
TOTAL RUN TIME: 0 days 0 hours 57 minutes 58 seconds 333 msec
