                         Program Version 5.0.4 -  RELEASE  -
|  1> ! ri-mp2 aug-cc-pvdz aug-cc-pvdz/c tightscf
|  2> %pal nprocs 16 end
|  3> %maxcore 3800
|  4> %base "DZ_B-F_19_AB"
|  5> %scf
|  6> STABPerform true
|  7> STABRestartUHFifUnstable true
|  8> end
|  9>
| 10> *xyz 0 1
| 11> F        -2.024684   -0.497187   -0.765560
| 12> F        -0.868802   -1.225486    1.008992
| 13> B        -0.932949   -0.398984   -0.023403
| 14> C         0.167678    0.670256   -0.316619
| 15> C         1.545084    0.294710    0.228773
| 16> C        -0.309885    2.019640    0.248242
| 17> H        -0.400469    1.982024    1.335618
| 18> H        -1.277307    2.313210   -0.160259
| 19> H         0.407113    2.805254    0.006123
| 20> H         0.237092    0.777772   -1.404553
| 21> C         2.128965   -0.955930   -0.410622
| 22> H         1.478075    0.156536    1.311062
| 23> H         2.225647    1.135832    0.070208
| 24> H         1.502909   -1.830281   -0.222499
| 25> H         3.120974   -1.176200   -0.016200
| 26> H         2.221036   -0.837224   -1.492011
| 27> *
| 28>
| 29> $new_job
| 30> ! ri-mp2 aug-cc-pvtz aug-cc-pvtz/c tightscf
| 31> %pal nprocs 16 end
| 32> %maxcore 3800
| 33> %base "TZ_B-F_19_AB"
| 34>
| 35> *xyz 0 1
| 36> F        -2.024684   -0.497187   -0.765560
| 37> F        -0.868802   -1.225486    1.008992
| 38> B        -0.932949   -0.398984   -0.023403
| 39> C         0.167678    0.670256   -0.316619
| 40> C         1.545084    0.294710    0.228773
| 41> C        -0.309885    2.019640    0.248242
| 42> H        -0.400469    1.982024    1.335618
| 43> H        -1.277307    2.313210   -0.160259
| 44> H         0.407113    2.805254    0.006123
| 45> H         0.237092    0.777772   -1.404553
| 46> C         2.128965   -0.955930   -0.410622
| 47> H         1.478075    0.156536    1.311062
| 48> H         2.225647    1.135832    0.070208
| 49> H         1.502909   -1.830281   -0.222499
| 50> H         3.120974   -1.176200   -0.016200
| 51> H         2.221036   -0.837224   -1.492011
| 52> *
| 53>
| 54> $new_job
| 55> ! ri-mp2 aug-cc-pvqz aug-cc-pvqz/c tightscf
| 56> %pal nprocs 16 end
| 57> %maxcore 3800
| 58> %base "QZ_B-F_19_AB"
| 59>
| 60> *xyz 0 1
| 61> F        -2.024684   -0.497187   -0.765560
| 62> F        -0.868802   -1.225486    1.008992
| 63> B        -0.932949   -0.398984   -0.023403
| 64> C         0.167678    0.670256   -0.316619
| 65> C         1.545084    0.294710    0.228773
| 66> C        -0.309885    2.019640    0.248242
| 67> H        -0.400469    1.982024    1.335618
| 68> H        -1.277307    2.313210   -0.160259
| 69> H         0.407113    2.805254    0.006123
| 70> H         0.237092    0.777772   -1.404553
| 71> C         2.128965   -0.955930   -0.410622
| 72> H         1.478075    0.156536    1.311062
| 73> H         2.225647    1.135832    0.070208
| 74> H         1.502909   -1.830281   -0.222499
| 75> H         3.120974   -1.176200   -0.016200
| 76> H         2.221036   -0.837224   -1.492011
| 77> *
| 78>
| 79>
| 80>
| 81>
| 82>                          ****END OF INPUT****
 Total Charge           Charge          ....    0
 Multiplicity           Mult            ....    1
 Number of Electrons    NEL             ....   56
MP2 TOTAL ENERGY:     -381.535806825 Eh
FINAL SINGLE POINT ENERGY      -381.535806824922
MP2 TOTAL ENERGY:     -381.884620389 Eh
FINAL SINGLE POINT ENERGY      -381.884620389018

CARTESIAN COORDINATES (ANGSTROEM)
---------------------------------
  F     -2.024684   -0.497187   -0.765560
  F     -0.868802   -1.225486    1.008992
  B     -0.932949   -0.398984   -0.023403
  C      0.167678    0.670256   -0.316619
  C      1.545084    0.294710    0.228773
  C     -0.309885    2.019640    0.248242
  H     -0.400469    1.982024    1.335618
  H     -1.277307    2.313210   -0.160259
  H      0.407113    2.805254    0.006123
  H      0.237092    0.777772   -1.404553
  C      2.128965   -0.955930   -0.410622
  H      1.478075    0.156536    1.311062
  H      2.225647    1.135832    0.070208
  H      1.502909   -1.830281   -0.222499
  H      3.120974   -1.176200   -0.016200
  H      2.221036   -0.837224   -1.492011

 Multiplicity           Mult            ....    1
 Number of Electrons    NEL             ....   56
 Basis Dimension        Dim             ....  974

ORBITAL ENERGIES
----------------

  NO   OCC          E(Eh)            E(eV)
   0   2.0000     -26.303609      -715.7576
   1   2.0000     -26.302471      -715.7266
   2   2.0000     -11.228420      -305.5409
   3   2.0000     -11.225631      -305.4650
   4   2.0000     -11.218631      -305.2745
   5   2.0000     -11.216820      -305.2252
   6   2.0000      -7.695044      -209.3928
   7   2.0000      -1.637506       -44.5588
   8   2.0000      -1.603741       -43.6400
   9   2.0000      -1.088556       -29.6211
  10   2.0000      -0.996867       -27.1261
  11   2.0000      -0.877535       -23.8790
  12   2.0000      -0.827388       -22.5144
  13   2.0000      -0.795154       -21.6372
  14   2.0000      -0.753218       -20.4961
  15   2.0000      -0.714614       -19.4456
  16   2.0000      -0.705997       -19.2111
  17   2.0000      -0.653158       -17.7733
  18   2.0000      -0.649292       -17.6681
  19   2.0000      -0.628743       -17.1090
  20   2.0000      -0.595532       -16.2052
  21   2.0000      -0.589093       -16.0300
  22   2.0000      -0.579288       -15.7632
  23   2.0000      -0.527167       -14.3449
  24   2.0000      -0.504041       -13.7156
  25   2.0000      -0.481283       -13.0964
  26   2.0000      -0.471041       -12.8177
  27   2.0000      -0.458255       -12.4698
  28   0.0000       0.022981         0.6253
  29   0.0000       0.030016         0.8168
  30   0.0000       0.032437         0.8827
  31   0.0000       0.034030         0.9260
  32   0.0000       0.048284         1.3139

MULLIKEN ATOMIC CHARGES
-----------------------
   0 F :   -0.954286
   1 F :   -0.902810
   2 B :    1.850068
   3 C :    0.133174
   4 C :   -0.496405
   5 C :   -0.956092
   6 H :    0.246785
   7 H :    0.249053
   8 H :    0.267623
   9 H :    0.238217
  10 C :   -0.871978
  11 H :    0.247260
  12 H :    0.240758
  13 H :    0.221600
  14 H :    0.266373
  15 H :    0.220661
Sum of atomic charges:   -0.0000000

LOEWDIN ATOMIC CHARGES
----------------------
   0 F :    0.845182
   1 F :    0.861317
   2 B :   -1.758000
   3 C :    0.197041
   4 C :    0.478419
   5 C :    0.924862
   6 H :   -0.267492
   7 H :   -0.269812
   8 H :   -0.270202
   9 H :   -0.299894
  10 C :    0.935946
  11 H :   -0.271604
  12 H :   -0.268971
  13 H :   -0.288650
  14 H :   -0.272982
  15 H :   -0.275161

  Mayer bond orders larger than 0.100000
B(  0-F ,  3-C ) :  -0.1081 B(  1-F ,  2-B ) :   0.1575 B(  1-F ,  3-C ) :  -0.1799
B(  2-B ,  3-C ) :   0.9114 B(  3-C ,  4-C ) :   0.7288 B(  3-C ,  5-C ) :   0.7351
B(  3-C ,  9-H ) :   0.9280 B(  4-C , 10-C ) :   0.9378 B(  4-C , 11-H ) :   0.9144
B(  4-C , 12-H ) :   0.9150 B(  5-C ,  6-H ) :   0.9482 B(  5-C ,  7-H ) :   1.0064
B(  5-C ,  8-H ) :   0.9594 B( 10-C , 13-H ) :   0.9502 B( 10-C , 14-H ) :   1.0102
B( 10-C , 15-H ) :   0.9534

MP2 TOTAL ENERGY:     -381.992610726 Eh
FINAL SINGLE POINT ENERGY      -381.992610725547

DIPOLE MOMENT
-------------
                                X             Y             Z
Electronic contribution:    -12.46747      -6.79765       0.67546
Nuclear contribution   :     13.03150       7.29768      -0.78844
                        -----------------------------------------
Total Dipole Moment    :      0.56403       0.50004      -0.11299
                        -----------------------------------------
Magnitude (a.u.)       :      0.76219
Magnitude (Debye)      :      1.93734

Rotational constants in cm-1:     0.100690     0.066205     0.050063
Rotational constants in MHz :  3018.601352  1984.784084  1500.856306

                             ****ORCA TERMINATED NORMALLY****
TOTAL RUN TIME: 0 days 2 hours 11 minutes 24 seconds 446 msec
