                         Program Version 5.0.4 -  RELEASE  -
|  1> ! ri-mp2 aug-cc-pvdz aug-cc-pvdz/c tightscf
|  2> %pal nprocs 16 end
|  3> %maxcore 3800
|  4> %base "DZ_Si-Si_132_AB"
|  5> %scf
|  6> STABPerform true
|  7> STABRestartUHFifUnstable true
|  8> end
|  9>
| 10> *xyz 0 1
| 11> Si         2.762565    0.449359   -0.537468
| 12> Si         1.132929   -0.835302    0.532760
| 13> C        -0.516741    0.145136    0.446791
| 14> H         1.434777   -1.021372    1.967248
| 15> H         0.952866   -2.153672   -0.113435
| 16> O        -0.609643    1.237239    0.949314
| 17> S        -1.833114   -0.649985   -0.431500
| 18> H         2.350969    0.697107   -1.936353
| 19> H         4.051204   -0.278179   -0.537156
| 20> H         2.929240    1.738982    0.163120
| 21> C        -3.133390    0.589567   -0.325115
| 22> H        -3.427065    0.897153   -1.325113
| 23> H        -2.731828    1.439438    0.224678
| 24> H        -3.989335    0.177380    0.202351
| 25> *
| 26>
| 27> $new_job
| 28> ! ri-mp2 aug-cc-pvtz aug-cc-pvtz/c tightscf
| 29> %pal nprocs 16 end
| 30> %maxcore 3800
| 31> %base "TZ_Si-Si_132_AB"
| 32>
| 33> *xyz 0 1
| 34> Si         2.762565    0.449359   -0.537468
| 35> Si         1.132929   -0.835302    0.532760
| 36> C        -0.516741    0.145136    0.446791
| 37> H         1.434777   -1.021372    1.967248
| 38> H         0.952866   -2.153672   -0.113435
| 39> O        -0.609643    1.237239    0.949314
| 40> S        -1.833114   -0.649985   -0.431500
| 41> H         2.350969    0.697107   -1.936353
| 42> H         4.051204   -0.278179   -0.537156
| 43> H         2.929240    1.738982    0.163120
| 44> C        -3.133390    0.589567   -0.325115
| 45> H        -3.427065    0.897153   -1.325113
| 46> H        -2.731828    1.439438    0.224678
| 47> H        -3.989335    0.177380    0.202351
| 48> *
| 49>
| 50> $new_job
| 51> ! ri-mp2 aug-cc-pvqz aug-cc-pvqz/c tightscf
| 52> %pal nprocs 16 end
| 53> %maxcore 3800
| 54> %base "QZ_Si-Si_132_AB"
| 55>
| 56> *xyz 0 1
| 57> Si         2.762565    0.449359   -0.537468
| 58> Si         1.132929   -0.835302    0.532760
| 59> C        -0.516741    0.145136    0.446791
| 60> H         1.434777   -1.021372    1.967248
| 61> H         0.952866   -2.153672   -0.113435
| 62> O        -0.609643    1.237239    0.949314
| 63> S        -1.833114   -0.649985   -0.431500
| 64> H         2.350969    0.697107   -1.936353
| 65> H         4.051204   -0.278179   -0.537156
| 66> H         2.929240    1.738982    0.163120
| 67> C        -3.133390    0.589567   -0.325115
| 68> H        -3.427065    0.897153   -1.325113
| 69> H        -2.731828    1.439438    0.224678
| 70> H        -3.989335    0.177380    0.202351
| 71> *
| 72>
| 73>
| 74>
| 75>
| 76>                          ****END OF INPUT****
 Total Charge           Charge          ....    0
 Multiplicity           Mult            ....    1
 Number of Electrons    NEL             ....   72
MP2 TOTAL ENERGY:    -1131.494314994 Eh
FINAL SINGLE POINT ENERGY     -1131.494314993895
MP2 TOTAL ENERGY:    -1131.752730936 Eh
FINAL SINGLE POINT ENERGY     -1131.752730936031

CARTESIAN COORDINATES (ANGSTROEM)
---------------------------------
  Si     2.762565    0.449359   -0.537468
  Si     1.132929   -0.835302    0.532760
  C     -0.516741    0.145136    0.446791
  H      1.434777   -1.021372    1.967248
  H      0.952866   -2.153672   -0.113435
  O     -0.609643    1.237239    0.949314
  S     -1.833114   -0.649985   -0.431500
  H      2.350969    0.697107   -1.936353
  H      4.051204   -0.278179   -0.537156
  H      2.929240    1.738982    0.163120
  C     -3.133390    0.589567   -0.325115
  H     -3.427065    0.897153   -1.325113
  H     -2.731828    1.439438    0.224678
  H     -3.989335    0.177380    0.202351

 Multiplicity           Mult            ....    1
 Number of Electrons    NEL             ....   72
 Basis Dimension        Dim             ....  860

ORBITAL ENERGIES
----------------

  NO   OCC          E(Eh)            E(eV)
   0   2.0000     -91.970072     -2502.6329
   1   2.0000     -68.784878     -1871.7317
   2   2.0000     -68.775431     -1871.4746
   3   2.0000     -20.562997      -559.5476
   4   2.0000     -11.349717      -308.8415
   5   2.0000     -11.255766      -306.2850
   6   2.0000      -8.973487      -244.1810
   7   2.0000      -6.654923      -181.0897
   8   2.0000      -6.653754      -181.0578
   9   2.0000      -6.653304      -181.0456
  10   2.0000      -6.135953      -166.9678
  11   2.0000      -6.126325      -166.7058
  12   2.0000      -4.242025      -115.4314
  13   2.0000      -4.241886      -115.4276
  14   2.0000      -4.241781      -115.4247
  15   2.0000      -4.232516      -115.1726
  16   2.0000      -4.232372      -115.1687
  17   2.0000      -4.232305      -115.1669
  18   2.0000      -1.407240       -38.2929
  19   2.0000      -1.065948       -29.0059
  20   2.0000      -0.922652       -25.1066
  21   2.0000      -0.796338       -21.6695
  22   2.0000      -0.732162       -19.9231
  23   2.0000      -0.685349       -18.6493
  24   2.0000      -0.647832       -17.6284
  25   2.0000      -0.604508       -16.4495
  26   2.0000      -0.600395       -16.3376
  27   2.0000      -0.561114       -15.2687
  28   2.0000      -0.557921       -15.1818
  29   2.0000      -0.508291       -13.8313
  30   2.0000      -0.493227       -13.4214
  31   2.0000      -0.483759       -13.1638
  32   2.0000      -0.469167       -12.7667
  33   2.0000      -0.420392       -11.4394
  34   2.0000      -0.383718       -10.4415
  35   2.0000      -0.372853       -10.1458
  36   0.0000       0.024503         0.6668
  37   0.0000       0.029355         0.7988
  38   0.0000       0.031941         0.8692
  39   0.0000       0.038658         1.0519
  40   0.0000       0.043307         1.1784

MULLIKEN ATOMIC CHARGES
-----------------------
   0 Si:    0.351463
   1 Si:    0.890939
   2 C :    0.193336
   3 H :   -0.186447
   4 H :   -0.211053
   5 O :   -0.815059
   6 S :    0.195251
   7 H :   -0.125251
   8 H :   -0.158257
   9 H :   -0.113937
  10 C :   -0.968569
  11 H :    0.289547
  12 H :    0.361603
  13 H :    0.296435
Sum of atomic charges:   -0.0000000

LOEWDIN ATOMIC CHARGES
----------------------
   0 Si:    1.043121
   1 Si:    0.549252
   2 C :   -1.208521
   3 H :   -0.276097
   4 H :   -0.284412
   5 O :    0.554156
   6 S :    1.235499
   7 H :   -0.310875
   8 H :   -0.319171
   9 H :   -0.308428
  10 C :    0.536766
  11 H :   -0.375023
  12 H :   -0.461462
  13 H :   -0.374805

  Mayer bond orders larger than 0.100000
B(  0-Si,  1-Si) :   0.7177 B(  0-Si,  7-H ) :   0.7611 B(  0-Si,  8-H ) :   0.7822
B(  0-Si,  9-H ) :   0.7778 B(  1-Si,  2-C ) :   0.6386 B(  1-Si,  3-H ) :   0.8118
B(  1-Si,  4-H ) :   0.8184 B(  2-C ,  5-O ) :   1.4307 B(  2-C ,  6-S ) :   0.9686
B(  6-S , 10-C ) :   1.0323 B( 10-C , 11-H ) :   0.9185 B( 10-C , 12-H ) :   0.8412
B( 10-C , 13-H ) :   0.9140

MP2 TOTAL ENERGY:    -1131.837224397 Eh
FINAL SINGLE POINT ENERGY     -1131.837224396513

DIPOLE MOMENT
-------------
                                X             Y             Z
Electronic contribution:     -1.47994      -1.90981       0.99958
Nuclear contribution   :      1.37019       1.54729      -1.31543
                        -----------------------------------------
Total Dipole Moment    :     -0.10974      -0.36252      -0.31586
                        -----------------------------------------
Magnitude (a.u.)       :      0.49318
Magnitude (Debye)      :      1.25357

Rotational constants in cm-1:     0.129753     0.027909     0.026559
Rotational constants in MHz :  3889.906256   836.687272   796.211971

                             ****ORCA TERMINATED NORMALLY****
TOTAL RUN TIME: 0 days 1 hours 17 minutes 46 seconds 429 msec
