                         Program Version 5.0.4 -  RELEASE  -
|  1> ! ri-mp2 aug-cc-pvdz aug-cc-pvdz/c tightscf
|  2> %pal nprocs 16 end
|  3> %maxcore 3800
|  4> %base "DZ_P-Si_42_A"
|  5> %scf
|  6> STABPerform true
|  7> STABRestartUHFifUnstable true
|  8> end
|  9>
| 10> *xyz 0 2
| 11> Si         1.665442   -0.145346    0.094264
| 12> P        -0.447301    0.019922   -0.644608
| 13> C        -1.025072    1.461533    0.365579
| 14> H        -0.822730    1.347762    1.430802
| 15> H        -2.101278    1.573789    0.224218
| 16> H        -0.546953    2.373348    0.010143
| 17> C        -1.202062   -1.362980    0.323216
| 18> H        -2.284605   -1.323185    0.199157
| 19> H        -0.973967   -1.318475    1.388732
| 20> H        -0.857117   -2.317623   -0.071693
| 21> H         2.545687    0.865214   -0.539413
| 22> H         1.797088   -0.056148    1.574709
| 23> *
| 24>
| 25> $new_job
| 26> ! ri-mp2 aug-cc-pvtz aug-cc-pvtz/c tightscf
| 27> %pal nprocs 16 end
| 28> %maxcore 3800
| 29> %base "TZ_P-Si_42_A"
| 30>
| 31> *xyz 0 2
| 32> Si         1.665442   -0.145346    0.094264
| 33> P        -0.447301    0.019922   -0.644608
| 34> C        -1.025072    1.461533    0.365579
| 35> H        -0.822730    1.347762    1.430802
| 36> H        -2.101278    1.573789    0.224218
| 37> H        -0.546953    2.373348    0.010143
| 38> C        -1.202062   -1.362980    0.323216
| 39> H        -2.284605   -1.323185    0.199157
| 40> H        -0.973967   -1.318475    1.388732
| 41> H        -0.857117   -2.317623   -0.071693
| 42> H         2.545687    0.865214   -0.539413
| 43> H         1.797088   -0.056148    1.574709
| 44> *
| 45>
| 46> $new_job
| 47> ! ri-mp2 aug-cc-pvqz aug-cc-pvqz/c tightscf
| 48> %pal nprocs 16 end
| 49> %maxcore 3800
| 50> %base "QZ_P-Si_42_A"
| 51>
| 52> *xyz 0 2
| 53> Si         1.665442   -0.145346    0.094264
| 54> P        -0.447301    0.019922   -0.644608
| 55> C        -1.025072    1.461533    0.365579
| 56> H        -0.822730    1.347762    1.430802
| 57> H        -2.101278    1.573789    0.224218
| 58> H        -0.546953    2.373348    0.010143
| 59> C        -1.202062   -1.362980    0.323216
| 60> H        -2.284605   -1.323185    0.199157
| 61> H        -0.973967   -1.318475    1.388732
| 62> H        -0.857117   -2.317623   -0.071693
| 63> H         2.545687    0.865214   -0.539413
| 64> H         1.797088   -0.056148    1.574709
| 65> *
| 66>
| 67>
| 68>
| 69>
| 70>                          ****END OF INPUT****
 Total Charge           Charge          ....    0
 Multiplicity           Mult            ....    2
 Number of Electrons    NEL             ....   49
MP2 TOTAL ENERGY:     -710.561456578 Eh
FINAL SINGLE POINT ENERGY      -710.561456578329
MP2 TOTAL ENERGY:     -710.719040616 Eh
FINAL SINGLE POINT ENERGY      -710.719040616335

CARTESIAN COORDINATES (ANGSTROEM)
---------------------------------
  Si     1.665442   -0.145346    0.094264
  P     -0.447301    0.019922   -0.644608
  C     -1.025072    1.461533    0.365579
  H     -0.822730    1.347762    1.430802
  H     -2.101278    1.573789    0.224218
  H     -0.546953    2.373348    0.010143
  C     -1.202062   -1.362980    0.323216
  H     -2.284605   -1.323185    0.199157
  H     -0.973967   -1.318475    1.388732
  H     -0.857117   -2.317623   -0.071693
  H      2.545687    0.865214   -0.539413
  H      1.797088   -0.056148    1.574709

 Multiplicity           Mult            ....    2
 Number of Electrons    NEL             ....   49
 Basis Dimension        Dim             ....  696

ORBITAL ENERGIES
----------------
                 SPIN UP ORBITALS
  NO   OCC          E(Eh)            E(eV)
   0   1.0000     -79.929646     -2174.9963
   1   1.0000     -68.779533     -1871.5862
   2   1.0000     -11.228378      -305.5397
   3   1.0000     -11.227763      -305.5230
   4   1.0000      -7.472207      -203.3291
   5   1.0000      -6.129967      -166.8049
   6   1.0000      -5.366331      -146.0253
   7   1.0000      -5.365967      -146.0154
   8   1.0000      -5.365076      -145.9911
   9   1.0000      -4.242710      -115.4500
  10   1.0000      -4.232624      -115.1755
  11   1.0000      -4.232508      -115.1724
  12   1.0000      -1.007824       -27.4243
  13   1.0000      -0.942671       -25.6514
  14   1.0000      -0.771857       -21.0033
  15   1.0000      -0.674369       -18.3505
  16   1.0000      -0.591792       -16.1035
  17   1.0000      -0.585761       -15.9394
  18   1.0000      -0.563983       -15.3468
  19   1.0000      -0.559447       -15.2233
  20   1.0000      -0.490305       -13.3419
  21   1.0000      -0.471001       -12.8166
  22   1.0000      -0.432182       -11.7603
  23   1.0000      -0.338301        -9.2056
  24   1.0000      -0.319889        -8.7046
  25   0.0000       0.024552         0.6681
  26   0.0000       0.033326         0.9068
  27   0.0000       0.033990         0.9249
  28   0.0000       0.037799         1.0286
  29   0.0000       0.047923         1.3041

                 SPIN DOWN ORBITALS
  NO   OCC          E(Eh)            E(eV)
   0   1.0000     -79.929599     -2174.9950
   1   1.0000     -68.773815     -1871.4306
   2   1.0000     -11.227808      -305.5242
   3   1.0000     -11.227436      -305.5141
   4   1.0000      -7.472066      -203.3253
   5   1.0000      -6.121279      -166.5685
   6   1.0000      -5.366227      -146.0225
   7   1.0000      -5.365956      -146.0151
   8   1.0000      -5.365126      -145.9925
   9   1.0000      -4.228656      -115.0676
  10   1.0000      -4.228542      -115.0645
  11   1.0000      -4.220055      -114.8335
  12   1.0000      -1.005562       -27.3627
  13   1.0000      -0.941163       -25.6104
  14   1.0000      -0.755038       -20.5456
  15   1.0000      -0.646604       -17.5950
  16   1.0000      -0.590712       -16.0741
  17   1.0000      -0.582112       -15.8401
  18   1.0000      -0.561940       -15.2912
  19   1.0000      -0.557965       -15.1830
  20   1.0000      -0.483414       -13.1544
  21   1.0000      -0.465946       -12.6790
  22   1.0000      -0.423158       -11.5147
  23   1.0000      -0.332455        -9.0466
  24   0.0000       0.022849         0.6218
  25   0.0000       0.025500         0.6939
  26   0.0000       0.033667         0.9161
  27   0.0000       0.037414         1.0181
  28   0.0000       0.044097         1.1999

MULLIKEN ATOMIC CHARGES AND SPIN POPULATIONS
--------------------------------------------
   0 Si:    0.453271    1.001187
   1 P :    0.357830   -0.026038
   2 C :   -1.123606    0.022055
   3 H :    0.275423   -0.003116
   4 H :    0.332503    0.008134
   5 H :    0.342126   -0.004361
   6 C :   -1.167012   -0.000633
   7 H :    0.345269   -0.003321
   8 H :    0.279388   -0.000068
   9 H :    0.355278   -0.000999
  10 H :   -0.249485   -0.000138
  11 H :   -0.200984    0.007299
Sum of atomic charges         :   -0.0000000

LOEWDIN ATOMIC CHARGES AND SPIN POPULATIONS
-------------------------------------------
   0 Si:    0.851809    0.538338
   1 P :    0.748502    0.134638
   2 C :    0.685196    0.027621
   3 H :   -0.365033    0.007916
   4 H :   -0.362387    0.006834
   5 H :   -0.371625    0.007127
   6 C :    0.670809    0.013378
   7 H :   -0.363118   -0.001373
   8 H :   -0.363875    0.000878
   9 H :   -0.375780    0.006025
  10 H :   -0.393493    0.129141
  11 H :   -0.361007    0.129476

  Mayer bond orders larger than 0.100000
B(  0-Si,  1-P ) :   0.9360 B(  0-Si, 10-H ) :   0.8487 B(  0-Si, 11-H ) :   0.8432
B(  1-P ,  2-C ) :   0.8572 B(  1-P ,  6-C ) :   0.8739 B(  2-C ,  3-H ) :   0.9078
B(  2-C ,  4-H ) :   0.8884 B(  2-C ,  5-H ) :   0.8787 B(  6-C ,  7-H ) :   0.8783
B(  6-C ,  8-H ) :   0.9078 B(  6-C ,  9-H ) :   0.8806

MP2 TOTAL ENERGY:     -710.767046804 Eh
FINAL SINGLE POINT ENERGY      -710.767046803926

DIPOLE MOMENT
-------------
                                X             Y             Z
Electronic contribution:      2.65262      -1.11950      -4.39882
Nuclear contribution   :     -2.94715       1.14548       4.87140
                        -----------------------------------------
Total Dipole Moment    :     -0.29453       0.02598       0.47258
                        -----------------------------------------
Magnitude (a.u.)       :      0.55745
Magnitude (Debye)      :      1.41693

Rotational constants in cm-1:     0.185806     0.106096     0.082446
Rotational constants in MHz :  5570.308924  3180.691484  2471.668703

                             ****ORCA TERMINATED NORMALLY****
TOTAL RUN TIME: 0 days 1 hours 19 minutes 0 seconds 861 msec
