                         Program Version 5.0.4 -  RELEASE  -
|  1> ! ri-mp2 aug-cc-pvdz aug-cc-pvdz/c tightscf
|  2> %pal nprocs 16 end
|  3> %maxcore 3800
|  4> %base "DZ_B-P_37_AB"
|  5> %scf
|  6> STABPerform true
|  7> STABRestartUHFifUnstable true
|  8> end
|  9>
| 10> *xyz 0 1
| 11> C         0.305550   -0.149967    0.277677
| 12> C        -0.232078    1.151212   -0.320029
| 13> C        -1.673336    1.416466    0.102586
| 14> C        -2.581989    0.242288   -0.236960
| 15> C        -2.056414   -1.050525    0.373106
| 16> C        -0.617946   -1.325831   -0.050331
| 17> B         3.229783    0.724571    0.412679
| 18> H        -0.179985    1.086514   -1.411877
| 19> H         0.409046    1.983871   -0.027605
| 20> H        -2.035837    2.329735   -0.373271
| 21> H        -1.703126    1.594451    1.182451
| 22> H        -2.636515    0.131289   -1.324937
| 23> H        -3.598964    0.437818    0.107995
| 24> H        -2.692608   -1.891606    0.091062
| 25> H        -2.100614   -0.977907    1.464650
| 26> H        -0.248129   -2.234415    0.427280
| 27> H        -0.590653   -1.508577   -1.130120
| 28> P         2.044647   -0.525978   -0.201089
| 29> H         0.348620   -0.040502    1.367049
| 30> H         4.253500    0.892995   -0.167120
| 31> H         3.051068    1.227605    1.476678
| 32> H         2.042861   -0.466312   -1.605576
| 33> *
| 34>
| 35> $new_job
| 36> ! ri-mp2 aug-cc-pvtz aug-cc-pvtz/c tightscf
| 37> %pal nprocs 16 end
| 38> %maxcore 3800
| 39> %base "TZ_B-P_37_AB"
| 40>
| 41> *xyz 0 1
| 42> C         0.305550   -0.149967    0.277677
| 43> C        -0.232078    1.151212   -0.320029
| 44> C        -1.673336    1.416466    0.102586
| 45> C        -2.581989    0.242288   -0.236960
| 46> C        -2.056414   -1.050525    0.373106
| 47> C        -0.617946   -1.325831   -0.050331
| 48> B         3.229783    0.724571    0.412679
| 49> H        -0.179985    1.086514   -1.411877
| 50> H         0.409046    1.983871   -0.027605
| 51> H        -2.035837    2.329735   -0.373271
| 52> H        -1.703126    1.594451    1.182451
| 53> H        -2.636515    0.131289   -1.324937
| 54> H        -3.598964    0.437818    0.107995
| 55> H        -2.692608   -1.891606    0.091062
| 56> H        -2.100614   -0.977907    1.464650
| 57> H        -0.248129   -2.234415    0.427280
| 58> H        -0.590653   -1.508577   -1.130120
| 59> P         2.044647   -0.525978   -0.201089
| 60> H         0.348620   -0.040502    1.367049
| 61> H         4.253500    0.892995   -0.167120
| 62> H         3.051068    1.227605    1.476678
| 63> H         2.042861   -0.466312   -1.605576
| 64> *
| 65>
| 66> $new_job
| 67> ! ri-mp2 aug-cc-pvqz aug-cc-pvqz/c tightscf
| 68> %pal nprocs 16 end
| 69> %maxcore 3800
| 70> %base "QZ_B-P_37_AB"
| 71>
| 72> *xyz 0 1
| 73> C         0.305550   -0.149967    0.277677
| 74> C        -0.232078    1.151212   -0.320029
| 75> C        -1.673336    1.416466    0.102586
| 76> C        -2.581989    0.242288   -0.236960
| 77> C        -2.056414   -1.050525    0.373106
| 78> C        -0.617946   -1.325831   -0.050331
| 79> B         3.229783    0.724571    0.412679
| 80> H        -0.179985    1.086514   -1.411877
| 81> H         0.409046    1.983871   -0.027605
| 82> H        -2.035837    2.329735   -0.373271
| 83> H        -1.703126    1.594451    1.182451
| 84> H        -2.636515    0.131289   -1.324937
| 85> H        -3.598964    0.437818    0.107995
| 86> H        -2.692608   -1.891606    0.091062
| 87> H        -2.100614   -0.977907    1.464650
| 88> H        -0.248129   -2.234415    0.427280
| 89> H        -0.590653   -1.508577   -1.130120
| 90> P         2.044647   -0.525978   -0.201089
| 91> H         0.348620   -0.040502    1.367049
| 92> H         4.253500    0.892995   -0.167120
| 93> H         3.051068    1.227605    1.476678
| 94> H         2.042861   -0.466312   -1.605576
| 95> *
| 96>
| 97>
| 98>
| 99>
|100>                          ****END OF INPUT****
 Total Charge           Charge          ....    0
 Multiplicity           Mult            ....    1
 Number of Electrons    NEL             ....   70
MP2 TOTAL ENERGY:     -601.899901947 Eh
FINAL SINGLE POINT ENERGY      -601.899901946561
MP2 TOTAL ENERGY:     -602.188194972 Eh
FINAL SINGLE POINT ENERGY      -602.188194971762

CARTESIAN COORDINATES (ANGSTROEM)
---------------------------------
  C      0.305550   -0.149967    0.277677
  C     -0.232078    1.151212   -0.320029
  C     -1.673336    1.416466    0.102586
  C     -2.581989    0.242288   -0.236960
  C     -2.056414   -1.050525    0.373106
  C     -0.617946   -1.325831   -0.050331
  B      3.229783    0.724571    0.412679
  H     -0.179985    1.086514   -1.411877
  H      0.409046    1.983871   -0.027605
  H     -2.035837    2.329735   -0.373271
  H     -1.703126    1.594451    1.182451
  H     -2.636515    0.131289   -1.324937
  H     -3.598964    0.437818    0.107995
  H     -2.692608   -1.891606    0.091062
  H     -2.100614   -0.977907    1.464650
  H     -0.248129   -2.234415    0.427280
  H     -0.590653   -1.508577   -1.130120
  P      2.044647   -0.525978   -0.201089
  H      0.348620   -0.040502    1.367049
  H      4.253500    0.892995   -0.167120
  H      3.051068    1.227605    1.476678
  H      2.042861   -0.466312   -1.605576

 Multiplicity           Mult            ....    1
 Number of Electrons    NEL             ....   70
 Basis Dimension        Dim             .... 1288

ORBITAL ENERGIES
----------------

  NO   OCC          E(Eh)            E(eV)
   0   2.0000     -79.915406     -2174.6088
   1   2.0000     -11.238177      -305.8063
   2   2.0000     -11.222826      -305.3886
   3   2.0000     -11.222645      -305.3837
   4   2.0000     -11.218076      -305.2594
   5   2.0000     -11.217849      -305.2532
   6   2.0000     -11.216790      -305.2244
   7   2.0000      -7.599670      -206.7975
   8   2.0000      -7.462616      -203.0681
   9   2.0000      -5.357227      -145.7776
  10   2.0000      -5.357168      -145.7760
  11   2.0000      -5.356552      -145.7592
  12   2.0000      -1.127460       -30.6797
  13   2.0000      -1.020956       -27.7816
  14   2.0000      -1.011711       -27.5300
  15   2.0000      -0.872647       -23.7459
  16   2.0000      -0.839459       -22.8428
  17   2.0000      -0.797018       -21.6879
  18   2.0000      -0.759303       -20.6617
  19   2.0000      -0.666534       -18.1373
  20   2.0000      -0.650859       -17.7108
  21   2.0000      -0.612036       -16.6544
  22   2.0000      -0.606547       -16.5050
  23   2.0000      -0.586656       -15.9637
  24   2.0000      -0.535501       -14.5717
  25   2.0000      -0.533873       -14.5274
  26   2.0000      -0.532258       -14.4835
  27   2.0000      -0.492783       -13.4093
  28   2.0000      -0.490123       -13.3369
  29   2.0000      -0.488444       -13.2912
  30   2.0000      -0.468809       -12.7569
  31   2.0000      -0.458639       -12.4802
  32   2.0000      -0.439060       -11.9474
  33   2.0000      -0.415102       -11.2955
  34   2.0000      -0.329548        -8.9675
  35   0.0000       0.022445         0.6108
  36   0.0000       0.027437         0.7466
  37   0.0000       0.028913         0.7868
  38   0.0000       0.030489         0.8296
  39   0.0000       0.038658         1.0519

MULLIKEN ATOMIC CHARGES
-----------------------
   0 C :    0.107835
   1 C :   -0.409123
   2 C :   -0.480675
   3 C :   -0.443510
   4 C :   -0.498612
   5 C :   -0.371682
   6 B :    0.221409
   7 H :    0.196921
   8 H :    0.281598
   9 H :    0.236320
  10 H :    0.138931
  11 H :    0.131300
  12 H :    0.253733
  13 H :    0.238351
  14 H :    0.132945
  15 H :    0.272081
  16 H :    0.195340
  17 P :    0.167960
  18 H :    0.156017
  19 H :   -0.273354
  20 H :   -0.151851
  21 H :   -0.101934
Sum of atomic charges:    0.0000000

LOEWDIN ATOMIC CHARGES
----------------------
   0 C :   -0.059620
   1 C :    0.464554
   2 C :    0.539707
   3 C :    0.532844
   4 C :    0.536669
   5 C :    0.452070
   6 B :    0.116342
   7 H :   -0.274619
   8 H :   -0.277367
   9 H :   -0.256691
  10 H :   -0.260642
  11 H :   -0.261978
  12 H :   -0.258255
  13 H :   -0.256922
  14 H :   -0.261309
  15 H :   -0.276960
  16 H :   -0.274375
  17 P :    1.335449
  18 H :   -0.338606
  19 H :   -0.267942
  20 H :   -0.251173
  21 H :   -0.401178

  Mayer bond orders larger than 0.100000
B(  0-C ,  1-C ) :   0.7879 B(  0-C ,  5-C ) :   0.6603 B(  0-C ,  6-B ) :  -0.1704
B(  0-C , 17-P ) :   0.6901 B(  0-C , 18-H ) :   0.9765 B(  1-C ,  2-C ) :   0.8272
B(  1-C ,  7-H ) :   0.9623 B(  1-C ,  8-H ) :   0.9533 B(  2-C ,  3-C ) :   0.8874
B(  2-C ,  9-H ) :   0.9816 B(  2-C , 10-H ) :   1.0268 B(  3-C ,  4-C ) :   0.9049
B(  3-C , 11-H ) :   1.0298 B(  3-C , 12-H ) :   0.9511 B(  4-C ,  5-C ) :   0.8532
B(  4-C , 13-H ) :   0.9898 B(  4-C , 14-H ) :   1.0328 B(  5-C , 15-H ) :   0.9481
B(  5-C , 16-H ) :   0.9755 B(  6-B , 17-P ) :   1.4395 B(  6-B , 19-H ) :   0.9327
B(  6-B , 20-H ) :   0.9148 B( 17-P , 21-H ) :   0.9751

MP2 TOTAL ENERGY:     -602.276248401 Eh
FINAL SINGLE POINT ENERGY      -602.276248401453

DIPOLE MOMENT
-------------
                                X             Y             Z
Electronic contribution:      9.80748      -2.31140      -0.03299
Nuclear contribution   :    -10.51126       2.54997      -0.06613
                        -----------------------------------------
Total Dipole Moment    :     -0.70378       0.23857      -0.09912
                        -----------------------------------------
Magnitude (a.u.)       :      0.74970
Magnitude (Debye)      :      1.90559

Rotational constants in cm-1:     0.119755     0.033230     0.028041
Rotational constants in MHz :  3590.179310   996.208485   840.638116

                             ****ORCA TERMINATED NORMALLY****
TOTAL RUN TIME: 0 days 4 hours 55 minutes 9 seconds 931 msec
