                         Program Version 5.0.4 -  RELEASE  -
|  1> ! ri-mp2 aug-cc-pvdz aug-cc-pvdz/c tightscf
|  2> %pal nprocs 16 end
|  3> %maxcore 3800
|  4> %base "DZ_S-Cl_89_AB"
|  5> %scf
|  6> STABPerform true
|  7> STABRestartUHFifUnstable true
|  8> end
|  9>
| 10> *xyz 0 1
| 11> Cl         1.974565   -0.350175   -0.000002
| 12> F        -2.007684    0.693218   -0.000002
| 13> F        -0.986305   -0.885362   -1.071181
| 14> F        -0.986308   -0.885361    1.071183
| 15> C        -0.934498   -0.101899    0.000000
| 16> S         0.491379    1.016369    0.000001
| 17> *
| 18>
| 19> $new_job
| 20> ! ri-mp2 aug-cc-pvtz aug-cc-pvtz/c tightscf
| 21> %pal nprocs 16 end
| 22> %maxcore 3800
| 23> %base "TZ_S-Cl_89_AB"
| 24>
| 25> *xyz 0 1
| 26> Cl         1.974565   -0.350175   -0.000002
| 27> F        -2.007684    0.693218   -0.000002
| 28> F        -0.986305   -0.885362   -1.071181
| 29> F        -0.986308   -0.885361    1.071183
| 30> C        -0.934498   -0.101899    0.000000
| 31> S         0.491379    1.016369    0.000001
| 32> *
| 33>
| 34> $new_job
| 35> ! ri-mp2 aug-cc-pvqz aug-cc-pvqz/c tightscf
| 36> %pal nprocs 16 end
| 37> %maxcore 3800
| 38> %base "QZ_S-Cl_89_AB"
| 39>
| 40> *xyz 0 1
| 41> Cl         1.974565   -0.350175   -0.000002
| 42> F        -2.007684    0.693218   -0.000002
| 43> F        -0.986305   -0.885362   -1.071181
| 44> F        -0.986308   -0.885361    1.071183
| 45> C        -0.934498   -0.101899    0.000000
| 46> S         0.491379    1.016369    0.000001
| 47> *
| 48>
| 49>
| 50>
| 51>
| 52>                          ****END OF INPUT****
 Total Charge           Charge          ....    0
 Multiplicity           Mult            ....    1
 Number of Electrons    NEL             ....   66
MP2 TOTAL ENERGY:    -1194.267946443 Eh
FINAL SINGLE POINT ENERGY     -1194.267946442607
MP2 TOTAL ENERGY:    -1194.665380510 Eh
FINAL SINGLE POINT ENERGY     -1194.665380509706

CARTESIAN COORDINATES (ANGSTROEM)
---------------------------------
  Cl     1.974565   -0.350175   -0.000002
  F     -2.007684    0.693218   -0.000002
  F     -0.986305   -0.885362   -1.071181
  F     -0.986308   -0.885361    1.071183
  C     -0.934498   -0.101899    0.000000
  S      0.491379    1.016369    0.000001

 Multiplicity           Mult            ....    1
 Number of Electrons    NEL             ....   66
 Basis Dimension        Dim             ....  488

ORBITAL ENERGIES
----------------

  NO   OCC          E(Eh)            E(eV)
   0   2.0000    -104.884132     -2854.0423
   1   2.0000     -92.051414     -2504.8463
   2   2.0000     -26.366227      -717.4615
   3   2.0000     -26.360583      -717.3079
   4   2.0000     -26.360560      -717.3073
   5   2.0000     -11.553506      -314.3869
   6   2.0000     -10.608261      -288.6654
   7   2.0000      -9.049963      -246.2620
   8   2.0000      -8.075314      -219.7405
   9   2.0000      -8.073217      -219.6834
  10   2.0000      -8.072988      -219.6772
  11   2.0000      -6.730959      -183.1587
  12   2.0000      -6.729661      -183.1234
  13   2.0000      -6.728240      -183.0847
  14   2.0000      -1.760391       -47.9027
  15   2.0000      -1.665157       -45.3112
  16   2.0000      -1.660613       -45.1876
  17   2.0000      -1.184350       -32.2278
  18   2.0000      -1.040960       -28.3260
  19   2.0000      -0.936034       -25.4708
  20   2.0000      -0.853189       -23.2165
  21   2.0000      -0.851640       -23.1743
  22   2.0000      -0.797222       -21.6935
  23   2.0000      -0.737514       -20.0688
  24   2.0000      -0.734021       -19.9737
  25   2.0000      -0.692675       -18.8486
  26   2.0000      -0.690267       -18.7831
  27   2.0000      -0.673876       -18.3371
  28   2.0000      -0.594058       -16.1651
  29   2.0000      -0.557179       -15.1616
  30   2.0000      -0.544678       -14.8214
  31   2.0000      -0.480007       -13.0617
  32   2.0000      -0.404373       -11.0035
  33   0.0000       0.036650         0.9973
  34   0.0000       0.046236         1.2582
  35   0.0000       0.058648         1.5959
  36   0.0000       0.071845         1.9550
  37   0.0000       0.078451         2.1348

MULLIKEN ATOMIC CHARGES
-----------------------
   0 Cl:   -0.214861
   1 F :   -0.539079
   2 F :   -0.511633
   3 F :   -0.511632
   4 C :    1.489756
   5 S :    0.287449
Sum of atomic charges:   -0.0000000

LOEWDIN ATOMIC CHARGES
----------------------
   0 Cl:    0.480480
   1 F :    0.665879
   2 F :    0.673363
   3 F :    0.673362
   4 C :   -2.777435
   5 S :    0.284351

  Mayer bond orders larger than 0.100000
B(  0-Cl,  5-S ) :   0.9914 B(  1-F ,  4-C ) :   0.6073 B(  2-F ,  4-C ) :   0.6150
B(  3-F ,  4-C ) :   0.6150 B(  4-C ,  5-S ) :   1.0144

MP2 TOTAL ENERGY:    -1194.796468375 Eh
FINAL SINGLE POINT ENERGY     -1194.796468375086

DIPOLE MOMENT
-------------
                                X             Y             Z
Electronic contribution:     -0.76507      -1.10545      -0.00000
Nuclear contribution   :      0.99042       1.39258       0.00000
                        -----------------------------------------
Total Dipole Moment    :      0.22535       0.28714      -0.00000
                        -----------------------------------------
Magnitude (a.u.)       :      0.36501
Magnitude (Debye)      :      0.92778

Rotational constants in cm-1:     0.140384     0.053757     0.048655
Rotational constants in MHz :  4208.613860  1611.599287  1458.630204

                             ****ORCA TERMINATED NORMALLY****
TOTAL RUN TIME: 0 days 0 hours 10 minutes 54 seconds 868 msec
