                         Program Version 5.0.4 -  RELEASE  -
|  1> ! ri-mp2 aug-cc-pvdz aug-cc-pvdz/c tightscf
|  2> %pal nprocs 16 end
|  3> %maxcore 3800
|  4> %base "DZ_P-N_29_AB"
|  5> %scf
|  6> STABPerform true
|  7> STABRestartUHFifUnstable true
|  8> end
|  9>
| 10> *xyz 0 1
| 11> N        -1.502489    0.741284    0.050467
| 12> C         1.145989   -0.000133    0.005093
| 13> N         2.225176    0.389729   -0.013422
| 14> P        -0.545922   -0.627774   -0.097102
| 15> H        -0.542824   -1.059636    1.244854
| 16> H        -1.903479    1.096551   -0.801138
| 17> H        -1.299615    1.463403    0.722943
| 18> *
| 19>
| 20> $new_job
| 21> ! ri-mp2 aug-cc-pvtz aug-cc-pvtz/c tightscf
| 22> %pal nprocs 16 end
| 23> %maxcore 3800
| 24> %base "TZ_P-N_29_AB"
| 25>
| 26> *xyz 0 1
| 27> N        -1.502489    0.741284    0.050467
| 28> C         1.145989   -0.000133    0.005093
| 29> N         2.225176    0.389729   -0.013422
| 30> P        -0.545922   -0.627774   -0.097102
| 31> H        -0.542824   -1.059636    1.244854
| 32> H        -1.903479    1.096551   -0.801138
| 33> H        -1.299615    1.463403    0.722943
| 34> *
| 35>
| 36> $new_job
| 37> ! ri-mp2 aug-cc-pvqz aug-cc-pvqz/c tightscf
| 38> %pal nprocs 16 end
| 39> %maxcore 3800
| 40> %base "QZ_P-N_29_AB"
| 41>
| 42> *xyz 0 1
| 43> N        -1.502489    0.741284    0.050467
| 44> C         1.145989   -0.000133    0.005093
| 45> N         2.225176    0.389729   -0.013422
| 46> P        -0.545922   -0.627774   -0.097102
| 47> H        -0.542824   -1.059636    1.244854
| 48> H        -1.903479    1.096551   -0.801138
| 49> H        -1.299615    1.463403    0.722943
| 50> *
| 51>
| 52>
| 53>
| 54>
| 55>                          ****END OF INPUT****
 Total Charge           Charge          ....    0
 Multiplicity           Mult            ....    1
 Number of Electrons    NEL             ....   38
MP2 TOTAL ENERGY:     -489.856448902 Eh
FINAL SINGLE POINT ENERGY      -489.856448902248
MP2 TOTAL ENERGY:     -490.030959044 Eh
FINAL SINGLE POINT ENERGY      -490.030959044451

CARTESIAN COORDINATES (ANGSTROEM)
---------------------------------
  N     -1.502489    0.741284    0.050467
  C      1.145989   -0.000133    0.005093
  N      2.225176    0.389729   -0.013422
  P     -0.545922   -0.627774   -0.097102
  H     -0.542824   -1.059636    1.244854
  H     -1.903479    1.096551   -0.801138
  H     -1.299615    1.463403    0.722943

 Multiplicity           Mult            ....    1
 Number of Electrons    NEL             ....   38
 Basis Dimension        Dim             ....  462

ORBITAL ENERGIES
----------------

  NO   OCC          E(Eh)            E(eV)
   0   2.0000     -80.011234     -2177.2164
   1   2.0000     -15.585274      -424.0969
   2   2.0000     -15.576460      -423.8570
   3   2.0000     -11.261532      -306.4419
   4   2.0000      -7.548170      -205.3962
   5   2.0000      -5.442522      -148.0985
   6   2.0000      -5.441739      -148.0773
   7   2.0000      -5.441194      -148.0624
   8   2.0000      -1.225538       -33.3486
   9   2.0000      -1.200398       -32.6645
  10   2.0000      -0.899241       -24.4696
  11   2.0000      -0.713343       -19.4111
  12   2.0000      -0.684640       -18.6300
  13   2.0000      -0.602865       -16.4048
  14   2.0000      -0.563353       -15.3296
  15   2.0000      -0.503054       -13.6888
  16   2.0000      -0.479642       -13.0517
  17   2.0000      -0.449540       -12.2326
  18   2.0000      -0.399899       -10.8818
  19   0.0000       0.018773         0.5108
  20   0.0000       0.033809         0.9200
  21   0.0000       0.038170         1.0387
  22   0.0000       0.049589         1.3494
  23   0.0000       0.060011         1.6330

MULLIKEN ATOMIC CHARGES
-----------------------
   0 N :   -0.846190
   1 C :   -0.098380
   2 N :   -0.522247
   3 P :    0.966448
   4 H :   -0.046414
   5 H :    0.269407
   6 H :    0.277375
Sum of atomic charges:    0.0000000

LOEWDIN ATOMIC CHARGES
----------------------
   0 N :    0.973883
   1 C :   -0.559179
   2 N :    0.269137
   3 P :    0.973906
   4 H :   -0.463333
   5 H :   -0.612112
   6 H :   -0.582302

  Mayer bond orders larger than 0.100000
B(  0-N ,  3-P ) :   0.9192 B(  0-N ,  5-H ) :   0.9635 B(  0-N ,  6-H ) :   0.9372
B(  1-C ,  2-N ) :   2.6372 B(  1-C ,  3-P ) :   0.6775 B(  3-P ,  4-H ) :   0.9158

MP2 TOTAL ENERGY:     -490.087451476 Eh
FINAL SINGLE POINT ENERGY      -490.087451476212

DIPOLE MOMENT
-------------
                                X             Y             Z
Electronic contribution:      1.63927      -1.84765      -1.06200
Nuclear contribution   :     -3.10615       2.02930       1.21416
                        -----------------------------------------
Total Dipole Moment    :     -1.46688       0.18165       0.15217
                        -----------------------------------------
Magnitude (a.u.)       :      1.48590
Magnitude (Debye)      :      3.77685

Rotational constants in cm-1:     0.573751     0.125224     0.106677
Rotational constants in MHz : 17200.613671  3754.116799  3198.105849

                             ****ORCA TERMINATED NORMALLY****
TOTAL RUN TIME: 0 days 0 hours 9 minutes 8 seconds 785 msec
