                         Program Version 5.0.4 -  RELEASE  -
|  1> ! ri-mp2 aug-cc-pvdz aug-cc-pvdz/c tightscf
|  2> %pal nprocs 16 end
|  3> %maxcore 3800
|  4> %base "DZ_P-C_68_AB"
|  5> %scf
|  6> STABPerform true
|  7> STABRestartUHFifUnstable true
|  8> end
|  9>
| 10> *xyz 0 1
| 11> C        -2.353926    1.256537   -0.221139
| 12> C        -0.872970    1.264509    0.138116
| 13> C        -3.048218    0.000021    0.288079
| 14> H        -2.460457    1.312522   -1.309356
| 15> H        -2.834941    2.147953    0.185397
| 16> C        -2.353946   -1.256528   -0.221084
| 17> H        -4.097691    0.000024   -0.011995
| 18> H        -3.034671    0.000045    1.382676
| 19> C        -0.872990   -1.264509    0.138171
| 20> H        -2.460479   -1.312559   -1.309299
| 21> H        -2.834976   -2.147918    0.185490
| 22> C        -0.174422   -0.000017   -0.373015
| 23> H        -0.388876   -2.150520   -0.273187
| 24> H        -0.760144   -1.314226    1.224794
| 25> H        -0.760125    1.314272    1.224738
| 26> H        -0.388844    2.150495   -0.273282
| 27> P         1.557316   -0.000011    0.088436
| 28> H        -0.195302   -0.000038   -1.468483
| 29> O         1.892587    0.000014    1.515802
| 30> O         2.139061    1.263479   -0.698565
| 31> O         2.138965   -1.263522   -0.698582
| 32> H         2.775547   -1.751802   -0.164176
| 33> H         2.775147    1.752079   -0.163862
| 34> *
| 35>
| 36> $new_job
| 37> ! ri-mp2 aug-cc-pvtz aug-cc-pvtz/c tightscf
| 38> %pal nprocs 16 end
| 39> %maxcore 3800
| 40> %base "TZ_P-C_68_AB"
| 41>
| 42> *xyz 0 1
| 43> C        -2.353926    1.256537   -0.221139
| 44> C        -0.872970    1.264509    0.138116
| 45> C        -3.048218    0.000021    0.288079
| 46> H        -2.460457    1.312522   -1.309356
| 47> H        -2.834941    2.147953    0.185397
| 48> C        -2.353946   -1.256528   -0.221084
| 49> H        -4.097691    0.000024   -0.011995
| 50> H        -3.034671    0.000045    1.382676
| 51> C        -0.872990   -1.264509    0.138171
| 52> H        -2.460479   -1.312559   -1.309299
| 53> H        -2.834976   -2.147918    0.185490
| 54> C        -0.174422   -0.000017   -0.373015
| 55> H        -0.388876   -2.150520   -0.273187
| 56> H        -0.760144   -1.314226    1.224794
| 57> H        -0.760125    1.314272    1.224738
| 58> H        -0.388844    2.150495   -0.273282
| 59> P         1.557316   -0.000011    0.088436
| 60> H        -0.195302   -0.000038   -1.468483
| 61> O         1.892587    0.000014    1.515802
| 62> O         2.139061    1.263479   -0.698565
| 63> O         2.138965   -1.263522   -0.698582
| 64> H         2.775547   -1.751802   -0.164176
| 65> H         2.775147    1.752079   -0.163862
| 66> *
| 67>
| 68> $new_job
| 69> ! ri-mp2 aug-cc-pvqz aug-cc-pvqz/c tightscf
| 70> %pal nprocs 16 end
| 71> %maxcore 3800
| 72> %base "QZ_P-C_68_AB"
| 73>
| 74> *xyz 0 1
| 75> C        -2.353926    1.256537   -0.221139
| 76> C        -0.872970    1.264509    0.138116
| 77> C        -3.048218    0.000021    0.288079
| 78> H        -2.460457    1.312522   -1.309356
| 79> H        -2.834941    2.147953    0.185397
| 80> C        -2.353946   -1.256528   -0.221084
| 81> H        -4.097691    0.000024   -0.011995
| 82> H        -3.034671    0.000045    1.382676
| 83> C        -0.872990   -1.264509    0.138171
| 84> H        -2.460479   -1.312559   -1.309299
| 85> H        -2.834976   -2.147918    0.185490
| 86> C        -0.174422   -0.000017   -0.373015
| 87> H        -0.388876   -2.150520   -0.273187
| 88> H        -0.760144   -1.314226    1.224794
| 89> H        -0.760125    1.314272    1.224738
| 90> H        -0.388844    2.150495   -0.273282
| 91> P         1.557316   -0.000011    0.088436
| 92> H        -0.195302   -0.000038   -1.468483
| 93> O         1.892587    0.000014    1.515802
| 94> O         2.139061    1.263479   -0.698565
| 95> O         2.138965   -1.263522   -0.698582
| 96> H         2.775547   -1.751802   -0.164176
| 97> H         2.775147    1.752079   -0.163862
| 98> *
| 99>
|100>
|101>
|102>
|103>                          ****END OF INPUT****
 Total Charge           Charge          ....    0
 Multiplicity           Mult            ....    1
 Number of Electrons    NEL             ....   88
MP2 TOTAL ENERGY:     -801.870473750 Eh
FINAL SINGLE POINT ENERGY      -801.870473749678
MP2 TOTAL ENERGY:     -802.357499429 Eh
FINAL SINGLE POINT ENERGY      -802.357499429237

CARTESIAN COORDINATES (ANGSTROEM)
---------------------------------
  C     -2.353926    1.256537   -0.221139
  C     -0.872970    1.264509    0.138116
  C     -3.048218    0.000021    0.288079
  H     -2.460457    1.312522   -1.309356
  H     -2.834941    2.147953    0.185397
  C     -2.353946   -1.256528   -0.221084
  H     -4.097691    0.000024   -0.011995
  H     -3.034671    0.000045    1.382676
  C     -0.872990   -1.264509    0.138171
  H     -2.460479   -1.312559   -1.309299
  H     -2.834976   -2.147918    0.185490
  C     -0.174422   -0.000017   -0.373015
  H     -0.388876   -2.150520   -0.273187
  H     -0.760144   -1.314226    1.224794
  H     -0.760125    1.314272    1.224738
  H     -0.388844    2.150495   -0.273282
  P      1.557316   -0.000011    0.088436
  H     -0.195302   -0.000038   -1.468483
  O      1.892587    0.000014    1.515802
  O      2.139061    1.263479   -0.698565
  O      2.138965   -1.263522   -0.698582
  H      2.775547   -1.751802   -0.164176
  H      2.775147    1.752079   -0.163862

 Multiplicity           Mult            ....    1
 Number of Electrons    NEL             ....   88
 Basis Dimension        Dim             .... 1402

ORBITAL ENERGIES
----------------

  NO   OCC          E(Eh)            E(eV)
   0   2.0000     -80.057578     -2178.4774
   1   2.0000     -20.591866      -560.3332
   2   2.0000     -20.591852      -560.3328
   3   2.0000     -20.499391      -557.8168
   4   2.0000     -11.237247      -305.7810
   5   2.0000     -11.225992      -305.4748
   6   2.0000     -11.225966      -305.4741
   7   2.0000     -11.220247      -305.3184
   8   2.0000     -11.220180      -305.3166
   9   2.0000     -11.217592      -305.2462
  10   2.0000      -7.581301      -206.2977
  11   2.0000      -5.479411      -149.1024
  12   2.0000      -5.478868      -149.0876
  13   2.0000      -5.477744      -149.0570
  14   2.0000      -1.429824       -38.9075
  15   2.0000      -1.379889       -37.5487
  16   2.0000      -1.291619       -35.1467
  17   2.0000      -1.131712       -30.7954
  18   2.0000      -1.026327       -27.9278
  19   2.0000      -1.014857       -27.6157
  20   2.0000      -0.880483       -23.9592
  21   2.0000      -0.843221       -22.9452
  22   2.0000      -0.808939       -22.0124
  23   2.0000      -0.760938       -20.7062
  24   2.0000      -0.733938       -19.9715
  25   2.0000      -0.675826       -18.3902
  26   2.0000      -0.670853       -18.2548
  27   2.0000      -0.635358       -17.2890
  28   2.0000      -0.628875       -17.1126
  29   2.0000      -0.612765       -16.6742
  30   2.0000      -0.609162       -16.5761
  31   2.0000      -0.591886       -16.1060
  32   2.0000      -0.550773       -14.9873
  33   2.0000      -0.549322       -14.9478
  34   2.0000      -0.535725       -14.5778
  35   2.0000      -0.520831       -14.1725
  36   2.0000      -0.517181       -14.0732
  37   2.0000      -0.499621       -13.5954
  38   2.0000      -0.492736       -13.4080
  39   2.0000      -0.466737       -12.7006
  40   2.0000      -0.461228       -12.5506
  41   2.0000      -0.460084       -12.5195
  42   2.0000      -0.440269       -11.9803
  43   2.0000      -0.424332       -11.5467
  44   0.0000       0.023129         0.6294
  45   0.0000       0.028722         0.7816
  46   0.0000       0.028744         0.7822
  47   0.0000       0.033825         0.9204
  48   0.0000       0.040534         1.1030

MULLIKEN ATOMIC CHARGES
-----------------------
   0 C :   -0.502181
   1 C :   -0.481732
   2 C :   -0.417893
   3 H :    0.132601
   4 H :    0.233778
   5 C :   -0.502180
   6 H :    0.256170
   7 H :    0.123138
   8 C :   -0.481707
   9 H :    0.132590
  10 H :    0.233789
  11 C :    0.219805
  12 H :    0.257265
  13 H :    0.203140
  14 H :    0.203138
  15 H :    0.257254
  16 P :    2.594276
  17 H :    0.199875
  18 O :   -1.301389
  19 O :   -1.061873
  20 O :   -1.061862
  21 H :    0.381993
  22 H :    0.382004
Sum of atomic charges:    0.0000000

LOEWDIN ATOMIC CHARGES
----------------------
   0 C :    0.542653
   1 C :    0.487884
   2 C :    0.536554
   3 H :   -0.259902
   4 H :   -0.255773
   5 C :    0.542653
   6 H :   -0.257637
   7 H :   -0.260728
   8 C :    0.487888
   9 H :   -0.259901
  10 H :   -0.255774
  11 C :    0.079060
  12 H :   -0.271820
  13 H :   -0.268016
  14 H :   -0.268015
  15 H :   -0.271821
  16 P :   -0.624330
  17 H :   -0.307166
  18 O :    0.348339
  19 O :    1.125679
  20 O :    1.125681
  21 H :   -0.857739
  22 H :   -0.857770

  Mayer bond orders larger than 0.100000
B(  0-C ,  1-C ) :   0.8619 B(  0-C ,  2-C ) :   0.8939 B(  0-C ,  3-H ) :   1.0362
B(  0-C ,  4-H ) :   0.9906 B(  1-C ,  2-C ) :  -0.1025 B(  1-C , 11-C ) :   0.6351
B(  1-C , 14-H ) :   0.9553 B(  1-C , 15-H ) :   0.9579 B(  1-C , 19-O ) :   0.1595
B(  2-C ,  5-C ) :   0.8939 B(  2-C ,  6-H ) :   0.9517 B(  2-C ,  7-H ) :   1.0455
B(  2-C ,  8-C ) :  -0.1025 B(  5-C ,  8-C ) :   0.8619 B(  5-C ,  9-H ) :   1.0362
B(  5-C , 10-H ) :   0.9906 B(  8-C , 11-C ) :   0.6351 B(  8-C , 12-H ) :   0.9579
B(  8-C , 13-H ) :   0.9553 B(  8-C , 20-O ) :   0.1596 B( 11-C , 16-P ) :   0.9310
B( 11-C , 17-H ) :   0.9660 B( 11-C , 19-O ) :  -0.3680 B( 11-C , 20-O ) :  -0.3682
B( 16-P , 18-O ) :   1.2041 B( 16-P , 19-O ) :   0.5580 B( 16-P , 20-O ) :   0.5581
B( 19-O , 22-H ) :   0.9397 B( 20-O , 21-H ) :   0.9398

MP2 TOTAL ENERGY:     -802.511675405 Eh
FINAL SINGLE POINT ENERGY      -802.511675404684

DIPOLE MOMENT
-------------
                                X             Y             Z
Electronic contribution:     15.86950      -0.00020       0.27777
Nuclear contribution   :    -16.16213       0.00034      -0.85877
                        -----------------------------------------
Total Dipole Moment    :     -0.29263       0.00014      -0.58099
                        -----------------------------------------
Magnitude (a.u.)       :      0.65053
Magnitude (Debye)      :      1.65351

Rotational constants in cm-1:     0.074277     0.024788     0.021850
Rotational constants in MHz :  2226.775595   743.117607   655.059721

                             ****ORCA TERMINATED NORMALLY****
TOTAL RUN TIME: 0 days 9 hours 31 minutes 42 seconds 776 msec
