                         Program Version 5.0.4 -  RELEASE  -
|  1> ! ri-mp2 aug-cc-pvdz aug-cc-pvdz/c tightscf
|  2> %pal nprocs 16 end
|  3> %maxcore 3800
|  4> %base "DZ_P-Si_10_AB"
|  5> %scf
|  6> STABPerform true
|  7> STABRestartUHFifUnstable true
|  8> end
|  9>
| 10> *xyz 0 1
| 11> Si        -0.769197    0.017742    0.318284
| 12> P         1.465679   -0.069303    0.032016
| 13> O         2.110525   -1.120601    0.824454
| 14> O         1.895462    1.428859    0.350364
| 15> C        -1.194208    0.089212    2.106766
| 16> H        -0.740603   -0.755503    2.625451
| 17> H        -2.274630    0.053024    2.244854
| 18> H        -0.815657    1.013612    2.543635
| 19> Cl        -1.538636    1.618080   -0.690283
| 20> Cl        -1.468790   -1.707461   -0.533788
| 21> O         1.756220   -0.182419   -1.536784
| 22> H         1.967710   -1.086368   -1.800201
| 23> H         2.840594    1.543874    0.514399
| 24> *
| 25>
| 26> $new_job
| 27> ! ri-mp2 aug-cc-pvtz aug-cc-pvtz/c tightscf
| 28> %pal nprocs 16 end
| 29> %maxcore 3800
| 30> %base "TZ_P-Si_10_AB"
| 31>
| 32> *xyz 0 1
| 33> Si        -0.769197    0.017742    0.318284
| 34> P         1.465679   -0.069303    0.032016
| 35> O         2.110525   -1.120601    0.824454
| 36> O         1.895462    1.428859    0.350364
| 37> C        -1.194208    0.089212    2.106766
| 38> H        -0.740603   -0.755503    2.625451
| 39> H        -2.274630    0.053024    2.244854
| 40> H        -0.815657    1.013612    2.543635
| 41> Cl        -1.538636    1.618080   -0.690283
| 42> Cl        -1.468790   -1.707461   -0.533788
| 43> O         1.756220   -0.182419   -1.536784
| 44> H         1.967710   -1.086368   -1.800201
| 45> H         2.840594    1.543874    0.514399
| 46> *
| 47>
| 48> $new_job
| 49> ! ri-mp2 aug-cc-pvqz aug-cc-pvqz/c tightscf
| 50> %pal nprocs 16 end
| 51> %maxcore 3800
| 52> %base "QZ_P-Si_10_AB"
| 53>
| 54> *xyz 0 1
| 55> Si        -0.769197    0.017742    0.318284
| 56> P         1.465679   -0.069303    0.032016
| 57> O         2.110525   -1.120601    0.824454
| 58> O         1.895462    1.428859    0.350364
| 59> C        -1.194208    0.089212    2.106766
| 60> H        -0.740603   -0.755503    2.625451
| 61> H        -2.274630    0.053024    2.244854
| 62> H        -0.815657    1.013612    2.543635
| 63> Cl        -1.538636    1.618080   -0.690283
| 64> Cl        -1.468790   -1.707461   -0.533788
| 65> O         1.756220   -0.182419   -1.536784
| 66> H         1.967710   -1.086368   -1.800201
| 67> H         2.840594    1.543874    0.514399
| 68> *
| 69>
| 70>
| 71>
| 72>
| 73>                          ****END OF INPUT****
 Total Charge           Charge          ....    0
 Multiplicity           Mult            ....    1
 Number of Electrons    NEL             ....   98
MP2 TOTAL ENERGY:    -1815.546568865 Eh
FINAL SINGLE POINT ENERGY     -1815.546568864627
MP2 TOTAL ENERGY:    -1816.014210346 Eh
FINAL SINGLE POINT ENERGY     -1816.014210345537

CARTESIAN COORDINATES (ANGSTROEM)
---------------------------------
  Si    -0.769197    0.017742    0.318284
  P      1.465679   -0.069303    0.032016
  O      2.110525   -1.120601    0.824454
  O      1.895462    1.428859    0.350364
  C     -1.194208    0.089212    2.106766
  H     -0.740603   -0.755503    2.625451
  H     -2.274630    0.053024    2.244854
  H     -0.815657    1.013612    2.543635
  Cl    -1.538636    1.618080   -0.690283
  Cl    -1.468790   -1.707461   -0.533788
  O      1.756220   -0.182419   -1.536784
  H      1.967710   -1.086368   -1.800201
  H      2.840594    1.543874    0.514399

 Multiplicity           Mult            ....    1
 Number of Electrons    NEL             ....   98
 Basis Dimension        Dim             ....  886

ORBITAL ENERGIES
----------------

  NO   OCC          E(Eh)            E(eV)
   0   2.0000    -104.844627     -2852.9674
   1   2.0000    -104.844289     -2852.9581
   2   2.0000     -80.072563     -2178.8852
   3   2.0000     -68.867729     -1873.9862
   4   2.0000     -20.611103      -560.8566
   5   2.0000     -20.606900      -560.7423
   6   2.0000     -20.515695      -558.2604
   7   2.0000     -11.233799      -305.6872
   8   2.0000     -10.572190      -287.6839
   9   2.0000     -10.571819      -287.6738
  10   2.0000      -8.038964      -218.7513
  11   2.0000      -8.038597      -218.7414
  12   2.0000      -8.037817      -218.7201
  13   2.0000      -8.037794      -218.7195
  14   2.0000      -8.037429      -218.7096
  15   2.0000      -8.037407      -218.7090
  16   2.0000      -7.596286      -206.7054
  17   2.0000      -6.208875      -168.9521
  18   2.0000      -5.494294      -149.5073
  19   2.0000      -5.493522      -149.4863
  20   2.0000      -5.492601      -149.4613
  21   2.0000      -4.316071      -117.4463
  22   2.0000      -4.315372      -117.4272
  23   2.0000      -4.314321      -117.3986
  24   2.0000      -1.445010       -39.3207
  25   2.0000      -1.393736       -37.9255
  26   2.0000      -1.306642       -35.5555
  27   2.0000      -1.132318       -30.8119
  28   2.0000      -1.102028       -29.9877
  29   2.0000      -0.979091       -26.6424
  30   2.0000      -0.872588       -23.7443
  31   2.0000      -0.757523       -20.6132
  32   2.0000      -0.716987       -19.5102
  33   2.0000      -0.677915       -18.4470
  34   2.0000      -0.648906       -17.6576
  35   2.0000      -0.624466       -16.9926
  36   2.0000      -0.599552       -16.3146
  37   2.0000      -0.589955       -16.0535
  38   2.0000      -0.574709       -15.6386
  39   2.0000      -0.566391       -15.4123
  40   2.0000      -0.548393       -14.9225
  41   2.0000      -0.544057       -14.8045
  42   2.0000      -0.521373       -14.1873
  43   2.0000      -0.499203       -13.5840
  44   2.0000      -0.485809       -13.2195
  45   2.0000      -0.476206       -12.9582
  46   2.0000      -0.472791       -12.8653
  47   2.0000      -0.467539       -12.7224
  48   2.0000      -0.420844       -11.4518
  49   0.0000       0.022669         0.6168
  50   0.0000       0.030377         0.8266
  51   0.0000       0.032574         0.8864
  52   0.0000       0.042065         1.1446
  53   0.0000       0.047042         1.2801

MULLIKEN ATOMIC CHARGES
-----------------------
   0 Si:    1.875870
   1 P :    2.179831
   2 O :   -1.218863
   3 O :   -0.943840
   4 C :   -1.036408
   5 H :    0.263271
   6 H :    0.270511
   7 H :    0.249262
   8 Cl:   -0.718527
   9 Cl:   -0.719223
  10 O :   -0.959571
  11 H :    0.387700
  12 H :    0.369988
Sum of atomic charges:    0.0000000

LOEWDIN ATOMIC CHARGES
----------------------
   0 Si:   -1.516736
   1 P :   -0.741928
   2 O :    0.250330
   3 O :    1.042470
   4 C :    0.833498
   5 H :   -0.359995
   6 H :   -0.365560
   7 H :   -0.359375
   8 Cl:    0.949379
   9 Cl:    0.946524
  10 O :    1.050041
  11 H :   -0.880274
  12 H :   -0.848374

  Mayer bond orders larger than 0.100000
B(  0-Si,  1-P ) :   0.9040 B(  0-Si,  4-C ) :   0.8532 B(  0-Si,  8-Cl) :   0.2670
B(  0-Si,  9-Cl) :   0.2756 B(  1-P ,  2-O ) :   1.2949 B(  1-P ,  3-O ) :   0.5508
B(  1-P , 10-O ) :   0.6149 B(  3-O , 12-H ) :   0.9083 B(  4-C ,  5-H ) :   0.9402
B(  4-C ,  6-H ) :   0.9429 B(  4-C ,  7-H ) :   0.9454 B( 10-O , 11-H ) :   0.9035

MP2 TOTAL ENERGY:    -1816.167490362 Eh
FINAL SINGLE POINT ENERGY     -1816.167490361881

DIPOLE MOMENT
-------------
                                X             Y             Z
Electronic contribution:     -3.79102      -0.45984      -7.25680
Nuclear contribution   :      3.79558       0.90926       7.38402
                        -----------------------------------------
Total Dipole Moment    :      0.00456       0.44942       0.12722
                        -----------------------------------------
Magnitude (a.u.)       :      0.46710
Magnitude (Debye)      :      1.18727

Rotational constants in cm-1:     0.041130     0.027516     0.023648
Rotational constants in MHz :  1233.034965   824.905670   708.944942

                             ****ORCA TERMINATED NORMALLY****
TOTAL RUN TIME: 0 days 1 hours 31 minutes 59 seconds 592 msec
