                         Program Version 5.0.4 -  RELEASE  -
|  1> ! ri-mp2 aug-cc-pvdz aug-cc-pvdz/c tightscf
|  2> %pal nprocs 16 end
|  3> %maxcore 3800
|  4> %base "DZ_Si-S_25_AB"
|  5> %scf
|  6> STABPerform true
|  7> STABRestartUHFifUnstable true
|  8> end
|  9>
| 10> *xyz 0 1
| 11> S        -1.415942   -0.355524    0.000002
| 12> Si         0.482856    0.640651   -0.000002
| 13> C         1.779978   -0.692034    0.000000
| 14> H         1.689502   -1.324038    0.883601
| 15> H         2.777124   -0.249930   -0.000010
| 16> H         1.689491   -1.324051   -0.883592
| 17> H        -2.151319    0.764626    0.000004
| 18> H         0.605216    1.502436    1.196252
| 19> H         0.605213    1.502431   -1.196260
| 20> *
| 21>
| 22> $new_job
| 23> ! ri-mp2 aug-cc-pvtz aug-cc-pvtz/c tightscf
| 24> %pal nprocs 16 end
| 25> %maxcore 3800
| 26> %base "TZ_Si-S_25_AB"
| 27>
| 28> *xyz 0 1
| 29> S        -1.415942   -0.355524    0.000002
| 30> Si         0.482856    0.640651   -0.000002
| 31> C         1.779978   -0.692034    0.000000
| 32> H         1.689502   -1.324038    0.883601
| 33> H         2.777124   -0.249930   -0.000010
| 34> H         1.689491   -1.324051   -0.883592
| 35> H        -2.151319    0.764626    0.000004
| 36> H         0.605216    1.502436    1.196252
| 37> H         0.605213    1.502431   -1.196260
| 38> *
| 39>
| 40> $new_job
| 41> ! ri-mp2 aug-cc-pvqz aug-cc-pvqz/c tightscf
| 42> %pal nprocs 16 end
| 43> %maxcore 3800
| 44> %base "QZ_Si-S_25_AB"
| 45>
| 46> *xyz 0 1
| 47> S        -1.415942   -0.355524    0.000002
| 48> Si         0.482856    0.640651   -0.000002
| 49> C         1.779978   -0.692034    0.000000
| 50> H         1.689502   -1.324038    0.883601
| 51> H         2.777124   -0.249930   -0.000010
| 52> H         1.689491   -1.324051   -0.883592
| 53> H        -2.151319    0.764626    0.000004
| 54> H         0.605216    1.502436    1.196252
| 55> H         0.605213    1.502431   -1.196260
| 56> *
| 57>
| 58>
| 59>
| 60>
| 61>                          ****END OF INPUT****
 Total Charge           Charge          ....    0
 Multiplicity           Mult            ....    1
 Number of Electrons    NEL             ....   42
MP2 TOTAL ENERGY:     -728.272585599 Eh
FINAL SINGLE POINT ENERGY      -728.272585598647
MP2 TOTAL ENERGY:     -728.407596608 Eh
FINAL SINGLE POINT ENERGY      -728.407596608454

CARTESIAN COORDINATES (ANGSTROEM)
---------------------------------
  S     -1.415942   -0.355524    0.000002
  Si     0.482856    0.640651   -0.000002
  C      1.779978   -0.692034    0.000000
  H      1.689502   -1.324038    0.883601
  H      2.777124   -0.249930   -0.000010
  H      1.689491   -1.324051   -0.883592
  H     -2.151319    0.764626    0.000004
  H      0.605216    1.502436    1.196252
  H      0.605213    1.502431   -1.196260

 Multiplicity           Mult            ....    1
 Number of Electrons    NEL             ....   42
 Basis Dimension        Dim             ....  524

ORBITAL ENERGIES
----------------

  NO   OCC          E(Eh)            E(eV)
   0   2.0000     -91.943904     -2501.9208
   1   2.0000     -68.789809     -1871.8659
   2   2.0000     -11.213757      -305.1418
   3   2.0000      -8.948630      -243.5046
   4   2.0000      -6.630172      -180.4161
   5   2.0000      -6.629384      -180.3947
   6   2.0000      -6.628563      -180.3724
   7   2.0000      -6.136974      -166.9956
   8   2.0000      -4.243756      -115.4785
   9   2.0000      -4.243018      -115.4584
  10   2.0000      -4.242953      -115.4566
  11   2.0000      -0.978011       -26.6130
  12   2.0000      -0.944876       -25.7114
  13   2.0000      -0.686509       -18.6808
  14   2.0000      -0.580913       -15.8075
  15   2.0000      -0.574478       -15.6323
  16   2.0000      -0.537345       -14.6219
  17   2.0000      -0.486903       -13.2493
  18   2.0000      -0.462810       -12.5937
  19   2.0000      -0.440681       -11.9915
  20   2.0000      -0.373515       -10.1639
  21   0.0000       0.024521         0.6673
  22   0.0000       0.033569         0.9135
  23   0.0000       0.037621         1.0237
  24   0.0000       0.039617         1.0780
  25   0.0000       0.053219         1.4482

MULLIKEN ATOMIC CHARGES
-----------------------
   0 S :   -0.449185
   1 Si:    0.968675
   2 C :   -0.946338
   3 H :    0.247632
   4 H :    0.264959
   5 H :    0.247630
   6 H :    0.067812
   7 H :   -0.200592
   8 H :   -0.200592
Sum of atomic charges:    0.0000000

LOEWDIN ATOMIC CHARGES
----------------------
   0 S :    1.420095
   1 Si:    0.273896
   2 C :    0.838349
   3 H :   -0.367213
   4 H :   -0.363507
   5 H :   -0.367212
   6 H :   -0.895478
   7 H :   -0.269465
   8 H :   -0.269465

  Mayer bond orders larger than 0.100000
B(  0-S ,  1-Si) :   0.7506 B(  0-S ,  6-H ) :   1.0397 B(  1-Si,  2-C ) :   0.9075
B(  1-Si,  7-H ) :   0.8155 B(  1-Si,  8-H ) :   0.8155 B(  2-C ,  3-H ) :   0.9492
B(  2-C ,  4-H ) :   0.9504 B(  2-C ,  5-H ) :   0.9492

MP2 TOTAL ENERGY:     -728.449921692 Eh
FINAL SINGLE POINT ENERGY      -728.449921691790

DIPOLE MOMENT
-------------
                                X             Y             Z
Electronic contribution:     -4.87207      -0.60133       0.00000
Nuclear contribution   :      5.27468       0.85082      -0.00000
                        -----------------------------------------
Total Dipole Moment    :      0.40261       0.24949      -0.00000
                        -----------------------------------------
Magnitude (a.u.)       :      0.47365
Magnitude (Debye)      :      1.20391

Rotational constants in cm-1:     0.491920     0.127540     0.107014
Rotational constants in MHz : 14747.400731  3823.545391  3208.212445

                             ****ORCA TERMINATED NORMALLY****
TOTAL RUN TIME: 0 days 0 hours 11 minutes 58 seconds 955 msec
