                         Program Version 5.0.4 -  RELEASE  -
|  1> ! ri-mp2 aug-cc-pvdz aug-cc-pvdz/c tightscf
|  2> %pal nprocs 16 end
|  3> %maxcore 3800
|  4> %base "DZ_P-N_85_AB"
|  5>
|  6> *xyz 0 1
|  7> C        -3.283314   -1.090906    0.075053
|  8> C        -1.974424   -1.105631    0.524218
|  9> C        -3.829129    0.073162   -0.439028
| 10> C        -3.056542    1.220616   -0.500875
| 11> C        -1.747824    1.202423   -0.051269
| 12> C        -1.191212    0.041404    0.471939
| 13> H        -1.552601   -2.019779    0.923686
| 14> N         2.872918   -0.146416    0.218246
| 15> O         3.820755   -0.470180   -0.779350
| 16> O         2.951379    1.244876    0.429378
| 17> H        -3.879404   -1.992395    0.127688
| 18> H        -3.474673    2.135348   -0.899927
| 19> H        -4.852655    0.086355   -0.788920
| 20> H        -1.147244    2.102343   -0.102269
| 21> C         0.239187    0.021437    0.928749
| 22> H         3.479378    1.335902    1.231341
| 23> H         4.518608   -0.933152   -0.302495
| 24> P         1.308303   -0.595502   -0.444726
| 25> H         0.365044   -0.660351    1.770423
| 26> H         0.567150    1.011798    1.235521
| 27> H         1.123907    0.518775   -1.304823
| 28> *
| 29>
| 30> $new_job
| 31> ! ri-mp2 aug-cc-pvtz aug-cc-pvtz/c tightscf
| 32> %pal nprocs 16 end
| 33> %maxcore 3800
| 34> %base "TZ_P-N_85_AB"
| 35>
| 36> *xyz 0 1
| 37> C        -3.283314   -1.090906    0.075053
| 38> C        -1.974424   -1.105631    0.524218
| 39> C        -3.829129    0.073162   -0.439028
| 40> C        -3.056542    1.220616   -0.500875
| 41> C        -1.747824    1.202423   -0.051269
| 42> C        -1.191212    0.041404    0.471939
| 43> H        -1.552601   -2.019779    0.923686
| 44> N         2.872918   -0.146416    0.218246
| 45> O         3.820755   -0.470180   -0.779350
| 46> O         2.951379    1.244876    0.429378
| 47> H        -3.879404   -1.992395    0.127688
| 48> H        -3.474673    2.135348   -0.899927
| 49> H        -4.852655    0.086355   -0.788920
| 50> H        -1.147244    2.102343   -0.102269
| 51> C         0.239187    0.021437    0.928749
| 52> H         3.479378    1.335902    1.231341
| 53> H         4.518608   -0.933152   -0.302495
| 54> P         1.308303   -0.595502   -0.444726
| 55> H         0.365044   -0.660351    1.770423
| 56> H         0.567150    1.011798    1.235521
| 57> H         1.123907    0.518775   -1.304823
| 58> *
| 59>
| 60> $new_job
| 61> ! ri-mp2 aug-cc-pvqz aug-cc-pvqz/c tightscf
| 62> %pal nprocs 16 end
| 63> %maxcore 3800
| 64> %base "QZ_P-N_85_AB"
| 65>
| 66> *xyz 0 1
| 67> C        -3.283314   -1.090906    0.075053
| 68> C        -1.974424   -1.105631    0.524218
| 69> C        -3.829129    0.073162   -0.439028
| 70> C        -3.056542    1.220616   -0.500875
| 71> C        -1.747824    1.202423   -0.051269
| 72> C        -1.191212    0.041404    0.471939
| 73> H        -1.552601   -2.019779    0.923686
| 74> N         2.872918   -0.146416    0.218246
| 75> O         3.820755   -0.470180   -0.779350
| 76> O         2.951379    1.244876    0.429378
| 77> H        -3.879404   -1.992395    0.127688
| 78> H        -3.474673    2.135348   -0.899927
| 79> H        -4.852655    0.086355   -0.788920
| 80> H        -1.147244    2.102343   -0.102269
| 81> C         0.239187    0.021437    0.928749
| 82> H         3.479378    1.335902    1.231341
| 83> H         4.518608   -0.933152   -0.302495
| 84> P         1.308303   -0.595502   -0.444726
| 85> H         0.365044   -0.660351    1.770423
| 86> H         0.567150    1.011798    1.235521
| 87> H         1.123907    0.518775   -1.304823
| 88> *
| 89>
| 90>
| 91>
| 92>
| 93>                          ****END OF INPUT****
 Total Charge           Charge          ....    0
 Multiplicity           Mult            ....    1
 Number of Electrons    NEL             ....   90
MP2 TOTAL ENERGY:     -817.423030261 Eh
FINAL SINGLE POINT ENERGY      -817.423030260698
MP2 TOTAL ENERGY:     -817.881089149 Eh
FINAL SINGLE POINT ENERGY      -817.881089148572

CARTESIAN COORDINATES (ANGSTROEM)
---------------------------------
  C     -3.283314   -1.090906    0.075053
  C     -1.974424   -1.105631    0.524218
  C     -3.829129    0.073162   -0.439028
  C     -3.056542    1.220616   -0.500875
  C     -1.747824    1.202423   -0.051269
  C     -1.191212    0.041404    0.471939
  H     -1.552601   -2.019779    0.923686
  N      2.872918   -0.146416    0.218246
  O      3.820755   -0.470180   -0.779350
  O      2.951379    1.244876    0.429378
  H     -3.879404   -1.992395    0.127688
  H     -3.474673    2.135348   -0.899927
  H     -4.852655    0.086355   -0.788920
  H     -1.147244    2.102343   -0.102269
  C      0.239187    0.021437    0.928749
  H      3.479378    1.335902    1.231341
  H      4.518608   -0.933152   -0.302495
  P      1.308303   -0.595502   -0.444726
  H      0.365044   -0.660351    1.770423
  H      0.567150    1.011798    1.235521
  H      1.123907    0.518775   -1.304823

 Multiplicity           Mult            ....    1
 Number of Electrons    NEL             ....   90
 Basis Dimension        Dim             .... 1344

ORBITAL ENERGIES
----------------

  NO   OCC          E(Eh)            E(eV)
   0   2.0000     -79.958890     -2175.7920
   1   2.0000     -20.602675      -560.6273
   2   2.0000     -20.601194      -560.5870
   3   2.0000     -15.667566      -426.3362
   4   2.0000     -11.244995      -305.9919
   5   2.0000     -11.234263      -305.6998
   6   2.0000     -11.233384      -305.6759
   7   2.0000     -11.233165      -305.6699
   8   2.0000     -11.230624      -305.6008
   9   2.0000     -11.230482      -305.5970
  10   2.0000     -11.229757      -305.5772
  11   2.0000      -7.498992      -204.0580
  12   2.0000      -5.392829      -146.7463
  13   2.0000      -5.392178      -146.7286
  14   2.0000      -5.391207      -146.7022
  15   2.0000      -1.470310       -40.0092
  16   2.0000      -1.354966       -36.8705
  17   2.0000      -1.163741       -31.6670
  18   2.0000      -1.068970       -29.0881
  19   2.0000      -1.037409       -28.2293
  20   2.0000      -1.018861       -27.7246
  21   2.0000      -0.945676       -25.7332
  22   2.0000      -0.831960       -22.6388
  23   2.0000      -0.815349       -22.1868
  24   2.0000      -0.775099       -21.0915
  25   2.0000      -0.725290       -19.7361
  26   2.0000      -0.717124       -19.5139
  27   2.0000      -0.697288       -18.9742
  28   2.0000      -0.650878       -17.7113
  29   2.0000      -0.645731       -17.5712
  30   2.0000      -0.632562       -17.2129
  31   2.0000      -0.608199       -16.5499
  32   2.0000      -0.589778       -16.0487
  33   2.0000      -0.574144       -15.6232
  34   2.0000      -0.565044       -15.3756
  35   2.0000      -0.529685       -14.4135
  36   2.0000      -0.509377       -13.8609
  37   2.0000      -0.501799       -13.6546
  38   2.0000      -0.492899       -13.4125
  39   2.0000      -0.489985       -13.3332
  40   2.0000      -0.473275       -12.8785
  41   2.0000      -0.411881       -11.2079
  42   2.0000      -0.371020       -10.0960
  43   2.0000      -0.339503        -9.2384
  44   2.0000      -0.326612        -8.8876
  45   0.0000       0.021846         0.5945
  46   0.0000       0.026427         0.7191
  47   0.0000       0.030332         0.8254
  48   0.0000       0.034817         0.9474
  49   0.0000       0.039317         1.0699

MULLIKEN ATOMIC CHARGES
-----------------------
   0 C :   -0.253628
   1 C :   -0.590036
   2 C :   -0.310943
   3 C :   -0.245106
   4 C :   -0.637201
   5 C :    0.497734
   6 H :    0.252766
   7 N :   -0.040649
   8 O :   -0.660017
   9 O :   -0.616442
  10 H :    0.233826
  11 H :    0.239316
  12 H :    0.336899
  13 H :    0.303008
  14 C :   -0.452366
  15 H :    0.364438
  16 H :    0.354224
  17 P :    0.801600
  18 H :    0.234298
  19 H :    0.278645
  20 H :   -0.090364
Sum of atomic charges:   -0.0000000

LOEWDIN ATOMIC CHARGES
----------------------
   0 C :    0.342470
   1 C :    0.320882
   2 C :    0.334938
   3 C :    0.343726
   4 C :    0.326157
   5 C :   -0.188517
   6 H :   -0.316042
   7 N :   -0.408115
   8 O :    0.975778
   9 O :    1.003402
  10 H :   -0.319589
  11 H :   -0.319593
  12 H :   -0.323151
  13 H :   -0.314510
  14 C :    0.305155
  15 H :   -0.842237
  16 H :   -0.857162
  17 P :    1.059986
  18 H :   -0.352486
  19 H :   -0.378253
  20 H :   -0.392837

  Mayer bond orders larger than 0.100000
B(  0-C ,  1-C ) :   1.3934 B(  0-C ,  2-C ) :   1.0999 B(  0-C ,  4-C ) :   0.1699
B(  0-C ,  5-C ) :  -0.3848 B(  0-C , 10-H ) :   1.1428 B(  1-C ,  2-C ) :   0.1198
B(  1-C ,  3-C ) :   0.1458 B(  1-C ,  5-C ) :   0.9918 B(  1-C ,  6-H ) :   1.0054
B(  1-C , 10-H ) :  -0.1421 B(  1-C , 14-C ) :  -0.2573 B(  2-C ,  3-C ) :   1.1196
B(  2-C ,  4-C ) :   0.1084 B(  2-C , 10-H ) :  -0.1095 B(  2-C , 12-H ) :   0.9890
B(  3-C ,  4-C ) :   1.3756 B(  3-C ,  5-C ) :  -0.3863 B(  3-C , 11-H ) :   1.1397
B(  4-C ,  5-C ) :   0.9709 B(  4-C , 11-H ) :  -0.1424 B(  4-C , 13-H ) :   0.9416
B(  4-C , 14-C ) :  -0.1954 B(  5-C , 14-C ) :   0.8297 B(  7-N ,  8-O ) :   0.6760
B(  7-N ,  9-O ) :   0.7096 B(  7-N , 17-P ) :   0.7151 B(  8-O , 16-H ) :   0.9146
B(  9-O , 15-H ) :   0.8973 B(  9-O , 19-H ) :  -0.1136 B( 14-C , 17-P ) :   0.8272
B( 14-C , 18-H ) :   0.9909 B( 14-C , 19-H ) :   0.9698 B( 17-P , 20-H ) :   0.9642

MP2 TOTAL ENERGY:     -818.028509331 Eh
FINAL SINGLE POINT ENERGY      -818.028509331163

DIPOLE MOMENT
-------------
                                X             Y             Z
Electronic contribution:      6.08065      -2.11887      -1.38626
Nuclear contribution   :     -5.90122       2.13667       2.28107
                        -----------------------------------------
Total Dipole Moment    :      0.17943       0.01780       0.89481
                        -----------------------------------------
Magnitude (a.u.)       :      0.91279
Magnitude (Debye)      :      2.32013

Rotational constants in cm-1:     0.095243     0.014034     0.013217
Rotational constants in MHz :  2855.303337   420.741338   396.239542

                             ****ORCA TERMINATED NORMALLY****
TOTAL RUN TIME: 0 days 0 hours 57 minutes 41 seconds 501 msec
