                         Program Version 5.0.4 -  RELEASE  -
|  1> ! ri-mp2 aug-cc-pvdz aug-cc-pvdz/c tightscf
|  2> %pal nprocs 16 end
|  3> %maxcore 3800
|  4> %base "DZ_Si-Si_34_A"
|  5> %scf
|  6> STABPerform true
|  7> STABRestartUHFifUnstable true
|  8> end
|  9>
| 10> *xyz 0 2
| 11> Si        -0.000004   -0.000002    0.365233
| 12> O        -1.530229   -0.093689   -0.211665
| 13> H        -2.047762   -0.876932   -0.011136
| 14> O         0.846255   -1.278373   -0.211649
| 15> H         1.783353   -1.334876   -0.011202
| 16> O         0.683976    1.372057   -0.211660
| 17> H         0.264432    2.211873   -0.011124
| 18> *
| 19>
| 20> $new_job
| 21> ! ri-mp2 aug-cc-pvtz aug-cc-pvtz/c tightscf
| 22> %pal nprocs 16 end
| 23> %maxcore 3800
| 24> %base "TZ_Si-Si_34_A"
| 25>
| 26> *xyz 0 2
| 27> Si        -0.000004   -0.000002    0.365233
| 28> O        -1.530229   -0.093689   -0.211665
| 29> H        -2.047762   -0.876932   -0.011136
| 30> O         0.846255   -1.278373   -0.211649
| 31> H         1.783353   -1.334876   -0.011202
| 32> O         0.683976    1.372057   -0.211660
| 33> H         0.264432    2.211873   -0.011124
| 34> *
| 35>
| 36> $new_job
| 37> ! ri-mp2 aug-cc-pvqz aug-cc-pvqz/c tightscf
| 38> %pal nprocs 16 end
| 39> %maxcore 3800
| 40> %base "QZ_Si-Si_34_A"
| 41>
| 42> *xyz 0 2
| 43> Si        -0.000004   -0.000002    0.365233
| 44> O        -1.530229   -0.093689   -0.211665
| 45> H        -2.047762   -0.876932   -0.011136
| 46> O         0.846255   -1.278373   -0.211649
| 47> H         1.783353   -1.334876   -0.011202
| 48> O         0.683976    1.372057   -0.211660
| 49> H         0.264432    2.211873   -0.011124
| 50> *
| 51>
| 52>
| 53>
| 54>
| 55>                          ****END OF INPUT****
 Total Charge           Charge          ....    0
 Multiplicity           Mult            ....    2
 Number of Electrons    NEL             ....   41
MP2 TOTAL ENERGY:     -516.090039683 Eh
FINAL SINGLE POINT ENERGY      -516.090039683315
MP2 TOTAL ENERGY:     -516.337817043 Eh
FINAL SINGLE POINT ENERGY      -516.337817043134

CARTESIAN COORDINATES (ANGSTROEM)
---------------------------------
  Si    -0.000004   -0.000002    0.365233
  O     -1.530229   -0.093689   -0.211665
  H     -2.047762   -0.876932   -0.011136
  O      0.846255   -1.278373   -0.211649
  H      1.783353   -1.334876   -0.011202
  O      0.683976    1.372057   -0.211660
  H      0.264432    2.211873   -0.011124

 Multiplicity           Mult            ....    2
 Number of Electrons    NEL             ....   41
 Basis Dimension        Dim             ....  462

ORBITAL ENERGIES
----------------
                 SPIN UP ORBITALS
  NO   OCC          E(Eh)            E(eV)
   0   1.0000     -68.829031     -1872.9332
   1   1.0000     -20.565233      -559.6085
   2   1.0000     -20.565233      -559.6084
   3   1.0000     -20.565223      -559.6082
   4   1.0000      -6.168354      -167.8495
   5   1.0000      -4.279382      -116.4479
   6   1.0000      -4.272731      -116.2669
   7   1.0000      -4.272731      -116.2669
   8   1.0000      -1.377135       -37.4738
   9   1.0000      -1.344024       -36.5727
  10   1.0000      -1.344023       -36.5727
  11   1.0000      -0.786681       -21.4067
  12   1.0000      -0.712726       -19.3943
  13   1.0000      -0.712725       -19.3942
  14   1.0000      -0.613916       -16.7055
  15   1.0000      -0.573051       -15.5935
  16   1.0000      -0.573050       -15.5935
  17   1.0000      -0.541045       -14.7226
  18   1.0000      -0.529813       -14.4169
  19   1.0000      -0.529810       -14.4169
  20   1.0000      -0.338232        -9.2038
  21   0.0000       0.026542         0.7222
  22   0.0000       0.036286         0.9874
  23   0.0000       0.036287         0.9874
  24   0.0000       0.045910         1.2493
  25   0.0000       0.057835         1.5738

                 SPIN DOWN ORBITALS
  NO   OCC          E(Eh)            E(eV)
   0   1.0000     -68.823664     -1872.7871
   1   1.0000     -20.560984      -559.4928
   2   1.0000     -20.560983      -559.4928
   3   1.0000     -20.560968      -559.4924
   4   1.0000      -6.159052      -167.5963
   5   1.0000      -4.269478      -116.1784
   6   1.0000      -4.269478      -116.1784
   7   1.0000      -4.262011      -115.9752
   8   1.0000      -1.364489       -37.1296
   9   1.0000      -1.331521       -36.2325
  10   1.0000      -1.331520       -36.2325
  11   1.0000      -0.774260       -21.0687
  12   1.0000      -0.706369       -19.2213
  13   1.0000      -0.706368       -19.2212
  14   1.0000      -0.575651       -15.6643
  15   1.0000      -0.557512       -15.1707
  16   1.0000      -0.557511       -15.1706
  17   1.0000      -0.534942       -14.5565
  18   1.0000      -0.515727       -14.0337
  19   1.0000      -0.515725       -14.0336
  20   0.0000       0.017770         0.4835
  21   0.0000       0.037161         1.0112
  22   0.0000       0.037162         1.0112
  23   0.0000       0.044929         1.2226
  24   0.0000       0.058009         1.5785

MULLIKEN ATOMIC CHARGES AND SPIN POPULATIONS
--------------------------------------------
   0 Si:    1.706400    0.902949
   1 O :   -0.912849    0.051872
   2 H :    0.344053   -0.019523
   3 O :   -0.912860    0.051872
   4 H :    0.344055   -0.019521
   5 O :   -0.912854    0.051874
   6 H :    0.344054   -0.019523
Sum of atomic charges         :   -0.0000000

LOEWDIN ATOMIC CHARGES AND SPIN POPULATIONS
-------------------------------------------
   0 Si:   -0.348406    0.541115
   1 O :    1.039027    0.121857
   2 H :   -0.922892    0.031106
   3 O :    1.039025    0.121856
   4 H :   -0.922890    0.031104
   5 O :    1.039028    0.121856
   6 H :   -0.922892    0.031106

  Mayer bond orders larger than 0.100000
B(  0-Si,  1-O ) :   0.6349 B(  0-Si,  3-O ) :   0.6349 B(  0-Si,  5-O ) :   0.6349
B(  1-O ,  2-H ) :   0.9170 B(  3-O ,  4-H ) :   0.9170 B(  5-O ,  6-H ) :   0.9170

MP2 TOTAL ENERGY:     -516.418108705 Eh
FINAL SINGLE POINT ENERGY      -516.418108704505

DIPOLE MOMENT
-------------
                                X             Y             Z
Electronic contribution:     -0.00002      -0.00002       0.68849
Nuclear contribution   :      0.00002       0.00006      -0.06390
                        -----------------------------------------
Total Dipole Moment    :      0.00001       0.00004       0.62459
                        -----------------------------------------
Magnitude (a.u.)       :      0.62459
Magnitude (Debye)      :      1.58759

Rotational constants in cm-1:     0.241495     0.241493     0.131889
Rotational constants in MHz :  7239.847338  7239.785972  3953.931181

                             ****ORCA TERMINATED NORMALLY****
TOTAL RUN TIME: 0 days 0 hours 10 minutes 49 seconds 695 msec
