                         Program Version 5.0.4 -  RELEASE  -
|  1> ! ri-mp2 aug-cc-pvdz aug-cc-pvdz/c tightscf
|  2> %pal nprocs 16 end
|  3> %maxcore 3800
|  4> %base "DZ_Si-Cl_54_A"
|  5> %scf
|  6> STABPerform true
|  7> STABRestartUHFifUnstable true
|  8> end
|  9>
| 10> *xyz 0 2
| 11> Si         0.334091   -0.905908   -0.227540
| 12> C        -1.307526    0.044968    0.003456
| 13> Cl         1.946082    0.350138    0.100209
| 14> N        -1.319295    1.390946   -0.087883
| 15> H        -0.464400    1.915666   -0.145142
| 16> H        -2.192562    1.879482    0.034693
| 17> O        -2.300903   -0.632101    0.180006
| 18> H         0.383754   -2.014404    0.746849
| 19> *
| 20>
| 21> $new_job
| 22> ! ri-mp2 aug-cc-pvtz aug-cc-pvtz/c tightscf
| 23> %pal nprocs 16 end
| 24> %maxcore 3800
| 25> %base "TZ_Si-Cl_54_A"
| 26>
| 27> *xyz 0 2
| 28> Si         0.334091   -0.905908   -0.227540
| 29> C        -1.307526    0.044968    0.003456
| 30> Cl         1.946082    0.350138    0.100209
| 31> N        -1.319295    1.390946   -0.087883
| 32> H        -0.464400    1.915666   -0.145142
| 33> H        -2.192562    1.879482    0.034693
| 34> O        -2.300903   -0.632101    0.180006
| 35> H         0.383754   -2.014404    0.746849
| 36> *
| 37>
| 38> $new_job
| 39> ! ri-mp2 aug-cc-pvqz aug-cc-pvqz/c tightscf
| 40> %pal nprocs 16 end
| 41> %maxcore 3800
| 42> %base "QZ_Si-Cl_54_A"
| 43>
| 44> *xyz 0 2
| 45> Si         0.334091   -0.905908   -0.227540
| 46> C        -1.307526    0.044968    0.003456
| 47> Cl         1.946082    0.350138    0.100209
| 48> N        -1.319295    1.390946   -0.087883
| 49> H        -0.464400    1.915666   -0.145142
| 50> H        -2.192562    1.879482    0.034693
| 51> O        -2.300903   -0.632101    0.180006
| 52> H         0.383754   -2.014404    0.746849
| 53> *
| 54>
| 55>
| 56>
| 57>
| 58>                          ****END OF INPUT****
 Total Charge           Charge          ....    0
 Multiplicity           Mult            ....    2
 Number of Electrons    NEL             ....   55
MP2 TOTAL ENERGY:     -918.148216511 Eh
FINAL SINGLE POINT ENERGY      -918.148216511238
MP2 TOTAL ENERGY:     -918.384682261 Eh
FINAL SINGLE POINT ENERGY      -918.384682260702

CARTESIAN COORDINATES (ANGSTROEM)
---------------------------------
  Si     0.334091   -0.905908   -0.227540
  C     -1.307526    0.044968    0.003456
  Cl     1.946082    0.350138    0.100209
  N     -1.319295    1.390946   -0.087883
  H     -0.464400    1.915666   -0.145142
  H     -2.192562    1.879482    0.034693
  O     -2.300903   -0.632101    0.180006
  H      0.383754   -2.014404    0.746849

 Multiplicity           Mult            ....    2
 Number of Electrons    NEL             ....   55
 Basis Dimension        Dim             ....  546

ORBITAL ENERGIES
----------------
                 SPIN UP ORBITALS
  NO   OCC          E(Eh)            E(eV)
   0   1.0000    -104.846499     -2853.0183
   1   1.0000     -68.842261     -1873.2932
   2   1.0000     -20.539648      -558.9122
   3   1.0000     -15.598844      -424.4661
   4   1.0000     -11.354002      -308.9581
   5   1.0000     -10.573641      -287.7234
   6   1.0000      -8.041289      -218.8146
   7   1.0000      -8.039472      -218.7652
   8   1.0000      -8.039041      -218.7534
   9   1.0000      -6.188643      -168.4015
  10   1.0000      -4.300326      -117.0178
  11   1.0000      -4.291658      -116.7820
  12   1.0000      -4.290251      -116.7437
  13   1.0000      -1.399687       -38.0874
  14   1.0000      -1.228453       -33.4279
  15   1.0000      -1.116521       -30.3821
  16   1.0000      -0.851803       -23.1787
  17   1.0000      -0.768782       -20.9196
  18   1.0000      -0.713740       -19.4219
  19   1.0000      -0.656090       -17.8531
  20   1.0000      -0.592859       -16.1325
  21   1.0000      -0.579953       -15.7813
  22   1.0000      -0.545032       -14.8311
  23   1.0000      -0.507587       -13.8122
  24   1.0000      -0.490658       -13.3515
  25   1.0000      -0.436277       -11.8717
  26   1.0000      -0.421984       -11.4828
  27   1.0000      -0.355795        -9.6817
  28   0.0000       0.021124         0.5748
  29   0.0000       0.034304         0.9334
  30   0.0000       0.039802         1.0831
  31   0.0000       0.041482         1.1288
  32   0.0000       0.051853         1.4110

                 SPIN DOWN ORBITALS
  NO   OCC          E(Eh)            E(eV)
   0   1.0000    -104.845577     -2852.9932
   1   1.0000     -68.836255     -1873.1297
   2   1.0000     -20.537099      -558.8429
   3   1.0000     -15.598953      -424.4691
   4   1.0000     -11.353378      -308.9411
   5   1.0000     -10.572641      -287.6962
   6   1.0000      -8.039511      -218.7662
   7   1.0000      -8.038547      -218.7400
   8   1.0000      -8.037057      -218.6994
   9   1.0000      -6.179109      -168.1421
  10   1.0000      -4.287786      -116.6766
  11   1.0000      -4.286485      -116.6412
  12   1.0000      -4.277924      -116.4082
  13   1.0000      -1.394676       -37.9511
  14   1.0000      -1.227218       -33.3943
  15   1.0000      -1.109006       -30.1776
  16   1.0000      -0.842518       -22.9261
  17   1.0000      -0.760459       -20.6932
  18   1.0000      -0.697222       -18.9724
  19   1.0000      -0.644485       -17.5373
  20   1.0000      -0.587892       -15.9974
  21   1.0000      -0.568793       -15.4776
  22   1.0000      -0.533840       -14.5265
  23   1.0000      -0.490414       -13.3448
  24   1.0000      -0.483535       -13.1577
  25   1.0000      -0.425813       -11.5870
  26   1.0000      -0.410933       -11.1821
  27   0.0000       0.012715         0.3460
  28   0.0000       0.022311         0.6071
  29   0.0000       0.037551         1.0218
  30   0.0000       0.040582         1.1043
  31   0.0000       0.045595         1.2407

MULLIKEN ATOMIC CHARGES AND SPIN POPULATIONS
--------------------------------------------
   0 Si:    1.084553    0.880376
   1 C :    0.531347   -0.008694
   2 Cl:   -0.568475    0.033480
   3 N :   -0.713865   -0.001476
   4 H :    0.358404    0.000764
   5 H :    0.234855    0.000883
   6 O :   -0.752496    0.052869
   7 H :   -0.174323    0.041798
Sum of atomic charges         :    0.0000000

LOEWDIN ATOMIC CHARGES AND SPIN POPULATIONS
-------------------------------------------
   0 Si:   -0.029636    0.550103
   1 C :   -1.000431    0.133098
   2 Cl:    0.781343    0.133683
   3 N :    1.128596    0.006114
   4 H :   -0.576696    0.001005
   5 H :   -0.503007    0.000293
   6 O :    0.568561    0.048457
   7 H :   -0.368730    0.127247

  Mayer bond orders larger than 0.100000
B(  0-Si,  1-C ) :   0.8181 B(  0-Si,  2-Cl) :   0.6209 B(  0-Si,  7-H ) :   0.9404
B(  1-C ,  3-N ) :   1.1457 B(  1-C ,  6-O ) :   1.5424 B(  3-N ,  4-H ) :   0.8716
B(  3-N ,  5-H ) :   0.9859 B(  3-N ,  6-O ) :   0.1062

MP2 TOTAL ENERGY:     -918.464256779 Eh
FINAL SINGLE POINT ENERGY      -918.464256779123

DIPOLE MOMENT
-------------
                                X             Y             Z
Electronic contribution:      5.42360      -0.44641      -0.67061
Nuclear contribution   :     -4.87234       1.26812       0.48438
                        -----------------------------------------
Total Dipole Moment    :      0.55126       0.82170      -0.18623
                        -----------------------------------------
Magnitude (a.u.)       :      1.00686
Magnitude (Debye)      :      2.55923

Rotational constants in cm-1:     0.224656     0.061257     0.048964
Rotational constants in MHz :  6735.012868  1836.449076  1467.917947

                             ****ORCA TERMINATED NORMALLY****
TOTAL RUN TIME: 0 days 0 hours 41 minutes 2 seconds 269 msec
