                         Program Version 5.0.4 -  RELEASE  -
|  1> ! ri-mp2 aug-cc-pvdz aug-cc-pvdz/c tightscf
|  2> %pal nprocs 16 end
|  3> %maxcore 3800
|  4> %base "DZ_B-B_7_AB"
|  5> %scf
|  6> STABPerform true
|  7> STABRestartUHFifUnstable true
|  8> end
|  9>
| 10> *xyz 0 1
| 11> B         1.087926    0.000032    0.550550
| 12> B        -0.562124    0.000003    0.091206
| 13> F         2.023198   -0.000000   -0.384057
| 14> F        -1.239350    1.120927   -0.079777
| 15> F        -1.239311   -1.120947   -0.079767
| 16> H         1.470163    0.000002    1.683632
| 17> *
| 18>
| 19> $new_job
| 20> ! ri-mp2 aug-cc-pvtz aug-cc-pvtz/c tightscf
| 21> %pal nprocs 16 end
| 22> %maxcore 3800
| 23> %base "TZ_B-B_7_AB"
| 24>
| 25> *xyz 0 1
| 26> B         1.087926    0.000032    0.550550
| 27> B        -0.562124    0.000003    0.091206
| 28> F         2.023198   -0.000000   -0.384057
| 29> F        -1.239350    1.120927   -0.079777
| 30> F        -1.239311   -1.120947   -0.079767
| 31> H         1.470163    0.000002    1.683632
| 32> *
| 33>
| 34> $new_job
| 35> ! ri-mp2 aug-cc-pvqz aug-cc-pvqz/c tightscf
| 36> %pal nprocs 16 end
| 37> %maxcore 3800
| 38> %base "QZ_B-B_7_AB"
| 39>
| 40> *xyz 0 1
| 41> B         1.087926    0.000032    0.550550
| 42> B        -0.562124    0.000003    0.091206
| 43> F         2.023198   -0.000000   -0.384057
| 44> F        -1.239350    1.120927   -0.079777
| 45> F        -1.239311   -1.120947   -0.079767
| 46> H         1.470163    0.000002    1.683632
| 47> *
| 48>
| 49>
| 50>
| 51>
| 52>                          ****END OF INPUT****
 Total Charge           Charge          ....    0
 Multiplicity           Mult            ....    1
 Number of Electrons    NEL             ....   38
MP2 TOTAL ENERGY:     -349.217801272 Eh
FINAL SINGLE POINT ENERGY      -349.217801271552
MP2 TOTAL ENERGY:     -349.522483380 Eh
FINAL SINGLE POINT ENERGY      -349.522483380123

CARTESIAN COORDINATES (ANGSTROEM)
---------------------------------
  B      1.087926    0.000032    0.550550
  B     -0.562124    0.000003    0.091206
  F      2.023198   -0.000000   -0.384057
  F     -1.239350    1.120927   -0.079777
  F     -1.239311   -1.120947   -0.079767
  H      1.470163    0.000002    1.683632

 Multiplicity           Mult            ....    1
 Number of Electrons    NEL             ....   38
 Basis Dimension        Dim             ....  446

ORBITAL ENERGIES
----------------

  NO   OCC          E(Eh)            E(eV)
   0   2.0000     -26.320116      -716.2068
   1   2.0000     -26.320100      -716.2063
   2   2.0000     -26.318499      -716.1628
   3   2.0000      -7.709883      -209.7966
   4   2.0000      -7.674018      -208.8206
   5   2.0000      -1.653614       -44.9971
   6   2.0000      -1.631854       -44.4050
   7   2.0000      -1.620448       -44.0946
   8   2.0000      -0.836952       -22.7746
   9   2.0000      -0.805658       -21.9231
  10   2.0000      -0.767925       -20.8963
  11   2.0000      -0.747828       -20.3494
  12   2.0000      -0.724174       -19.7058
  13   2.0000      -0.709863       -19.3163
  14   2.0000      -0.688055       -18.7229
  15   2.0000      -0.666524       -18.1370
  16   2.0000      -0.659215       -17.9382
  17   2.0000      -0.616429       -16.7739
  18   2.0000      -0.472257       -12.8508
  19   0.0000       0.028294         0.7699
  20   0.0000       0.032029         0.8715
  21   0.0000       0.032875         0.8946
  22   0.0000       0.036872         1.0033
  23   0.0000       0.052694         1.4339

MULLIKEN ATOMIC CHARGES
-----------------------
   0 B :    0.871247
   1 B :    1.479211
   2 F :   -0.704382
   3 F :   -0.736554
   4 F :   -0.736551
   5 H :   -0.172971
Sum of atomic charges:    0.0000000

LOEWDIN ATOMIC CHARGES
----------------------
   0 B :   -0.537323
   1 B :   -1.554658
   2 F :    0.789555
   3 F :    0.775841
   4 F :    0.775842
   5 H :   -0.249257

  Mayer bond orders larger than 0.100000
B(  0-B ,  1-B ) :   0.9614 B(  0-B ,  2-F ) :   0.4778 B(  0-B ,  5-H ) :   0.9598
B(  1-B ,  3-F ) :   0.4286 B(  1-B ,  4-F ) :   0.4286

MP2 TOTAL ENERGY:     -349.619531093 Eh
FINAL SINGLE POINT ENERGY      -349.619531093309

DIPOLE MOMENT
-------------
                                X             Y             Z
Electronic contribution:     -1.13828       0.00005      -1.13543
Nuclear contribution   :      1.34115      -0.00001       1.52675
                        -----------------------------------------
Total Dipole Moment    :      0.20287       0.00004       0.39133
                        -----------------------------------------
Magnitude (a.u.)       :      0.44078
Magnitude (Debye)      :      1.12038

Rotational constants in cm-1:     0.296130     0.102968     0.083340
Rotational constants in MHz :  8877.761897  3086.896535  2498.475501

                             ****ORCA TERMINATED NORMALLY****
TOTAL RUN TIME: 0 days 0 hours 4 minutes 38 seconds 601 msec
