                         Program Version 5.0.4 -  RELEASE  -
|  1> ! ri-mp2 aug-cc-pvdz aug-cc-pvdz/c tightscf
|  2> %pal nprocs 16 end
|  3> %maxcore 3800
|  4> %base "DZ_S-S_15_AB"
|  5>
|  6> *xyz 0 1
|  7> C         0.771238    0.024361   -0.422656
|  8> O         0.062906    0.917403   -0.782686
|  9> S         0.126492   -1.640290   -0.108497
| 10> S        -1.797565   -1.412318   -0.698877
| 11> C        -2.501676   -0.479584    0.676231
| 12> O        -1.875314   -0.153484    1.635472
| 13> C         2.223396    0.182824   -0.153629
| 14> C         2.724210    1.478397   -0.084927
| 15> C         4.065825    1.689465    0.163072
| 16> C         4.916365    0.608898    0.338850
| 17> C         4.423137   -0.682926    0.266386
| 18> C         3.079083   -0.897507    0.022592
| 19> H         2.705839   -1.910266   -0.042610
| 20> H         2.043626    2.305760   -0.226979
| 21> H         4.451479    2.698317    0.220333
| 22> H         5.967968    0.774651    0.531875
| 23> H         5.086944   -1.526339    0.398241
| 24> C        -3.950999   -0.134074    0.444811
| 25> C        -4.158233    1.380734    0.439132
| 26> H        -4.512303   -0.590654    1.262620
| 27> H        -4.302892   -0.574942   -0.490075
| 28> C        -3.473770    2.070454   -0.731324
| 29> H        -3.783957    1.780825    1.382411
| 30> H        -5.231782    1.576669    0.414755
| 31> H        -2.394445    1.915090   -0.715067
| 32> H        -3.657392    3.144525   -0.707018
| 33> H        -3.848093    1.690492   -1.684013
| 34> *
| 35>
| 36> $new_job
| 37> ! ri-mp2 aug-cc-pvtz aug-cc-pvtz/c tightscf
| 38> %pal nprocs 16 end
| 39> %maxcore 3800
| 40> %base "TZ_S-S_15_AB"
| 41>
| 42> *xyz 0 1
| 43> C         0.771238    0.024361   -0.422656
| 44> O         0.062906    0.917403   -0.782686
| 45> S         0.126492   -1.640290   -0.108497
| 46> S        -1.797565   -1.412318   -0.698877
| 47> C        -2.501676   -0.479584    0.676231
| 48> O        -1.875314   -0.153484    1.635472
| 49> C         2.223396    0.182824   -0.153629
| 50> C         2.724210    1.478397   -0.084927
| 51> C         4.065825    1.689465    0.163072
| 52> C         4.916365    0.608898    0.338850
| 53> C         4.423137   -0.682926    0.266386
| 54> C         3.079083   -0.897507    0.022592
| 55> H         2.705839   -1.910266   -0.042610
| 56> H         2.043626    2.305760   -0.226979
| 57> H         4.451479    2.698317    0.220333
| 58> H         5.967968    0.774651    0.531875
| 59> H         5.086944   -1.526339    0.398241
| 60> C        -3.950999   -0.134074    0.444811
| 61> C        -4.158233    1.380734    0.439132
| 62> H        -4.512303   -0.590654    1.262620
| 63> H        -4.302892   -0.574942   -0.490075
| 64> C        -3.473770    2.070454   -0.731324
| 65> H        -3.783957    1.780825    1.382411
| 66> H        -5.231782    1.576669    0.414755
| 67> H        -2.394445    1.915090   -0.715067
| 68> H        -3.657392    3.144525   -0.707018
| 69> H        -3.848093    1.690492   -1.684013
| 70> *
| 71>
| 72> $new_job
| 73> ! ri-mp2 aug-cc-pvqz aug-cc-pvqz/c tightscf
| 74> %pal nprocs 16 end
| 75> %maxcore 3800
| 76> %base "QZ_S-S_15_AB"
| 77>
| 78> *xyz 0 1
| 79> C         0.771238    0.024361   -0.422656
| 80> O         0.062906    0.917403   -0.782686
| 81> S         0.126492   -1.640290   -0.108497
| 82> S        -1.797565   -1.412318   -0.698877
| 83> C        -2.501676   -0.479584    0.676231
| 84> O        -1.875314   -0.153484    1.635472
| 85> C         2.223396    0.182824   -0.153629
| 86> C         2.724210    1.478397   -0.084927
| 87> C         4.065825    1.689465    0.163072
| 88> C         4.916365    0.608898    0.338850
| 89> C         4.423137   -0.682926    0.266386
| 90> C         3.079083   -0.897507    0.022592
| 91> H         2.705839   -1.910266   -0.042610
| 92> H         2.043626    2.305760   -0.226979
| 93> H         4.451479    2.698317    0.220333
| 94> H         5.967968    0.774651    0.531875
| 95> H         5.086944   -1.526339    0.398241
| 96> C        -3.950999   -0.134074    0.444811
| 97> C        -4.158233    1.380734    0.439132
| 98> H        -4.512303   -0.590654    1.262620
| 99> H        -4.302892   -0.574942   -0.490075
|100> C        -3.473770    2.070454   -0.731324
|101> H        -3.783957    1.780825    1.382411
|102> H        -5.231782    1.576669    0.414755
|103> H        -2.394445    1.915090   -0.715067
|104> H        -3.657392    3.144525   -0.707018
|105> H        -3.848093    1.690492   -1.684013
|106> *
|107>
|108>
|109>
|110>
|111>                          ****END OF INPUT****
 Total Charge           Charge          ....    0
 Multiplicity           Mult            ....    1
 Number of Electrons    NEL             ....  126
MP2 TOTAL ENERGY:    -1370.600488755 Eh
FINAL SINGLE POINT ENERGY     -1370.600488755065
MP2 TOTAL ENERGY:    -1371.203421717 Eh
FINAL SINGLE POINT ENERGY     -1371.203421717157

CARTESIAN COORDINATES (ANGSTROEM)
---------------------------------
  C      0.771238    0.024361   -0.422656
  O      0.062906    0.917403   -0.782686
  S      0.126492   -1.640290   -0.108497
  S     -1.797565   -1.412318   -0.698877
  C     -2.501676   -0.479584    0.676231
  O     -1.875314   -0.153484    1.635472
  C      2.223396    0.182824   -0.153629
  C      2.724210    1.478397   -0.084927
  C      4.065825    1.689465    0.163072
  C      4.916365    0.608898    0.338850
  C      4.423137   -0.682926    0.266386
  C      3.079083   -0.897507    0.022592
  H      2.705839   -1.910266   -0.042610
  H      2.043626    2.305760   -0.226979
  H      4.451479    2.698317    0.220333
  H      5.967968    0.774651    0.531875
  H      5.086944   -1.526339    0.398241
  C     -3.950999   -0.134074    0.444811
  C     -4.158233    1.380734    0.439132
  H     -4.512303   -0.590654    1.262620
  H     -4.302892   -0.574942   -0.490075
  C     -3.473770    2.070454   -0.731324
  H     -3.783957    1.780825    1.382411
  H     -5.231782    1.576669    0.414755
  H     -2.394445    1.915090   -0.715067
  H     -3.657392    3.144525   -0.707018
  H     -3.848093    1.690492   -1.684013

 Multiplicity           Mult            ....    1
 Number of Electrons    NEL             ....  126
 Basis Dimension        Dim             .... 1760

ORBITAL ENERGIES
----------------

  NO   OCC          E(Eh)            E(eV)
   0   2.0000     -91.992823     -2503.2520
   1   2.0000     -91.991943     -2503.2280
   2   2.0000     -20.561581      -559.5091
   3   2.0000     -20.559056      -559.4404
   4   2.0000     -11.370592      -309.4095
   5   2.0000     -11.361970      -309.1749
   6   2.0000     -11.259484      -306.3861
   7   2.0000     -11.258196      -306.3511
   8   2.0000     -11.255330      -306.2731
   9   2.0000     -11.252577      -306.1982
  10   2.0000     -11.248012      -306.0740
  11   2.0000     -11.246545      -306.0340
  12   2.0000     -11.245953      -306.0179
  13   2.0000     -11.229568      -305.5721
  14   2.0000     -11.207652      -304.9757
  15   2.0000      -8.994487      -244.7524
  16   2.0000      -8.993583      -244.7278
  17   2.0000      -6.675775      -181.6571
  18   2.0000      -6.674829      -181.6313
  19   2.0000      -6.674420      -181.6202
  20   2.0000      -6.673743      -181.6018
  21   2.0000      -6.673415      -181.5929
  22   2.0000      -6.672806      -181.5763
  23   2.0000      -1.419599       -38.6293
  24   2.0000      -1.414631       -38.4941
  25   2.0000      -1.181320       -32.1454
  26   2.0000      -1.099999       -29.9325
  27   2.0000      -1.080500       -29.4019
  28   2.0000      -1.053496       -28.6671
  29   2.0000      -1.038735       -28.2654
  30   2.0000      -0.981191       -26.6996
  31   2.0000      -0.933016       -25.3887
  32   2.0000      -0.872653       -23.7461
  33   2.0000      -0.848337       -23.0844
  34   2.0000      -0.824076       -22.4242
  35   2.0000      -0.771502       -20.9936
  36   2.0000      -0.733490       -19.9593
  37   2.0000      -0.715958       -19.4822
  38   2.0000      -0.675980       -18.3943
  39   2.0000      -0.664638       -18.0857
  40   2.0000      -0.660829       -17.9821
  41   2.0000      -0.645190       -17.5565
  42   2.0000      -0.631544       -17.1852
  43   2.0000      -0.622701       -16.9445
  44   2.0000      -0.609207       -16.5774
  45   2.0000      -0.605106       -16.4658
  46   2.0000      -0.596592       -16.2341
  47   2.0000      -0.578613       -15.7449
  48   2.0000      -0.555724       -15.1220
  49   2.0000      -0.546371       -14.8675
  50   2.0000      -0.534116       -14.5340
  51   2.0000      -0.516197       -14.0464
  52   2.0000      -0.514260       -13.9937
  53   2.0000      -0.503039       -13.6884
  54   2.0000      -0.485919       -13.2225
  55   2.0000      -0.484204       -13.1759
  56   2.0000      -0.474150       -12.9023
  57   2.0000      -0.431538       -11.7427
  58   2.0000      -0.424372       -11.5478
  59   2.0000      -0.387830       -10.5534
  60   2.0000      -0.375433       -10.2160
  61   2.0000      -0.356576        -9.7029
  62   2.0000      -0.355758        -9.6807
  63   0.0000       0.021464         0.5841
  64   0.0000       0.025686         0.6990
  65   0.0000       0.028267         0.7692
  66   0.0000       0.034382         0.9356
  67   0.0000       0.036957         1.0057

MULLIKEN ATOMIC CHARGES
-----------------------
   0 C :    0.857981
   1 O :   -0.898483
   2 S :    0.020666
   3 S :   -0.022731
   4 C :    0.725429
   5 O :   -0.943530
   6 C :   -0.056166
   7 C :   -0.318694
   8 C :   -0.292870
   9 C :   -0.261574
  10 C :   -0.377369
  11 C :   -0.190124
  12 H :    0.301087
  13 H :    0.337162
  14 H :    0.264865
  15 H :    0.334813
  16 H :    0.255464
  17 C :   -0.377260
  18 C :   -0.462923
  19 H :    0.359162
  20 H :    0.261833
  21 C :   -0.882276
  22 H :    0.262116
  23 H :    0.277495
  24 H :    0.371884
  25 H :    0.250701
  26 H :    0.203342
Sum of atomic charges:    0.0000000

LOEWDIN ATOMIC CHARGES
----------------------
   0 C :   -1.143390
   1 O :    0.654587
   2 S :    0.775689
   3 S :    0.786940
   4 C :   -1.168957
   5 O :    0.659831
   6 C :   -0.234109
   7 C :    0.312790
   8 C :    0.359921
   9 C :    0.348329
  10 C :    0.355954
  11 C :    0.273983
  12 H :   -0.394751
  13 H :   -0.335057
  14 H :   -0.317650
  15 H :   -0.313924
  16 H :   -0.317609
  17 C :    0.361470
  18 C :    0.490134
  19 H :   -0.287059
  20 H :   -0.344888
  21 C :    0.915417
  22 H :   -0.285095
  23 H :   -0.270101
  24 H :   -0.326688
  25 H :   -0.276394
  26 H :   -0.279370

  Mayer bond orders larger than 0.100000
B(  0-C ,  1-O ) :   1.1111 B(  0-C ,  2-S ) :   0.9409 B(  0-C ,  6-C ) :   0.7259
B(  0-C ,  7-C ) :  -0.4288 B(  0-C , 11-C ) :  -0.4230 B(  0-C , 12-H ) :   0.1016
B(  1-O ,  6-C ) :   0.3668 B(  2-S ,  3-S ) :   1.0378 B(  2-S ,  6-C ) :  -0.1296
B(  3-S ,  4-C ) :   0.9358 B(  4-C ,  5-O ) :   1.2570 B(  4-C , 17-C ) :   0.8054
B(  6-C ,  7-C ) :   1.1773 B(  6-C ,  8-C ) :  -0.2885 B(  6-C ,  9-C ) :   0.1038
B(  6-C , 10-C ) :  -0.2911 B(  6-C , 11-C ) :   1.1191 B(  6-C , 12-H ) :  -0.1492
B(  7-C ,  8-C ) :   1.2588 B(  7-C , 10-C ) :   0.1234 B(  7-C , 13-H ) :   0.8565
B(  7-C , 14-H ) :  -0.1434 B(  8-C ,  9-C ) :   1.1593 B(  8-C , 11-C ) :   0.1393
B(  8-C , 14-H ) :   1.1016 B(  9-C , 10-C ) :   1.1619 B(  9-C , 15-H ) :   0.9903
B( 10-C , 11-C ) :   1.2393 B( 10-C , 16-H ) :   1.1122 B( 11-C , 12-H ) :   0.9369
B( 11-C , 16-H ) :  -0.1228 B( 17-C , 18-C ) :   0.9843 B( 17-C , 19-H ) :   0.8355
B( 17-C , 20-H ) :   0.9509 B( 18-C , 21-C ) :   0.9744 B( 18-C , 22-H ) :   0.8885
B( 18-C , 23-H ) :   0.8772 B( 21-C , 24-H ) :   0.8115 B( 21-C , 25-H ) :   1.0188
B( 21-C , 26-H ) :   0.9740

MP2 TOTAL ENERGY:    -1371.397634556 Eh
FINAL SINGLE POINT ENERGY     -1371.397634555896

DIPOLE MOMENT
-------------
                                X             Y             Z
Electronic contribution:      7.78758     -11.28456      -0.54775
Nuclear contribution   :     -7.33736      11.21511       0.37694
                        -----------------------------------------
Total Dipole Moment    :      0.45022      -0.06945      -0.17081
                        -----------------------------------------
Magnitude (a.u.)       :      0.48651
Magnitude (Debye)      :      1.23662

Rotational constants in cm-1:     0.036479     0.008117     0.007199
Rotational constants in MHz :  1093.603721   243.343252   215.816227

                             ****ORCA TERMINATED NORMALLY****
TOTAL RUN TIME: 0 days 2 hours 46 minutes 49 seconds 714 msec
