                         Program Version 5.0.4 -  RELEASE  -
|  1> ! ri-mp2 aug-cc-pvdz aug-cc-pvdz/c tightscf
|  2> %pal nprocs 16 end
|  3> %maxcore 3800
|  4> %base "DZ_B-Cl_36_AB"
|  5> %scf
|  6> STABPerform true
|  7> STABRestartUHFifUnstable true
|  8> end
|  9>
| 10> *xyz 0 1
| 11> Cl         2.310924   -0.743615   -0.348903
| 12> Cl         0.989848    1.916643    0.234841
| 13> B         0.929960    0.210197    0.009341
| 14> S        -0.702707   -0.719386    0.170162
| 15> O        -0.615019   -1.472790    1.375784
| 16> O        -1.794523    0.389373    0.446057
| 17> C        -2.428504    1.047857   -0.662956
| 18> H        -3.245239    1.615244   -0.228354
| 19> H        -2.804683    0.314072   -1.369926
| 20> H        -1.729352    1.723817   -1.153789
| 21> O        -0.986621   -1.344404   -1.084396
| 22> *
| 23>
| 24> $new_job
| 25> ! ri-mp2 aug-cc-pvtz aug-cc-pvtz/c tightscf
| 26> %pal nprocs 16 end
| 27> %maxcore 3800
| 28> %base "TZ_B-Cl_36_AB"
| 29>
| 30> *xyz 0 1
| 31> Cl         2.310924   -0.743615   -0.348903
| 32> Cl         0.989848    1.916643    0.234841
| 33> B         0.929960    0.210197    0.009341
| 34> S        -0.702707   -0.719386    0.170162
| 35> O        -0.615019   -1.472790    1.375784
| 36> O        -1.794523    0.389373    0.446057
| 37> C        -2.428504    1.047857   -0.662956
| 38> H        -3.245239    1.615244   -0.228354
| 39> H        -2.804683    0.314072   -1.369926
| 40> H        -1.729352    1.723817   -1.153789
| 41> O        -0.986621   -1.344404   -1.084396
| 42> *
| 43>
| 44> $new_job
| 45> ! ri-mp2 aug-cc-pvqz aug-cc-pvqz/c tightscf
| 46> %pal nprocs 16 end
| 47> %maxcore 3800
| 48> %base "QZ_B-Cl_36_AB"
| 49>
| 50> *xyz 0 1
| 51> Cl         2.310924   -0.743615   -0.348903
| 52> Cl         0.989848    1.916643    0.234841
| 53> B         0.929960    0.210197    0.009341
| 54> S        -0.702707   -0.719386    0.170162
| 55> O        -0.615019   -1.472790    1.375784
| 56> O        -1.794523    0.389373    0.446057
| 57> C        -2.428504    1.047857   -0.662956
| 58> H        -3.245239    1.615244   -0.228354
| 59> H        -2.804683    0.314072   -1.369926
| 60> H        -1.729352    1.723817   -1.153789
| 61> O        -0.986621   -1.344404   -1.084396
| 62> *
| 63>
| 64>
| 65>
| 66>
| 67>                          ****END OF INPUT****
 Total Charge           Charge          ....    0
 Multiplicity           Mult            ....    1
 Number of Electrons    NEL             ....   88
MP2 TOTAL ENERGY:    -1606.714610424 Eh
FINAL SINGLE POINT ENERGY     -1606.714610424414
MP2 TOTAL ENERGY:    -1607.181666585 Eh
FINAL SINGLE POINT ENERGY     -1607.181666584549

CARTESIAN COORDINATES (ANGSTROEM)
---------------------------------
  Cl     2.310924   -0.743615   -0.348903
  Cl     0.989848    1.916643    0.234841
  B      0.929960    0.210197    0.009341
  S     -0.702707   -0.719386    0.170162
  O     -0.615019   -1.472790    1.375784
  O     -1.794523    0.389373    0.446057
  C     -2.428504    1.047857   -0.662956
  H     -3.245239    1.615244   -0.228354
  H     -2.804683    0.314072   -1.369926
  H     -1.729352    1.723817   -1.153789
  O     -0.986621   -1.344404   -1.084396

 Multiplicity           Mult            ....    1
 Number of Electrons    NEL             ....   88
 Basis Dimension        Dim             ....  790

ORBITAL ENERGIES
----------------

  NO   OCC          E(Eh)            E(eV)
   0   2.0000    -104.885480     -2854.0790
   1   2.0000    -104.879415     -2853.9140
   2   2.0000     -92.208062     -2509.1089
   3   2.0000     -20.630692      -561.3897
   4   2.0000     -20.567260      -559.6636
   5   2.0000     -20.563322      -559.5564
   6   2.0000     -11.312667      -307.8333
   7   2.0000     -10.613149      -288.7985
   8   2.0000     -10.606991      -288.6309
   9   2.0000      -9.174533      -249.6517
  10   2.0000      -8.079962      -219.8669
  11   2.0000      -8.078815      -219.8357
  12   2.0000      -8.078502      -219.8272
  13   2.0000      -8.073817      -219.6997
  14   2.0000      -8.072618      -219.6671
  15   2.0000      -8.072326      -219.6592
  16   2.0000      -7.771149      -211.4637
  17   2.0000      -6.860846      -186.6931
  18   2.0000      -6.859252      -186.6497
  19   2.0000      -6.859157      -186.6471
  20   2.0000      -1.522401       -41.4266
  21   2.0000      -1.406007       -38.2594
  22   2.0000      -1.372024       -37.3347
  23   2.0000      -1.188201       -32.3326
  24   2.0000      -1.144496       -31.1433
  25   2.0000      -1.008278       -27.4366
  26   2.0000      -0.892198       -24.2779
  27   2.0000      -0.782282       -21.2870
  28   2.0000      -0.726926       -19.7807
  29   2.0000      -0.699397       -19.0316
  30   2.0000      -0.694991       -18.9117
  31   2.0000      -0.654447       -17.8084
  32   2.0000      -0.637531       -17.3481
  33   2.0000      -0.619491       -16.8572
  34   2.0000      -0.574401       -15.6302
  35   2.0000      -0.563283       -15.3277
  36   2.0000      -0.552152       -15.0248
  37   2.0000      -0.538049       -14.6410
  38   2.0000      -0.520500       -14.1635
  39   2.0000      -0.518253       -14.1024
  40   2.0000      -0.500701       -13.6248
  41   2.0000      -0.494812       -13.4645
  42   2.0000      -0.491049       -13.3621
  43   2.0000      -0.454743       -12.3742
  44   0.0000       0.020947         0.5700
  45   0.0000       0.031449         0.8558
  46   0.0000       0.035359         0.9622
  47   0.0000       0.036753         1.0001
  48   0.0000       0.040347         1.0979

MULLIKEN ATOMIC CHARGES
-----------------------
   0 Cl:   -0.122140
   1 Cl:   -0.141033
   2 B :    0.369729
   3 S :    2.813178
   4 O :   -1.247524
   5 O :   -0.856124
   6 C :   -0.686224
   7 H :    0.439351
   8 H :    0.315286
   9 H :    0.313417
  10 O :   -1.197916
Sum of atomic charges:   -0.0000000

LOEWDIN ATOMIC CHARGES
----------------------
   0 Cl:    1.292179
   1 Cl:    1.301206
   2 B :   -2.576848
   3 S :   -0.675774
   4 O :    0.277589
   5 O :    0.575928
   6 C :    0.520327
   7 H :   -0.322908
   8 H :   -0.351338
   9 H :   -0.342410
  10 O :    0.302051

  Mayer bond orders larger than 0.100000
B(  0-Cl,  2-B ) :   1.1191 B(  1-Cl,  2-B ) :   1.1109 B(  2-B ,  3-S ) :   0.8334
B(  3-S ,  4-O ) :   1.0096 B(  3-S ,  5-O ) :   0.6499 B(  3-S , 10-O ) :   1.1591
B(  5-O ,  6-C ) :   0.8544 B(  6-C ,  7-H ) :   0.8176 B(  6-C ,  8-H ) :   0.8827
B(  6-C ,  9-H ) :   0.8732

MP2 TOTAL ENERGY:    -1607.336405565 Eh
FINAL SINGLE POINT ENERGY     -1607.336405565381

DIPOLE MOMENT
-------------
                                X             Y             Z
Electronic contribution:     12.50709      -0.04985       1.80233
Nuclear contribution   :    -12.41599       1.67271      -2.42103
                        -----------------------------------------
Total Dipole Moment    :      0.09109       1.62286      -0.61870
                        -----------------------------------------
Magnitude (a.u.)       :      1.73919
Magnitude (Debye)      :      4.42066

Rotational constants in cm-1:     0.052822     0.034954     0.025315
Rotational constants in MHz :  1583.565035  1047.895190   758.930572

                             ****ORCA TERMINATED NORMALLY****
TOTAL RUN TIME: 0 days 1 hours 12 minutes 48 seconds 276 msec
