                         Program Version 5.0.4 -  RELEASE  -
|  1> ! ri-mp2 aug-cc-pvdz aug-cc-pvdz/c tightscf
|  2> %pal nprocs 16 end
|  3> %maxcore 3800
|  4> %base "DZ_B-B_61_A"
|  5> %scf
|  6> STABPerform true
|  7> STABRestartUHFifUnstable true
|  8> end
|  9>
| 10> *xyz 0 2
| 11> B         1.516605   -0.365764   -1.075239
| 12> P         0.055603   -0.023381    0.036157
| 13> O        -0.705143    1.336405   -0.287923
| 14> O        -1.158749   -0.990507   -0.296227
| 15> H        -0.303843    2.092335    0.155882
| 16> H        -0.958592   -1.917177   -0.122437
| 17> O         0.665832   -0.127651    1.370183
| 18> H         2.429850    0.258395   -1.487878
| 19> *
| 20>
| 21> $new_job
| 22> ! ri-mp2 aug-cc-pvtz aug-cc-pvtz/c tightscf
| 23> %pal nprocs 16 end
| 24> %maxcore 3800
| 25> %base "TZ_B-B_61_A"
| 26>
| 27> *xyz 0 2
| 28> B         1.516605   -0.365764   -1.075239
| 29> P         0.055603   -0.023381    0.036157
| 30> O        -0.705143    1.336405   -0.287923
| 31> O        -1.158749   -0.990507   -0.296227
| 32> H        -0.303843    2.092335    0.155882
| 33> H        -0.958592   -1.917177   -0.122437
| 34> O         0.665832   -0.127651    1.370183
| 35> H         2.429850    0.258395   -1.487878
| 36> *
| 37>
| 38> $new_job
| 39> ! ri-mp2 aug-cc-pvqz aug-cc-pvqz/c tightscf
| 40> %pal nprocs 16 end
| 41> %maxcore 3800
| 42> %base "QZ_B-B_61_A"
| 43>
| 44> *xyz 0 2
| 45> B         1.516605   -0.365764   -1.075239
| 46> P         0.055603   -0.023381    0.036157
| 47> O        -0.705143    1.336405   -0.287923
| 48> O        -1.158749   -0.990507   -0.296227
| 49> H        -0.303843    2.092335    0.155882
| 50> H        -0.958592   -1.917177   -0.122437
| 51> O         0.665832   -0.127651    1.370183
| 52> H         2.429850    0.258395   -1.487878
| 53> *
| 54>
| 55>
| 56>
| 57>
| 58>                          ****END OF INPUT****
 Total Charge           Charge          ....    0
 Multiplicity           Mult            ....    2
 Number of Electrons    NEL             ....   47
MP2 TOTAL ENERGY:     -592.558722076 Eh
FINAL SINGLE POINT ENERGY      -592.558722076371
MP2 TOTAL ENERGY:     -592.845274393 Eh
FINAL SINGLE POINT ENERGY      -592.845274392655

CARTESIAN COORDINATES (ANGSTROEM)
---------------------------------
  B      1.516605   -0.365764   -1.075239
  P      0.055603   -0.023381    0.036157
  O     -0.705143    1.336405   -0.287923
  O     -1.158749   -0.990507   -0.296227
  H     -0.303843    2.092335    0.155882
  H     -0.958592   -1.917177   -0.122437
  O      0.665832   -0.127651    1.370183
  H      2.429850    0.258395   -1.487878

 Multiplicity           Mult            ....    2
 Number of Electrons    NEL             ....   47
 Basis Dimension        Dim             ....  542

ORBITAL ENERGIES
----------------
                 SPIN UP ORBITALS
  NO   OCC          E(Eh)            E(eV)
   0   1.0000     -80.069228     -2178.7945
   1   1.0000     -20.607313      -560.7535
   2   1.0000     -20.607100      -560.7477
   3   1.0000     -20.514482      -558.2274
   4   1.0000      -7.668399      -208.6677
   5   1.0000      -7.592574      -206.6044
   6   1.0000      -5.491030      -149.4185
   7   1.0000      -5.489973      -149.3898
   8   1.0000      -5.489043      -149.3645
   9   1.0000      -1.446735       -39.3677
  10   1.0000      -1.391734       -37.8710
  11   1.0000      -1.305429       -35.5225
  12   1.0000      -0.877671       -23.8826
  13   1.0000      -0.771662       -20.9980
  14   1.0000      -0.720132       -19.5958
  15   1.0000      -0.671697       -18.2778
  16   1.0000      -0.644309       -17.5326
  17   1.0000      -0.623977       -16.9793
  18   1.0000      -0.581142       -15.8137
  19   1.0000      -0.568317       -15.4647
  20   1.0000      -0.518286       -14.1033
  21   1.0000      -0.481133       -13.0923
  22   1.0000      -0.452099       -12.3022
  23   1.0000      -0.367484        -9.9998
  24   0.0000       0.016528         0.4497
  25   0.0000       0.024329         0.6620
  26   0.0000       0.028143         0.7658
  27   0.0000       0.034649         0.9429
  28   0.0000       0.051720         1.4074

                 SPIN DOWN ORBITALS
  NO   OCC          E(Eh)            E(eV)
   0   1.0000     -80.069255     -2178.7952
   1   1.0000     -20.607404      -560.7560
   2   1.0000     -20.605846      -560.7136
   3   1.0000     -20.513830      -558.2097
   4   1.0000      -7.650838      -208.1899
   5   1.0000      -7.592576      -206.6045
   6   1.0000      -5.491078      -149.4198
   7   1.0000      -5.489949      -149.3891
   8   1.0000      -5.489040      -149.3644
   9   1.0000      -1.445275       -39.3279
  10   1.0000      -1.390025       -37.8245
  11   1.0000      -1.303738       -35.4765
  12   1.0000      -0.872430       -23.7400
  13   1.0000      -0.743114       -20.2212
  14   1.0000      -0.718517       -19.5518
  15   1.0000      -0.662459       -18.0264
  16   1.0000      -0.640042       -17.4164
  17   1.0000      -0.610729       -16.6188
  18   1.0000      -0.578833       -15.7508
  19   1.0000      -0.561793       -15.2872
  20   1.0000      -0.513403       -13.9704
  21   1.0000      -0.471056       -12.8181
  22   1.0000      -0.444251       -12.0887
  23   0.0000       0.018663         0.5078
  24   0.0000       0.023835         0.6486
  25   0.0000       0.030394         0.8271
  26   0.0000       0.034356         0.9349
  27   0.0000       0.049066         1.3352

MULLIKEN ATOMIC CHARGES AND SPIN POPULATIONS
--------------------------------------------
   0 B :    0.152971    0.999112
   1 P :    2.134220    0.012991
   2 O :   -0.883050    0.014745
   3 O :   -0.871863   -0.011497
   4 H :    0.384896   -0.004734
   5 H :    0.388301   -0.000237
   6 O :   -1.121168    0.012758
   7 H :   -0.184308   -0.023138
Sum of atomic charges         :    0.0000000

LOEWDIN ATOMIC CHARGES AND SPIN POPULATIONS
-------------------------------------------
   0 B :    0.271957    0.559142
   1 P :   -0.634250    0.195101
   2 O :    1.068852    0.026581
   3 O :    1.065334    0.004841
   4 H :   -0.866905    0.004426
   5 H :   -0.867885    0.009216
   6 O :    0.279046    0.021464
   7 H :   -0.316151    0.179228

  Mayer bond orders larger than 0.100000
B(  0-B ,  1-P ) :   1.0373 B(  0-B ,  7-H ) :   0.8954 B(  1-P ,  2-O ) :   0.6098
B(  1-P ,  3-O ) :   0.6541 B(  1-P ,  6-O ) :   1.4159 B(  2-O ,  4-H ) :   0.8879
B(  3-O ,  5-H ) :   0.8817

MP2 TOTAL ENERGY:     -592.939131357 Eh
FINAL SINGLE POINT ENERGY      -592.939131357099

DIPOLE MOMENT
-------------
                                X             Y             Z
Electronic contribution:      0.30944      -0.64128      -0.40759
Nuclear contribution   :     -0.12033       0.71715      -0.58023
                        -----------------------------------------
Total Dipole Moment    :      0.18911       0.07586      -0.98782
                        -----------------------------------------
Magnitude (a.u.)       :      1.00862
Magnitude (Debye)      :      2.56370

Rotational constants in cm-1:     0.166610     0.144890     0.137183
Rotational constants in MHz :  4994.846056  4343.701010  4112.657232

                             ****ORCA TERMINATED NORMALLY****
TOTAL RUN TIME: 0 days 0 hours 41 minutes 45 seconds 557 msec
