                         Program Version 5.0.4 -  RELEASE  -
|  1> ! ri-mp2 aug-cc-pvdz aug-cc-pvdz/c tightscf
|  2> %pal nprocs 16 end
|  3> %maxcore 3800
|  4> %base "DZ_P-Cl_15_AB"
|  5> %scf
|  6> STABPerform true
|  7> STABRestartUHFifUnstable true
|  8> end
|  9>
| 10> *xyz 0 1
| 11> Cl         2.783169   -0.437980   -0.483008
| 12> P         1.043380   -1.560697   -0.482010
| 13> C         0.522853   -1.421197    1.254796
| 14> C        -0.150591   -0.403997    0.378791
| 15> C         0.247036    1.029624    0.560895
| 16> O         0.687819    1.478563    1.581331
| 17> O         0.079462    1.730912   -0.555287
| 18> C         0.426347    3.113582   -0.475544
| 19> C        -1.559904   -0.726396    0.024192
| 20> O        -1.939912   -1.856520   -0.144288
| 21> O        -2.344528    0.342106   -0.056602
| 22> C        -3.710378    0.086971   -0.394532
| 23> H         1.231990   -1.015663    1.962803
| 24> H        -0.100414   -2.227883    1.616747
| 25> H         1.477566    3.222920   -0.216232
| 26> H        -0.181341    3.613218    0.276692
| 27> H         0.229672    3.523127   -1.461060
| 28> H        -4.172842   -0.550836    0.355978
| 29> H        -4.190872    1.059456   -0.421083
| 30> H        -3.773237   -0.400229   -1.365376
| 31> *
| 32>
| 33> $new_job
| 34> ! ri-mp2 aug-cc-pvtz aug-cc-pvtz/c tightscf
| 35> %pal nprocs 16 end
| 36> %maxcore 3800
| 37> %base "TZ_P-Cl_15_AB"
| 38>
| 39> *xyz 0 1
| 40> Cl         2.783169   -0.437980   -0.483008
| 41> P         1.043380   -1.560697   -0.482010
| 42> C         0.522853   -1.421197    1.254796
| 43> C        -0.150591   -0.403997    0.378791
| 44> C         0.247036    1.029624    0.560895
| 45> O         0.687819    1.478563    1.581331
| 46> O         0.079462    1.730912   -0.555287
| 47> C         0.426347    3.113582   -0.475544
| 48> C        -1.559904   -0.726396    0.024192
| 49> O        -1.939912   -1.856520   -0.144288
| 50> O        -2.344528    0.342106   -0.056602
| 51> C        -3.710378    0.086971   -0.394532
| 52> H         1.231990   -1.015663    1.962803
| 53> H        -0.100414   -2.227883    1.616747
| 54> H         1.477566    3.222920   -0.216232
| 55> H        -0.181341    3.613218    0.276692
| 56> H         0.229672    3.523127   -1.461060
| 57> H        -4.172842   -0.550836    0.355978
| 58> H        -4.190872    1.059456   -0.421083
| 59> H        -3.773237   -0.400229   -1.365376
| 60> *
| 61>
| 62> $new_job
| 63> ! ri-mp2 aug-cc-pvqz aug-cc-pvqz/c tightscf
| 64> %pal nprocs 16 end
| 65> %maxcore 3800
| 66> %base "QZ_P-Cl_15_AB"
| 67>
| 68> *xyz 0 1
| 69> Cl         2.783169   -0.437980   -0.483008
| 70> P         1.043380   -1.560697   -0.482010
| 71> C         0.522853   -1.421197    1.254796
| 72> C        -0.150591   -0.403997    0.378791
| 73> C         0.247036    1.029624    0.560895
| 74> O         0.687819    1.478563    1.581331
| 75> O         0.079462    1.730912   -0.555287
| 76> C         0.426347    3.113582   -0.475544
| 77> C        -1.559904   -0.726396    0.024192
| 78> O        -1.939912   -1.856520   -0.144288
| 79> O        -2.344528    0.342106   -0.056602
| 80> C        -3.710378    0.086971   -0.394532
| 81> H         1.231990   -1.015663    1.962803
| 82> H        -0.100414   -2.227883    1.616747
| 83> H         1.477566    3.222920   -0.216232
| 84> H        -0.181341    3.613218    0.276692
| 85> H         0.229672    3.523127   -1.461060
| 86> H        -4.172842   -0.550836    0.355978
| 87> H        -4.190872    1.059456   -0.421083
| 88> H        -3.773237   -0.400229   -1.365376
| 89> *
| 90>
| 91>
| 92>
| 93>
| 94>                          ****END OF INPUT****
 Total Charge           Charge          ....    0
 Multiplicity           Mult            ....    1
 Number of Electrons    NEL             ....  108
MP2 TOTAL ENERGY:    -1333.534379716 Eh
FINAL SINGLE POINT ENERGY     -1333.534379716202
MP2 TOTAL ENERGY:    -1334.096506553 Eh
FINAL SINGLE POINT ENERGY     -1334.096506552814

CARTESIAN COORDINATES (ANGSTROEM)
---------------------------------
  Cl     2.783169   -0.437980   -0.483008
  P      1.043380   -1.560697   -0.482010
  C      0.522853   -1.421197    1.254796
  C     -0.150591   -0.403997    0.378791
  C      0.247036    1.029624    0.560895
  O      0.687819    1.478563    1.581331
  O      0.079462    1.730912   -0.555287
  C      0.426347    3.113582   -0.475544
  C     -1.559904   -0.726396    0.024192
  O     -1.939912   -1.856520   -0.144288
  O     -2.344528    0.342106   -0.056602
  C     -3.710378    0.086971   -0.394532
  H      1.231990   -1.015663    1.962803
  H     -0.100414   -2.227883    1.616747
  H      1.477566    3.222920   -0.216232
  H     -0.181341    3.613218    0.276692
  H      0.229672    3.523127   -1.461060
  H     -4.172842   -0.550836    0.355978
  H     -4.190872    1.059456   -0.421083
  H     -3.773237   -0.400229   -1.365376

 Multiplicity           Mult            ....    1
 Number of Electrons    NEL             ....  108
 Basis Dimension        Dim             .... 1336

ORBITAL ENERGIES
----------------

  NO   OCC          E(Eh)            E(eV)
   0   2.0000    -104.839433     -2852.8260
   1   2.0000     -80.016344     -2177.3554
   2   2.0000     -20.619413      -561.0827
   3   2.0000     -20.609059      -560.8010
   4   2.0000     -20.555829      -559.3525
   5   2.0000     -20.553130      -559.2791
   6   2.0000     -11.401913      -310.2618
   7   2.0000     -11.394388      -310.0571
   8   2.0000     -11.296038      -307.3808
   9   2.0000     -11.288489      -307.1754
  10   2.0000     -11.288468      -307.1748
  11   2.0000     -11.265211      -306.5420
  12   2.0000     -10.565882      -287.5123
  13   2.0000      -8.032701      -218.5809
  14   2.0000      -8.031264      -218.5418
  15   2.0000      -8.031207      -218.5403
  16   2.0000      -7.553094      -205.5302
  17   2.0000      -5.445899      -148.1904
  18   2.0000      -5.444584      -148.1547
  19   2.0000      -5.444147      -148.1428
  20   2.0000      -1.488849       -40.5137
  21   2.0000      -1.476874       -40.1878
  22   2.0000      -1.381651       -37.5966
  23   2.0000      -1.375116       -37.4188
  24   2.0000      -1.166488       -31.7418
  25   2.0000      -1.099312       -29.9138
  26   2.0000      -1.009957       -27.4823
  27   2.0000      -0.990896       -26.9637
  28   2.0000      -0.900908       -24.5150
  29   2.0000      -0.823989       -22.4219
  30   2.0000      -0.793139       -21.5824
  31   2.0000      -0.771864       -21.0035
  32   2.0000      -0.759417       -20.6648
  33   2.0000      -0.702415       -19.1137
  34   2.0000      -0.693053       -18.8589
  35   2.0000      -0.685458       -18.6523
  36   2.0000      -0.676509       -18.4087
  37   2.0000      -0.654936       -17.8217
  38   2.0000      -0.633002       -17.2248
  39   2.0000      -0.601196       -16.3594
  40   2.0000      -0.583759       -15.8849
  41   2.0000      -0.571095       -15.5403
  42   2.0000      -0.560541       -15.2531
  43   2.0000      -0.548816       -14.9340
  44   2.0000      -0.534759       -14.5515
  45   2.0000      -0.514240       -13.9932
  46   2.0000      -0.498837       -13.5740
  47   2.0000      -0.493962       -13.4414
  48   2.0000      -0.487865       -13.2755
  49   2.0000      -0.476507       -12.9664
  50   2.0000      -0.469414       -12.7734
  51   2.0000      -0.457165       -12.4401
  52   2.0000      -0.400292       -10.8925
  53   2.0000      -0.392729       -10.6867
  54   0.0000       0.021809         0.5934
  55   0.0000       0.029145         0.7931
  56   0.0000       0.032719         0.8903
  57   0.0000       0.036165         0.9841
  58   0.0000       0.044441         1.2093

MULLIKEN ATOMIC CHARGES
-----------------------
   0 Cl:   -0.598868
   1 P :    0.935600
   2 C :   -0.880871
   3 C :   -0.376145
   4 C :    1.684910
   5 O :   -0.990372
   6 O :   -0.759877
   7 C :   -0.852992
   8 C :    1.439102
   9 O :   -0.909338
  10 O :   -0.770458
  11 C :   -0.809202
  12 H :    0.330298
  13 H :    0.346153
  14 H :    0.335549
  15 H :    0.365442
  16 H :    0.432889
  17 H :    0.342193
  18 H :    0.403685
  19 H :    0.332300
Sum of atomic charges:    0.0000000

LOEWDIN ATOMIC CHARGES
----------------------
   0 Cl:    0.765541
   1 P :    0.333716
   2 C :    0.272519
   3 C :   -0.682094
   4 C :   -1.263284
   5 O :    0.747065
   6 O :    0.841262
   7 C :    0.582150
   8 C :   -1.188802
   9 O :    0.743741
  10 O :    0.858869
  11 C :    0.596376
  12 H :   -0.367251
  13 H :   -0.350967
  14 H :   -0.316074
  15 H :   -0.312048
  16 H :   -0.318612
  17 H :   -0.312219
  18 H :   -0.318173
  19 H :   -0.311716

  Mayer bond orders larger than 0.100000
B(  0-Cl,  1-P ) :   0.7862 B(  0-Cl,  3-C ) :  -0.1926 B(  1-P ,  2-C ) :   1.0889
B(  1-P ,  3-C ) :   0.3259 B(  1-P ,  8-C ) :   0.1185 B(  2-C ,  3-C ) :   0.9769
B(  2-C , 12-H ) :   0.8938 B(  2-C , 13-H ) :   0.8950 B(  3-C ,  4-C ) :   1.0528
B(  3-C ,  5-O ) :   0.2774 B(  3-C ,  8-C ) :   1.2468 B(  3-C ,  9-O ) :   0.3580
B(  3-C , 10-O ) :   0.1011 B(  4-C ,  5-O ) :   0.8131 B(  4-C ,  6-O ) :   0.8095
B(  4-C ,  7-C ) :  -0.1360 B(  5-O ,  6-O ) :   0.1303 B(  6-O ,  7-C ) :   0.9782
B(  7-C , 14-H ) :   0.9007 B(  7-C , 15-H ) :   0.8688 B(  7-C , 16-H ) :   0.8356
B(  8-C ,  9-O ) :   0.9593 B(  8-C , 10-O ) :   0.7990 B(  8-C , 11-C ) :  -0.1735
B(  9-O , 10-O ) :   0.1262 B( 10-O , 11-C ) :   0.9271 B( 11-C , 17-H ) :   0.8966
B( 11-C , 18-H ) :   0.8665 B( 11-C , 19-H ) :   0.9024

MP2 TOTAL ENERGY:    -1334.279385048 Eh
FINAL SINGLE POINT ENERGY     -1334.279385048097

DIPOLE MOMENT
-------------
                                X             Y             Z
Electronic contribution:     13.18655      -8.46931      -2.12710
Nuclear contribution   :    -13.97826       9.02042       1.84145
                        -----------------------------------------
Total Dipole Moment    :     -0.79171       0.55110      -0.28565
                        -----------------------------------------
Magnitude (a.u.)       :      1.00604
Magnitude (Debye)      :      2.55714

Rotational constants in cm-1:     0.031936     0.020604     0.014716
Rotational constants in MHz :   957.410417   617.701710   441.166181

                             ****ORCA TERMINATED NORMALLY****
TOTAL RUN TIME: 0 days 5 hours 37 minutes 41 seconds 819 msec
