                         Program Version 5.0.4 -  RELEASE  -
|  1> ! ri-mp2 aug-cc-pvdz aug-cc-pvdz/c tightscf
|  2> %pal nprocs 16 end
|  3> %maxcore 3800
|  4> %base "DZ_S-Cl_27_A"
|  5> %scf
|  6> STABPerform true
|  7> STABRestartUHFifUnstable true
|  8> end
|  9>
| 10> *xyz 0 2
| 11> S         1.691291    0.075142    0.131884
| 12> P        -0.324785   -0.077620   -0.111905
| 13> O        -0.586566   -1.114102   -1.109081
| 14> O        -1.031602   -0.327244    1.294801
| 15> H        -1.075953   -1.263694    1.523488
| 16> O        -0.802604    1.401076   -0.397680
| 17> H        -1.746760    1.547883   -0.259385
| 18> *
| 19>
| 20> $new_job
| 21> ! ri-mp2 aug-cc-pvtz aug-cc-pvtz/c tightscf
| 22> %pal nprocs 16 end
| 23> %maxcore 3800
| 24> %base "TZ_S-Cl_27_A"
| 25>
| 26> *xyz 0 2
| 27> S         1.691291    0.075142    0.131884
| 28> P        -0.324785   -0.077620   -0.111905
| 29> O        -0.586566   -1.114102   -1.109081
| 30> O        -1.031602   -0.327244    1.294801
| 31> H        -1.075953   -1.263694    1.523488
| 32> O        -0.802604    1.401076   -0.397680
| 33> H        -1.746760    1.547883   -0.259385
| 34> *
| 35>
| 36> $new_job
| 37> ! ri-mp2 aug-cc-pvqz aug-cc-pvqz/c tightscf
| 38> %pal nprocs 16 end
| 39> %maxcore 3800
| 40> %base "QZ_S-Cl_27_A"
| 41>
| 42> *xyz 0 2
| 43> S         1.691291    0.075142    0.131884
| 44> P        -0.324785   -0.077620   -0.111905
| 45> O        -0.586566   -1.114102   -1.109081
| 46> O        -1.031602   -0.327244    1.294801
| 47> H        -1.075953   -1.263694    1.523488
| 48> O        -0.802604    1.401076   -0.397680
| 49> H        -1.746760    1.547883   -0.259385
| 50> *
| 51>
| 52>
| 53>
| 54>
| 55>                          ****END OF INPUT****
 Total Charge           Charge          ....    0
 Multiplicity           Mult            ....    2
 Number of Electrons    NEL             ....   57
MP2 TOTAL ENERGY:     -964.952694981 Eh
FINAL SINGLE POINT ENERGY      -964.952694981246
MP2 TOTAL ENERGY:     -965.269235195 Eh
FINAL SINGLE POINT ENERGY      -965.269235195207

CARTESIAN COORDINATES (ANGSTROEM)
---------------------------------
  S      1.691291    0.075142    0.131884
  P     -0.324785   -0.077620   -0.111905
  O     -0.586566   -1.114102   -1.109081
  O     -1.031602   -0.327244    1.294801
  H     -1.075953   -1.263694    1.523488
  O     -0.802604    1.401076   -0.397680
  H     -1.746760    1.547883   -0.259385

 Multiplicity           Mult            ....    2
 Number of Electrons    NEL             ....   57
 Basis Dimension        Dim             ....  500

ORBITAL ENERGIES
----------------
                 SPIN UP ORBITALS
  NO   OCC          E(Eh)            E(eV)
   0   1.0000     -92.006094     -2503.6131
   1   1.0000     -80.103045     -2179.7147
   2   1.0000     -20.619970      -561.0979
   3   1.0000     -20.619293      -561.0795
   4   1.0000     -20.522842      -558.4549
   5   1.0000      -9.009508      -245.1612
   6   1.0000      -7.623006      -207.4325
   7   1.0000      -6.705216      -182.4582
   8   1.0000      -6.686628      -181.9524
   9   1.0000      -6.685340      -181.9173
  10   1.0000      -5.521467      -150.2468
  11   1.0000      -5.520982      -150.2335
  12   1.0000      -5.519809      -150.2016
  13   1.0000      -1.461245       -39.7625
  14   1.0000      -1.403252       -38.1844
  15   1.0000      -1.319645       -35.9094
  16   1.0000      -1.031652       -28.0727
  17   1.0000      -0.853096       -23.2139
  18   1.0000      -0.780057       -21.2264
  19   1.0000      -0.685932       -18.6651
  20   1.0000      -0.662448       -18.0261
  21   1.0000      -0.619954       -16.8698
  22   1.0000      -0.598784       -16.2937
  23   1.0000      -0.584541       -15.9062
  24   1.0000      -0.536109       -14.5883
  25   1.0000      -0.501084       -13.6352
  26   1.0000      -0.487335       -13.2611
  27   1.0000      -0.455996       -12.4083
  28   1.0000      -0.425383       -11.5753
  29   0.0000       0.020361         0.5541
  30   0.0000       0.034127         0.9286
  31   0.0000       0.044537         1.2119
  32   0.0000       0.063423         1.7258
  33   0.0000       0.074085         2.0159

                 SPIN DOWN ORBITALS
  NO   OCC          E(Eh)            E(eV)
   0   1.0000     -91.997030     -2503.3664
   1   1.0000     -80.103369     -2179.7235
   2   1.0000     -20.619898      -561.0959
   3   1.0000     -20.619051      -561.0729
   4   1.0000     -20.520060      -558.3792
   5   1.0000      -8.999530      -244.8896
   6   1.0000      -7.623491      -207.4457
   7   1.0000      -6.681879      -181.8232
   8   1.0000      -6.680073      -181.7740
   9   1.0000      -6.664032      -181.3375
  10   1.0000      -5.521822      -150.2564
  11   1.0000      -5.521737      -150.2541
  12   1.0000      -5.520297      -150.2149
  13   1.0000      -1.460633       -39.7459
  14   1.0000      -1.402933       -38.1757
  15   1.0000      -1.312342       -35.7106
  16   1.0000      -0.959103       -26.0985
  17   1.0000      -0.835548       -22.7364
  18   1.0000      -0.778748       -21.1908
  19   1.0000      -0.682026       -18.5589
  20   1.0000      -0.657107       -17.8808
  21   1.0000      -0.609634       -16.5890
  22   1.0000      -0.596978       -16.2446
  23   1.0000      -0.578937       -15.7537
  24   1.0000      -0.521731       -14.1970
  25   1.0000      -0.485148       -13.2015
  26   1.0000      -0.455842       -12.4041
  27   1.0000      -0.406158       -11.0521
  28   0.0000      -0.019403        -0.5280
  29   0.0000       0.020753         0.5647
  30   0.0000       0.034235         0.9316
  31   0.0000       0.045411         1.2357
  32   0.0000       0.066441         1.8080

MULLIKEN ATOMIC CHARGES AND SPIN POPULATIONS
--------------------------------------------
   0 S :   -0.169197    1.066131
   1 P :    2.121168   -0.116905
   2 O :   -1.052160    0.047993
   3 O :   -0.790128   -0.002594
   4 H :    0.361998    0.000468
   5 O :   -0.840765    0.005889
   6 H :    0.369085   -0.000983
Sum of atomic charges         :    0.0000000

LOEWDIN ATOMIC CHARGES AND SPIN POPULATIONS
-------------------------------------------
   0 S :    0.843905    0.750903
   1 P :   -1.355278    0.193711
   2 O :    0.203266    0.045580
   3 O :    1.031330    0.003488
   4 H :   -0.877254   -0.000756
   5 O :    1.011492    0.007154
   6 H :   -0.857460   -0.000081

  Mayer bond orders larger than 0.100000
B(  0-S ,  1-P ) :   0.9381 B(  1-P ,  2-O ) :   1.4981 B(  1-P ,  3-O ) :   0.7401
B(  1-P ,  5-O ) :   0.7117 B(  3-O ,  4-H ) :   0.9153 B(  5-O ,  6-H ) :   0.8917

MP2 TOTAL ENERGY:     -965.372944817 Eh
FINAL SINGLE POINT ENERGY      -965.372944817134

DIPOLE MOMENT
-------------
                                X             Y             Z
Electronic contribution:      2.10186       0.06578      -0.20844
Nuclear contribution   :     -2.46562       0.33632       1.29095
                        -----------------------------------------
Total Dipole Moment    :     -0.36377       0.40210       1.08251
                        -----------------------------------------
Magnitude (a.u.)       :      1.21072
Magnitude (Debye)      :      3.07740

Rotational constants in cm-1:     0.153682     0.091868     0.088596
Rotational constants in MHz :  4607.264042  2754.135702  2656.054824

                             ****ORCA TERMINATED NORMALLY****
TOTAL RUN TIME: 0 days 0 hours 21 minutes 33 seconds 885 msec
