                         Program Version 5.0.4 -  RELEASE  -
|  1> ! ri-mp2 aug-cc-pvdz aug-cc-pvdz/c tightscf
|  2> %pal nprocs 16 end
|  3> %maxcore 3800
|  4> %base "DZ_B-B_61_AB"
|  5> %scf
|  6> STABPerform true
|  7> STABRestartUHFifUnstable true
|  8> end
|  9>
| 10> *xyz 0 1
| 11> B         2.698300   -0.006585    0.081423
| 12> B         1.315098   -0.810541    0.362960
| 13> P        -0.378444   -0.063365   -0.093997
| 14> O        -1.383535   -0.180411    1.151746
| 15> O        -0.118017    1.508883   -0.117928
| 16> H        -1.961221   -0.948957    1.072059
| 17> H        -0.889406    2.038308   -0.356366
| 18> O        -0.904399   -0.672863   -1.320399
| 19> H         1.256720   -1.915521    0.801322
| 20> H         3.246386   -0.031639   -0.976655
| 21> H         3.204803    0.649047    0.940329
| 22> *
| 23>
| 24> $new_job
| 25> ! ri-mp2 aug-cc-pvtz aug-cc-pvtz/c tightscf
| 26> %pal nprocs 16 end
| 27> %maxcore 3800
| 28> %base "TZ_B-B_61_AB"
| 29>
| 30> *xyz 0 1
| 31> B         2.698300   -0.006585    0.081423
| 32> B         1.315098   -0.810541    0.362960
| 33> P        -0.378444   -0.063365   -0.093997
| 34> O        -1.383535   -0.180411    1.151746
| 35> O        -0.118017    1.508883   -0.117928
| 36> H        -1.961221   -0.948957    1.072059
| 37> H        -0.889406    2.038308   -0.356366
| 38> O        -0.904399   -0.672863   -1.320399
| 39> H         1.256720   -1.915521    0.801322
| 40> H         3.246386   -0.031639   -0.976655
| 41> H         3.204803    0.649047    0.940329
| 42> *
| 43>
| 44> $new_job
| 45> ! ri-mp2 aug-cc-pvqz aug-cc-pvqz/c tightscf
| 46> %pal nprocs 16 end
| 47> %maxcore 3800
| 48> %base "QZ_B-B_61_AB"
| 49>
| 50> *xyz 0 1
| 51> B         2.698300   -0.006585    0.081423
| 52> B         1.315098   -0.810541    0.362960
| 53> P        -0.378444   -0.063365   -0.093997
| 54> O        -1.383535   -0.180411    1.151746
| 55> O        -0.118017    1.508883   -0.117928
| 56> H        -1.961221   -0.948957    1.072059
| 57> H        -0.889406    2.038308   -0.356366
| 58> O        -0.904399   -0.672863   -1.320399
| 59> H         1.256720   -1.915521    0.801322
| 60> H         3.246386   -0.031639   -0.976655
| 61> H         3.204803    0.649047    0.940329
| 62> *
| 63>
| 64>
| 65>
| 66>
| 67>                          ****END OF INPUT****
 Total Charge           Charge          ....    0
 Multiplicity           Mult            ....    1
 Number of Electrons    NEL             ....   54
MP2 TOTAL ENERGY:     -618.549935503 Eh
FINAL SINGLE POINT ENERGY      -618.549935503023
MP2 TOTAL ENERGY:     -618.862872941 Eh
FINAL SINGLE POINT ENERGY      -618.862872941197

CARTESIAN COORDINATES (ANGSTROEM)
---------------------------------
  B      2.698300   -0.006585    0.081423
  B      1.315098   -0.810541    0.362960
  P     -0.378444   -0.063365   -0.093997
  O     -1.383535   -0.180411    1.151746
  O     -0.118017    1.508883   -0.117928
  H     -1.961221   -0.948957    1.072059
  H     -0.889406    2.038308   -0.356366
  O     -0.904399   -0.672863   -1.320399
  H      1.256720   -1.915521    0.801322
  H      3.246386   -0.031639   -0.976655
  H      3.204803    0.649047    0.940329

 Multiplicity           Mult            ....    1
 Number of Electrons    NEL             ....   54
 Basis Dimension        Dim             ....  714

ORBITAL ENERGIES
----------------

  NO   OCC          E(Eh)            E(eV)
   0   2.0000     -80.060340     -2178.5526
   1   2.0000     -20.602954      -560.6349
   2   2.0000     -20.601079      -560.5839
   3   2.0000     -20.506117      -557.9998
   4   2.0000      -7.617522      -207.2833
   5   2.0000      -7.604920      -206.9404
   6   2.0000      -7.584423      -206.3826
   7   2.0000      -5.482526      -149.1871
   8   2.0000      -5.481631      -149.1628
   9   2.0000      -5.480668      -149.1366
  10   2.0000      -1.437793       -39.1243
  11   2.0000      -1.385054       -37.6892
  12   2.0000      -1.297376       -35.3034
  13   2.0000      -0.872758       -23.7489
  14   2.0000      -0.769688       -20.9443
  15   2.0000      -0.745751       -20.2929
  16   2.0000      -0.683017       -18.5858
  17   2.0000      -0.662268       -18.0212
  18   2.0000      -0.627473       -17.0744
  19   2.0000      -0.593311       -16.1448
  20   2.0000      -0.566625       -15.4187
  21   2.0000      -0.559665       -15.2292
  22   2.0000      -0.512593       -13.9484
  23   2.0000      -0.504935       -13.7400
  24   2.0000      -0.480144       -13.0654
  25   2.0000      -0.462956       -12.5977
  26   2.0000      -0.426473       -11.6049
  27   0.0000       0.020907         0.5689
  28   0.0000       0.028007         0.7621
  29   0.0000       0.028570         0.7774
  30   0.0000       0.033349         0.9075
  31   0.0000       0.041679         1.1342

MULLIKEN ATOMIC CHARGES
-----------------------
   0 B :    0.417436
   1 B :    0.172418
   2 P :    2.235873
   3 O :   -0.925821
   4 O :   -0.925461
   5 H :    0.382182
   6 H :    0.369764
   7 O :   -1.191311
   8 H :   -0.171940
   9 H :   -0.178380
  10 H :   -0.184761
Sum of atomic charges:   -0.0000000

LOEWDIN ATOMIC CHARGES
----------------------
   0 B :    0.442136
   1 B :   -0.026349
   2 P :   -0.556331
   3 O :    1.086268
   4 O :    1.088351
   5 H :   -0.869426
   6 H :   -0.836471
   7 O :    0.294362
   8 H :   -0.210590
   9 H :   -0.204672
  10 H :   -0.207278

  Mayer bond orders larger than 0.100000
B(  0-B ,  1-B ) :   1.0096 B(  0-B ,  9-H ) :   0.9668 B(  0-B , 10-H ) :   0.9756
B(  1-B ,  2-P ) :   0.9695 B(  1-B ,  8-H ) :   0.8469 B(  2-P ,  3-O ) :   0.6055
B(  2-P ,  4-O ) :   0.5306 B(  2-P ,  7-O ) :   1.3560 B(  3-O ,  5-H ) :   0.9174
B(  4-O ,  6-H ) :   0.9009

MP2 TOTAL ENERGY:     -618.964463963 Eh
FINAL SINGLE POINT ENERGY      -618.964463963031

DIPOLE MOMENT
-------------
                                X             Y             Z
Electronic contribution:     -1.77951      -0.34144      -0.22669
Nuclear contribution   :      1.86813       0.49960       1.15942
                        -----------------------------------------
Total Dipole Moment    :      0.08862       0.15816       0.93273
                        -----------------------------------------
Magnitude (a.u.)       :      0.95019
Magnitude (Debye)      :      2.41518

Rotational constants in cm-1:     0.145961     0.074261     0.071891
Rotational constants in MHz :  4375.808520  2226.293280  2155.242004

                             ****ORCA TERMINATED NORMALLY****
TOTAL RUN TIME: 0 days 0 hours 34 minutes 30 seconds 128 msec
