                         Program Version 5.0.4 -  RELEASE  -
|  1> ! ri-mp2 aug-cc-pvdz aug-cc-pvdz/c tightscf
|  2> %pal nprocs 16 end
|  3> %maxcore 3800
|  4> %base "DZ_B-B_54_A"
|  5> %scf
|  6> STABPerform true
|  7> STABRestartUHFifUnstable true
|  8> end
|  9>
| 10> *xyz 0 2
| 11> B         2.547114   -0.172161    0.000020
| 12> N         1.210572    0.023014   -0.000023
| 13> C         0.010870    0.011132   -0.000008
| 14> S        -1.545051    0.002307    0.000004
| 15> H         3.446035    0.596004    0.000044
| 16> *
| 17>
| 18> $new_job
| 19> ! ri-mp2 aug-cc-pvtz aug-cc-pvtz/c tightscf
| 20> %pal nprocs 16 end
| 21> %maxcore 3800
| 22> %base "TZ_B-B_54_A"
| 23>
| 24> *xyz 0 2
| 25> B         2.547114   -0.172161    0.000020
| 26> N         1.210572    0.023014   -0.000023
| 27> C         0.010870    0.011132   -0.000008
| 28> S        -1.545051    0.002307    0.000004
| 29> H         3.446035    0.596004    0.000044
| 30> *
| 31>
| 32> $new_job
| 33> ! ri-mp2 aug-cc-pvqz aug-cc-pvqz/c tightscf
| 34> %pal nprocs 16 end
| 35> %maxcore 3800
| 36> %base "QZ_B-B_54_A"
| 37>
| 38> *xyz 0 2
| 39> B         2.547114   -0.172161    0.000020
| 40> N         1.210572    0.023014   -0.000023
| 41> C         0.010870    0.011132   -0.000008
| 42> S        -1.545051    0.002307    0.000004
| 43> H         3.446035    0.596004    0.000044
| 44> *
| 45>
| 46>
| 47>
| 48>
| 49>                          ****END OF INPUT****
 Total Charge           Charge          ....    0
 Multiplicity           Mult            ....    2
 Number of Electrons    NEL             ....   35
MP2 TOTAL ENERGY:     -515.572934976 Eh
FINAL SINGLE POINT ENERGY      -515.572934976102
MP2 TOTAL ENERGY:     -515.718627547 Eh
FINAL SINGLE POINT ENERGY      -515.718627547352

CARTESIAN COORDINATES (ANGSTROEM)
---------------------------------
  B      2.547114   -0.172161    0.000020
  N      1.210572    0.023014   -0.000023
  C      0.010870    0.011132   -0.000008
  S     -1.545051    0.002307    0.000004
  H      3.446035    0.596004    0.000044

 Multiplicity           Mult            ....    2
 Number of Electrons    NEL             ....   35
 Basis Dimension        Dim             ....  370

ORBITAL ENERGIES
----------------
                 SPIN UP ORBITALS
  NO   OCC          E(Eh)            E(eV)
   0   1.0000     -91.971892     -2502.6824
   1   1.0000     -15.613705      -424.8705
   2   1.0000     -11.393176      -310.0241
   3   1.0000      -8.976269      -244.2567
   4   1.0000      -7.668436      -208.6688
   5   1.0000      -6.657698      -181.1652
   6   1.0000      -6.657378      -181.1565
   7   1.0000      -6.655316      -181.1003
   8   1.0000      -1.292465       -35.1698
   9   1.0000      -1.064057       -28.9545
  10   1.0000      -0.891026       -24.2461
  11   1.0000      -0.632852       -17.2208
  12   1.0000      -0.619131       -16.8474
  13   1.0000      -0.591916       -16.1069
  14   1.0000      -0.589541       -16.0422
  15   1.0000      -0.427016       -11.6197
  16   1.0000      -0.394444       -10.7334
  17   1.0000      -0.308291        -8.3890
  18   0.0000       0.018322         0.4986
  19   0.0000       0.029659         0.8071
  20   0.0000       0.036257         0.9866
  21   0.0000       0.037564         1.0222
  22   0.0000       0.048173         1.3109

                 SPIN DOWN ORBITALS
  NO   OCC          E(Eh)            E(eV)
   0   1.0000     -91.970927     -2502.6562
   1   1.0000     -15.622648      -425.1139
   2   1.0000     -11.386495      -309.8423
   3   1.0000      -8.975224      -244.2282
   4   1.0000      -7.650214      -208.1729
   5   1.0000      -6.657601      -181.1625
   6   1.0000      -6.655321      -181.1005
   7   1.0000      -6.652191      -181.0153
   8   1.0000      -1.298817       -35.3426
   9   1.0000      -1.062188       -28.9036
  10   1.0000      -0.875240       -23.8165
  11   1.0000      -0.619278       -16.8514
  12   1.0000      -0.610480       -16.6120
  13   1.0000      -0.594919       -16.1886
  14   1.0000      -0.567806       -15.4508
  15   1.0000      -0.399491       -10.8707
  16   1.0000      -0.392055       -10.6684
  17   0.0000       0.027044         0.7359
  18   0.0000       0.028891         0.7862
  19   0.0000       0.034296         0.9332
  20   0.0000       0.036636         0.9969
  21   0.0000       0.055217         1.5025

MULLIKEN ATOMIC CHARGES AND SPIN POPULATIONS
--------------------------------------------
   0 B :    0.408176    0.939611
   1 N :   -0.613490   -0.239401
   2 C :    0.180356    0.194231
   3 S :    0.170969    0.104718
   4 H :   -0.146011    0.000841
Sum of atomic charges         :    0.0000000

LOEWDIN ATOMIC CHARGES AND SPIN POPULATIONS
-------------------------------------------
   0 B :    0.049527    0.497474
   1 N :    0.333536    0.100229
   2 C :   -1.071912    0.113553
   3 S :    0.995780    0.123632
   4 H :   -0.306931    0.165111

  Mayer bond orders larger than 0.100000
B(  0-B ,  1-N ) :   1.2031 B(  0-B ,  4-H ) :   0.9357 B(  1-N ,  2-C ) :   2.0216
B(  1-N ,  3-S ) :   0.1034 B(  2-C ,  3-S ) :   1.6265

MP2 TOTAL ENERGY:     -515.766697582 Eh
FINAL SINGLE POINT ENERGY      -515.766697582499

DIPOLE MOMENT
-------------
                                X             Y             Z
Electronic contribution:     -0.98964      -0.52072      -0.00002
Nuclear contribution   :      1.36207       0.69103       0.00003
                        -----------------------------------------
Total Dipole Moment    :      0.37243       0.17030       0.00001
                        -----------------------------------------
Magnitude (a.u.)       :      0.40952
Magnitude (Debye)      :      1.04092

Rotational constants in cm-1:    26.037595     0.094089     0.093750
Rotational constants in MHz : 780587.473422  2820.708974  2810.552840

                             ****ORCA TERMINATED NORMALLY****
TOTAL RUN TIME: 0 days 0 hours 12 minutes 10 seconds 995 msec
