                         Program Version 5.0.4 -  RELEASE  -
|  1> ! ri-mp2 aug-cc-pvdz aug-cc-pvdz/c tightscf
|  2> %pal nprocs 16 end
|  3> %maxcore 3800
|  4> %base "DZ_Si-Cl_31_A"
|  5> %scf
|  6> STABPerform true
|  7> STABRestartUHFifUnstable true
|  8> end
|  9>
| 10> *xyz 0 2
| 11> Si         2.291479    0.018153    0.000000
| 12> C         0.500556    0.606740   -0.000001
| 13> C        -0.487203   -0.539376    0.000001
| 14> H        -0.386237   -1.163661    0.883746
| 15> H        -0.386237   -1.163665   -0.883742
| 16> Cl        -2.191200    0.044600    0.000000
| 17> H         0.336848    1.236335   -0.876107
| 18> H         0.336848    1.236339    0.876102
| 19> H         2.594176   -0.780937   -1.212551
| 20> H         2.594176   -0.780930    1.212556
| 21> *
| 22>
| 23> $new_job
| 24> ! ri-mp2 aug-cc-pvtz aug-cc-pvtz/c tightscf
| 25> %pal nprocs 16 end
| 26> %maxcore 3800
| 27> %base "TZ_Si-Cl_31_A"
| 28>
| 29> *xyz 0 2
| 30> Si         2.291479    0.018153    0.000000
| 31> C         0.500556    0.606740   -0.000001
| 32> C        -0.487203   -0.539376    0.000001
| 33> H        -0.386237   -1.163661    0.883746
| 34> H        -0.386237   -1.163665   -0.883742
| 35> Cl        -2.191200    0.044600    0.000000
| 36> H         0.336848    1.236335   -0.876107
| 37> H         0.336848    1.236339    0.876102
| 38> H         2.594176   -0.780937   -1.212551
| 39> H         2.594176   -0.780930    1.212556
| 40> *
| 41>
| 42> $new_job
| 43> ! ri-mp2 aug-cc-pvqz aug-cc-pvqz/c tightscf
| 44> %pal nprocs 16 end
| 45> %maxcore 3800
| 46> %base "QZ_Si-Cl_31_A"
| 47>
| 48> *xyz 0 2
| 49> Si         2.291479    0.018153    0.000000
| 50> C         0.500556    0.606740   -0.000001
| 51> C        -0.487203   -0.539376    0.000001
| 52> H        -0.386237   -1.163661    0.883746
| 53> H        -0.386237   -1.163665   -0.883742
| 54> Cl        -2.191200    0.044600    0.000000
| 55> H         0.336848    1.236335   -0.876107
| 56> H         0.336848    1.236339    0.876102
| 57> H         2.594176   -0.780937   -1.212551
| 58> H         2.594176   -0.780930    1.212556
| 59> *
| 60>
| 61>
| 62>
| 63>
| 64>                          ****END OF INPUT****
 Total Charge           Charge          ....    0
 Multiplicity           Mult            ....    2
 Number of Electrons    NEL             ....   49
MP2 TOTAL ENERGY:     -828.171374399 Eh
FINAL SINGLE POINT ENERGY      -828.171374398906
MP2 TOTAL ENERGY:     -828.342111911 Eh
FINAL SINGLE POINT ENERGY      -828.342111911350

CARTESIAN COORDINATES (ANGSTROEM)
---------------------------------
  Si     2.291479    0.018153    0.000000
  C      0.500556    0.606740   -0.000001
  C     -0.487203   -0.539376    0.000001
  H     -0.386237   -1.163661    0.883746
  H     -0.386237   -1.163665   -0.883742
  Cl    -2.191200    0.044600    0.000000
  H      0.336848    1.236335   -0.876107
  H      0.336848    1.236339    0.876102
  H      2.594176   -0.780937   -1.212551
  H      2.594176   -0.780930    1.212556

 Multiplicity           Mult            ....    2
 Number of Electrons    NEL             ....   49
 Basis Dimension        Dim             ....  604

ORBITAL ENERGIES
----------------
                 SPIN UP ORBITALS
  NO   OCC          E(Eh)            E(eV)
   0   1.0000    -104.819903     -2852.2946
   1   1.0000     -68.787103     -1871.7922
   2   1.0000     -11.301029      -307.5166
   3   1.0000     -11.234567      -305.7081
   4   1.0000     -10.545679      -286.9625
   5   1.0000      -8.013027      -218.0456
   6   1.0000      -8.011040      -217.9915
   7   1.0000      -8.011009      -217.9906
   8   1.0000      -6.137720      -167.0159
   9   1.0000      -4.250500      -115.6620
  10   1.0000      -4.240522      -115.3905
  11   1.0000      -4.240321      -115.3850
  12   1.0000      -1.138434       -30.9784
  13   1.0000      -1.006994       -27.4017
  14   1.0000      -0.851139       -23.1607
  15   1.0000      -0.714540       -19.4436
  16   1.0000      -0.661015       -17.9871
  17   1.0000      -0.576903       -15.6983
  18   1.0000      -0.565939       -15.4000
  19   1.0000      -0.545145       -14.8342
  20   1.0000      -0.488291       -13.2871
  21   1.0000      -0.463385       -12.6094
  22   1.0000      -0.433837       -11.8053
  23   1.0000      -0.431493       -11.7415
  24   1.0000      -0.336807        -9.1650
  25   0.0000       0.022628         0.6157
  26   0.0000       0.033562         0.9133
  27   0.0000       0.034203         0.9307
  28   0.0000       0.037732         1.0267
  29   0.0000       0.050452         1.3729

                 SPIN DOWN ORBITALS
  NO   OCC          E(Eh)            E(eV)
   0   1.0000    -104.819687     -2852.2887
   1   1.0000     -68.781308     -1871.6345
   2   1.0000     -11.300064      -307.4904
   3   1.0000     -11.234284      -305.7004
   4   1.0000     -10.545451      -286.9563
   5   1.0000      -8.012173      -218.0223
   6   1.0000      -8.010896      -217.9876
   7   1.0000      -8.010884      -217.9872
   8   1.0000      -6.128799      -166.7731
   9   1.0000      -4.236613      -115.2841
  10   1.0000      -4.236385      -115.2779
  11   1.0000      -4.227955      -115.0485
  12   1.0000      -1.136357       -30.9219
  13   1.0000      -1.003024       -27.2937
  14   1.0000      -0.848073       -23.0772
  15   1.0000      -0.676314       -18.4034
  16   1.0000      -0.659897       -17.9567
  17   1.0000      -0.572045       -15.5661
  18   1.0000      -0.559257       -15.2182
  19   1.0000      -0.543390       -14.7864
  20   1.0000      -0.481235       -13.0951
  21   1.0000      -0.459778       -12.5112
  22   1.0000      -0.433434       -11.7944
  23   1.0000      -0.426494       -11.6055
  24   0.0000       0.018557         0.5050
  25   0.0000       0.025537         0.6949
  26   0.0000       0.034406         0.9362
  27   0.0000       0.037294         1.0148
  28   0.0000       0.047385         1.2894

MULLIKEN ATOMIC CHARGES AND SPIN POPULATIONS
--------------------------------------------
   0 Si:    0.563399    0.984168
   1 C :   -0.590637   -0.028559
   2 C :   -0.348746    0.011484
   3 H :    0.291358   -0.000565
   4 H :    0.291356   -0.000565
   5 Cl:   -0.337421    0.015971
   6 H :    0.278492    0.002457
   7 H :    0.278492    0.002457
   8 H :   -0.213147    0.006576
   9 H :   -0.213146    0.006576
Sum of atomic charges         :    0.0000000

LOEWDIN ATOMIC CHARGES AND SPIN POPULATIONS
-------------------------------------------
   0 Si:    1.099855    0.537696
   1 C :    0.292409    0.136238
   2 C :   -0.246606    0.018238
   3 H :   -0.413879    0.006169
   4 H :   -0.413878    0.006169
   5 Cl:    1.123196    0.012464
   6 H :   -0.389385    0.014498
   7 H :   -0.389385    0.014498
   8 H :   -0.331163    0.127015
   9 H :   -0.331163    0.127014

  Mayer bond orders larger than 0.100000
B(  0-Si,  1-C ) :   0.7830 B(  0-Si,  8-H ) :   0.8675 B(  0-Si,  9-H ) :   0.8675
B(  1-C ,  2-C ) :   0.9755 B(  1-C ,  6-H ) :   0.9122 B(  1-C ,  7-H ) :   0.9122
B(  2-C ,  3-H ) :   0.8678 B(  2-C ,  4-H ) :   0.8678 B(  2-C ,  5-Cl) :   0.7695

MP2 TOTAL ENERGY:     -828.396014583 Eh
FINAL SINGLE POINT ENERGY      -828.396014582739

DIPOLE MOMENT
-------------
                                X             Y             Z
Electronic contribution:     -7.27507       1.33985      -0.00000
Nuclear contribution   :      7.94855      -1.45637       0.00000
                        -----------------------------------------
Total Dipole Moment    :      0.67348      -0.11652      -0.00000
                        -----------------------------------------
Magnitude (a.u.)       :      0.68349
Magnitude (Debye)      :      1.73728

Rotational constants in cm-1:     0.799581     0.049138     0.047894
Rotational constants in MHz : 23970.838453  1473.116068  1435.821042

                             ****ORCA TERMINATED NORMALLY****
TOTAL RUN TIME: 0 days 0 hours 55 minutes 36 seconds 24 msec
