                         Program Version 5.0.4 -  RELEASE  -
|  1> ! ri-mp2 aug-cc-pvdz aug-cc-pvdz/c tightscf
|  2> %pal nprocs 16 end
|  3> %maxcore 3800
|  4> %base "DZ_P-C_51_AB"
|  5> %scf
|  6> STABPerform true
|  7> STABRestartUHFifUnstable true
|  8> end
|  9>
| 10> *xyz 0 1
| 11> C        -2.714792    0.632188   -1.012825
| 12> P        -1.488453    0.393234    0.335603
| 13> H        -2.716718   -0.197855   -1.722219
| 14> H        -2.495687    1.554661   -1.550340
| 15> H        -3.712068    0.728644   -0.582933
| 16> C        -1.951526   -1.298699    0.878269
| 17> H        -2.906457   -1.263070    1.402619
| 18> H        -1.200667   -1.676771    1.570699
| 19> H        -2.035832   -1.992009    0.038671
| 20> C         0.000000    0.000000   -0.684565
| 21> P         1.488453   -0.393234    0.335603
| 22> H         0.207314    0.858856   -1.329509
| 23> H        -0.207314   -0.858856   -1.329509
| 24> C         1.951526    1.298699    0.878269
| 25> H         2.035832    1.992009    0.038671
| 26> H         2.906457    1.263070    1.402619
| 27> H         1.200667    1.676771    1.570699
| 28> C         2.714792   -0.632188   -1.012825
| 29> H         3.712068   -0.728644   -0.582933
| 30> H         2.716718    0.197855   -1.722219
| 31> H         2.495687   -1.554661   -1.550340
| 32> *
| 33>
| 34> $new_job
| 35> ! ri-mp2 aug-cc-pvtz aug-cc-pvtz/c tightscf
| 36> %pal nprocs 16 end
| 37> %maxcore 3800
| 38> %base "TZ_P-C_51_AB"
| 39>
| 40> *xyz 0 1
| 41> C        -2.714792    0.632188   -1.012825
| 42> P        -1.488453    0.393234    0.335603
| 43> H        -2.716718   -0.197855   -1.722219
| 44> H        -2.495687    1.554661   -1.550340
| 45> H        -3.712068    0.728644   -0.582933
| 46> C        -1.951526   -1.298699    0.878269
| 47> H        -2.906457   -1.263070    1.402619
| 48> H        -1.200667   -1.676771    1.570699
| 49> H        -2.035832   -1.992009    0.038671
| 50> C         0.000000    0.000000   -0.684565
| 51> P         1.488453   -0.393234    0.335603
| 52> H         0.207314    0.858856   -1.329509
| 53> H        -0.207314   -0.858856   -1.329509
| 54> C         1.951526    1.298699    0.878269
| 55> H         2.035832    1.992009    0.038671
| 56> H         2.906457    1.263070    1.402619
| 57> H         1.200667    1.676771    1.570699
| 58> C         2.714792   -0.632188   -1.012825
| 59> H         3.712068   -0.728644   -0.582933
| 60> H         2.716718    0.197855   -1.722219
| 61> H         2.495687   -1.554661   -1.550340
| 62> *
| 63>
| 64> $new_job
| 65> ! ri-mp2 aug-cc-pvqz aug-cc-pvqz/c tightscf
| 66> %pal nprocs 16 end
| 67> %maxcore 3800
| 68> %base "QZ_P-C_51_AB"
| 69>
| 70> *xyz 0 1
| 71> C        -2.714792    0.632188   -1.012825
| 72> P        -1.488453    0.393234    0.335603
| 73> H        -2.716718   -0.197855   -1.722219
| 74> H        -2.495687    1.554661   -1.550340
| 75> H        -3.712068    0.728644   -0.582933
| 76> C        -1.951526   -1.298699    0.878269
| 77> H        -2.906457   -1.263070    1.402619
| 78> H        -1.200667   -1.676771    1.570699
| 79> H        -2.035832   -1.992009    0.038671
| 80> C         0.000000    0.000000   -0.684565
| 81> P         1.488453   -0.393234    0.335603
| 82> H         0.207314    0.858856   -1.329509
| 83> H        -0.207314   -0.858856   -1.329509
| 84> C         1.951526    1.298699    0.878269
| 85> H         2.035832    1.992009    0.038671
| 86> H         2.906457    1.263070    1.402619
| 87> H         1.200667    1.676771    1.570699
| 88> C         2.714792   -0.632188   -1.012825
| 89> H         3.712068   -0.728644   -0.582933
| 90> H         2.716718    0.197855   -1.722219
| 91> H         2.495687   -1.554661   -1.550340
| 92> *
| 93>
| 94>
| 95>
| 96>
| 97>                          ****END OF INPUT****
 Total Charge           Charge          ....    0
 Multiplicity           Mult            ....    1
 Number of Electrons    NEL             ....   74
MP2 TOTAL ENERGY:     -880.015530808 Eh
FINAL SINGLE POINT ENERGY      -880.015530807579
MP2 TOTAL ENERGY:     -880.306902824 Eh
FINAL SINGLE POINT ENERGY      -880.306902823591

CARTESIAN COORDINATES (ANGSTROEM)
---------------------------------
  C     -2.714792    0.632188   -1.012825
  P     -1.488453    0.393234    0.335603
  H     -2.716718   -0.197855   -1.722219
  H     -2.495687    1.554661   -1.550340
  H     -3.712068    0.728644   -0.582933
  C     -1.951526   -1.298699    0.878269
  H     -2.906457   -1.263070    1.402619
  H     -1.200667   -1.676771    1.570699
  H     -2.035832   -1.992009    0.038671
  C      0.000000    0.000000   -0.684565
  P      1.488453   -0.393234    0.335603
  H      0.207314    0.858856   -1.329509
  H     -0.207314   -0.858856   -1.329509
  C      1.951526    1.298699    0.878269
  H      2.035832    1.992009    0.038671
  H      2.906457    1.263070    1.402619
  H      1.200667    1.676771    1.570699
  C      2.714792   -0.632188   -1.012825
  H      3.712068   -0.728644   -0.582933
  H      2.716718    0.197855   -1.722219
  H      2.495687   -1.554661   -1.550340

 Multiplicity           Mult            ....    1
 Number of Electrons    NEL             ....   74
 Basis Dimension        Dim             .... 1212

ORBITAL ENERGIES
----------------

  NO   OCC          E(Eh)            E(eV)
   0   2.0000     -79.926914     -2174.9219
   1   2.0000     -79.926914     -2174.9219
   2   2.0000     -11.221836      -305.3617
   3   2.0000     -11.217302      -305.2383
   4   2.0000     -11.217302      -305.2383
   5   2.0000     -11.213028      -305.1220
   6   2.0000     -11.213028      -305.1220
   7   2.0000      -7.468322      -203.2234
   8   2.0000      -7.468322      -203.2234
   9   2.0000      -5.362550      -145.9224
  10   2.0000      -5.362542      -145.9222
  11   2.0000      -5.362482      -145.9205
  12   2.0000      -5.362481      -145.9205
  13   2.0000      -5.361346      -145.8896
  14   2.0000      -5.361343      -145.8896
  15   2.0000      -1.038550       -28.2604
  16   2.0000      -0.999716       -27.2037
  17   2.0000      -0.934449       -25.4276
  18   2.0000      -0.934013       -25.4158
  19   2.0000      -0.924867       -25.1669
  20   2.0000      -0.732201       -19.9242
  21   2.0000      -0.696618       -18.9559
  22   2.0000      -0.610537       -16.6136
  23   2.0000      -0.588296       -16.0084
  24   2.0000      -0.584273       -15.8989
  25   2.0000      -0.575759       -15.6672
  26   2.0000      -0.567140       -15.4327
  27   2.0000      -0.556392       -15.1402
  28   2.0000      -0.549926       -14.9643
  29   2.0000      -0.549522       -14.9533
  30   2.0000      -0.536433       -14.5971
  31   2.0000      -0.500390       -13.6163
  32   2.0000      -0.458320       -12.4715
  33   2.0000      -0.451473       -12.2852
  34   2.0000      -0.424187       -11.5427
  35   2.0000      -0.332297        -9.0423
  36   2.0000      -0.325891        -8.8680
  37   0.0000       0.025721         0.6999
  38   0.0000       0.028624         0.7789
  39   0.0000       0.031934         0.8690
  40   0.0000       0.033723         0.9177
  41   0.0000       0.043805         1.1920

MULLIKEN ATOMIC CHARGES
-----------------------
   0 C :   -1.284424
   1 P :    0.663306
   2 H :    0.290431
   3 H :    0.339028
   4 H :    0.351672
   5 C :   -1.299780
   6 H :    0.378875
   7 H :    0.367039
   8 H :    0.287330
   9 C :   -0.871498
  10 P :    0.663306
  11 H :    0.342272
  12 H :    0.342272
  13 C :   -1.299780
  14 H :    0.287330
  15 H :    0.378875
  16 H :    0.367039
  17 C :   -1.284424
  18 H :    0.351672
  19 H :    0.290431
  20 H :    0.339028
Sum of atomic charges:    0.0000000

LOEWDIN ATOMIC CHARGES
----------------------
   0 C :    0.779640
   1 P :    0.884193
   2 H :   -0.348407
   3 H :   -0.357659
   4 H :   -0.357477
   5 C :    0.767955
   6 H :   -0.355007
   7 H :   -0.370223
   8 H :   -0.346875
   9 C :    0.217224
  10 P :    0.884193
  11 H :   -0.404754
  12 H :   -0.404754
  13 C :    0.767955
  14 H :   -0.346875
  15 H :   -0.355007
  16 H :   -0.370223
  17 C :    0.779640
  18 H :   -0.357477
  19 H :   -0.348407
  20 H :   -0.357659

  Mayer bond orders larger than 0.100000
B(  0-C ,  1-P ) :   0.9312 B(  0-C ,  2-H ) :   0.8947 B(  0-C ,  3-H ) :   0.8837
B(  0-C ,  4-H ) :   0.9085 B(  1-P ,  5-C ) :   0.9103 B(  1-P ,  9-C ) :   0.6293
B(  5-C ,  6-H ) :   0.8828 B(  5-C ,  7-H ) :   0.8737 B(  5-C ,  8-H ) :   0.8975
B(  9-C , 10-P ) :   0.6293 B(  9-C , 11-H ) :   0.8609 B(  9-C , 12-H ) :   0.8609
B( 10-P , 13-C ) :   0.9103 B( 10-P , 17-C ) :   0.9312 B( 13-C , 14-H ) :   0.8975
B( 13-C , 15-H ) :   0.8828 B( 13-C , 16-H ) :   0.8737 B( 17-C , 18-H ) :   0.9085
B( 17-C , 19-H ) :   0.8947 B( 17-C , 20-H ) :   0.8837

MP2 TOTAL ENERGY:     -880.393767866 Eh
FINAL SINGLE POINT ENERGY      -880.393767866214

DIPOLE MOMENT
-------------
                                X             Y             Z
Electronic contribution:     -0.00000       0.00000       4.38391
Nuclear contribution   :     -0.00000      -0.00000      -5.09010
                        -----------------------------------------
Total Dipole Moment    :     -0.00000       0.00000      -0.70619
                        -----------------------------------------
Magnitude (a.u.)       :      0.70619
Magnitude (Debye)      :      1.79499

Rotational constants in cm-1:     0.103098     0.029618     0.029396
Rotational constants in MHz :  3090.790850   887.916063   881.282740

                             ****ORCA TERMINATED NORMALLY****
TOTAL RUN TIME: 0 days 2 hours 31 minutes 41 seconds 181 msec
