                         Program Version 5.0.4 -  RELEASE  -
|  1> ! ri-mp2 aug-cc-pvdz aug-cc-pvdz/c tightscf
|  2> %pal nprocs 16 end
|  3> %maxcore 3800
|  4> %base "DZ_S-Cl_49_AB"
|  5> %scf
|  6> STABPerform true
|  7> STABRestartUHFifUnstable true
|  8> end
|  9>
| 10> *xyz 0 1
| 11> Cl        -2.250311    0.148880   -0.000021
| 12> S        -0.528929   -0.880880    0.000028
| 13> C         0.665586    0.446176    0.000001
| 14> O         0.408981    1.604036   -0.000043
| 15> S         2.338375   -0.155165    0.000012
| 16> H         2.038791   -1.463592    0.000053
| 17> *
| 18>
| 19> $new_job
| 20> ! ri-mp2 aug-cc-pvtz aug-cc-pvtz/c tightscf
| 21> %pal nprocs 16 end
| 22> %maxcore 3800
| 23> %base "TZ_S-Cl_49_AB"
| 24>
| 25> *xyz 0 1
| 26> Cl        -2.250311    0.148880   -0.000021
| 27> S        -0.528929   -0.880880    0.000028
| 28> C         0.665586    0.446176    0.000001
| 29> O         0.408981    1.604036   -0.000043
| 30> S         2.338375   -0.155165    0.000012
| 31> H         2.038791   -1.463592    0.000053
| 32> *
| 33>
| 34> $new_job
| 35> ! ri-mp2 aug-cc-pvqz aug-cc-pvqz/c tightscf
| 36> %pal nprocs 16 end
| 37> %maxcore 3800
| 38> %base "QZ_S-Cl_49_AB"
| 39>
| 40> *xyz 0 1
| 41> Cl        -2.250311    0.148880   -0.000021
| 42> S        -0.528929   -0.880880    0.000028
| 43> C         0.665586    0.446176    0.000001
| 44> O         0.408981    1.604036   -0.000043
| 45> S         2.338375   -0.155165    0.000012
| 46> H         2.038791   -1.463592    0.000053
| 47> *
| 48>
| 49>
| 50>
| 51>
| 52>                          ****END OF INPUT****
 Total Charge           Charge          ....    0
 Multiplicity           Mult            ....    1
 Number of Electrons    NEL             ....   64
MP2 TOTAL ENERGY:    -1368.638777451 Eh
FINAL SINGLE POINT ENERGY     -1368.638777450644
MP2 TOTAL ENERGY:    -1368.899399303 Eh
FINAL SINGLE POINT ENERGY     -1368.899399302999

CARTESIAN COORDINATES (ANGSTROEM)
---------------------------------
  Cl    -2.250311    0.148880   -0.000021
  S     -0.528929   -0.880880    0.000028
  C      0.665586    0.446176    0.000001
  O      0.408981    1.604036   -0.000043
  S      2.338375   -0.155165    0.000012
  H      2.038791   -1.463592    0.000053

 Multiplicity           Mult            ....    1
 Number of Electrons    NEL             ....   64
 Basis Dimension        Dim             ....  458

ORBITAL ENERGIES
----------------

  NO   OCC          E(Eh)            E(eV)
   0   2.0000    -104.875867     -2853.8174
   1   2.0000     -92.046020     -2504.6995
   2   2.0000     -92.009329     -2503.7011
   3   2.0000     -20.589206      -560.2608
   4   2.0000     -11.415083      -310.6202
   5   2.0000     -10.600009      -288.4409
   6   2.0000      -9.044776      -246.1209
   7   2.0000      -9.012276      -245.2365
   8   2.0000      -8.067053      -219.5157
   9   2.0000      -8.064922      -219.4577
  10   2.0000      -8.064740      -219.4527
  11   2.0000      -6.725899      -183.0210
  12   2.0000      -6.724372      -182.9795
  13   2.0000      -6.723284      -182.9499
  14   2.0000      -6.693497      -182.1393
  15   2.0000      -6.692676      -182.1170
  16   2.0000      -6.691611      -182.0880
  17   2.0000      -1.449610       -39.4459
  18   2.0000      -1.175735       -31.9934
  19   2.0000      -1.073949       -29.2236
  20   2.0000      -0.964833       -26.2544
  21   2.0000      -0.770746       -20.9731
  22   2.0000      -0.687501       -18.7078
  23   2.0000      -0.664225       -18.0745
  24   2.0000      -0.615325       -16.7439
  25   2.0000      -0.577764       -15.7218
  26   2.0000      -0.530669       -14.4402
  27   2.0000      -0.525552       -14.3010
  28   2.0000      -0.492245       -13.3947
  29   2.0000      -0.432459       -11.7678
  30   2.0000      -0.425063       -11.5666
  31   2.0000      -0.391182       -10.6446
  32   0.0000       0.022789         0.6201
  33   0.0000       0.041946         1.1414
  34   0.0000       0.050975         1.3871
  35   0.0000       0.063931         1.7397
  36   0.0000       0.068953         1.8763

MULLIKEN ATOMIC CHARGES
-----------------------
   0 Cl:   -0.249222
   1 S :    0.384453
   2 C :    0.206020
   3 O :   -0.561448
   4 S :    0.156154
   5 H :    0.064042
Sum of atomic charges:   -0.0000000

LOEWDIN ATOMIC CHARGES
----------------------
   0 Cl:    0.502054
   1 S :    0.253327
   2 C :   -1.795965
   3 O :    0.455493
   4 S :    1.451735
   5 H :   -0.866643

  Mayer bond orders larger than 0.100000
B(  0-Cl,  1-S ) :   0.9910 B(  1-S ,  2-C ) :   0.9886 B(  2-C ,  3-O ) :   1.6980
B(  2-C ,  4-S ) :   0.9982 B(  4-S ,  5-H ) :   1.0164

MP2 TOTAL ENERGY:    -1368.986645701 Eh
FINAL SINGLE POINT ENERGY     -1368.986645700691

DIPOLE MOMENT
-------------
                                X             Y             Z
Electronic contribution:     -4.49840       0.41587      -0.00004
Nuclear contribution   :      4.86880      -1.51362       0.00008
                        -----------------------------------------
Total Dipole Moment    :      0.37039      -1.09775       0.00004
                        -----------------------------------------
Magnitude (a.u.)       :      1.15856
Magnitude (Debye)      :      2.94482

Rotational constants in cm-1:     0.233784     0.044858     0.037636
Rotational constants in MHz :  7008.667391  1344.796715  1128.302314

                             ****ORCA TERMINATED NORMALLY****
TOTAL RUN TIME: 0 days 0 hours 9 minutes 33 seconds 913 msec
