                         Program Version 5.0.4 -  RELEASE  -
|  1> ! ri-mp2 aug-cc-pvdz aug-cc-pvdz/c tightscf
|  2> %pal nprocs 16 end
|  3> %maxcore 3800
|  4> %base "DZ_B-B_10_A"
|  5> %scf
|  6> STABPerform true
|  7> STABRestartUHFifUnstable true
|  8> end
|  9>
| 10> *xyz 0 2
| 11> B         0.042854    1.233921    0.000000
| 12> Cl         0.042854   -0.474538    0.000000
| 13> H        -0.942796    1.897533    0.000000
| 14> *
| 15>
| 16> $new_job
| 17> ! ri-mp2 aug-cc-pvtz aug-cc-pvtz/c tightscf
| 18> %pal nprocs 16 end
| 19> %maxcore 3800
| 20> %base "TZ_B-B_10_A"
| 21>
| 22> *xyz 0 2
| 23> B         0.042854    1.233921    0.000000
| 24> Cl         0.042854   -0.474538    0.000000
| 25> H        -0.942796    1.897533    0.000000
| 26> *
| 27>
| 28> $new_job
| 29> ! ri-mp2 aug-cc-pvqz aug-cc-pvqz/c tightscf
| 30> %pal nprocs 16 end
| 31> %maxcore 3800
| 32> %base "QZ_B-B_10_A"
| 33>
| 34> *xyz 0 2
| 35> B         0.042854    1.233921    0.000000
| 36> Cl         0.042854   -0.474538    0.000000
| 37> H        -0.942796    1.897533    0.000000
| 38> *
| 39>
| 40>
| 41>
| 42>
| 43>                          ****END OF INPUT****
 Total Charge           Charge          ....    0
 Multiplicity           Mult            ....    2
 Number of Electrons    NEL             ....   23
MP2 TOTAL ENERGY:     -484.947850953 Eh
FINAL SINGLE POINT ENERGY      -484.947850953105
MP2 TOTAL ENERGY:     -485.027258800 Eh
FINAL SINGLE POINT ENERGY      -485.027258800159

CARTESIAN COORDINATES (ANGSTROEM)
---------------------------------
  B      0.042854    1.233921    0.000000
  Cl     0.042854   -0.474538    0.000000
  H     -0.942796    1.897533    0.000000

 Multiplicity           Mult            ....    2
 Number of Electrons    NEL             ....   23
 Basis Dimension        Dim             ....  210

ORBITAL ENERGIES
----------------
                 SPIN UP ORBITALS
  NO   OCC          E(Eh)            E(eV)
   0   1.0000    -104.852962     -2853.1942
   1   1.0000     -10.580602      -287.9128
   2   1.0000      -8.048351      -219.0068
   3   1.0000      -8.046197      -218.9482
   4   1.0000      -8.045830      -218.9382
   5   1.0000      -7.688165      -209.2056
   6   1.0000      -1.136383       -30.9225
   7   1.0000      -0.702466       -19.1151
   8   1.0000      -0.575067       -15.6484
   9   1.0000      -0.513579       -13.9752
  10   1.0000      -0.499818       -13.6007
  11   1.0000      -0.350761        -9.5447
  12   0.0000       0.031616         0.8603
  13   0.0000       0.032317         0.8794
  14   0.0000       0.039982         1.0880
  15   0.0000       0.041275         1.1232
  16   0.0000       0.068032         1.8513

                 SPIN DOWN ORBITALS
  NO   OCC          E(Eh)            E(eV)
   0   1.0000    -104.852214     -2853.1738
   1   1.0000     -10.579738      -287.8893
   2   1.0000      -8.046823      -218.9652
   3   1.0000      -8.046179      -218.9477
   4   1.0000      -8.043664      -218.8792
   5   1.0000      -7.667860      -208.6531
   6   1.0000      -1.128008       -30.6946
   7   1.0000      -0.663107       -18.0441
   8   1.0000      -0.554083       -15.0774
   9   1.0000      -0.500674       -13.6240
  10   1.0000      -0.480073       -13.0635
  11   0.0000       0.028988         0.7888
  12   0.0000       0.036561         0.9949
  13   0.0000       0.039519         1.0754
  14   0.0000       0.040999         1.1156
  15   0.0000       0.067187         1.8282

MULLIKEN ATOMIC CHARGES AND SPIN POPULATIONS
--------------------------------------------
   0 B :    0.318546    0.954607
   1 Cl:   -0.166147    0.025594
   2 H :   -0.152400    0.019799
Sum of atomic charges         :   -0.0000000

LOEWDIN ATOMIC CHARGES AND SPIN POPULATIONS
-------------------------------------------
   0 B :   -0.655842    0.627870
   1 Cl:    1.088672    0.187134
   2 H :   -0.432830    0.184996

  Mayer bond orders larger than 0.100000
B(  0-B ,  1-Cl) :   1.2722 B(  0-B ,  2-H ) :   0.9377

MP2 TOTAL ENERGY:     -485.054097300 Eh
FINAL SINGLE POINT ENERGY      -485.054097299729

DIPOLE MOMENT
-------------
                                X             Y             Z
Electronic contribution:      0.77614      -1.28932       0.00000
Nuclear contribution   :     -0.94909       1.44574       0.00000
                        -----------------------------------------
Total Dipole Moment    :     -0.17296       0.15641       0.00000
                        -----------------------------------------
Magnitude (a.u.)       :      0.23319
Magnitude (Debye)      :      0.59273

Rotational constants in cm-1:    20.481004     0.598747     0.581741
Rotational constants in MHz : 614005.039945 17949.992461 17440.142530

                             ****ORCA TERMINATED NORMALLY****
TOTAL RUN TIME: 0 days 0 hours 1 minutes 52 seconds 889 msec
