                         Program Version 5.0.4 -  RELEASE  -
|  1> ! ri-mp2 aug-cc-pvdz aug-cc-pvdz/c tightscf
|  2> %pal nprocs 16 end
|  3> %maxcore 3800
|  4> %base "DZ_S-Cl_69_AB"
|  5>
|  6> *xyz 0 1
|  7> S         0.039216    1.012839    0.000000
|  8> Cl         0.039216   -1.021039    0.000000
|  9> H        -1.294140    1.152245    0.000000
| 10> *
| 11>
| 12> $new_job
| 13> ! ri-mp2 aug-cc-pvtz aug-cc-pvtz/c tightscf
| 14> %pal nprocs 16 end
| 15> %maxcore 3800
| 16> %base "TZ_S-Cl_69_AB"
| 17>
| 18> *xyz 0 1
| 19> S         0.039216    1.012839    0.000000
| 20> Cl         0.039216   -1.021039    0.000000
| 21> H        -1.294140    1.152245    0.000000
| 22> *
| 23>
| 24> $new_job
| 25> ! ri-mp2 aug-cc-pvqz aug-cc-pvqz/c tightscf
| 26> %pal nprocs 16 end
| 27> %maxcore 3800
| 28> %base "QZ_S-Cl_69_AB"
| 29>
| 30> *xyz 0 1
| 31> S         0.039216    1.012839    0.000000
| 32> Cl         0.039216   -1.021039    0.000000
| 33> H        -1.294140    1.152245    0.000000
| 34> *
| 35>
| 36>
| 37>
| 38>
| 39>                          ****END OF INPUT****
 Total Charge           Charge          ....    0
 Multiplicity           Mult            ....    1
 Number of Electrons    NEL             ....   34
MP2 TOTAL ENERGY:     -857.894317844 Eh
FINAL SINGLE POINT ENERGY      -857.894317843994
MP2 TOTAL ENERGY:     -858.012550331 Eh
FINAL SINGLE POINT ENERGY      -858.012550330633

CARTESIAN COORDINATES (ANGSTROEM)
---------------------------------
  S      0.039216    1.012839    0.000000
  Cl     0.039216   -1.021039    0.000000
  H     -1.294140    1.152245    0.000000

 Multiplicity           Mult            ....    1
 Number of Electrons    NEL             ....   34
 Basis Dimension        Dim             ....  214

ORBITAL ENERGIES
----------------

  NO   OCC          E(Eh)            E(eV)
   0   2.0000    -104.861388     -2853.4234
   1   2.0000     -92.021236     -2504.0251
   2   2.0000     -10.585416      -288.0438
   3   2.0000      -9.019631      -245.4366
   4   2.0000      -8.052485      -219.1193
   5   2.0000      -8.050455      -219.0640
   6   2.0000      -8.050280      -219.0593
   7   2.0000      -6.700870      -182.3399
   8   2.0000      -6.699561      -182.3043
   9   2.0000      -6.698220      -182.2678
  10   2.0000      -1.148601       -31.2550
  11   2.0000      -0.935555       -25.4577
  12   2.0000      -0.609123       -16.5751
  13   2.0000      -0.535844       -14.5811
  14   2.0000      -0.521961       -14.2033
  15   2.0000      -0.458135       -12.4665
  16   2.0000      -0.378988       -10.3128
  17   0.0000       0.025749         0.7007
  18   0.0000       0.039973         1.0877
  19   0.0000       0.074683         2.0322
  20   0.0000       0.082629         2.2484
  21   0.0000       0.089963         2.4480

MULLIKEN ATOMIC CHARGES
-----------------------
   0 S :    0.094278
   1 Cl:   -0.215083
   2 H :    0.120805
Sum of atomic charges:    0.0000000

LOEWDIN ATOMIC CHARGES
----------------------
   0 S :    0.618311
   1 Cl:    0.358063
   2 H :   -0.976374

  Mayer bond orders larger than 0.100000
B(  0-S ,  1-Cl) :   0.9634 B(  0-S ,  2-H ) :   0.9617

MP2 TOTAL ENERGY:     -858.051270834 Eh
FINAL SINGLE POINT ENERGY      -858.051270833801

DIPOLE MOMENT
-------------
                                X             Y             Z
Electronic contribution:      0.89415      -2.03338      -0.00000
Nuclear contribution   :     -1.25942       2.40592       0.00000
                        -----------------------------------------
Total Dipole Moment    :     -0.36526       0.37254      -0.00000
                        -----------------------------------------
Magnitude (a.u.)       :      0.52173
Magnitude (Debye)      :      1.32613

Rotational constants in cm-1:     9.750852     0.237004     0.231380
Rotational constants in MHz : 292323.202108  7105.203741  6936.602769

                             ****ORCA TERMINATED NORMALLY****
TOTAL RUN TIME: 0 days 0 hours 0 minutes 34 seconds 220 msec
