                         Program Version 5.0.4 -  RELEASE  -
|  1> ! ri-mp2 aug-cc-pvdz aug-cc-pvdz/c tightscf
|  2> %pal nprocs 16 end
|  3> %maxcore 3800
|  4> %base "DZ_P-C_62_AB"
|  5>
|  6> *xyz 0 1
|  7> C        -2.343615   -1.523723   -0.014163
|  8> C        -0.962431   -1.457743   -0.028110
|  9> C        -3.075216   -0.351942    0.014162
| 10> C        -2.428151    0.872366    0.027309
| 11> C        -1.043880    0.964978    0.012543
| 12> C        -0.310057   -0.229439   -0.014660
| 13> H        -2.841152   -2.483735   -0.025012
| 14> H        -0.367221   -2.360370   -0.049839
| 15> P         1.474468   -0.311547   -0.015596
| 16> O         2.028800   -1.665340    0.001740
| 17> O         1.994577    0.572236    1.217352
| 18> H        -3.011871    1.783809    0.049908
| 19> H        -4.156836   -0.385961    0.026545
| 20> C        -0.391839    2.317085    0.015823
| 21> H        -1.138792    3.098977    0.137355
| 22> H         0.141746    2.493961   -0.917877
| 23> H         0.335893    2.406166    0.821398
| 24> H         2.315197    0.007978    1.930440
| 25> O         1.868398    0.596364   -1.259745
| 26> H         2.802962    0.536814   -1.491187
| 27> *
| 28>
| 29> $new_job
| 30> ! ri-mp2 aug-cc-pvtz aug-cc-pvtz/c tightscf
| 31> %pal nprocs 16 end
| 32> %maxcore 3800
| 33> %base "TZ_P-C_62_AB"
| 34>
| 35> *xyz 0 1
| 36> C        -2.343615   -1.523723   -0.014163
| 37> C        -0.962431   -1.457743   -0.028110
| 38> C        -3.075216   -0.351942    0.014162
| 39> C        -2.428151    0.872366    0.027309
| 40> C        -1.043880    0.964978    0.012543
| 41> C        -0.310057   -0.229439   -0.014660
| 42> H        -2.841152   -2.483735   -0.025012
| 43> H        -0.367221   -2.360370   -0.049839
| 44> P         1.474468   -0.311547   -0.015596
| 45> O         2.028800   -1.665340    0.001740
| 46> O         1.994577    0.572236    1.217352
| 47> H        -3.011871    1.783809    0.049908
| 48> H        -4.156836   -0.385961    0.026545
| 49> C        -0.391839    2.317085    0.015823
| 50> H        -1.138792    3.098977    0.137355
| 51> H         0.141746    2.493961   -0.917877
| 52> H         0.335893    2.406166    0.821398
| 53> H         2.315197    0.007978    1.930440
| 54> O         1.868398    0.596364   -1.259745
| 55> H         2.802962    0.536814   -1.491187
| 56> *
| 57>
| 58> $new_job
| 59> ! ri-mp2 aug-cc-pvqz aug-cc-pvqz/c tightscf
| 60> %pal nprocs 16 end
| 61> %maxcore 3800
| 62> %base "QZ_P-C_62_AB"
| 63>
| 64> *xyz 0 1
| 65> C        -2.343615   -1.523723   -0.014163
| 66> C        -0.962431   -1.457743   -0.028110
| 67> C        -3.075216   -0.351942    0.014162
| 68> C        -2.428151    0.872366    0.027309
| 69> C        -1.043880    0.964978    0.012543
| 70> C        -0.310057   -0.229439   -0.014660
| 71> H        -2.841152   -2.483735   -0.025012
| 72> H        -0.367221   -2.360370   -0.049839
| 73> P         1.474468   -0.311547   -0.015596
| 74> O         2.028800   -1.665340    0.001740
| 75> O         1.994577    0.572236    1.217352
| 76> H        -3.011871    1.783809    0.049908
| 77> H        -4.156836   -0.385961    0.026545
| 78> C        -0.391839    2.317085    0.015823
| 79> H        -1.138792    3.098977    0.137355
| 80> H         0.141746    2.493961   -0.917877
| 81> H         0.335893    2.406166    0.821398
| 82> H         2.315197    0.007978    1.930440
| 83> O         1.868398    0.596364   -1.259745
| 84> H         2.802962    0.536814   -1.491187
| 85> *
| 86>
| 87>
| 88>
| 89>
| 90>                          ****END OF INPUT****
 Total Charge           Charge          ....    0
 Multiplicity           Mult            ....    1
 Number of Electrons    NEL             ....   90
MP2 TOTAL ENERGY:     -837.476548466 Eh
FINAL SINGLE POINT ENERGY      -837.476548466268
MP2 TOTAL ENERGY:     -837.982141393 Eh
FINAL SINGLE POINT ENERGY      -837.982141392756

CARTESIAN COORDINATES (ANGSTROEM)
---------------------------------
  C     -2.343615   -1.523723   -0.014163
  C     -0.962431   -1.457743   -0.028110
  C     -3.075216   -0.351942    0.014162
  C     -2.428151    0.872366    0.027309
  C     -1.043880    0.964978    0.012543
  C     -0.310057   -0.229439   -0.014660
  H     -2.841152   -2.483735   -0.025012
  H     -0.367221   -2.360370   -0.049839
  P      1.474468   -0.311547   -0.015596
  O      2.028800   -1.665340    0.001740
  O      1.994577    0.572236    1.217352
  H     -3.011871    1.783809    0.049908
  H     -4.156836   -0.385961    0.026545
  C     -0.391839    2.317085    0.015823
  H     -1.138792    3.098977    0.137355
  H      0.141746    2.493961   -0.917877
  H      0.335893    2.406166    0.821398
  H      2.315197    0.007978    1.930440
  O      1.868398    0.596364   -1.259745
  H      2.802962    0.536814   -1.491187

 Multiplicity           Mult            ....    1
 Number of Electrons    NEL             ....   90
 Basis Dimension        Dim             .... 1298

ORBITAL ENERGIES
----------------

  NO   OCC          E(Eh)            E(eV)
   0   2.0000     -80.066558     -2178.7218
   1   2.0000     -20.597891      -560.4971
   2   2.0000     -20.594554      -560.4063
   3   2.0000     -20.501033      -557.8615
   4   2.0000     -11.259837      -306.3957
   5   2.0000     -11.246736      -306.0393
   6   2.0000     -11.246279      -306.0268
   7   2.0000     -11.240179      -305.8608
   8   2.0000     -11.234793      -305.7142
   9   2.0000     -11.234356      -305.7024
  10   2.0000     -11.222810      -305.3882
  11   2.0000      -7.589252      -206.5141
  12   2.0000      -5.487545      -149.3237
  13   2.0000      -5.487013      -149.3092
  14   2.0000      -5.485992      -149.2814
  15   2.0000      -1.435792       -39.0699
  16   2.0000      -1.382559       -37.6213
  17   2.0000      -1.296456       -35.2784
  18   2.0000      -1.172092       -31.8942
  19   2.0000      -1.060207       -28.8497
  20   2.0000      -1.034517       -28.1506
  21   2.0000      -0.945732       -25.7347
  22   2.0000      -0.878408       -23.9027
  23   2.0000      -0.821821       -22.3629
  24   2.0000      -0.806436       -21.9442
  25   2.0000      -0.746023       -20.3003
  26   2.0000      -0.708396       -19.2764
  27   2.0000      -0.677174       -18.4269
  28   2.0000      -0.653350       -17.7785
  29   2.0000      -0.647520       -17.6199
  30   2.0000      -0.628584       -17.1046
  31   2.0000      -0.613091       -16.6831
  32   2.0000      -0.586514       -15.9598
  33   2.0000      -0.580462       -15.7952
  34   2.0000      -0.569151       -15.4874
  35   2.0000      -0.558948       -15.2097
  36   2.0000      -0.542050       -14.7499
  37   2.0000      -0.541514       -14.7354
  38   2.0000      -0.503822       -13.7097
  39   2.0000      -0.499421       -13.5899
  40   2.0000      -0.488876       -13.3030
  41   2.0000      -0.464565       -12.6414
  42   2.0000      -0.455457       -12.3936
  43   2.0000      -0.355365        -9.6700
  44   2.0000      -0.338572        -9.2130
  45   0.0000       0.021945         0.5972
  46   0.0000       0.026761         0.7282
  47   0.0000       0.030172         0.8210
  48   0.0000       0.035900         0.9769
  49   0.0000       0.039754         1.0817

MULLIKEN ATOMIC CHARGES
-----------------------
   0 C :   -0.279980
   1 C :   -0.686165
   2 C :   -0.343174
   3 C :   -0.449437
   4 C :    0.556447
   5 C :   -0.096125
   6 H :    0.256557
   7 H :    0.312791
   8 P :    2.875326
   9 O :   -1.382574
  10 O :   -0.937703
  11 H :    0.214935
  12 H :    0.287573
  13 C :   -0.853048
  14 H :    0.326573
  15 H :    0.212457
  16 H :    0.222479
  17 H :    0.363740
  18 O :   -0.973662
  19 H :    0.372990
Sum of atomic charges:   -0.0000000

LOEWDIN ATOMIC CHARGES
----------------------
   0 C :    0.357005
   1 C :    0.273095
   2 C :    0.353613
   3 C :    0.348953
   4 C :   -0.114001
   5 C :   -0.123547
   6 H :   -0.319858
   7 H :   -0.361686
   8 P :   -0.646350
   9 O :    0.344589
  10 O :    1.117179
  11 H :   -0.323442
  12 H :   -0.312635
  13 C :    0.897784
  14 H :   -0.304840
  15 H :   -0.297372
  16 H :   -0.314977
  17 H :   -0.858577
  18 O :    1.117550
  19 H :   -0.832481

  Mayer bond orders larger than 0.100000
B(  0-C ,  1-C ) :   1.3064 B(  0-C ,  2-C ) :   1.1658 B(  0-C ,  4-C ) :   0.1184
B(  0-C ,  5-C ) :  -0.4360 B(  0-C ,  6-H ) :   1.1229 B(  0-C , 12-H ) :  -0.1142
B(  1-C ,  2-C ) :   0.1569 B(  1-C ,  3-C ) :   0.1480 B(  1-C ,  5-C ) :   0.7807
B(  1-C ,  6-H ) :  -0.1723 B(  1-C ,  7-H ) :   0.8937 B(  2-C ,  3-C ) :   1.2291
B(  2-C ,  4-C ) :  -0.2260 B(  2-C , 12-H ) :   1.1006 B(  3-C ,  4-C ) :   1.0293
B(  3-C ,  5-C ) :  -0.3412 B(  3-C , 11-H ) :   1.0762 B(  3-C , 12-H ) :  -0.1812
B(  3-C , 13-C ) :  -0.1166 B(  4-C ,  5-C ) :   0.9205 B(  4-C , 13-C ) :   0.5920
B(  4-C , 14-H ) :  -0.1012 B(  5-C ,  7-H ) :  -0.1095 B(  5-C ,  8-P ) :   0.9544
B(  5-C ,  9-O ) :  -0.1567 B(  5-C , 10-O ) :  -0.1044 B(  5-C , 18-O ) :  -0.1890
B(  8-P ,  9-O ) :   1.0606 B(  8-P , 10-O ) :   0.5262 B(  8-P , 18-O ) :   0.4985
B( 10-O , 17-H ) :   0.9335 B( 13-C , 14-H ) :   0.9551 B( 13-C , 15-H ) :   1.0255
B( 13-C , 16-H ) :   1.0454 B( 18-O , 19-H ) :   0.9505

MP2 TOTAL ENERGY:     -838.144914845 Eh
FINAL SINGLE POINT ENERGY      -838.144914845048

DIPOLE MOMENT
-------------
                                X             Y             Z
Electronic contribution:      6.66537      -4.44541      -0.23792
Nuclear contribution   :     -7.10147       5.28971       0.48703
                        -----------------------------------------
Total Dipole Moment    :     -0.43611       0.84429       0.24911
                        -----------------------------------------
Magnitude (a.u.)       :      0.98238
Magnitude (Debye)      :      2.49702

Rotational constants in cm-1:     0.057652     0.026493     0.020676
Rotational constants in MHz :  1728.370376   794.247626   619.849507

                             ****ORCA TERMINATED NORMALLY****
TOTAL RUN TIME: 0 days 1 hours 9 minutes 38 seconds 262 msec
