                         Program Version 5.0.4 -  RELEASE  -
|  1> ! ri-mp2 aug-cc-pvdz aug-cc-pvdz/c tightscf
|  2> %pal nprocs 16 end
|  3> %maxcore 3800
|  4> %base "DZ_Si-Cl_39_A"
|  5> %scf
|  6> STABPerform true
|  7> STABRestartUHFifUnstable true
|  8> end
|  9>
| 10> *xyz 0 2
| 11> Si        -0.618851   -1.796315    0.000000
| 12> C        -0.017041    0.021519    0.000000
| 13> Cl        -0.618851    0.850832    1.452703
| 14> Cl        -0.618851    0.850832   -1.452703
| 15> Cl         1.765491    0.056388    0.000000
| 16> H        -0.103138   -2.433802    1.230921
| 17> H        -0.103138   -2.433802   -1.230921
| 18> *
| 19>
| 20> $new_job
| 21> ! ri-mp2 aug-cc-pvtz aug-cc-pvtz/c tightscf
| 22> %pal nprocs 16 end
| 23> %maxcore 3800
| 24> %base "TZ_Si-Cl_39_A"
| 25>
| 26> *xyz 0 2
| 27> Si        -0.618851   -1.796315    0.000000
| 28> C        -0.017041    0.021519    0.000000
| 29> Cl        -0.618851    0.850832    1.452703
| 30> Cl        -0.618851    0.850832   -1.452703
| 31> Cl         1.765491    0.056388    0.000000
| 32> H        -0.103138   -2.433802    1.230921
| 33> H        -0.103138   -2.433802   -1.230921
| 34> *
| 35>
| 36> $new_job
| 37> ! ri-mp2 aug-cc-pvqz aug-cc-pvqz/c tightscf
| 38> %pal nprocs 16 end
| 39> %maxcore 3800
| 40> %base "QZ_Si-Cl_39_A"
| 41>
| 42> *xyz 0 2
| 43> Si        -0.618851   -1.796315    0.000000
| 44> C        -0.017041    0.021519    0.000000
| 45> Cl        -0.618851    0.850832    1.452703
| 46> Cl        -0.618851    0.850832   -1.452703
| 47> Cl         1.765491    0.056388    0.000000
| 48> H        -0.103138   -2.433802    1.230921
| 49> H        -0.103138   -2.433802   -1.230921
| 50> *
| 51>
| 52>
| 53>
| 54>
| 55>                          ****END OF INPUT****
 Total Charge           Charge          ....    0
 Multiplicity           Mult            ....    2
 Number of Electrons    NEL             ....   73
MP2 TOTAL ENERGY:    -1707.097300049 Eh
FINAL SINGLE POINT ENERGY     -1707.097300049469
MP2 TOTAL ENERGY:    -1707.343128328 Eh
FINAL SINGLE POINT ENERGY     -1707.343128328262

CARTESIAN COORDINATES (ANGSTROEM)
---------------------------------
  Si    -0.618851   -1.796315    0.000000
  C     -0.017041    0.021519    0.000000
  Cl    -0.618851    0.850832    1.452703
  Cl    -0.618851    0.850832   -1.452703
  Cl     1.765491    0.056388    0.000000
  H     -0.103138   -2.433802    1.230921
  H     -0.103138   -2.433802   -1.230921

 Multiplicity           Mult            ....    2
 Number of Electrons    NEL             ....   73
 Basis Dimension        Dim             ....  508

ORBITAL ENERGIES
----------------
                 SPIN UP ORBITALS
  NO   OCC          E(Eh)            E(eV)
   0   1.0000    -104.862718     -2853.4596
   1   1.0000    -104.862718     -2853.4596
   2   1.0000    -104.862313     -2853.4486
   3   1.0000     -68.816169     -1872.5832
   4   1.0000     -11.418637      -310.7169
   5   1.0000     -10.588353      -288.1237
   6   1.0000     -10.588345      -288.1235
   7   1.0000     -10.587933      -288.1123
   8   1.0000      -8.055322      -219.1965
   9   1.0000      -8.055255      -219.1946
  10   1.0000      -8.055253      -219.1946
  11   1.0000      -8.053455      -219.1457
  12   1.0000      -8.053454      -219.1456
  13   1.0000      -8.053352      -219.1428
  14   1.0000      -8.053351      -219.1428
  15   1.0000      -8.053084      -219.1356
  16   1.0000      -8.052839      -219.1289
  17   1.0000      -6.166059      -167.7870
  18   1.0000      -4.278430      -116.4220
  19   1.0000      -4.268553      -116.1532
  20   1.0000      -4.268233      -116.1445
  21   1.0000      -1.234179       -33.5837
  22   1.0000      -1.111843       -30.2548
  23   1.0000      -1.111696       -30.2508
  24   1.0000      -0.862283       -23.4639
  25   1.0000      -0.733128       -19.9494
  26   1.0000      -0.625932       -17.0325
  27   1.0000      -0.625165       -17.0116
  28   1.0000      -0.596423       -16.2295
  29   1.0000      -0.523689       -14.2503
  30   1.0000      -0.508272       -13.8308
  31   1.0000      -0.500966       -13.6320
  32   1.0000      -0.467587       -12.7237
  33   1.0000      -0.461776       -12.5656
  34   1.0000      -0.449656       -12.2358
  35   1.0000      -0.434083       -11.8120
  36   1.0000      -0.361565        -9.8387
  37   0.0000       0.024688         0.6718
  38   0.0000       0.038092         1.0365
  39   0.0000       0.040548         1.1034
  40   0.0000       0.043154         1.1743
  41   0.0000       0.060901         1.6572

                 SPIN DOWN ORBITALS
  NO   OCC          E(Eh)            E(eV)
   0   1.0000    -104.862734     -2853.4601
   1   1.0000    -104.862734     -2853.4601
   2   1.0000    -104.861789     -2853.4344
   3   1.0000     -68.810131     -1872.4189
   4   1.0000     -11.418193      -310.7048
   5   1.0000     -10.588368      -288.1242
   6   1.0000     -10.588360      -288.1239
   7   1.0000     -10.587360      -288.0967
   8   1.0000      -8.055385      -219.1982
   9   1.0000      -8.055383      -219.1981
  10   1.0000      -8.054069      -219.1624
  11   1.0000      -8.053407      -219.1443
  12   1.0000      -8.053406      -219.1443
  13   1.0000      -8.053355      -219.1429
  14   1.0000      -8.053354      -219.1429
  15   1.0000      -8.052528      -219.1204
  16   1.0000      -8.051993      -219.1059
  17   1.0000      -6.156625      -167.5303
  18   1.0000      -4.264517      -116.0434
  19   1.0000      -4.264310      -116.0378
  20   1.0000      -4.255401      -115.7954
  21   1.0000      -1.232685       -33.5431
  22   1.0000      -1.111695       -30.2508
  23   1.0000      -1.109150       -30.1815
  24   1.0000      -0.852064       -23.1859
  25   1.0000      -0.705102       -19.1868
  26   1.0000      -0.625049       -17.0085
  27   1.0000      -0.621422       -16.9097
  28   1.0000      -0.584391       -15.9021
  29   1.0000      -0.516175       -14.0458
  30   1.0000      -0.503813       -13.7094
  31   1.0000      -0.497715       -13.5435
  32   1.0000      -0.464263       -12.6332
  33   1.0000      -0.460929       -12.5425
  34   1.0000      -0.449082       -12.2201
  35   1.0000      -0.427525       -11.6335
  36   0.0000       0.014190         0.3861
  37   0.0000       0.027684         0.7533
  38   0.0000       0.038296         1.0421
  39   0.0000       0.043025         1.1708
  40   0.0000       0.051926         1.4130

MULLIKEN ATOMIC CHARGES AND SPIN POPULATIONS
--------------------------------------------
   0 Si:    0.745412    0.959340
   1 C :    0.252599   -0.029623
   2 Cl:   -0.208095    0.001130
   3 Cl:   -0.208095    0.001130
   4 Cl:   -0.181656    0.025354
   5 H :   -0.200083    0.021335
   6 H :   -0.200083    0.021335
Sum of atomic charges         :    0.0000000

LOEWDIN ATOMIC CHARGES AND SPIN POPULATIONS
-------------------------------------------
   0 Si:    0.578335    0.547875
   1 C :   -2.668481    0.135464
   2 Cl:    0.930822    0.013979
   3 Cl:    0.930822    0.013979
   4 Cl:    0.932778    0.038731
   5 H :   -0.352138    0.124986
   6 H :   -0.352138    0.124986

  Mayer bond orders larger than 0.100000
B(  0-Si,  1-C ) :   0.5376 B(  0-Si,  5-H ) :   0.8947 B(  0-Si,  6-H ) :   0.8947
B(  1-C ,  2-Cl) :   0.8229 B(  1-C ,  3-Cl) :   0.8229 B(  1-C ,  4-Cl) :   0.8312

MP2 TOTAL ENERGY:    -1707.426086871 Eh
FINAL SINGLE POINT ENERGY     -1707.426086870764

DIPOLE MOMENT
-------------
                                X             Y             Z
Electronic contribution:      0.66370       6.11393      -0.00000
Nuclear contribution   :     -0.85303      -6.71657       0.00000
                        -----------------------------------------
Total Dipole Moment    :     -0.18933      -0.60263      -0.00000
                        -----------------------------------------
Magnitude (a.u.)       :      0.63168
Magnitude (Debye)      :      1.60560

Rotational constants in cm-1:     0.056123     0.055801     0.054891
Rotational constants in MHz :  1682.515105  1672.884478  1645.593598

                             ****ORCA TERMINATED NORMALLY****
TOTAL RUN TIME: 0 days 0 hours 40 minutes 38 seconds 638 msec
