                         Program Version 5.0.4 -  RELEASE  -
|  1> ! ri-mp2 aug-cc-pvdz aug-cc-pvdz/c tightscf
|  2> %pal nprocs 16 end
|  3> %maxcore 3800
|  4> %base "DZ_P-C_73_AB"
|  5> %scf
|  6> STABPerform true
|  7> STABRestartUHFifUnstable true
|  8> end
|  9>
| 10> *xyz 0 1
| 11> C         1.366245    0.090194    0.074013
| 12> C         0.186691   -0.125369    0.995019
| 13> O         2.117929    1.012080    0.164147
| 14> O         1.545433   -0.847413   -0.877106
| 15> P        -1.358430   -0.600126    0.085616
| 16> H         0.070124    0.768904    1.602122
| 17> H         0.431701   -0.959278    1.657938
| 18> C        -1.892504    1.028505   -0.569234
| 19> H        -2.887189    0.933340   -1.003070
| 20> H        -1.211501    1.329301   -1.365303
| 21> H        -1.907164    1.806126    0.192708
| 22> H         0.809831   -1.477645   -0.880402
| 23> H        -2.198840   -0.676172    1.216659
| 24> *
| 25>
| 26> $new_job
| 27> ! ri-mp2 aug-cc-pvtz aug-cc-pvtz/c tightscf
| 28> %pal nprocs 16 end
| 29> %maxcore 3800
| 30> %base "TZ_P-C_73_AB"
| 31>
| 32> *xyz 0 1
| 33> C         1.366245    0.090194    0.074013
| 34> C         0.186691   -0.125369    0.995019
| 35> O         2.117929    1.012080    0.164147
| 36> O         1.545433   -0.847413   -0.877106
| 37> P        -1.358430   -0.600126    0.085616
| 38> H         0.070124    0.768904    1.602122
| 39> H         0.431701   -0.959278    1.657938
| 40> C        -1.892504    1.028505   -0.569234
| 41> H        -2.887189    0.933340   -1.003070
| 42> H        -1.211501    1.329301   -1.365303
| 43> H        -1.907164    1.806126    0.192708
| 44> H         0.809831   -1.477645   -0.880402
| 45> H        -2.198840   -0.676172    1.216659
| 46> *
| 47>
| 48> $new_job
| 49> ! ri-mp2 aug-cc-pvqz aug-cc-pvqz/c tightscf
| 50> %pal nprocs 16 end
| 51> %maxcore 3800
| 52> %base "QZ_P-C_73_AB"
| 53>
| 54> *xyz 0 1
| 55> C         1.366245    0.090194    0.074013
| 56> C         0.186691   -0.125369    0.995019
| 57> O         2.117929    1.012080    0.164147
| 58> O         1.545433   -0.847413   -0.877106
| 59> P        -1.358430   -0.600126    0.085616
| 60> H         0.070124    0.768904    1.602122
| 61> H         0.431701   -0.959278    1.657938
| 62> C        -1.892504    1.028505   -0.569234
| 63> H        -2.887189    0.933340   -1.003070
| 64> H        -1.211501    1.329301   -1.365303
| 65> H        -1.907164    1.806126    0.192708
| 66> H         0.809831   -1.477645   -0.880402
| 67> H        -2.198840   -0.676172    1.216659
| 68> *
| 69>
| 70>
| 71>
| 72>
| 73>                          ****END OF INPUT****
 Total Charge           Charge          ....    0
 Multiplicity           Mult            ....    1
 Number of Electrons    NEL             ....   56
MP2 TOTAL ENERGY:     -609.145526466 Eh
FINAL SINGLE POINT ENERGY      -609.145526465937
MP2 TOTAL ENERGY:     -609.426574272 Eh
FINAL SINGLE POINT ENERGY      -609.426574272180

CARTESIAN COORDINATES (ANGSTROEM)
---------------------------------
  C      1.366245    0.090194    0.074013
  C      0.186691   -0.125369    0.995019
  O      2.117929    1.012080    0.164147
  O      1.545433   -0.847413   -0.877106
  P     -1.358430   -0.600126    0.085616
  H      0.070124    0.768904    1.602122
  H      0.431701   -0.959278    1.657938
  C     -1.892504    1.028505   -0.569234
  H     -2.887189    0.933340   -1.003070
  H     -1.211501    1.329301   -1.365303
  H     -1.907164    1.806126    0.192708
  H      0.809831   -1.477645   -0.880402
  H     -2.198840   -0.676172    1.216659

 Multiplicity           Mult            ....    1
 Number of Electrons    NEL             ....   56
 Basis Dimension        Dim             ....  806

ORBITAL ENERGIES
----------------

  NO   OCC          E(Eh)            E(eV)
   0   2.0000     -79.962472     -2175.8895
   1   2.0000     -20.608853      -560.7954
   2   2.0000     -20.541975      -558.9755
   3   2.0000     -11.385695      -309.8205
   4   2.0000     -11.261223      -306.4334
   5   2.0000     -11.243026      -305.9383
   6   2.0000      -7.505003      -204.2215
   7   2.0000      -5.399232      -146.9206
   8   2.0000      -5.399043      -146.9154
   9   2.0000      -5.397974      -146.8864
  10   2.0000      -1.463999       -39.8374
  11   2.0000      -1.367385       -37.2084
  12   2.0000      -1.053305       -28.6619
  13   2.0000      -0.983501       -26.7624
  14   2.0000      -0.839147       -22.8344
  15   2.0000      -0.792590       -21.5675
  16   2.0000      -0.715141       -19.4600
  17   2.0000      -0.672223       -18.2921
  18   2.0000      -0.649848       -17.6833
  19   2.0000      -0.605720       -16.4825
  20   2.0000      -0.595702       -16.2099
  21   2.0000      -0.592149       -16.1132
  22   2.0000      -0.559119       -15.2144
  23   2.0000      -0.523729       -14.2514
  24   2.0000      -0.500061       -13.6073
  25   2.0000      -0.476210       -12.9583
  26   2.0000      -0.445731       -12.1289
  27   2.0000      -0.375923       -10.2294
  28   0.0000       0.020675         0.5626
  29   0.0000       0.027210         0.7404
  30   0.0000       0.033802         0.9198
  31   0.0000       0.038035         1.0350
  32   0.0000       0.049036         1.3343

MULLIKEN ATOMIC CHARGES
-----------------------
   0 C :    1.254200
   1 C :   -0.839135
   2 O :   -0.792179
   3 O :   -0.828974
   4 P :    0.515289
   5 H :    0.299960
   6 H :    0.326813
   7 C :   -1.114706
   8 H :    0.372702
   9 H :    0.280491
  10 H :    0.274055
  11 H :    0.377205
  12 H :   -0.125722
Sum of atomic charges:   -0.0000000

LOEWDIN ATOMIC CHARGES
----------------------
   0 C :   -1.117112
   1 C :    0.296023
   2 O :    0.675142
   3 O :    1.234800
   4 P :    1.252475
   5 H :   -0.371781
   6 H :   -0.355287
   7 C :    0.764363
   8 H :   -0.363788
   9 H :   -0.356904
  10 H :   -0.347300
  11 H :   -0.905498
  12 H :   -0.405132

  Mayer bond orders larger than 0.100000
B(  0-C ,  1-C ) :   1.0377 B(  0-C ,  2-O ) :   1.4242 B(  0-C ,  3-O ) :   0.6994
B(  1-C ,  4-P ) :   0.8649 B(  1-C ,  5-H ) :   0.8715 B(  1-C ,  6-H ) :   0.8729
B(  2-O ,  3-O ) :   0.1107 B(  3-O , 11-H ) :   0.8135 B(  4-P ,  7-C ) :   0.9241
B(  4-P , 12-H ) :   0.9315 B(  7-C ,  8-H ) :   0.8742 B(  7-C ,  9-H ) :   0.9083
B(  7-C , 10-H ) :   0.9122

MP2 TOTAL ENERGY:     -609.517103533 Eh
FINAL SINGLE POINT ENERGY      -609.517103533425

DIPOLE MOMENT
-------------
                                X             Y             Z
Electronic contribution:      3.85074      -2.79727      -0.80466
Nuclear contribution   :     -5.49511       2.27945       1.31674
                        -----------------------------------------
Total Dipole Moment    :     -1.64437      -0.51782       0.51208
                        -----------------------------------------
Magnitude (a.u.)       :      1.79842
Magnitude (Debye)      :      4.57123

Rotational constants in cm-1:     0.166800     0.057828     0.053631
Rotational constants in MHz :  5000.544032  1733.652357  1607.829798

                             ****ORCA TERMINATED NORMALLY****
TOTAL RUN TIME: 0 days 0 hours 53 minutes 40 seconds 99 msec
