                         Program Version 5.0.4 -  RELEASE  -
|  1> ! ri-mp2 aug-cc-pvdz aug-cc-pvdz/c tightscf
|  2> %pal nprocs 16 end
|  3> %maxcore 3800
|  4> %base "DZ_B-P_48_AB"
|  5> %scf
|  6> STABPerform true
|  7> STABRestartUHFifUnstable true
|  8> end
|  9>
| 10> *xyz 0 1
| 11> C        -0.995891    0.435767   -0.180880
| 12> B         1.918181    0.613997    0.256344
| 13> O        -2.025227    0.050147    0.291456
| 14> P         0.559109   -0.528912   -0.220460
| 15> H         2.874401    0.196306    0.819792
| 16> H         1.870393    1.738412   -0.123773
| 17> H        -0.913502    1.420213   -0.683591
| 18> H         0.368326   -1.507011    0.766379
| 19> *
| 20>
| 21> $new_job
| 22> ! ri-mp2 aug-cc-pvtz aug-cc-pvtz/c tightscf
| 23> %pal nprocs 16 end
| 24> %maxcore 3800
| 25> %base "TZ_B-P_48_AB"
| 26>
| 27> *xyz 0 1
| 28> C        -0.995891    0.435767   -0.180880
| 29> B         1.918181    0.613997    0.256344
| 30> O        -2.025227    0.050147    0.291456
| 31> P         0.559109   -0.528912   -0.220460
| 32> H         2.874401    0.196306    0.819792
| 33> H         1.870393    1.738412   -0.123773
| 34> H        -0.913502    1.420213   -0.683591
| 35> H         0.368326   -1.507011    0.766379
| 36> *
| 37>
| 38> $new_job
| 39> ! ri-mp2 aug-cc-pvqz aug-cc-pvqz/c tightscf
| 40> %pal nprocs 16 end
| 41> %maxcore 3800
| 42> %base "QZ_B-P_48_AB"
| 43>
| 44> *xyz 0 1
| 45> C        -0.995891    0.435767   -0.180880
| 46> B         1.918181    0.613997    0.256344
| 47> O        -2.025227    0.050147    0.291456
| 48> P         0.559109   -0.528912   -0.220460
| 49> H         2.874401    0.196306    0.819792
| 50> H         1.870393    1.738412   -0.123773
| 51> H        -0.913502    1.420213   -0.683591
| 52> H         0.368326   -1.507011    0.766379
| 53> *
| 54>
| 55>
| 56>
| 57>
| 58>                          ****END OF INPUT****
 Total Charge           Charge          ....    0
 Multiplicity           Mult            ....    1
 Number of Electrons    NEL             ....   38
MP2 TOTAL ENERGY:     -481.001108343 Eh
FINAL SINGLE POINT ENERGY      -481.001108342514
MP2 TOTAL ENERGY:     -481.162241898 Eh
FINAL SINGLE POINT ENERGY      -481.162241898011

CARTESIAN COORDINATES (ANGSTROEM)
---------------------------------
  C     -0.995891    0.435767   -0.180880
  B      1.918181    0.613997    0.256344
  O     -2.025227    0.050147    0.291456
  P      0.559109   -0.528912   -0.220460
  H      2.874401    0.196306    0.819792
  H      1.870393    1.738412   -0.123773
  H     -0.913502    1.420213   -0.683591
  H      0.368326   -1.507011    0.766379

 Multiplicity           Mult            ....    1
 Number of Electrons    NEL             ....   38
 Basis Dimension        Dim             ....  508

ORBITAL ENERGIES
----------------

  NO   OCC          E(Eh)            E(eV)
   0   2.0000     -79.950554     -2175.5652
   1   2.0000     -20.572342      -559.8019
   2   2.0000     -11.351040      -308.8775
   3   2.0000      -7.632485      -207.6905
   4   2.0000      -7.498575      -204.0466
   5   2.0000      -5.393084      -146.7533
   6   2.0000      -5.392839      -146.7466
   7   2.0000      -5.392583      -146.7396
   8   2.0000      -1.414365       -38.4868
   9   2.0000      -0.940897       -25.6031
  10   2.0000      -0.802709       -21.8428
  11   2.0000      -0.708093       -19.2682
  12   2.0000      -0.661847       -18.0098
  13   2.0000      -0.618942       -16.8423
  14   2.0000      -0.557127       -15.1602
  15   2.0000      -0.530669       -14.4402
  16   2.0000      -0.504603       -13.7309
  17   2.0000      -0.420161       -11.4332
  18   2.0000      -0.370058       -10.0698
  19   0.0000       0.022099         0.6014
  20   0.0000       0.026645         0.7250
  21   0.0000       0.028535         0.7765
  22   0.0000       0.036251         0.9864
  23   0.0000       0.051639         1.4052

MULLIKEN ATOMIC CHARGES
-----------------------
   0 C :   -0.077991
   1 B :    0.227138
   2 O :   -0.675859
   3 P :    0.395332
   4 H :   -0.182289
   5 H :   -0.148339
   6 H :    0.459877
   7 H :    0.002131
Sum of atomic charges:   -0.0000000

LOEWDIN ATOMIC CHARGES
----------------------
   0 C :   -0.520414
   1 B :    0.080776
   2 O :    0.600350
   3 P :    1.262406
   4 H :   -0.265932
   5 H :   -0.261529
   6 H :   -0.442087
   7 H :   -0.453569

  Mayer bond orders larger than 0.100000
B(  0-C ,  2-O ) :   1.6489 B(  0-C ,  3-P ) :   0.9150 B(  0-C ,  6-H ) :   0.7436
B(  1-B ,  3-P ) :   1.2650 B(  1-B ,  4-H ) :   0.9359 B(  1-B ,  5-H ) :   0.9339
B(  3-P ,  7-H ) :   0.9610

MP2 TOTAL ENERGY:     -481.215425511 Eh
FINAL SINGLE POINT ENERGY      -481.215425510636

DIPOLE MOMENT
-------------
                                X             Y             Z
Electronic contribution:     -1.09522      -1.51796      -0.86641
Nuclear contribution   :      2.01993       1.79579       0.76059
                        -----------------------------------------
Total Dipole Moment    :      0.92471       0.27783      -0.10582
                        -----------------------------------------
Magnitude (a.u.)       :      0.97133
Magnitude (Debye)      :      2.46893

Rotational constants in cm-1:     0.600658     0.116122     0.103696
Rotational constants in MHz : 18007.272683  3481.264022  3108.724726

                             ****ORCA TERMINATED NORMALLY****
TOTAL RUN TIME: 0 days 0 hours 11 minutes 52 seconds 501 msec
