                         Program Version 5.0.4 -  RELEASE  -
|  1> ! ri-mp2 aug-cc-pvdz aug-cc-pvdz/c tightscf
|  2> %pal nprocs 16 end
|  3> %maxcore 3800
|  4> %base "DZ_P-C_67_AB"
|  5>
|  6> *xyz 0 1
|  7> N        -2.356822   -0.343535   -0.080492
|  8> P        -1.305360    1.136828   -0.412940
|  9> C         0.004060    0.748801    0.791681
| 10> P         0.925082   -0.801538    0.405437
| 11> H        -0.376835    0.680014    1.808196
| 12> H         0.741599    1.555574    0.753018
| 13> N         2.524159   -0.021967   -0.148268
| 14> O         2.837357    1.092068    0.213463
| 15> O         3.214055   -0.758464   -0.816300
| 16> O        -1.806231   -1.355487    0.317361
| 17> O        -3.529095   -0.248648   -0.345274
| 18> H        -2.132394    1.953419    0.385340
| 19> H         0.547395   -0.988404   -0.936767
| 20> *
| 21>
| 22> $new_job
| 23> ! ri-mp2 aug-cc-pvtz aug-cc-pvtz/c tightscf
| 24> %pal nprocs 16 end
| 25> %maxcore 3800
| 26> %base "TZ_P-C_67_AB"
| 27>
| 28> *xyz 0 1
| 29> N        -2.356822   -0.343535   -0.080492
| 30> P        -1.305360    1.136828   -0.412940
| 31> C         0.004060    0.748801    0.791681
| 32> P         0.925082   -0.801538    0.405437
| 33> H        -0.376835    0.680014    1.808196
| 34> H         0.741599    1.555574    0.753018
| 35> N         2.524159   -0.021967   -0.148268
| 36> O         2.837357    1.092068    0.213463
| 37> O         3.214055   -0.758464   -0.816300
| 38> O        -1.806231   -1.355487    0.317361
| 39> O        -3.529095   -0.248648   -0.345274
| 40> H        -2.132394    1.953419    0.385340
| 41> H         0.547395   -0.988404   -0.936767
| 42> *
| 43>
| 44> $new_job
| 45> ! ri-mp2 aug-cc-pvqz aug-cc-pvqz/c tightscf
| 46> %pal nprocs 16 end
| 47> %maxcore 3800
| 48> %base "QZ_P-C_67_AB"
| 49>
| 50> *xyz 0 1
| 51> N        -2.356822   -0.343535   -0.080492
| 52> P        -1.305360    1.136828   -0.412940
| 53> C         0.004060    0.748801    0.791681
| 54> P         0.925082   -0.801538    0.405437
| 55> H        -0.376835    0.680014    1.808196
| 56> H         0.741599    1.555574    0.753018
| 57> N         2.524159   -0.021967   -0.148268
| 58> O         2.837357    1.092068    0.213463
| 59> O         3.214055   -0.758464   -0.816300
| 60> O        -1.806231   -1.355487    0.317361
| 61> O        -3.529095   -0.248648   -0.345274
| 62> H        -2.132394    1.953419    0.385340
| 63> H         0.547395   -0.988404   -0.936767
| 64> *
| 65>
| 66>
| 67>
| 68>
| 69>                          ****END OF INPUT****
 Total Charge           Charge          ....    0
 Multiplicity           Mult            ....    1
 Number of Electrons    NEL             ....   86
MP2 TOTAL ENERGY:    -1131.403223786 Eh
FINAL SINGLE POINT ENERGY     -1131.403223786415
MP2 TOTAL ENERGY:    -1131.857215181 Eh
FINAL SINGLE POINT ENERGY     -1131.857215181153

CARTESIAN COORDINATES (ANGSTROEM)
---------------------------------
  N     -2.356822   -0.343535   -0.080492
  P     -1.305360    1.136828   -0.412940
  C      0.004060    0.748801    0.791681
  P      0.925082   -0.801538    0.405437
  H     -0.376835    0.680014    1.808196
  H      0.741599    1.555574    0.753018
  N      2.524159   -0.021967   -0.148268
  O      2.837357    1.092068    0.213463
  O      3.214055   -0.758464   -0.816300
  O     -1.806231   -1.355487    0.317361
  O     -3.529095   -0.248648   -0.345274
  H     -2.132394    1.953419    0.385340
  H      0.547395   -0.988404   -0.936767

 Multiplicity           Mult            ....    1
 Number of Electrons    NEL             ....   86
 Basis Dimension        Dim             ....  912

ORBITAL ENERGIES
----------------

  NO   OCC          E(Eh)            E(eV)
   0   2.0000     -80.041914     -2178.0512
   1   2.0000     -80.032083     -2177.7837
   2   2.0000     -20.632701      -561.4443
   3   2.0000     -20.629191      -561.3488
   4   2.0000     -20.611892      -560.8781
   5   2.0000     -20.610651      -560.8443
   6   2.0000     -15.859967      -431.5716
   7   2.0000     -15.839520      -431.0152
   8   2.0000     -11.291454      -307.2561
   9   2.0000      -7.581581      -206.3053
  10   2.0000      -7.570616      -206.0069
  11   2.0000      -5.475234      -148.9887
  12   2.0000      -5.474208      -148.9608
  13   2.0000      -5.473254      -148.9348
  14   2.0000      -5.463995      -148.6829
  15   2.0000      -5.462848      -148.6516
  16   2.0000      -5.461996      -148.6285
  17   2.0000      -1.636348       -44.5273
  18   2.0000      -1.616995       -44.0007
  19   2.0000      -1.434461       -39.0337
  20   2.0000      -1.414953       -38.5028
  21   2.0000      -1.092405       -29.7259
  22   2.0000      -1.017374       -27.6842
  23   2.0000      -0.964284       -26.2395
  24   2.0000      -0.849821       -23.1248
  25   2.0000      -0.831555       -22.6278
  26   2.0000      -0.762613       -20.7518
  27   2.0000      -0.756084       -20.5741
  28   2.0000      -0.744635       -20.2626
  29   2.0000      -0.737140       -20.0586
  30   2.0000      -0.731302       -19.8997
  31   2.0000      -0.719380       -19.5753
  32   2.0000      -0.644147       -17.5281
  33   2.0000      -0.597551       -16.2602
  34   2.0000      -0.562798       -15.3145
  35   2.0000      -0.529882       -14.4188
  36   2.0000      -0.505813       -13.7639
  37   2.0000      -0.500758       -13.6263
  38   2.0000      -0.487300       -13.2601
  39   2.0000      -0.477817       -13.0021
  40   2.0000      -0.467689       -12.7265
  41   2.0000      -0.440634       -11.9903
  42   2.0000      -0.422511       -11.4971
  43   0.0000       0.015449         0.4204
  44   0.0000       0.028345         0.7713
  45   0.0000       0.034383         0.9356
  46   0.0000       0.035797         0.9741
  47   0.0000       0.050000         1.3606

MULLIKEN ATOMIC CHARGES
-----------------------
   0 N :    0.662746
   1 P :    0.644268
   2 C :   -0.884355
   3 P :    0.765399
   4 H :    0.314488
   5 H :    0.392756
   6 N :    0.622861
   7 O :   -0.618954
   8 O :   -0.576627
   9 O :   -0.633836
  10 O :   -0.570134
  11 H :   -0.059773
  12 H :   -0.058839
Sum of atomic charges:    0.0000000

LOEWDIN ATOMIC CHARGES
----------------------
   0 N :   -1.061577
   1 P :    1.063353
   2 C :    0.112734
   3 P :    1.005158
   4 H :   -0.415654
   5 H :   -0.532286
   6 N :   -1.057966
   7 O :    0.456674
   8 O :    0.423751
   9 O :    0.434210
  10 O :    0.445779
  11 H :   -0.421901
  12 H :   -0.452275

  Mayer bond orders larger than 0.100000
B(  0-N ,  1-P ) :   0.6040 B(  0-N ,  9-O ) :   1.2549 B(  0-N , 10-O ) :   1.3523
B(  1-P ,  2-C ) :   0.8898 B(  1-P , 11-H ) :   0.9498 B(  2-C ,  3-P ) :   0.8663
B(  2-C ,  4-H ) :   0.8888 B(  2-C ,  5-H ) :   0.8269 B(  3-P ,  6-N ) :   0.5719
B(  3-P , 12-H ) :   0.9499 B(  6-N ,  7-O ) :   1.2827 B(  6-N ,  8-O ) :   1.3285
B(  7-O ,  8-O ) :   0.1311 B(  9-O , 10-O ) :   0.1339

MP2 TOTAL ENERGY:    -1132.009388468 Eh
FINAL SINGLE POINT ENERGY     -1132.009388468012

DIPOLE MOMENT
-------------
                                X             Y             Z
Electronic contribution:      0.00889      -1.63822      -1.32826
Nuclear contribution   :     -0.80357       2.71638       1.90552
                        -----------------------------------------
Total Dipole Moment    :     -0.79469       1.07816       0.57726
                        -----------------------------------------
Magnitude (a.u.)       :      1.45849
Magnitude (Debye)      :      3.70718

Rotational constants in cm-1:     0.097580     0.020182     0.018080
Rotational constants in MHz :  2925.366781   605.035736   542.035133

                             ****ORCA TERMINATED NORMALLY****
TOTAL RUN TIME: 0 days 0 hours 17 minutes 42 seconds 352 msec
