                         Program Version 5.0.4 -  RELEASE  -
|  1> ! ri-mp2 aug-cc-pvdz aug-cc-pvdz/c tightscf
|  2> %pal nprocs 16 end
|  3> %maxcore 3800
|  4> %base "DZ_S-Cl_51_A"
|  5> %scf
|  6> STABPerform true
|  7> STABRestartUHFifUnstable true
|  8> end
|  9>
| 10> *xyz 0 2
| 11> S        -1.343742   -0.616092    0.000000
| 12> C        -0.009872    0.364403    0.000002
| 13> S         1.417981   -0.486319   -0.000001
| 14> O        -0.023236    1.682493    0.000001
| 15> H        -0.942711    1.992225    0.000002
| 16> *
| 17>
| 18> $new_job
| 19> ! ri-mp2 aug-cc-pvtz aug-cc-pvtz/c tightscf
| 20> %pal nprocs 16 end
| 21> %maxcore 3800
| 22> %base "TZ_S-Cl_51_A"
| 23>
| 24> *xyz 0 2
| 25> S        -1.343742   -0.616092    0.000000
| 26> C        -0.009872    0.364403    0.000002
| 27> S         1.417981   -0.486319   -0.000001
| 28> O        -0.023236    1.682493    0.000001
| 29> H        -0.942711    1.992225    0.000002
| 30> *
| 31>
| 32> $new_job
| 33> ! ri-mp2 aug-cc-pvqz aug-cc-pvqz/c tightscf
| 34> %pal nprocs 16 end
| 35> %maxcore 3800
| 36> %base "QZ_S-Cl_51_A"
| 37>
| 38> *xyz 0 2
| 39> S        -1.343742   -0.616092    0.000000
| 40> C        -0.009872    0.364403    0.000002
| 41> S         1.417981   -0.486319   -0.000001
| 42> O        -0.023236    1.682493    0.000001
| 43> H        -0.942711    1.992225    0.000002
| 44> *
| 45>
| 46>
| 47>
| 48>
| 49>                          ****END OF INPUT****
 Total Charge           Charge          ....    0
 Multiplicity           Mult            ....    2
 Number of Electrons    NEL             ....   47
MP2 TOTAL ENERGY:     -908.955421445 Eh
FINAL SINGLE POINT ENERGY      -908.955421444707
MP2 TOTAL ENERGY:     -909.145769193 Eh
FINAL SINGLE POINT ENERGY      -909.145769192632

CARTESIAN COORDINATES (ANGSTROEM)
---------------------------------
  S     -1.343742   -0.616092    0.000000
  C     -0.009872    0.364403    0.000002
  S      1.417981   -0.486319   -0.000001
  O     -0.023236    1.682493    0.000001
  H     -0.942711    1.992225    0.000002

 Multiplicity           Mult            ....    2
 Number of Electrons    NEL             ....   47
 Basis Dimension        Dim             ....  374

ORBITAL ENERGIES
----------------
                 SPIN UP ORBITALS
  NO   OCC          E(Eh)            E(eV)
   0   1.0000     -92.017566     -2503.9253
   1   1.0000     -91.942922     -2501.8941
   2   1.0000     -20.656863      -562.1018
   3   1.0000     -11.422998      -310.8356
   4   1.0000      -9.020919      -245.4717
   5   1.0000      -8.947069      -243.4621
   6   1.0000      -6.715703      -182.7436
   7   1.0000      -6.698170      -182.2665
   8   1.0000      -6.697133      -182.2383
   9   1.0000      -6.630263      -180.4186
  10   1.0000      -6.627236      -180.3363
  11   1.0000      -6.626200      -180.3081
  12   1.0000      -1.486422       -40.4476
  13   1.0000      -1.134003       -30.8578
  14   1.0000      -0.980094       -26.6697
  15   1.0000      -0.857835       -23.3429
  16   1.0000      -0.701884       -19.0992
  17   1.0000      -0.655341       -17.8327
  18   1.0000      -0.651514       -17.7286
  19   1.0000      -0.530159       -14.4263
  20   1.0000      -0.485039       -13.1986
  21   1.0000      -0.466945       -12.7062
  22   1.0000      -0.365839        -9.9550
  23   1.0000      -0.363162        -9.8821
  24   0.0000       0.024250         0.6599
  25   0.0000       0.046004         1.2518
  26   0.0000       0.054887         1.4935
  27   0.0000       0.055572         1.5122
  28   0.0000       0.079599         2.1660

                 SPIN DOWN ORBITALS
  NO   OCC          E(Eh)            E(eV)
   0   1.0000     -92.008582     -2503.6808
   1   1.0000     -91.940792     -2501.8361
   2   1.0000     -20.657089      -562.1080
   3   1.0000     -11.423560      -310.8509
   4   1.0000      -9.010956      -245.2006
   5   1.0000      -8.944660      -243.3966
   6   1.0000      -6.693835      -182.1485
   7   1.0000      -6.691271      -182.0787
   8   1.0000      -6.675727      -181.6558
   9   1.0000      -6.626451      -180.3149
  10   1.0000      -6.624860      -180.2716
  11   1.0000      -6.620821      -180.1617
  12   1.0000      -1.486978       -40.4627
  13   1.0000      -1.103584       -30.0300
  14   1.0000      -0.941393       -25.6166
  15   1.0000      -0.839014       -22.8307
  16   1.0000      -0.697455       -18.9787
  17   1.0000      -0.653093       -17.7716
  18   1.0000      -0.622850       -16.9486
  19   1.0000      -0.512881       -13.9562
  20   1.0000      -0.456299       -12.4165
  21   1.0000      -0.354605        -9.6493
  22   1.0000      -0.352346        -9.5878
  23   0.0000      -0.016739        -0.4555
  24   0.0000       0.024490         0.6664
  25   0.0000       0.047447         1.2911
  26   0.0000       0.053794         1.4638
  27   0.0000       0.057370         1.5611

MULLIKEN ATOMIC CHARGES AND SPIN POPULATIONS
--------------------------------------------
   0 S :   -0.007457    0.177439
   1 C :   -0.164785   -0.151724
   2 S :    0.350781    0.983056
   3 O :   -0.590706   -0.007307
   4 H :    0.412167   -0.001464
Sum of atomic charges         :   -0.0000000

LOEWDIN ATOMIC CHARGES AND SPIN POPULATIONS
-------------------------------------------
   0 S :    0.845591    0.151830
   1 C :   -2.002570    0.202985
   2 S :    0.940650    0.640158
   3 O :    1.076641    0.006005
   4 H :   -0.860313   -0.000978

  Mayer bond orders larger than 0.100000
B(  0-S ,  1-C ) :   1.5957 B(  0-S ,  2-S ) :   0.1567 B(  1-C ,  2-S ) :   1.1023
B(  1-C ,  3-O ) :   1.0095 B(  3-O ,  4-H ) :   0.8174

MP2 TOTAL ENERGY:     -909.210435003 Eh
FINAL SINGLE POINT ENERGY      -909.210435002648

DIPOLE MOMENT
-------------
                                X             Y             Z
Electronic contribution:      1.13162      -1.24536      -0.00000
Nuclear contribution   :     -0.89595       1.94546       0.00000
                        -----------------------------------------
Total Dipole Moment    :      0.23567       0.70010       0.00000
                        -----------------------------------------
Magnitude (a.u.)       :      0.73870
Magnitude (Debye)      :      1.87762

Rotational constants in cm-1:     0.239034     0.136704     0.086967
Rotational constants in MHz :  7166.049296  4098.279919  2607.210369

                             ****ORCA TERMINATED NORMALLY****
TOTAL RUN TIME: 0 days 0 hours 10 minutes 2 seconds 214 msec
