                         Program Version 5.0.4 -  RELEASE  -
|  1> ! ri-mp2 aug-cc-pvdz aug-cc-pvdz/c tightscf
|  2> %pal nprocs 16 end
|  3> %maxcore 3800
|  4> %base "DZ_Si-Si_126_AB"
|  5>
|  6> *xyz 0 1
|  7> Si         1.798513   -0.768236   -0.000004
|  8> Si         0.506988    1.175560    0.000011
|  9> H         3.226166   -0.371282   -0.000009
| 10> H         1.530770   -1.572545   -1.209807
| 11> H         1.530784   -1.572562    1.209790
| 12> C        -1.327005    0.743632   -0.000024
| 13> H         0.770366    2.017058   -1.192942
| 14> H         0.770324    2.017009    1.193008
| 15> S        -1.880784   -0.765160    0.000004
| 16> H        -2.050857    1.560564   -0.000063
| 17> *
| 18>
| 19> $new_job
| 20> ! ri-mp2 aug-cc-pvtz aug-cc-pvtz/c tightscf
| 21> %pal nprocs 16 end
| 22> %maxcore 3800
| 23> %base "TZ_Si-Si_126_AB"
| 24>
| 25> *xyz 0 1
| 26> Si         1.798513   -0.768236   -0.000004
| 27> Si         0.506988    1.175560    0.000011
| 28> H         3.226166   -0.371282   -0.000009
| 29> H         1.530770   -1.572545   -1.209807
| 30> H         1.530784   -1.572562    1.209790
| 31> C        -1.327005    0.743632   -0.000024
| 32> H         0.770366    2.017058   -1.192942
| 33> H         0.770324    2.017009    1.193008
| 34> S        -1.880784   -0.765160    0.000004
| 35> H        -2.050857    1.560564   -0.000063
| 36> *
| 37>
| 38> $new_job
| 39> ! ri-mp2 aug-cc-pvqz aug-cc-pvqz/c tightscf
| 40> %pal nprocs 16 end
| 41> %maxcore 3800
| 42> %base "QZ_Si-Si_126_AB"
| 43>
| 44> *xyz 0 1
| 45> Si         1.798513   -0.768236   -0.000004
| 46> Si         0.506988    1.175560    0.000011
| 47> H         3.226166   -0.371282   -0.000009
| 48> H         1.530770   -1.572545   -1.209807
| 49> H         1.530784   -1.572562    1.209790
| 50> C        -1.327005    0.743632   -0.000024
| 51> H         0.770366    2.017058   -1.192942
| 52> H         0.770324    2.017009    1.193008
| 53> S        -1.880784   -0.765160    0.000004
| 54> H        -2.050857    1.560564   -0.000063
| 55> *
| 56>
| 57>
| 58>
| 59>
| 60>                          ****END OF INPUT****
 Total Charge           Charge          ....    0
 Multiplicity           Mult            ....    1
 Number of Electrons    NEL             ....   56
MP2 TOTAL ENERGY:    -1017.213022764 Eh
FINAL SINGLE POINT ENERGY     -1017.213022763953
MP2 TOTAL ENERGY:    -1017.369519837 Eh
FINAL SINGLE POINT ENERGY     -1017.369519836676

CARTESIAN COORDINATES (ANGSTROEM)
---------------------------------
  Si     1.798513   -0.768236   -0.000004
  Si     0.506988    1.175560    0.000011
  H      3.226166   -0.371282   -0.000009
  H      1.530770   -1.572545   -1.209807
  H      1.530784   -1.572562    1.209790
  C     -1.327005    0.743632   -0.000024
  H      0.770366    2.017058   -1.192942
  H      0.770324    2.017009    1.193008
  S     -1.880784   -0.765160    0.000004
  H     -2.050857    1.560564   -0.000063

 Multiplicity           Mult            ....    1
 Number of Electrons    NEL             ....   56
 Basis Dimension        Dim             ....  608

ORBITAL ENERGIES
----------------

  NO   OCC          E(Eh)            E(eV)
   0   2.0000     -91.956771     -2502.2709
   1   2.0000     -68.782680     -1871.6719
   2   2.0000     -68.770239     -1871.3333
   3   2.0000     -11.302920      -307.5681
   4   2.0000      -8.960019      -243.8145
   5   2.0000      -6.640786      -180.7050
   6   2.0000      -6.640694      -180.7025
   7   2.0000      -6.638797      -180.6509
   8   2.0000      -6.133259      -166.8945
   9   2.0000      -6.121014      -166.5613
  10   2.0000      -4.239327      -115.3579
  11   2.0000      -4.239283      -115.3567
  12   2.0000      -4.239165      -115.3535
  13   2.0000      -4.227207      -115.0281
  14   2.0000      -4.227074      -115.0245
  15   2.0000      -4.227000      -115.0225
  16   2.0000      -1.065031       -28.9810
  17   2.0000      -0.812285       -22.1034
  18   2.0000      -0.747116       -20.3301
  19   2.0000      -0.673498       -18.3268
  20   2.0000      -0.581740       -15.8299
  21   2.0000      -0.514755       -14.0072
  22   2.0000      -0.512771       -13.9532
  23   2.0000      -0.481886       -13.1128
  24   2.0000      -0.480752       -13.0819
  25   2.0000      -0.417135       -11.3508
  26   2.0000      -0.412415       -11.2224
  27   2.0000      -0.343201        -9.3390
  28   0.0000       0.023065         0.6276
  29   0.0000       0.028874         0.7857
  30   0.0000       0.028907         0.7866
  31   0.0000       0.037755         1.0274
  32   0.0000       0.041173         1.1204

MULLIKEN ATOMIC CHARGES
-----------------------
   0 Si:    0.404583
   1 Si:    0.786022
   2 H :   -0.191723
   3 H :   -0.122971
   4 H :   -0.122969
   5 C :   -0.838861
   6 H :   -0.182905
   7 H :   -0.182903
   8 S :   -0.002522
   9 H :    0.454249
Sum of atomic charges:    0.0000000

LOEWDIN ATOMIC CHARGES
----------------------
   0 Si:    0.959039
   1 Si:    0.518358
   2 H :   -0.321102
   3 H :   -0.310575
   4 H :   -0.310576
   5 C :   -0.504446
   6 H :   -0.279413
   7 H :   -0.279412
   8 S :    1.066336
   9 H :   -0.538209

  Mayer bond orders larger than 0.100000
B(  0-Si,  1-Si) :   0.7527 B(  0-Si,  2-H ) :   0.8013 B(  0-Si,  3-H ) :   0.7775
B(  0-Si,  4-H ) :   0.7775 B(  1-Si,  5-C ) :   0.7550 B(  1-Si,  6-H ) :   0.8202
B(  1-Si,  7-H ) :   0.8202 B(  5-C ,  8-S ) :   1.7787 B(  5-C ,  9-H ) :   0.7305

MP2 TOTAL ENERGY:    -1017.421513429 Eh
FINAL SINGLE POINT ENERGY     -1017.421513429023

DIPOLE MOMENT
-------------
                                X             Y             Z
Electronic contribution:     -5.40318      -1.43974       0.00001
Nuclear contribution   :      5.63567       2.05526      -0.00002
                        -----------------------------------------
Total Dipole Moment    :      0.23249       0.61551      -0.00001
                        -----------------------------------------
Magnitude (a.u.)       :      0.65796
Magnitude (Debye)      :      1.67240

Rotational constants in cm-1:     0.165051     0.065082     0.048231
Rotational constants in MHz :  4948.111312  1951.108698  1445.932858

                             ****ORCA TERMINATED NORMALLY****
TOTAL RUN TIME: 0 days 0 hours 5 minutes 29 seconds 883 msec
