                         Program Version 5.0.4 -  RELEASE  -
|  1> ! ri-mp2 aug-cc-pvdz aug-cc-pvdz/c tightscf
|  2> %pal nprocs 16 end
|  3> %maxcore 3800
|  4> %base "DZ_P-F_24_AB"
|  5> %scf
|  6> STABPerform true
|  7> STABRestartUHFifUnstable true
|  8> end
|  9>
| 10> *xyz 0 1
| 11> S        -0.738356    0.054532    0.097061
| 12> F         2.027989   -0.752152    0.019116
| 13> O        -0.880621   -0.976848   -1.111293
| 14> O        -1.464232    1.224363   -0.265756
| 15> O        -1.007417   -0.668277    1.299222
| 16> P         1.334240    0.683091    0.065917
| 17> H        -0.881738   -1.879485   -0.759345
| 18> H         1.248090    0.896074   -1.331812
| 19> *
| 20>
| 21> $new_job
| 22> ! ri-mp2 aug-cc-pvtz aug-cc-pvtz/c tightscf
| 23> %pal nprocs 16 end
| 24> %maxcore 3800
| 25> %base "TZ_P-F_24_AB"
| 26>
| 27> *xyz 0 1
| 28> S        -0.738356    0.054532    0.097061
| 29> F         2.027989   -0.752152    0.019116
| 30> O        -0.880621   -0.976848   -1.111293
| 31> O        -1.464232    1.224363   -0.265756
| 32> O        -1.007417   -0.668277    1.299222
| 33> P         1.334240    0.683091    0.065917
| 34> H        -0.881738   -1.879485   -0.759345
| 35> H         1.248090    0.896074   -1.331812
| 36> *
| 37>
| 38> $new_job
| 39> ! ri-mp2 aug-cc-pvqz aug-cc-pvqz/c tightscf
| 40> %pal nprocs 16 end
| 41> %maxcore 3800
| 42> %base "QZ_P-F_24_AB"
| 43>
| 44> *xyz 0 1
| 45> S        -0.738356    0.054532    0.097061
| 46> F         2.027989   -0.752152    0.019116
| 47> O        -0.880621   -0.976848   -1.111293
| 48> O        -1.464232    1.224363   -0.265756
| 49> O        -1.007417   -0.668277    1.299222
| 50> P         1.334240    0.683091    0.065917
| 51> H        -0.881738   -1.879485   -0.759345
| 52> H         1.248090    0.896074   -1.331812
| 53> *
| 54>
| 55>
| 56>
| 57>
| 58>                          ****END OF INPUT****
 Total Charge           Charge          ....    0
 Multiplicity           Mult            ....    1
 Number of Electrons    NEL             ....   66
MP2 TOTAL ENERGY:    -1064.504302534 Eh
FINAL SINGLE POINT ENERGY     -1064.504302533648
MP2 TOTAL ENERGY:    -1064.923984754 Eh
FINAL SINGLE POINT ENERGY     -1064.923984753601

CARTESIAN COORDINATES (ANGSTROEM)
---------------------------------
  S     -0.738356    0.054532    0.097061
  F      2.027989   -0.752152    0.019116
  O     -0.880621   -0.976848   -1.111293
  O     -1.464232    1.224363   -0.265756
  O     -1.007417   -0.668277    1.299222
  P      1.334240    0.683091    0.065917
  H     -0.881738   -1.879485   -0.759345
  H      1.248090    0.896074   -1.331812

 Multiplicity           Mult            ....    1
 Number of Electrons    NEL             ....   66
 Basis Dimension        Dim             ....  580

ORBITAL ENERGIES
----------------

  NO   OCC          E(Eh)            E(eV)
   0   2.0000     -92.222299     -2509.4963
   1   2.0000     -80.068918     -2178.7860
   2   2.0000     -26.345238      -716.8904
   3   2.0000     -20.648522      -561.8748
   4   2.0000     -20.577201      -559.9341
   5   2.0000     -20.576943      -559.9271
   6   2.0000      -9.188337      -250.0274
   7   2.0000      -7.602657      -206.8788
   8   2.0000      -6.874429      -187.0627
   9   2.0000      -6.872924      -187.0218
  10   2.0000      -6.872785      -187.0180
  11   2.0000      -5.496042      -149.5549
  12   2.0000      -5.495194      -149.5318
  13   2.0000      -5.493963      -149.4983
  14   2.0000      -1.653381       -44.9908
  15   2.0000      -1.531620       -41.6775
  16   2.0000      -1.413863       -38.4732
  17   2.0000      -1.383552       -37.6484
  18   2.0000      -0.972196       -26.4548
  19   2.0000      -0.875674       -23.8283
  20   2.0000      -0.783271       -21.3139
  21   2.0000      -0.749239       -20.3878
  22   2.0000      -0.736117       -20.0308
  23   2.0000      -0.723879       -19.6977
  24   2.0000      -0.700793       -19.0695
  25   2.0000      -0.662444       -18.0260
  26   2.0000      -0.645602       -17.5677
  27   2.0000      -0.592044       -16.1103
  28   2.0000      -0.554439       -15.0870
  29   2.0000      -0.534837       -14.5537
  30   2.0000      -0.508283       -13.8311
  31   2.0000      -0.488099       -13.2819
  32   2.0000      -0.432884       -11.7794
  33   0.0000       0.020117         0.5474
  34   0.0000       0.032784         0.8921
  35   0.0000       0.043449         1.1823
  36   0.0000       0.053826         1.4647
  37   0.0000       0.057909         1.5758

MULLIKEN ATOMIC CHARGES
-----------------------
   0 S :    2.346108
   1 F :   -0.650768
   2 O :   -0.748942
   3 O :   -1.109473
   4 O :   -1.126098
   5 P :    1.005230
   6 H :    0.347422
   7 H :   -0.063478
Sum of atomic charges:    0.0000000

LOEWDIN ATOMIC CHARGES
----------------------
   0 S :   -0.799295
   1 F :    0.237903
   2 O :    0.989840
   3 O :    0.212433
   4 O :    0.227642
   5 P :    0.549661
   6 H :   -0.894089
   7 H :   -0.524095

  Mayer bond orders larger than 0.100000
B(  0-S ,  2-O ) :   0.6737 B(  0-S ,  3-O ) :   1.2601 B(  0-S ,  4-O ) :   1.1820
B(  0-S ,  5-P ) :   0.8076 B(  1-F ,  5-P ) :   0.5394 B(  2-O ,  6-H ) :   0.8963
B(  5-P ,  7-H ) :   0.9305

MP2 TOTAL ENERGY:    -1065.062968386 Eh
FINAL SINGLE POINT ENERGY     -1065.062968385697

DIPOLE MOMENT
-------------
                                X             Y             Z
Electronic contribution:      3.84886       0.46023       1.38449
Nuclear contribution   :     -2.75722      -0.84434      -2.04362
                        -----------------------------------------
Total Dipole Moment    :      1.09164      -0.38411      -0.65913
                        -----------------------------------------
Magnitude (a.u.)       :      1.33179
Magnitude (Debye)      :      3.38514

Rotational constants in cm-1:     0.133118     0.063199     0.057722
Rotational constants in MHz :  3990.772461  1894.652307  1730.452059

                             ****ORCA TERMINATED NORMALLY****
TOTAL RUN TIME: 0 days 0 hours 17 minutes 12 seconds 352 msec
