                         Program Version 5.0.4 -  RELEASE  -
|  1> ! ri-mp2 aug-cc-pvdz aug-cc-pvdz/c tightscf
|  2> %pal nprocs 16 end
|  3> %maxcore 3800
|  4> %base "DZ_S-Cl_16_A"
|  5> %scf
|  6> STABPerform true
|  7> STABRestartUHFifUnstable true
|  8> end
|  9>
| 10> *xyz 0 2
| 11> S         1.133049   -0.000001    1.407783
| 12> C        -0.012834    0.000000    0.045844
| 13> Cl        -1.052038    1.438635    0.024662
| 14> Cl        -1.052038   -1.438635    0.024660
| 15> Cl         1.042206    0.000001   -1.390475
| 16> *
| 17>
| 18> $new_job
| 19> ! ri-mp2 aug-cc-pvtz aug-cc-pvtz/c tightscf
| 20> %pal nprocs 16 end
| 21> %maxcore 3800
| 22> %base "TZ_S-Cl_16_A"
| 23>
| 24> *xyz 0 2
| 25> S         1.133049   -0.000001    1.407783
| 26> C        -0.012834    0.000000    0.045844
| 27> Cl        -1.052038    1.438635    0.024662
| 28> Cl        -1.052038   -1.438635    0.024660
| 29> Cl         1.042206    0.000001   -1.390475
| 30> *
| 31>
| 32> $new_job
| 33> ! ri-mp2 aug-cc-pvqz aug-cc-pvqz/c tightscf
| 34> %pal nprocs 16 end
| 35> %maxcore 3800
| 36> %base "QZ_S-Cl_16_A"
| 37>
| 38> *xyz 0 2
| 39> S         1.133049   -0.000001    1.407783
| 40> C        -0.012834    0.000000    0.045844
| 41> Cl        -1.052038    1.438635    0.024662
| 42> Cl        -1.052038   -1.438635    0.024660
| 43> Cl         1.042206    0.000001   -1.390475
| 44> *
| 45>
| 46>
| 47>
| 48>
| 49>                          ****END OF INPUT****
 Total Charge           Charge          ....    0
 Multiplicity           Mult            ....    2
 Number of Electrons    NEL             ....   73
MP2 TOTAL ENERGY:    -1814.567485440 Eh
FINAL SINGLE POINT ENERGY     -1814.567485439614
MP2 TOTAL ENERGY:    -1814.826445106 Eh
FINAL SINGLE POINT ENERGY     -1814.826445105850

CARTESIAN COORDINATES (ANGSTROEM)
---------------------------------
  S      1.133049   -0.000001    1.407783
  C     -0.012834    0.000000    0.045844
  Cl    -1.052038    1.438635    0.024662
  Cl    -1.052038   -1.438635    0.024660
  Cl     1.042206    0.000001   -1.390475

 Multiplicity           Mult            ....    2
 Number of Electrons    NEL             ....   73
 Basis Dimension        Dim             ....  416

ORBITAL ENERGIES
----------------
                 SPIN UP ORBITALS
  NO   OCC          E(Eh)            E(eV)
   0   1.0000    -104.877135     -2853.8519
   1   1.0000    -104.869815     -2853.6527
   2   1.0000    -104.869815     -2853.6527
   3   1.0000     -92.017754     -2503.9304
   4   1.0000     -11.466812      -312.0278
   5   1.0000     -10.602737      -288.5151
   6   1.0000     -10.595514      -288.3186
   7   1.0000     -10.595504      -288.3183
   8   1.0000      -9.019978      -245.4461
   9   1.0000      -8.070554      -219.6109
  10   1.0000      -8.067908      -219.5389
  11   1.0000      -8.067351      -219.5238
  12   1.0000      -8.062598      -219.3944
  13   1.0000      -8.062596      -219.3944
  14   1.0000      -8.060485      -219.3370
  15   1.0000      -8.060484      -219.3369
  16   1.0000      -8.060373      -219.3339
  17   1.0000      -8.060372      -219.3339
  18   1.0000      -6.715686      -182.7431
  19   1.0000      -6.697076      -182.2367
  20   1.0000      -6.695269      -182.1875
  21   1.0000      -1.262487       -34.3540
  22   1.0000      -1.127940       -30.6928
  23   1.0000      -1.119631       -30.4667
  24   1.0000      -1.035527       -28.1781
  25   1.0000      -0.808484       -22.0000
  26   1.0000      -0.653885       -17.7931
  27   1.0000      -0.644766       -17.5450
  28   1.0000      -0.624164       -16.9844
  29   1.0000      -0.536389       -14.5959
  30   1.0000      -0.517455       -14.0807
  31   1.0000      -0.485634       -13.2148
  32   1.0000      -0.475758       -12.9460
  33   1.0000      -0.469742       -12.7823
  34   1.0000      -0.457150       -12.4397
  35   1.0000      -0.452414       -12.3108
  36   1.0000      -0.409298       -11.1376
  37   0.0000       0.038400         1.0449
  38   0.0000       0.052593         1.4311
  39   0.0000       0.056752         1.5443
  40   0.0000       0.058883         1.6023
  41   0.0000       0.080732         2.1968

                 SPIN DOWN ORBITALS
  NO   OCC          E(Eh)            E(eV)
   0   1.0000    -104.876156     -2853.8253
   1   1.0000    -104.869693     -2853.6494
   2   1.0000    -104.869692     -2853.6494
   3   1.0000     -92.008449     -2503.6772
   4   1.0000     -11.468359      -312.0699
   5   1.0000     -10.601674      -288.4862
   6   1.0000     -10.595388      -288.3152
   7   1.0000     -10.595378      -288.3149
   8   1.0000      -9.009711      -245.1667
   9   1.0000      -8.068344      -219.5508
  10   1.0000      -8.066780      -219.5083
  11   1.0000      -8.065684      -219.4784
  12   1.0000      -8.062219      -219.3841
  13   1.0000      -8.062216      -219.3841
  14   1.0000      -8.060352      -219.3333
  15   1.0000      -8.060351      -219.3333
  16   1.0000      -8.060232      -219.3301
  17   1.0000      -8.060230      -219.3300
  18   1.0000      -6.692198      -182.1040
  19   1.0000      -6.689937      -182.0424
  20   1.0000      -6.673508      -181.5954
  21   1.0000      -1.257202       -34.2102
  22   1.0000      -1.122253       -30.5381
  23   1.0000      -1.118707       -30.4416
  24   1.0000      -0.972825       -26.4719
  25   1.0000      -0.784399       -21.3446
  26   1.0000      -0.643614       -17.5136
  27   1.0000      -0.639377       -17.3983
  28   1.0000      -0.608418       -16.5559
  29   1.0000      -0.515191       -14.0191
  30   1.0000      -0.514745       -14.0069
  31   1.0000      -0.474235       -12.9046
  32   1.0000      -0.474217       -12.9041
  33   1.0000      -0.462346       -12.5811
  34   1.0000      -0.456594       -12.4246
  35   1.0000      -0.391614       -10.6564
  36   0.0000      -0.014817        -0.4032
  37   0.0000       0.039319         1.0699
  38   0.0000       0.052942         1.4406
  39   0.0000       0.058976         1.6048
  40   0.0000       0.060820         1.6550

MULLIKEN ATOMIC CHARGES AND SPIN POPULATIONS
--------------------------------------------
   0 S :    0.128528    1.055831
   1 C :    0.127460   -0.118173
   2 Cl:   -0.093111    0.009525
   3 Cl:   -0.093111    0.009525
   4 Cl:   -0.069767    0.043291
Sum of atomic charges         :    0.0000000

LOEWDIN ATOMIC CHARGES AND SPIN POPULATIONS
-------------------------------------------
   0 S :    0.653275    0.731455
   1 C :   -3.256697    0.177669
   2 Cl:    0.867216    0.010343
   3 Cl:    0.867216    0.010343
   4 Cl:    0.868989    0.070190

  Mayer bond orders larger than 0.100000
B(  0-S ,  1-C ) :   0.9416 B(  1-C ,  2-Cl) :   0.8925 B(  1-C ,  3-Cl) :   0.8925
B(  1-C ,  4-Cl) :   0.8850

MP2 TOTAL ENERGY:    -1814.913722361 Eh
FINAL SINGLE POINT ENERGY     -1814.913722361461

DIPOLE MOMENT
-------------
                                X             Y             Z
Electronic contribution:     -1.22401       0.00000      -1.56519
Nuclear contribution   :      1.35268      -0.00000       1.70911
                        -----------------------------------------
Total Dipole Moment    :      0.12867      -0.00000       0.14391
                        -----------------------------------------
Magnitude (a.u.)       :      0.19304
Magnitude (Debye)      :      0.49068

Rotational constants in cm-1:     0.060484     0.058077     0.055261
Rotational constants in MHz :  1813.267462  1741.117101  1656.690116

                             ****ORCA TERMINATED NORMALLY****
TOTAL RUN TIME: 0 days 0 hours 15 minutes 44 seconds 816 msec
