                         Program Version 5.0.4 -  RELEASE  -
|  1> ! ri-mp2 aug-cc-pvdz aug-cc-pvdz/c tightscf
|  2> %pal nprocs 16 end
|  3> %maxcore 3800
|  4> %base "DZ_P-N_10_AB"
|  5>
|  6> *xyz 0 1
|  7> C         1.805275   -1.604115   -0.086540
|  8> C         3.153218   -1.404700   -0.033968
|  9> C         3.675438   -0.100089    0.053376
| 10> C         2.835832    0.974174    0.085587
| 11> C         1.436659    0.798383    0.032066
| 12> C         0.910571   -0.511721   -0.054885
| 13> H         1.400444   -2.606162   -0.154581
| 14> H         3.828286   -2.249845   -0.059721
| 15> H         4.746639    0.045826    0.094359
| 16> H         3.232881    1.979508    0.152273
| 17> C        -0.491563   -0.689787   -0.107093
| 18> C        -1.343802    0.375513   -0.070071
| 19> C         0.535068    1.888233    0.062586
| 20> C        -0.807971    1.684791    0.010757
| 21> H         0.933582    2.893005    0.130116
| 22> H        -1.479930    2.535038    0.037268
| 23> N        -3.413078   -1.383097    0.305689
| 24> H        -0.888890   -1.694738   -0.176507
| 25> P        -3.152187    0.192661   -0.237293
| 26> H        -3.461443    0.976484    0.906577
| 27> H        -4.170905   -1.890199   -0.114996
| 28> H        -3.218666   -1.661241    1.253882
| 29> *
| 30>
| 31> $new_job
| 32> ! ri-mp2 aug-cc-pvtz aug-cc-pvtz/c tightscf
| 33> %pal nprocs 16 end
| 34> %maxcore 3800
| 35> %base "TZ_P-N_10_AB"
| 36>
| 37> *xyz 0 1
| 38> C         1.805275   -1.604115   -0.086540
| 39> C         3.153218   -1.404700   -0.033968
| 40> C         3.675438   -0.100089    0.053376
| 41> C         2.835832    0.974174    0.085587
| 42> C         1.436659    0.798383    0.032066
| 43> C         0.910571   -0.511721   -0.054885
| 44> H         1.400444   -2.606162   -0.154581
| 45> H         3.828286   -2.249845   -0.059721
| 46> H         4.746639    0.045826    0.094359
| 47> H         3.232881    1.979508    0.152273
| 48> C        -0.491563   -0.689787   -0.107093
| 49> C        -1.343802    0.375513   -0.070071
| 50> C         0.535068    1.888233    0.062586
| 51> C        -0.807971    1.684791    0.010757
| 52> H         0.933582    2.893005    0.130116
| 53> H        -1.479930    2.535038    0.037268
| 54> N        -3.413078   -1.383097    0.305689
| 55> H        -0.888890   -1.694738   -0.176507
| 56> P        -3.152187    0.192661   -0.237293
| 57> H        -3.461443    0.976484    0.906577
| 58> H        -4.170905   -1.890199   -0.114996
| 59> H        -3.218666   -1.661241    1.253882
| 60> *
| 61>
| 62> $new_job
| 63> ! ri-mp2 aug-cc-pvqz aug-cc-pvqz/c tightscf
| 64> %pal nprocs 16 end
| 65> %maxcore 3800
| 66> %base "QZ_P-N_10_AB"
| 67>
| 68> *xyz 0 1
| 69> C         1.805275   -1.604115   -0.086540
| 70> C         3.153218   -1.404700   -0.033968
| 71> C         3.675438   -0.100089    0.053376
| 72> C         2.835832    0.974174    0.085587
| 73> C         1.436659    0.798383    0.032066
| 74> C         0.910571   -0.511721   -0.054885
| 75> H         1.400444   -2.606162   -0.154581
| 76> H         3.828286   -2.249845   -0.059721
| 77> H         4.746639    0.045826    0.094359
| 78> H         3.232881    1.979508    0.152273
| 79> C        -0.491563   -0.689787   -0.107093
| 80> C        -1.343802    0.375513   -0.070071
| 81> C         0.535068    1.888233    0.062586
| 82> C        -0.807971    1.684791    0.010757
| 83> H         0.933582    2.893005    0.130116
| 84> H        -1.479930    2.535038    0.037268
| 85> N        -3.413078   -1.383097    0.305689
| 86> H        -0.888890   -1.694738   -0.176507
| 87> P        -3.152187    0.192661   -0.237293
| 88> H        -3.461443    0.976484    0.906577
| 89> H        -4.170905   -1.890199   -0.114996
| 90> H        -3.218666   -1.661241    1.253882
| 91> *
| 92>
| 93>
| 94>
| 95>
| 96>                          ****END OF INPUT****
 Total Charge           Charge          ....    0
 Multiplicity           Mult            ....    1
 Number of Electrons    NEL             ....   92
MP2 TOTAL ENERGY:     -781.405317472 Eh
FINAL SINGLE POINT ENERGY      -781.405317471874
MP2 TOTAL ENERGY:     -781.836111844 Eh
FINAL SINGLE POINT ENERGY      -781.836111844253

CARTESIAN COORDINATES (ANGSTROEM)
---------------------------------
  C      1.805275   -1.604115   -0.086540
  C      3.153218   -1.404700   -0.033968
  C      3.675438   -0.100089    0.053376
  C      2.835832    0.974174    0.085587
  C      1.436659    0.798383    0.032066
  C      0.910571   -0.511721   -0.054885
  H      1.400444   -2.606162   -0.154581
  H      3.828286   -2.249845   -0.059721
  H      4.746639    0.045826    0.094359
  H      3.232881    1.979508    0.152273
  C     -0.491563   -0.689787   -0.107093
  C     -1.343802    0.375513   -0.070071
  C      0.535068    1.888233    0.062586
  C     -0.807971    1.684791    0.010757
  H      0.933582    2.893005    0.130116
  H     -1.479930    2.535038    0.037268
  N     -3.413078   -1.383097    0.305689
  H     -0.888890   -1.694738   -0.176507
  P     -3.152187    0.192661   -0.237293
  H     -3.461443    0.976484    0.906577
  H     -4.170905   -1.890199   -0.114996
  H     -3.218666   -1.661241    1.253882

 Multiplicity           Mult            ....    1
 Number of Electrons    NEL             ....   92
 Basis Dimension        Dim             .... 1424

ORBITAL ENERGIES
----------------

  NO   OCC          E(Eh)            E(eV)
   0   2.0000     -79.956121     -2175.7167
   1   2.0000     -15.553182      -423.2236
   2   2.0000     -11.239496      -305.8422
   3   2.0000     -11.238327      -305.8104
   4   2.0000     -11.234982      -305.7194
   5   2.0000     -11.234003      -305.6927
   6   2.0000     -11.233343      -305.6748
   7   2.0000     -11.233165      -305.6700
   8   2.0000     -11.232876      -305.6621
   9   2.0000     -11.231777      -305.6322
  10   2.0000     -11.231083      -305.6133
  11   2.0000     -11.230156      -305.5881
  12   2.0000      -7.494529      -203.9365
  13   2.0000      -5.389015      -146.6425
  14   2.0000      -5.388444      -146.6270
  15   2.0000      -5.387863      -146.6112
  16   2.0000      -1.183226       -32.1972
  17   2.0000      -1.168027       -31.7836
  18   2.0000      -1.114002       -30.3135
  19   2.0000      -1.052555       -28.6415
  20   2.0000      -1.013949       -27.5910
  21   2.0000      -0.985095       -26.8058
  22   2.0000      -0.871618       -23.7179
  23   2.0000      -0.845041       -22.9947
  24   2.0000      -0.815332       -22.1863
  25   2.0000      -0.790451       -21.5093
  26   2.0000      -0.703867       -19.1532
  27   2.0000      -0.695210       -18.9176
  28   2.0000      -0.682012       -18.5585
  29   2.0000      -0.663941       -18.0668
  30   2.0000      -0.623294       -16.9607
  31   2.0000      -0.608831       -16.5671
  32   2.0000      -0.596541       -16.2327
  33   2.0000      -0.582484       -15.8502
  34   2.0000      -0.569188       -15.4884
  35   2.0000      -0.551250       -15.0003
  36   2.0000      -0.538523       -14.6540
  37   2.0000      -0.517672       -14.0866
  38   2.0000      -0.487524       -13.2662
  39   2.0000      -0.475369       -12.9354
  40   2.0000      -0.457660       -12.4536
  41   2.0000      -0.409995       -11.1565
  42   2.0000      -0.391155       -10.6439
  43   2.0000      -0.367398        -9.9974
  44   2.0000      -0.310362        -8.4454
  45   2.0000      -0.287548        -7.8246
  46   0.0000       0.022512         0.6126
  47   0.0000       0.025565         0.6957
  48   0.0000       0.027846         0.7577
  49   0.0000       0.035953         0.9783
  50   0.0000       0.039543         1.0760

MULLIKEN ATOMIC CHARGES
-----------------------
   0 C :   -0.617312
   1 C :   -0.412542
   2 C :   -0.439592
   3 C :   -0.500145
   4 C :    0.759016
   5 C :    0.962859
   6 H :    0.178370
   7 H :    0.265413
   8 H :    0.258242
   9 H :    0.193518
  10 C :   -0.322819
  11 C :   -0.227337
  12 C :   -0.456705
  13 C :   -0.355751
  14 H :    0.132322
  15 H :    0.241416
  16 N :   -0.953603
  17 H :    0.337671
  18 P :    0.596720
  19 H :   -0.130771
  20 H :    0.223076
  21 H :    0.267953
Sum of atomic charges:   -0.0000000

LOEWDIN ATOMIC CHARGES
----------------------
   0 C :    0.356116
   1 C :    0.349455
   2 C :    0.349196
   3 C :    0.352784
   4 C :   -0.115797
   5 C :   -0.110606
   6 H :   -0.317995
   7 H :   -0.322675
   8 H :   -0.322790
   9 H :   -0.318797
  10 C :    0.268781
  11 C :   -0.262637
  12 C :    0.358970
  13 C :    0.253922
  14 H :   -0.316706
  15 H :   -0.339918
  16 N :    1.004185
  17 H :   -0.359199
  18 P :    1.080723
  19 H :   -0.412792
  20 H :   -0.605285
  21 H :   -0.568936

  Mayer bond orders larger than 0.100000
B(  0-C ,  1-C ) :   1.3402 B(  0-C ,  3-C ) :   0.1811 B(  0-C ,  4-C ) :  -0.2470
B(  0-C ,  5-C ) :   0.7054 B(  0-C ,  6-H ) :   1.1638 B(  0-C ,  7-H ) :  -0.1676
B(  0-C , 10-C ) :  -0.3547 B(  1-C ,  2-C ) :   1.1265 B(  1-C ,  5-C ) :  -0.3817
B(  1-C ,  7-H ) :   1.1301 B(  2-C ,  3-C ) :   1.3322 B(  2-C ,  4-C ) :  -0.2942
B(  2-C ,  8-H ) :   1.1409 B(  3-C ,  4-C ) :   0.6408 B(  3-C ,  5-C ) :  -0.3411
B(  3-C ,  8-H ) :  -0.1952 B(  3-C ,  9-H ) :   1.1078 B(  4-C ,  5-C ) :   1.0571
B(  4-C ,  9-H ) :  -0.1780 B(  4-C , 10-C ) :  -0.2324 B(  4-C , 12-C ) :   0.7512
B(  4-C , 13-C ) :  -0.1860 B(  4-C , 14-H ) :  -0.1761 B(  5-C ,  6-H ) :  -0.1831
B(  5-C , 10-C ) :   0.5280 B(  5-C , 11-C ) :  -0.5705 B(  5-C , 12-C ) :  -0.2972
B(  5-C , 17-H ) :  -0.2062 B( 10-C , 11-C ) :   0.7994 B( 10-C , 12-C ) :   0.1568
B( 10-C , 13-C ) :   0.2354 B( 10-C , 17-H ) :   1.0111 B( 10-C , 18-P ) :  -0.2226
B( 11-C , 12-C ) :  -0.1709 B( 11-C , 13-C ) :   0.7493 B( 11-C , 15-H ) :  -0.1382
B( 11-C , 16-N ) :  -0.2008 B( 11-C , 17-H ) :  -0.1626 B( 11-C , 18-P ) :   0.9123
B( 12-C , 13-C ) :   1.2981 B( 12-C , 14-H ) :   1.2046 B( 12-C , 15-H ) :  -0.1661
B( 13-C , 14-H ) :  -0.2086 B( 13-C , 15-H ) :   1.0702 B( 13-C , 18-P ) :  -0.2200
B( 16-N , 17-H ) :  -0.1231 B( 16-N , 18-P ) :   0.7707 B( 16-N , 20-H ) :   1.0378
B( 16-N , 21-H ) :   0.9439 B( 18-P , 19-H ) :   0.9092

MP2 TOTAL ENERGY:     -781.973163026 Eh
FINAL SINGLE POINT ENERGY      -781.973163025912

DIPOLE MOMENT
-------------
                                X             Y             Z
Electronic contribution:     -3.88499       1.49390      -1.75901
Nuclear contribution   :      3.85079      -1.83851       2.26515
                        -----------------------------------------
Total Dipole Moment    :     -0.03420      -0.34462       0.50613
                        -----------------------------------------
Magnitude (a.u.)       :      0.61327
Magnitude (Debye)      :      1.55881

Rotational constants in cm-1:     0.071359     0.015920     0.013138
Rotational constants in MHz :  2139.288858   477.255475   393.875791

                             ****ORCA TERMINATED NORMALLY****
TOTAL RUN TIME: 0 days 1 hours 17 minutes 33 seconds 174 msec
