                         Program Version 5.0.4 -  RELEASE  -
|  1> ! ri-mp2 aug-cc-pvdz aug-cc-pvdz/c tightscf
|  2> %pal nprocs 16 end
|  3> %maxcore 3800
|  4> %base "DZ_B-P_43_A"
|  5> %scf
|  6> STABPerform true
|  7> STABRestartUHFifUnstable true
|  8> end
|  9>
| 10> *xyz 0 2
| 11> P        -1.144982   -0.237922   -0.028451
| 12> C         0.497395    0.608547    0.027225
| 13> N         1.563346   -0.372836   -0.087161
| 14> H         0.544412    1.236276    0.927920
| 15> H         0.553269    1.287294   -0.827893
| 16> H         1.569149   -1.008694    0.698990
| 17> H         2.471918    0.066629   -0.141848
| 18> H        -1.891816    0.945888    0.216382
| 19> *
| 20>
| 21> $new_job
| 22> ! ri-mp2 aug-cc-pvtz aug-cc-pvtz/c tightscf
| 23> %pal nprocs 16 end
| 24> %maxcore 3800
| 25> %base "TZ_B-P_43_A"
| 26>
| 27> *xyz 0 2
| 28> P        -1.144982   -0.237922   -0.028451
| 29> C         0.497395    0.608547    0.027225
| 30> N         1.563346   -0.372836   -0.087161
| 31> H         0.544412    1.236276    0.927920
| 32> H         0.553269    1.287294   -0.827893
| 33> H         1.569149   -1.008694    0.698990
| 34> H         2.471918    0.066629   -0.141848
| 35> H        -1.891816    0.945888    0.216382
| 36> *
| 37>
| 38> $new_job
| 39> ! ri-mp2 aug-cc-pvqz aug-cc-pvqz/c tightscf
| 40> %pal nprocs 16 end
| 41> %maxcore 3800
| 42> %base "QZ_B-P_43_A"
| 43>
| 44> *xyz 0 2
| 45> P        -1.144982   -0.237922   -0.028451
| 46> C         0.497395    0.608547    0.027225
| 47> N         1.563346   -0.372836   -0.087161
| 48> H         0.544412    1.236276    0.927920
| 49> H         0.553269    1.287294   -0.827893
| 50> H         1.569149   -1.008694    0.698990
| 51> H         2.471918    0.066629   -0.141848
| 52> H        -1.891816    0.945888    0.216382
| 53> *
| 54>
| 55>
| 56>
| 57>
| 58>                          ****END OF INPUT****
 Total Charge           Charge          ....    0
 Multiplicity           Mult            ....    2
 Number of Electrons    NEL             ....   33
MP2 TOTAL ENERGY:     -436.384710984 Eh
FINAL SINGLE POINT ENERGY      -436.384710983908
MP2 TOTAL ENERGY:     -436.512605625 Eh
FINAL SINGLE POINT ENERGY      -436.512605625134

CARTESIAN COORDINATES (ANGSTROEM)
---------------------------------
  P     -1.144982   -0.237922   -0.028451
  C      0.497395    0.608547    0.027225
  N      1.563346   -0.372836   -0.087161
  H      0.544412    1.236276    0.927920
  H      0.553269    1.287294   -0.827893
  H      1.569149   -1.008694    0.698990
  H      2.471918    0.066629   -0.141848
  H     -1.891816    0.945888    0.216382

 Multiplicity           Mult            ....    2
 Number of Electrons    NEL             ....   33
 Basis Dimension        Dim             ....  474

ORBITAL ENERGIES
----------------
                 SPIN UP ORBITALS
  NO   OCC          E(Eh)            E(eV)
   0   1.0000     -79.943385     -2175.3701
   1   1.0000     -15.548831      -423.1052
   2   1.0000     -11.261643      -306.4449
   3   1.0000      -7.486758      -203.7250
   4   1.0000      -5.391530      -146.7110
   5   1.0000      -5.377511      -146.3295
   6   1.0000      -5.375800      -146.2830
   7   1.0000      -1.187011       -32.3002
   8   1.0000      -0.941258       -25.6129
   9   1.0000      -0.781897       -21.2765
  10   1.0000      -0.670622       -18.2486
  11   1.0000      -0.632181       -17.2025
  12   1.0000      -0.570048       -15.5118
  13   1.0000      -0.489574       -13.3220
  14   1.0000      -0.419969       -11.4279
  15   1.0000      -0.387456       -10.5432
  16   1.0000      -0.348798        -9.4913
  17   0.0000       0.023510         0.6397
  18   0.0000       0.035767         0.9733
  19   0.0000       0.038254         1.0409
  20   0.0000       0.042870         1.1666
  21   0.0000       0.056012         1.5242

                 SPIN DOWN ORBITALS
  NO   OCC          E(Eh)            E(eV)
   0   1.0000     -79.936424     -2175.1807
   1   1.0000     -15.548921      -423.1076
   2   1.0000     -11.262787      -306.4760
   3   1.0000      -7.478225      -203.4928
   4   1.0000      -5.372886      -146.2037
   5   1.0000      -5.372463      -146.1921
   6   1.0000      -5.358520      -145.8128
   7   1.0000      -1.186584       -32.2886
   8   1.0000      -0.925244       -25.1772
   9   1.0000      -0.733762       -19.9667
  10   1.0000      -0.665062       -18.0972
  11   1.0000      -0.627222       -17.0676
  12   1.0000      -0.560925       -15.2635
  13   1.0000      -0.484024       -13.1710
  14   1.0000      -0.407058       -11.0766
  15   1.0000      -0.376181       -10.2364
  16   0.0000       0.023401         0.6368
  17   0.0000       0.031914         0.8684
  18   0.0000       0.036389         0.9902
  19   0.0000       0.043091         1.1726
  20   0.0000       0.048771         1.3271

MULLIKEN ATOMIC CHARGES AND SPIN POPULATIONS
--------------------------------------------
   0 P :    0.261557    1.122183
   1 C :   -0.477118   -0.104364
   2 N :   -0.645813    0.003090
   3 H :    0.225536    0.014270
   4 H :    0.242052    0.020182
   5 H :    0.268149    0.000451
   6 H :    0.244241   -0.001367
   7 H :   -0.118603   -0.054447
Sum of atomic charges         :    0.0000000

LOEWDIN ATOMIC CHARGES AND SPIN POPULATIONS
-------------------------------------------
   0 P :    1.278833    0.597900
   1 C :    0.003978    0.169601
   2 N :    1.159726    0.009476
   3 H :   -0.375060    0.020478
   4 H :   -0.398017    0.025945
   5 H :   -0.549653    0.005167
   6 H :   -0.520627   -0.000029
   7 H :   -0.599180    0.171462

  Mayer bond orders larger than 0.100000
B(  0-P ,  1-C ) :   0.9105 B(  0-P ,  7-H ) :   0.9362 B(  1-C ,  2-N ) :   0.9543
B(  1-C ,  3-H ) :   0.9275 B(  1-C ,  4-H ) :   0.9153 B(  2-N ,  5-H ) :   0.9060
B(  2-N ,  6-H ) :   0.9267

MP2 TOTAL ENERGY:     -436.552634321 Eh
FINAL SINGLE POINT ENERGY      -436.552634321267

DIPOLE MOMENT
-------------
                                X             Y             Z
Electronic contribution:     -3.87827      -2.12800      -0.46749
Nuclear contribution   :      4.34266       2.74933       0.89933
                        -----------------------------------------
Total Dipole Moment    :      0.46439       0.62133       0.43184
                        -----------------------------------------
Magnitude (a.u.)       :      0.88781
Magnitude (Debye)      :      2.25663

Rotational constants in cm-1:     1.096833     0.181961     0.162790
Rotational constants in MHz : 32882.231283  5455.051764  4880.321376

                             ****ORCA TERMINATED NORMALLY****
TOTAL RUN TIME: 0 days 0 hours 25 minutes 43 seconds 649 msec
