                         Program Version 5.0.4 -  RELEASE  -
|  1> ! ri-mp2 aug-cc-pvdz aug-cc-pvdz/c tightscf
|  2> %pal nprocs 16 end
|  3> %maxcore 3800
|  4> %base "DZ_B-P_38_AB"
|  5> %scf
|  6> STABPerform true
|  7> STABRestartUHFifUnstable true
|  8> end
|  9>
| 10> *xyz 0 1
| 11> B        -2.292569    0.704263    0.094575
| 12> C         0.619347   -0.011222    0.541340
| 13> C         1.500396    0.925001   -0.238464
| 14> C         1.908304   -0.497436   -0.062580
| 15> H         1.847400   -1.151638   -0.921094
| 16> H         2.720090   -0.719476    0.615336
| 17> H         2.026848    1.686659    0.318268
| 18> H         1.162542    1.239283   -1.216093
| 19> P        -0.954502   -0.513030   -0.199007
| 20> H         0.622720    0.125250    1.614041
| 21> H        -3.421221    0.331124    0.082620
| 22> H        -2.039406    1.865921    0.115928
| 23> H        -1.306884   -1.701046    0.461440
| 24> *
| 25>
| 26> $new_job
| 27> ! ri-mp2 aug-cc-pvtz aug-cc-pvtz/c tightscf
| 28> %pal nprocs 16 end
| 29> %maxcore 3800
| 30> %base "TZ_B-P_38_AB"
| 31>
| 32> *xyz 0 1
| 33> B        -2.292569    0.704263    0.094575
| 34> C         0.619347   -0.011222    0.541340
| 35> C         1.500396    0.925001   -0.238464
| 36> C         1.908304   -0.497436   -0.062580
| 37> H         1.847400   -1.151638   -0.921094
| 38> H         2.720090   -0.719476    0.615336
| 39> H         2.026848    1.686659    0.318268
| 40> H         1.162542    1.239283   -1.216093
| 41> P        -0.954502   -0.513030   -0.199007
| 42> H         0.622720    0.125250    1.614041
| 43> H        -3.421221    0.331124    0.082620
| 44> H        -2.039406    1.865921    0.115928
| 45> H        -1.306884   -1.701046    0.461440
| 46> *
| 47>
| 48> $new_job
| 49> ! ri-mp2 aug-cc-pvqz aug-cc-pvqz/c tightscf
| 50> %pal nprocs 16 end
| 51> %maxcore 3800
| 52> %base "QZ_B-P_38_AB"
| 53>
| 54> *xyz 0 1
| 55> B        -2.292569    0.704263    0.094575
| 56> C         0.619347   -0.011222    0.541340
| 57> C         1.500396    0.925001   -0.238464
| 58> C         1.908304   -0.497436   -0.062580
| 59> H         1.847400   -1.151638   -0.921094
| 60> H         2.720090   -0.719476    0.615336
| 61> H         2.026848    1.686659    0.318268
| 62> H         1.162542    1.239283   -1.216093
| 63> P        -0.954502   -0.513030   -0.199007
| 64> H         0.622720    0.125250    1.614041
| 65> H        -3.421221    0.331124    0.082620
| 66> H        -2.039406    1.865921    0.115928
| 67> H        -1.306884   -1.701046    0.461440
| 68> *
| 69>
| 70>
| 71>
| 72>
| 73>                          ****END OF INPUT****
 Total Charge           Charge          ....    0
 Multiplicity           Mult            ....    1
 Number of Electrons    NEL             ....   46
MP2 TOTAL ENERGY:     -484.287870267 Eh
FINAL SINGLE POINT ENERGY      -484.287870266898
MP2 TOTAL ENERGY:     -484.466762695 Eh
FINAL SINGLE POINT ENERGY      -484.466762695057

CARTESIAN COORDINATES (ANGSTROEM)
---------------------------------
  B     -2.292569    0.704263    0.094575
  C      0.619347   -0.011222    0.541340
  C      1.500396    0.925001   -0.238464
  C      1.908304   -0.497436   -0.062580
  H      1.847400   -1.151638   -0.921094
  H      2.720090   -0.719476    0.615336
  H      2.026848    1.686659    0.318268
  H      1.162542    1.239283   -1.216093
  P     -0.954502   -0.513030   -0.199007
  H      0.622720    0.125250    1.614041
  H     -3.421221    0.331124    0.082620
  H     -2.039406    1.865921    0.115928
  H     -1.306884   -1.701046    0.461440

 Multiplicity           Mult            ....    1
 Number of Electrons    NEL             ....   46
 Basis Dimension        Dim             ....  772

ORBITAL ENERGIES
----------------

  NO   OCC          E(Eh)            E(eV)
   0   2.0000     -79.921470     -2174.7738
   1   2.0000     -11.242713      -305.9298
   2   2.0000     -11.235308      -305.7283
   3   2.0000     -11.234255      -305.6996
   4   2.0000      -7.601622      -206.8506
   5   2.0000      -7.468052      -203.2160
   6   2.0000      -5.362707      -145.9267
   7   2.0000      -5.362614      -145.9241
   8   2.0000      -5.362178      -145.9123
   9   2.0000      -1.153726       -31.3945
  10   2.0000      -0.893889       -24.3239
  11   2.0000      -0.832075       -22.6419
  12   2.0000      -0.778493       -21.1839
  13   2.0000      -0.685608       -18.6563
  14   2.0000      -0.657012       -17.8782
  15   2.0000      -0.615884       -16.7591
  16   2.0000      -0.533069       -14.5055
  17   2.0000      -0.522433       -14.2161
  18   2.0000      -0.484110       -13.1733
  19   2.0000      -0.483114       -13.1462
  20   2.0000      -0.427795       -11.6409
  21   2.0000      -0.421993       -11.4830
  22   2.0000      -0.334580        -9.1044
  23   0.0000       0.022718         0.6182
  24   0.0000       0.030379         0.8266
  25   0.0000       0.031870         0.8672
  26   0.0000       0.032577         0.8865
  27   0.0000       0.043871         1.1938

MULLIKEN ATOMIC CHARGES
-----------------------
   0 B :    0.206516
   1 C :   -0.542202
   2 C :   -0.644674
   3 C :   -0.714772
   4 H :    0.321681
   5 H :    0.378697
   6 H :    0.368269
   7 H :    0.358733
   8 P :    0.351083
   9 H :    0.392474
  10 H :   -0.245336
  11 H :   -0.146525
  12 H :   -0.083943
Sum of atomic charges:   -0.0000000

LOEWDIN ATOMIC CHARGES
----------------------
   0 B :    0.118348
   1 C :   -0.056398
   2 C :    0.511630
   3 C :    0.521227
   4 H :   -0.292367
   5 H :   -0.273652
   6 H :   -0.270368
   7 H :   -0.290695
   8 P :    1.316356
   9 H :   -0.331038
  10 H :   -0.272949
  11 H :   -0.254708
  12 H :   -0.425385

  Mayer bond orders larger than 0.100000
B(  0-B ,  8-P ) :   1.3472 B(  0-B , 10-H ) :   0.9507 B(  0-B , 11-H ) :   0.9388
B(  1-C ,  2-C ) :   0.8981 B(  1-C ,  3-C ) :   0.9872 B(  1-C ,  8-P ) :   0.5889
B(  1-C ,  9-H ) :   0.8388 B(  2-C ,  3-C ) :   1.0870 B(  2-C ,  6-H ) :   0.8526
B(  2-C ,  7-H ) :   0.8435 B(  3-C ,  4-H ) :   0.8801 B(  3-C ,  5-H ) :   0.8467
B(  8-P , 12-H ) :   0.9992

MP2 TOTAL ENERGY:     -484.522209165 Eh
FINAL SINGLE POINT ENERGY      -484.522209165289

DIPOLE MOMENT
-------------
                                X             Y             Z
Electronic contribution:     -3.92274      -1.58509      -0.77291
Nuclear contribution   :      4.39445       1.60667       1.19080
                        -----------------------------------------
Total Dipole Moment    :      0.47171       0.02157       0.41789
                        -----------------------------------------
Magnitude (a.u.)       :      0.63056
Magnitude (Debye)      :      1.60276

Rotational constants in cm-1:     0.331843     0.081858     0.071950
Rotational constants in MHz :  9948.394424  2454.045779  2157.012073

                             ****ORCA TERMINATED NORMALLY****
TOTAL RUN TIME: 0 days 0 hours 43 minutes 54 seconds 292 msec
