                         Program Version 5.0.4 -  RELEASE  -
|  1> ! ri-mp2 aug-cc-pvdz aug-cc-pvdz/c tightscf
|  2> %pal nprocs 16 end
|  3> %maxcore 3800
|  4> %base "DZ_S-Cl_14_A"
|  5> %scf
|  6> STABPerform true
|  7> STABRestartUHFifUnstable true
|  8> end
|  9>
| 10> *xyz 0 2
| 11> S         1.628387    0.000000    0.123993
| 12> P        -0.244221    0.000000   -0.408687
| 13> C        -1.182040    1.442509    0.190969
| 14> C        -1.182040   -1.442509    0.190969
| 15> H        -0.670463    2.349374   -0.123104
| 16> H        -1.245023    1.429099    1.279543
| 17> H        -2.187716    1.433500   -0.229044
| 18> H        -0.670463   -2.349374   -0.123104
| 19> H        -2.187716   -1.433500   -0.229044
| 20> H        -1.245023   -1.429099    1.279543
| 21> *
| 22>
| 23> $new_job
| 24> ! ri-mp2 aug-cc-pvtz aug-cc-pvtz/c tightscf
| 25> %pal nprocs 16 end
| 26> %maxcore 3800
| 27> %base "TZ_S-Cl_14_A"
| 28>
| 29> *xyz 0 2
| 30> S         1.628387    0.000000    0.123993
| 31> P        -0.244221    0.000000   -0.408687
| 32> C        -1.182040    1.442509    0.190969
| 33> C        -1.182040   -1.442509    0.190969
| 34> H        -0.670463    2.349374   -0.123104
| 35> H        -1.245023    1.429099    1.279543
| 36> H        -2.187716    1.433500   -0.229044
| 37> H        -0.670463   -2.349374   -0.123104
| 38> H        -2.187716   -1.433500   -0.229044
| 39> H        -1.245023   -1.429099    1.279543
| 40> *
| 41>
| 42> $new_job
| 43> ! ri-mp2 aug-cc-pvqz aug-cc-pvqz/c tightscf
| 44> %pal nprocs 16 end
| 45> %maxcore 3800
| 46> %base "QZ_S-Cl_14_A"
| 47>
| 48> *xyz 0 2
| 49> S         1.628387    0.000000    0.123993
| 50> P        -0.244221    0.000000   -0.408687
| 51> C        -1.182040    1.442509    0.190969
| 52> C        -1.182040   -1.442509    0.190969
| 53> H        -0.670463    2.349374   -0.123104
| 54> H        -1.245023    1.429099    1.279543
| 55> H        -2.187716    1.433500   -0.229044
| 56> H        -0.670463   -2.349374   -0.123104
| 57> H        -2.187716   -1.433500   -0.229044
| 58> H        -1.245023   -1.429099    1.279543
| 59> *
| 60>
| 61>
| 62>
| 63>
| 64>                          ****END OF INPUT****
 Total Charge           Charge          ....    0
 Multiplicity           Mult            ....    2
 Number of Electrons    NEL             ....   49
MP2 TOTAL ENERGY:     -818.071679884 Eh
FINAL SINGLE POINT ENERGY      -818.071679883893
MP2 TOTAL ENERGY:     -818.249339358 Eh
FINAL SINGLE POINT ENERGY      -818.249339358146

CARTESIAN COORDINATES (ANGSTROEM)
---------------------------------
  S      1.628387    0.000000    0.123993
  P     -0.244221    0.000000   -0.408687
  C     -1.182040    1.442509    0.190969
  C     -1.182040   -1.442509    0.190969
  H     -0.670463    2.349374   -0.123104
  H     -1.245023    1.429099    1.279543
  H     -2.187716    1.433500   -0.229044
  H     -0.670463   -2.349374   -0.123104
  H     -2.187716   -1.433500   -0.229044
  H     -1.245023   -1.429099    1.279543

 Multiplicity           Mult            ....    2
 Number of Electrons    NEL             ....   49
 Basis Dimension        Dim             ....  604

ORBITAL ENERGIES
----------------
                 SPIN UP ORBITALS
  NO   OCC          E(Eh)            E(eV)
   0   1.0000     -91.923212     -2501.3578
   1   1.0000     -79.997007     -2176.8292
   2   1.0000     -11.245926      -306.0172
   3   1.0000     -11.245915      -306.0169
   4   1.0000      -8.927021      -242.9166
   5   1.0000      -7.535526      -205.0521
   6   1.0000      -6.615494      -180.0167
   7   1.0000      -6.606115      -179.7615
   8   1.0000      -6.605067      -179.7330
   9   1.0000      -5.436938      -147.9466
  10   1.0000      -5.428201      -147.7089
  11   1.0000      -5.427823      -147.6986
  12   1.0000      -1.055476       -28.7210
  13   1.0000      -0.968602       -26.3570
  14   1.0000      -0.941159       -25.6102
  15   1.0000      -0.728096       -19.8125
  16   1.0000      -0.615527       -16.7493
  17   1.0000      -0.607778       -16.5385
  18   1.0000      -0.589285       -16.0353
  19   1.0000      -0.581657       -15.8277
  20   1.0000      -0.511201       -13.9105
  21   1.0000      -0.489112       -13.3094
  22   1.0000      -0.430464       -11.7135
  23   1.0000      -0.355973        -9.6865
  24   1.0000      -0.332774        -9.0553
  25   0.0000       0.022253         0.6055
  26   0.0000       0.031859         0.8669
  27   0.0000       0.036554         0.9947
  28   0.0000       0.042925         1.1681
  29   0.0000       0.053303         1.4505

                 SPIN DOWN ORBITALS
  NO   OCC          E(Eh)            E(eV)
   0   1.0000     -91.918352     -2501.2255
   1   1.0000     -79.992605     -2176.7094
   2   1.0000     -11.244667      -305.9829
   3   1.0000     -11.244654      -305.9826
   4   1.0000      -8.921718      -242.7723
   5   1.0000      -7.529461      -204.8871
   6   1.0000      -6.604076      -179.7061
   7   1.0000      -6.601988      -179.6492
   8   1.0000      -6.593470      -179.4174
   9   1.0000      -5.426134      -147.6526
  10   1.0000      -5.425866      -147.6453
  11   1.0000      -5.418346      -147.4407
  12   1.0000      -1.039830       -28.2952
  13   1.0000      -0.964300       -26.2399
  14   1.0000      -0.915648       -24.9161
  15   1.0000      -0.684723       -18.6323
  16   1.0000      -0.604694       -16.4546
  17   1.0000      -0.604084       -16.4380
  18   1.0000      -0.586895       -15.9702
  19   1.0000      -0.577227       -15.7071
  20   1.0000      -0.503916       -13.7123
  21   1.0000      -0.466774       -12.7016
  22   1.0000      -0.346828        -9.4377
  23   1.0000      -0.346063        -9.4168
  24   0.0000       0.010915         0.2970
  25   0.0000       0.030855         0.8396
  26   0.0000       0.032031         0.8716
  27   0.0000       0.038393         1.0447
  28   0.0000       0.043654         1.1879

MULLIKEN ATOMIC CHARGES AND SPIN POPULATIONS
--------------------------------------------
   0 S :   -0.522311    0.505101
   1 P :    0.809722    0.433919
   2 C :   -1.068866    0.017157
   3 C :   -1.068865    0.017157
   4 H :    0.371860   -0.007810
   5 H :    0.277550    0.027278
   6 H :    0.275750   -0.006135
   7 H :    0.371861   -0.007809
   8 H :    0.275750   -0.006135
   9 H :    0.277550    0.027278
Sum of atomic charges         :   -0.0000000

LOEWDIN ATOMIC CHARGES AND SPIN POPULATIONS
-------------------------------------------
   0 S :    0.655840    0.397275
   1 P :    0.062375    0.384575
   2 C :    0.733727    0.075555
   3 C :    0.733727    0.075555
   4 H :   -0.379120    0.006172
   5 H :   -0.354008    0.015052
   6 H :   -0.359707    0.012297
   7 H :   -0.379120    0.006172
   8 H :   -0.359707    0.012297
   9 H :   -0.354008    0.015052

  Mayer bond orders larger than 0.100000
B(  0-S ,  1-P ) :   1.6262 B(  1-P ,  2-C ) :   0.8939 B(  1-P ,  3-C ) :   0.8939
B(  2-C ,  4-H ) :   0.8819 B(  2-C ,  5-H ) :   0.9045 B(  2-C ,  6-H ) :   0.9148
B(  3-C ,  7-H ) :   0.8819 B(  3-C ,  8-H ) :   0.9148 B(  3-C ,  9-H ) :   0.9045

MP2 TOTAL ENERGY:     -818.304835172 Eh
FINAL SINGLE POINT ENERGY      -818.304835171855

DIPOLE MOMENT
-------------
                                X             Y             Z
Electronic contribution:      6.37425       0.00000      -2.08298
Nuclear contribution   :     -7.93112       0.00000       2.21424
                        -----------------------------------------
Total Dipole Moment    :     -1.55686       0.00000       0.13126
                        -----------------------------------------
Magnitude (a.u.)       :      1.56239
Magnitude (Debye)      :      3.97127

Rotational constants in cm-1:     0.212697     0.117601     0.083110
Rotational constants in MHz :  6376.495815  3525.587484  2491.566768

                             ****ORCA TERMINATED NORMALLY****
TOTAL RUN TIME: 0 days 0 hours 53 minutes 17 seconds 475 msec
