                         Program Version 5.0.4 -  RELEASE  -
|  1> ! ri-mp2 aug-cc-pvdz aug-cc-pvdz/c tightscf
|  2> %pal nprocs 16 end
|  3> %maxcore 3800
|  4> %base "DZ_S-Cl_70_AB"
|  5>
|  6> *xyz 0 1
|  7> Cl         1.427761   -0.501252    0.000001
|  8> S        -0.001730    0.947605   -0.000003
|  9> N        -1.465598    0.218681    0.000007
| 10> N        -1.621637   -0.999969    0.000000
| 11> H        -2.633610   -1.171389   -0.000004
| 12> *
| 13>
| 14> $new_job
| 15> ! ri-mp2 aug-cc-pvtz aug-cc-pvtz/c tightscf
| 16> %pal nprocs 16 end
| 17> %maxcore 3800
| 18> %base "TZ_S-Cl_70_AB"
| 19>
| 20> *xyz 0 1
| 21> Cl         1.427761   -0.501252    0.000001
| 22> S        -0.001730    0.947605   -0.000003
| 23> N        -1.465598    0.218681    0.000007
| 24> N        -1.621637   -0.999969    0.000000
| 25> H        -2.633610   -1.171389   -0.000004
| 26> *
| 27>
| 28> $new_job
| 29> ! ri-mp2 aug-cc-pvqz aug-cc-pvqz/c tightscf
| 30> %pal nprocs 16 end
| 31> %maxcore 3800
| 32> %base "QZ_S-Cl_70_AB"
| 33>
| 34> *xyz 0 1
| 35> Cl         1.427761   -0.501252    0.000001
| 36> S        -0.001730    0.947605   -0.000003
| 37> N        -1.465598    0.218681    0.000007
| 38> N        -1.621637   -0.999969    0.000000
| 39> H        -2.633610   -1.171389   -0.000004
| 40> *
| 41>
| 42>
| 43>
| 44>
| 45>                          ****END OF INPUT****
 Total Charge           Charge          ....    0
 Multiplicity           Mult            ....    1
 Number of Electrons    NEL             ....   48
MP2 TOTAL ENERGY:     -967.082267642 Eh
FINAL SINGLE POINT ENERGY      -967.082267642449
MP2 TOTAL ENERGY:     -967.290622599 Eh
FINAL SINGLE POINT ENERGY      -967.290622598644

CARTESIAN COORDINATES (ANGSTROEM)
---------------------------------
  Cl     1.427761   -0.501252    0.000001
  S     -0.001730    0.947605   -0.000003
  N     -1.465598    0.218681    0.000007
  N     -1.621637   -0.999969    0.000000
  H     -2.633610   -1.171389   -0.000004

 Multiplicity           Mult            ....    1
 Number of Electrons    NEL             ....   48
 Basis Dimension        Dim             ....  374

ORBITAL ENERGIES
----------------

  NO   OCC          E(Eh)            E(eV)
   0   2.0000    -104.862544     -2853.4549
   1   2.0000     -92.053772     -2504.9105
   2   2.0000     -15.685998      -426.8377
   3   2.0000     -15.644416      -425.7062
   4   2.0000     -10.586832      -288.0823
   5   2.0000      -9.050063      -246.2647
   6   2.0000      -8.053783      -219.1546
   7   2.0000      -8.051868      -219.1025
   8   2.0000      -8.051685      -219.0975
   9   2.0000      -6.731239      -183.1663
  10   2.0000      -6.729138      -183.1092
  11   2.0000      -6.728079      -183.0803
  12   2.0000      -1.406421       -38.2707
  13   2.0000      -1.160904       -31.5898
  14   2.0000      -1.049642       -28.5622
  15   2.0000      -0.829048       -22.5596
  16   2.0000      -0.717005       -19.5107
  17   2.0000      -0.654797       -17.8179
  18   2.0000      -0.602712       -16.4006
  19   2.0000      -0.526732       -14.3331
  20   2.0000      -0.507398       -13.8070
  21   2.0000      -0.475387       -12.9359
  22   2.0000      -0.420413       -11.4400
  23   2.0000      -0.376681       -10.2500
  24   0.0000       0.026822         0.7299
  25   0.0000       0.046993         1.2787
  26   0.0000       0.059835         1.6282
  27   0.0000       0.070847         1.9278
  28   0.0000       0.075389         2.0514

MULLIKEN ATOMIC CHARGES
-----------------------
   0 Cl:   -0.231622
   1 S :    0.685731
   2 N :   -0.453134
   3 N :   -0.317084
   4 H :    0.316110
Sum of atomic charges:    0.0000000

LOEWDIN ATOMIC CHARGES
----------------------
   0 Cl:    0.437836
   1 S :    0.157303
   2 N :   -0.389572
   3 N :    0.519618
   4 H :   -0.725185

  Mayer bond orders larger than 0.100000
B(  0-Cl,  1-S ) :   0.9916 B(  1-S ,  2-N ) :   1.0480 B(  2-N ,  3-N ) :   1.7730
B(  3-N ,  4-H ) :   0.8727

MP2 TOTAL ENERGY:     -967.360012499 Eh
FINAL SINGLE POINT ENERGY      -967.360012499387

DIPOLE MOMENT
-------------
                                X             Y             Z
Electronic contribution:      3.82598       0.54948       0.00000
Nuclear contribution   :     -4.38370      -0.45580      -0.00000
                        -----------------------------------------
Total Dipole Moment    :     -0.55771       0.09368      -0.00000
                        -----------------------------------------
Magnitude (a.u.)       :      0.56553
Magnitude (Debye)      :      1.43746

Rotational constants in cm-1:     0.314687     0.115352     0.084410
Rotational constants in MHz :  9434.081053  3458.157067  2530.556275

                             ****ORCA TERMINATED NORMALLY****
TOTAL RUN TIME: 0 days 0 hours 1 minutes 29 seconds 958 msec
