                         Program Version 5.0.4 -  RELEASE  -
|  1> ! ri-mp2 aug-cc-pvdz aug-cc-pvdz/c tightscf
|  2> %pal nprocs 16 end
|  3> %maxcore 3800
|  4> %base "DZ_Si-Si_110_AB"
|  5> %scf
|  6> STABPerform true
|  7> STABRestartUHFifUnstable true
|  8> end
|  9>
| 10> *xyz 0 1
| 11> Si         2.691710   -0.785195    0.489976
| 12> Si         1.560539    1.049533   -0.404191
| 13> H         1.968346   -1.267017    1.687333
| 14> H         4.051649   -0.369334    0.915714
| 15> H         2.823570   -1.872298   -0.498216
| 16> O        -0.085816    1.027792   -0.001230
| 17> H         1.693537    1.134833   -1.873447
| 18> H         1.991634    2.335330    0.183720
| 19> C        -0.741252   -0.120496   -0.238824
| 20> O        -0.157822   -1.085271   -0.702167
| 21> N        -2.048588   -0.089112    0.079988
| 22> C        -2.716698    1.066216    0.635475
| 23> H        -2.019856    1.889129    0.734931
| 24> H        -3.128969    0.827510    1.618959
| 25> H        -3.540100    1.372783   -0.014025
| 26> C        -2.856488   -1.270523   -0.123699
| 27> H        -2.238561   -2.055149   -0.546079
| 28> H        -3.681159   -1.052082   -0.805989
| 29> H        -3.275736   -1.612001    0.825650
| 30> *
| 31>
| 32> $new_job
| 33> ! ri-mp2 aug-cc-pvtz aug-cc-pvtz/c tightscf
| 34> %pal nprocs 16 end
| 35> %maxcore 3800
| 36> %base "TZ_Si-Si_110_AB"
| 37>
| 38> *xyz 0 1
| 39> Si         2.691710   -0.785195    0.489976
| 40> Si         1.560539    1.049533   -0.404191
| 41> H         1.968346   -1.267017    1.687333
| 42> H         4.051649   -0.369334    0.915714
| 43> H         2.823570   -1.872298   -0.498216
| 44> O        -0.085816    1.027792   -0.001230
| 45> H         1.693537    1.134833   -1.873447
| 46> H         1.991634    2.335330    0.183720
| 47> C        -0.741252   -0.120496   -0.238824
| 48> O        -0.157822   -1.085271   -0.702167
| 49> N        -2.048588   -0.089112    0.079988
| 50> C        -2.716698    1.066216    0.635475
| 51> H        -2.019856    1.889129    0.734931
| 52> H        -3.128969    0.827510    1.618959
| 53> H        -3.540100    1.372783   -0.014025
| 54> C        -2.856488   -1.270523   -0.123699
| 55> H        -2.238561   -2.055149   -0.546079
| 56> H        -3.681159   -1.052082   -0.805989
| 57> H        -3.275736   -1.612001    0.825650
| 58> *
| 59>
| 60> $new_job
| 61> ! ri-mp2 aug-cc-pvqz aug-cc-pvqz/c tightscf
| 62> %pal nprocs 16 end
| 63> %maxcore 3800
| 64> %base "QZ_Si-Si_110_AB"
| 65>
| 66> *xyz 0 1
| 67> Si         2.691710   -0.785195    0.489976
| 68> Si         1.560539    1.049533   -0.404191
| 69> H         1.968346   -1.267017    1.687333
| 70> H         4.051649   -0.369334    0.915714
| 71> H         2.823570   -1.872298   -0.498216
| 72> O        -0.085816    1.027792   -0.001230
| 73> H         1.693537    1.134833   -1.873447
| 74> H         1.991634    2.335330    0.183720
| 75> C        -0.741252   -0.120496   -0.238824
| 76> O        -0.157822   -1.085271   -0.702167
| 77> N        -2.048588   -0.089112    0.079988
| 78> C        -2.716698    1.066216    0.635475
| 79> H        -2.019856    1.889129    0.734931
| 80> H        -3.128969    0.827510    1.618959
| 81> H        -3.540100    1.372783   -0.014025
| 82> C        -2.856488   -1.270523   -0.123699
| 83> H        -2.238561   -2.055149   -0.546079
| 84> H        -3.681159   -1.052082   -0.805989
| 85> H        -3.275736   -1.612001    0.825650
| 86> *
| 87>
| 88>
| 89>
| 90>
| 91>                          ****END OF INPUT****
 Total Charge           Charge          ....    0
 Multiplicity           Mult            ....    1
 Number of Electrons    NEL             ....   80
MP2 TOTAL ENERGY:     -903.350596575 Eh
FINAL SINGLE POINT ENERGY      -903.350596574734
MP2 TOTAL ENERGY:     -903.713413412 Eh
FINAL SINGLE POINT ENERGY      -903.713413411506

CARTESIAN COORDINATES (ANGSTROEM)
---------------------------------
  Si     2.691710   -0.785195    0.489976
  Si     1.560539    1.049533   -0.404191
  H      1.968346   -1.267017    1.687333
  H      4.051649   -0.369334    0.915714
  H      2.823570   -1.872298   -0.498216
  O     -0.085816    1.027792   -0.001230
  H      1.693537    1.134833   -1.873447
  H      1.991634    2.335330    0.183720
  C     -0.741252   -0.120496   -0.238824
  O     -0.157822   -1.085271   -0.702167
  N     -2.048588   -0.089112    0.079988
  C     -2.716698    1.066216    0.635475
  H     -2.019856    1.889129    0.734931
  H     -3.128969    0.827510    1.618959
  H     -3.540100    1.372783   -0.014025
  C     -2.856488   -1.270523   -0.123699
  H     -2.238561   -2.055149   -0.546079
  H     -3.681159   -1.052082   -0.805989
  H     -3.275736   -1.612001    0.825650

 Multiplicity           Mult            ....    1
 Number of Electrons    NEL             ....   80
 Basis Dimension        Dim             .... 1154

ORBITAL ENERGIES
----------------

  NO   OCC          E(Eh)            E(eV)
   0   2.0000     -68.794677     -1871.9983
   1   2.0000     -68.758094     -1871.0029
   2   2.0000     -20.586018      -560.1740
   3   2.0000     -20.525148      -558.5177
   4   2.0000     -15.595991      -424.3885
   5   2.0000     -11.405290      -310.3537
   6   2.0000     -11.266806      -306.5854
   7   2.0000     -11.261036      -306.4284
   8   2.0000      -6.140210      -167.0836
   9   2.0000      -6.108756      -166.2277
  10   2.0000      -4.247007      -115.5669
  11   2.0000      -4.246365      -115.5495
  12   2.0000      -4.246145      -115.5435
  13   2.0000      -4.214891      -114.6930
  14   2.0000      -4.214869      -114.6924
  15   2.0000      -4.214671      -114.6870
  16   2.0000      -1.461277       -39.7634
  17   2.0000      -1.344414       -36.5834
  18   2.0000      -1.264309       -34.4036
  19   2.0000      -0.983670       -26.7670
  20   2.0000      -0.959120       -26.0990
  21   2.0000      -0.808064       -21.9885
  22   2.0000      -0.732823       -19.9411
  23   2.0000      -0.729614       -19.8538
  24   2.0000      -0.698701       -19.0126
  25   2.0000      -0.683496       -18.5989
  26   2.0000      -0.644408       -17.5352
  27   2.0000      -0.615331       -16.7440
  28   2.0000      -0.606483       -16.5032
  29   2.0000      -0.575222       -15.6526
  30   2.0000      -0.566195       -15.4070
  31   2.0000      -0.560922       -15.2635
  32   2.0000      -0.539685       -14.6856
  33   2.0000      -0.506147       -13.7730
  34   2.0000      -0.481932       -13.1140
  35   2.0000      -0.475660       -12.9434
  36   2.0000      -0.464552       -12.6411
  37   2.0000      -0.454206       -12.3596
  38   2.0000      -0.400775       -10.9056
  39   2.0000      -0.385091       -10.4788
  40   0.0000       0.021777         0.5926
  41   0.0000       0.030658         0.8342
  42   0.0000       0.030681         0.8349
  43   0.0000       0.034062         0.9269
  44   0.0000       0.040580         1.1042

MULLIKEN ATOMIC CHARGES
-----------------------
   0 Si:    0.447371
   1 Si:    1.075100
   2 H :   -0.154072
   3 H :   -0.280125
   4 H :   -0.128199
   5 O :   -0.766552
   6 H :   -0.233718
   7 H :   -0.330303
   8 C :    1.482130
   9 O :   -0.799896
  10 N :   -0.403747
  11 C :   -0.908340
  12 H :    0.304522
  13 H :    0.317164
  14 H :    0.333250
  15 C :   -0.861190
  16 H :    0.310626
  17 H :    0.298534
  18 H :    0.297444
Sum of atomic charges:    0.0000000

LOEWDIN ATOMIC CHARGES
----------------------
   0 Si:    1.022529
   1 Si:    0.376892
   2 H :   -0.300192
   3 H :   -0.325321
   4 H :   -0.303623
   5 O :    0.649374
   6 H :   -0.259791
   7 H :   -0.283272
   8 C :   -1.385529
   9 O :    0.695743
  10 N :    0.378830
  11 C :    0.773062
  12 H :   -0.351246
  13 H :   -0.274909
  14 H :   -0.275960
  15 C :    0.765387
  16 H :   -0.352727
  17 H :   -0.274981
  18 H :   -0.274267

  Mayer bond orders larger than 0.100000
B(  0-Si,  1-Si) :   0.8589 B(  0-Si,  2-H ) :   0.7744 B(  0-Si,  3-H ) :   0.7223
B(  0-Si,  4-H ) :   0.7934 B(  1-Si,  5-O ) :   0.3818 B(  1-Si,  6-H ) :   0.8481
B(  1-Si,  7-H ) :   0.8458 B(  5-O ,  8-C ) :   0.9263 B(  5-O , 10-N ) :  -0.1231
B(  8-C ,  9-O ) :   1.3792 B(  8-C , 10-N ) :   1.2487 B(  9-O , 10-N ) :   0.1484
B( 10-N , 11-C ) :   0.8123 B( 10-N , 15-C ) :   0.8427 B( 11-C , 12-H ) :   0.9052
B( 11-C , 13-H ) :   0.9396 B( 11-C , 14-H ) :   0.9361 B( 15-C , 16-H ) :   0.9063
B( 15-C , 17-H ) :   0.9650 B( 15-C , 18-H ) :   0.9604

MP2 TOTAL ENERGY:     -903.830100404 Eh
FINAL SINGLE POINT ENERGY      -903.830100403628

DIPOLE MOMENT
-------------
                                X             Y             Z
Electronic contribution:      4.62571       1.21105      -1.86303
Nuclear contribution   :     -5.66539      -0.69013       2.22677
                        -----------------------------------------
Total Dipole Moment    :     -1.03968       0.52092       0.36375
                        -----------------------------------------
Magnitude (a.u.)       :      1.21844
Magnitude (Debye)      :      3.09704

Rotational constants in cm-1:     0.093167     0.025811     0.022200
Rotational constants in MHz :  2793.071266   773.804566   665.546767

                             ****ORCA TERMINATED NORMALLY****
TOTAL RUN TIME: 0 days 3 hours 28 minutes 35 seconds 979 msec
