                         Program Version 5.0.4 -  RELEASE  -
|  1> ! ri-mp2 aug-cc-pvdz aug-cc-pvdz/c tightscf
|  2> %pal nprocs 16 end
|  3> %maxcore 3800
|  4> %base "DZ_P-S_5_A"
|  5> %scf
|  6> STABPerform true
|  7> STABRestartUHFifUnstable true
|  8> end
|  9>
| 10> *xyz 0 2
| 11> P         0.345122   -0.000003    0.123523
| 12> S        -1.684480    0.000001   -0.149709
| 13> O         0.557464   -0.000045    1.570808
| 14> O         0.980083   -1.181818   -0.711415
| 15> H         0.816957   -2.048312   -0.320983
| 16> O         0.980075    1.181864   -0.711348
| 17> H         0.816923    2.048337   -0.320882
| 18> *
| 19>
| 20> $new_job
| 21> ! ri-mp2 aug-cc-pvtz aug-cc-pvtz/c tightscf
| 22> %pal nprocs 16 end
| 23> %maxcore 3800
| 24> %base "TZ_P-S_5_A"
| 25>
| 26> *xyz 0 2
| 27> P         0.345122   -0.000003    0.123523
| 28> S        -1.684480    0.000001   -0.149709
| 29> O         0.557464   -0.000045    1.570808
| 30> O         0.980083   -1.181818   -0.711415
| 31> H         0.816957   -2.048312   -0.320983
| 32> O         0.980075    1.181864   -0.711348
| 33> H         0.816923    2.048337   -0.320882
| 34> *
| 35>
| 36> $new_job
| 37> ! ri-mp2 aug-cc-pvqz aug-cc-pvqz/c tightscf
| 38> %pal nprocs 16 end
| 39> %maxcore 3800
| 40> %base "QZ_P-S_5_A"
| 41>
| 42> *xyz 0 2
| 43> P         0.345122   -0.000003    0.123523
| 44> S        -1.684480    0.000001   -0.149709
| 45> O         0.557464   -0.000045    1.570808
| 46> O         0.980083   -1.181818   -0.711415
| 47> H         0.816957   -2.048312   -0.320983
| 48> O         0.980075    1.181864   -0.711348
| 49> H         0.816923    2.048337   -0.320882
| 50> *
| 51>
| 52>
| 53>
| 54>
| 55>                          ****END OF INPUT****
 Total Charge           Charge          ....    0
 Multiplicity           Mult            ....    2
 Number of Electrons    NEL             ....   57
MP2 TOTAL ENERGY:     -964.954117293 Eh
FINAL SINGLE POINT ENERGY      -964.954117292955
MP2 TOTAL ENERGY:     -965.270820704 Eh
FINAL SINGLE POINT ENERGY      -965.270820704032

CARTESIAN COORDINATES (ANGSTROEM)
---------------------------------
  P      0.345122   -0.000003    0.123523
  S     -1.684480    0.000001   -0.149709
  O      0.557464   -0.000045    1.570808
  O      0.980083   -1.181818   -0.711415
  H      0.816957   -2.048312   -0.320983
  O      0.980075    1.181864   -0.711348
  H      0.816923    2.048337   -0.320882

 Multiplicity           Mult            ....    2
 Number of Electrons    NEL             ....   57
 Basis Dimension        Dim             ....  500

ORBITAL ENERGIES
----------------
                 SPIN UP ORBITALS
  NO   OCC          E(Eh)            E(eV)
   0   1.0000     -92.006508     -2503.6244
   1   1.0000     -80.103845     -2179.7364
   2   1.0000     -20.620588      -561.1147
   3   1.0000     -20.620574      -561.1143
   4   1.0000     -20.525379      -558.5240
   5   1.0000      -9.009943      -245.1730
   6   1.0000      -7.623812      -207.4545
   7   1.0000      -6.705663      -182.4704
   8   1.0000      -6.687059      -181.9641
   9   1.0000      -6.685835      -181.9308
  10   1.0000      -5.522290      -150.2691
  11   1.0000      -5.521736      -150.2541
  12   1.0000      -5.520734      -150.2268
  13   1.0000      -1.463300       -39.8184
  14   1.0000      -1.406076       -38.2613
  15   1.0000      -1.321944       -35.9719
  16   1.0000      -1.028569       -27.9888
  17   1.0000      -0.871062       -23.7028
  18   1.0000      -0.734153       -19.9773
  19   1.0000      -0.706276       -19.2187
  20   1.0000      -0.655196       -17.8288
  21   1.0000      -0.653906       -17.7937
  22   1.0000      -0.598217       -16.2783
  23   1.0000      -0.583329       -15.8732
  24   1.0000      -0.537586       -14.6285
  25   1.0000      -0.494112       -13.4455
  26   1.0000      -0.491211       -13.3665
  27   1.0000      -0.455771       -12.4021
  28   1.0000      -0.425711       -11.5842
  29   0.0000       0.022926         0.6238
  30   0.0000       0.031065         0.8453
  31   0.0000       0.045556         1.2397
  32   0.0000       0.062623         1.7041
  33   0.0000       0.072613         1.9759

                 SPIN DOWN ORBITALS
  NO   OCC          E(Eh)            E(eV)
   0   1.0000     -91.997427     -2503.3773
   1   1.0000     -80.104160     -2179.7450
   2   1.0000     -20.620460      -561.1112
   3   1.0000     -20.620446      -561.1109
   4   1.0000     -20.522388      -558.4426
   5   1.0000      -8.999951      -244.9011
   6   1.0000      -7.624286      -207.4674
   7   1.0000      -6.682237      -181.8329
   8   1.0000      -6.680531      -181.7865
   9   1.0000      -6.664500      -181.3503
  10   1.0000      -5.522561      -150.2765
  11   1.0000      -5.522552      -150.2763
  12   1.0000      -5.521237      -150.2405
  13   1.0000      -1.462764       -39.8038
  14   1.0000      -1.405848       -38.2551
  15   1.0000      -1.314151       -35.7599
  16   1.0000      -0.953731       -25.9523
  17   1.0000      -0.859204       -23.3801
  18   1.0000      -0.734214       -19.9790
  19   1.0000      -0.696497       -18.9527
  20   1.0000      -0.653829       -17.7916
  21   1.0000      -0.646380       -17.5889
  22   1.0000      -0.586961       -15.9720
  23   1.0000      -0.581112       -15.8129
  24   1.0000      -0.518342       -14.1048
  25   1.0000      -0.487698       -13.2709
  26   1.0000      -0.453648       -12.3444
  27   1.0000      -0.406634       -11.0651
  28   0.0000      -0.020103        -0.5470
  29   0.0000       0.023387         0.6364
  30   0.0000       0.031141         0.8474
  31   0.0000       0.046269         1.2590
  32   0.0000       0.066796         1.8176

MULLIKEN ATOMIC CHARGES AND SPIN POPULATIONS
--------------------------------------------
   0 P :    2.100990   -0.114586
   1 S :   -0.186538    1.064114
   2 O :   -1.063788    0.053058
   3 O :   -0.790141   -0.000977
   4 H :    0.364808   -0.000316
   5 O :   -0.790139   -0.000977
   6 H :    0.364807   -0.000316
Sum of atomic charges         :    0.0000000

LOEWDIN ATOMIC CHARGES AND SPIN POPULATIONS
-------------------------------------------
   0 P :   -1.348692    0.188267
   1 S :    0.833312    0.756006
   2 O :    0.207330    0.048649
   3 O :    1.029801    0.004241
   4 H :   -0.875776   -0.000703
   5 O :    1.029802    0.004242
   6 H :   -0.875778   -0.000703

  Mayer bond orders larger than 0.100000
B(  0-P ,  1-S ) :   0.9478 B(  0-P ,  2-O ) :   1.4978 B(  0-P ,  3-O ) :   0.7427
B(  0-P ,  5-O ) :   0.7427 B(  3-O ,  4-H ) :   0.8995 B(  5-O ,  6-H ) :   0.8995

MP2 TOTAL ENERGY:     -965.374661036 Eh
FINAL SINGLE POINT ENERGY      -965.374661036247

DIPOLE MOMENT
-------------
                                X             Y             Z
Electronic contribution:     -1.71138      -0.00000      -0.02487
Nuclear contribution   :      1.32276       0.00003      -0.71263
                        -----------------------------------------
Total Dipole Moment    :     -0.38862       0.00002      -0.73750
                        -----------------------------------------
Magnitude (a.u.)       :      0.83363
Magnitude (Debye)      :      2.11891

Rotational constants in cm-1:     0.152959     0.091196     0.089308
Rotational constants in MHz :  4585.590231  2733.982717  2677.389848

                             ****ORCA TERMINATED NORMALLY****
TOTAL RUN TIME: 0 days 0 hours 23 minutes 45 seconds 136 msec
