                         Program Version 5.0.4 -  RELEASE  -
|  1> ! ri-mp2 aug-cc-pvdz aug-cc-pvdz/c tightscf
|  2> %pal nprocs 16 end
|  3> %maxcore 3800
|  4> %base "DZ_P-N_37_AB"
|  5> %scf
|  6> STABPerform true
|  7> STABRestartUHFifUnstable true
|  8> end
|  9>
| 10> *xyz 0 1
| 11> C        -0.260247   -0.148274    0.240042
| 12> C         0.657148   -1.327276   -0.081313
| 13> C         2.086651   -1.067297    0.382703
| 14> C         2.635624    0.231223   -0.196019
| 15> C         1.721889    1.408688    0.121774
| 16> C         0.295398    1.147061   -0.347813
| 17> N        -2.871517    0.692481    0.432118
| 18> H         0.656201   -1.497525   -1.163545
| 19> H         0.275060   -2.241751    0.378241
| 20> H         2.727351   -1.906891    0.105416
| 21> H         2.102855   -1.009417    1.475889
| 22> H         2.724433    0.130084   -1.282701
| 23> H         3.642405    0.417682    0.183137
| 24> H         2.105580    2.321304   -0.338889
| 25> H         1.719513    1.582026    1.202967
| 26> H         0.282553    1.072834   -1.440809
| 27> H        -0.355097    1.982013   -0.083765
| 28> P        -1.962750   -0.478942   -0.393720
| 29> H        -0.312937   -0.038523    1.329641
| 30> H        -2.176264   -1.640579    0.399866
| 31> H        -2.975517    0.666005    1.433684
| 32> H        -3.693042    1.034749   -0.034400
| 33> *
| 34>
| 35> $new_job
| 36> ! ri-mp2 aug-cc-pvtz aug-cc-pvtz/c tightscf
| 37> %pal nprocs 16 end
| 38> %maxcore 3800
| 39> %base "TZ_P-N_37_AB"
| 40>
| 41> *xyz 0 1
| 42> C        -0.260247   -0.148274    0.240042
| 43> C         0.657148   -1.327276   -0.081313
| 44> C         2.086651   -1.067297    0.382703
| 45> C         2.635624    0.231223   -0.196019
| 46> C         1.721889    1.408688    0.121774
| 47> C         0.295398    1.147061   -0.347813
| 48> N        -2.871517    0.692481    0.432118
| 49> H         0.656201   -1.497525   -1.163545
| 50> H         0.275060   -2.241751    0.378241
| 51> H         2.727351   -1.906891    0.105416
| 52> H         2.102855   -1.009417    1.475889
| 53> H         2.724433    0.130084   -1.282701
| 54> H         3.642405    0.417682    0.183137
| 55> H         2.105580    2.321304   -0.338889
| 56> H         1.719513    1.582026    1.202967
| 57> H         0.282553    1.072834   -1.440809
| 58> H        -0.355097    1.982013   -0.083765
| 59> P        -1.962750   -0.478942   -0.393720
| 60> H        -0.312937   -0.038523    1.329641
| 61> H        -2.176264   -1.640579    0.399866
| 62> H        -2.975517    0.666005    1.433684
| 63> H        -3.693042    1.034749   -0.034400
| 64> *
| 65>
| 66> $new_job
| 67> ! ri-mp2 aug-cc-pvqz aug-cc-pvqz/c tightscf
| 68> %pal nprocs 16 end
| 69> %maxcore 3800
| 70> %base "QZ_P-N_37_AB"
| 71>
| 72> *xyz 0 1
| 73> C        -0.260247   -0.148274    0.240042
| 74> C         0.657148   -1.327276   -0.081313
| 75> C         2.086651   -1.067297    0.382703
| 76> C         2.635624    0.231223   -0.196019
| 77> C         1.721889    1.408688    0.121774
| 78> C         0.295398    1.147061   -0.347813
| 79> N        -2.871517    0.692481    0.432118
| 80> H         0.656201   -1.497525   -1.163545
| 81> H         0.275060   -2.241751    0.378241
| 82> H         2.727351   -1.906891    0.105416
| 83> H         2.102855   -1.009417    1.475889
| 84> H         2.724433    0.130084   -1.282701
| 85> H         3.642405    0.417682    0.183137
| 86> H         2.105580    2.321304   -0.338889
| 87> H         1.719513    1.582026    1.202967
| 88> H         0.282553    1.072834   -1.440809
| 89> H        -0.355097    1.982013   -0.083765
| 90> P        -1.962750   -0.478942   -0.393720
| 91> H        -0.312937   -0.038523    1.329641
| 92> H        -2.176264   -1.640579    0.399866
| 93> H        -2.975517    0.666005    1.433684
| 94> H        -3.693042    1.034749   -0.034400
| 95> *
| 96>
| 97>
| 98>
| 99>
|100>                          ****END OF INPUT****
 Total Charge           Charge          ....    0
 Multiplicity           Mult            ....    1
 Number of Electrons    NEL             ....   72
MP2 TOTAL ENERGY:     -631.790901645 Eh
FINAL SINGLE POINT ENERGY      -631.790901644500
MP2 TOTAL ENERGY:     -632.111472361 Eh
FINAL SINGLE POINT ENERGY      -632.111472360647

CARTESIAN COORDINATES (ANGSTROEM)
---------------------------------
  C     -0.260247   -0.148274    0.240042
  C      0.657148   -1.327276   -0.081313
  C      2.086651   -1.067297    0.382703
  C      2.635624    0.231223   -0.196019
  C      1.721889    1.408688    0.121774
  C      0.295398    1.147061   -0.347813
  N     -2.871517    0.692481    0.432118
  H      0.656201   -1.497525   -1.163545
  H      0.275060   -2.241751    0.378241
  H      2.727351   -1.906891    0.105416
  H      2.102855   -1.009417    1.475889
  H      2.724433    0.130084   -1.282701
  H      3.642405    0.417682    0.183137
  H      2.105580    2.321304   -0.338889
  H      1.719513    1.582026    1.202967
  H      0.282553    1.072834   -1.440809
  H     -0.355097    1.982013   -0.083765
  P     -1.962750   -0.478942   -0.393720
  H     -0.312937   -0.038523    1.329641
  H     -2.176264   -1.640579    0.399866
  H     -2.975517    0.666005    1.433684
  H     -3.693042    1.034749   -0.034400

 Multiplicity           Mult            ....    1
 Number of Electrons    NEL             ....   72
 Basis Dimension        Dim             .... 1288

ORBITAL ENERGIES
----------------

  NO   OCC          E(Eh)            E(eV)
   0   2.0000     -79.940587     -2175.2940
   1   2.0000     -15.543599      -422.9628
   2   2.0000     -11.217709      -305.2494
   3   2.0000     -11.215710      -305.1950
   4   2.0000     -11.212635      -305.1113
   5   2.0000     -11.210731      -305.0595
   6   2.0000     -11.210227      -305.0458
   7   2.0000     -11.209763      -305.0331
   8   2.0000      -7.479562      -203.5292
   9   2.0000      -5.373947      -146.2325
  10   2.0000      -5.373357      -146.2165
  11   2.0000      -5.372720      -146.1991
  12   2.0000      -1.158781       -31.5320
  13   2.0000      -1.116816       -30.3901
  14   2.0000      -1.008959       -27.4552
  15   2.0000      -1.003251       -27.2998
  16   2.0000      -0.850504       -23.1434
  17   2.0000      -0.831161       -22.6170
  18   2.0000      -0.771892       -21.0042
  19   2.0000      -0.745059       -20.2741
  20   2.0000      -0.669605       -18.2209
  21   2.0000      -0.639526       -17.4024
  22   2.0000      -0.603976       -16.4350
  23   2.0000      -0.601409       -16.3652
  24   2.0000      -0.597527       -16.2595
  25   2.0000      -0.575033       -15.6474
  26   2.0000      -0.525568       -14.3014
  27   2.0000      -0.516124       -14.0444
  28   2.0000      -0.505685       -13.7604
  29   2.0000      -0.486762       -13.2455
  30   2.0000      -0.481274       -13.0961
  31   2.0000      -0.452707       -12.3188
  32   2.0000      -0.431788       -11.7496
  33   2.0000      -0.428163       -11.6509
  34   2.0000      -0.387594       -10.5470
  35   2.0000      -0.341411        -9.2903
  36   0.0000       0.023725         0.6456
  37   0.0000       0.028407         0.7730
  38   0.0000       0.030962         0.8425
  39   0.0000       0.034141         0.9290
  40   0.0000       0.042582         1.1587

MULLIKEN ATOMIC CHARGES
-----------------------
   0 C :    0.202156
   1 C :   -0.492437
   2 C :   -0.490263
   3 C :   -0.424932
   4 C :   -0.501523
   5 C :   -0.377439
   6 N :   -1.009499
   7 H :    0.185886
   8 H :    0.223562
   9 H :    0.228084
  10 H :    0.137676
  11 H :    0.118312
  12 H :    0.247619
  13 H :    0.230304
  14 H :    0.138419
  15 H :    0.214230
  16 H :    0.292500
  17 P :    0.580747
  18 H :    0.199384
  19 H :   -0.173336
  20 H :    0.273003
  21 H :    0.197549
Sum of atomic charges:   -0.0000000

LOEWDIN ATOMIC CHARGES
----------------------
   0 C :   -0.055329
   1 C :    0.437638
   2 C :    0.534874
   3 C :    0.530726
   4 C :    0.534769
   5 C :    0.448433
   6 N :    1.030551
   7 H :   -0.274961
   8 H :   -0.278585
   9 H :   -0.257910
  10 H :   -0.262639
  11 H :   -0.263295
  12 H :   -0.259204
  13 H :   -0.258122
  14 H :   -0.262361
  15 H :   -0.278569
  16 H :   -0.278255
  17 P :    1.116157
  18 H :   -0.323150
  19 H :   -0.393881
  20 H :   -0.575935
  21 H :   -0.610952

  Mayer bond orders larger than 0.100000
B(  0-C ,  1-C ) :   0.6607 B(  0-C ,  5-C ) :   0.7181 B(  0-C ,  6-N ) :  -0.2411
B(  0-C , 17-P ) :   0.6205 B(  0-C , 18-H ) :   0.9153 B(  0-C , 19-H ) :  -0.1462
B(  1-C ,  2-C ) :   0.9040 B(  1-C ,  7-H ) :   0.9776 B(  1-C ,  8-H ) :   0.9761
B(  2-C ,  3-C ) :   0.8904 B(  2-C ,  9-H ) :   0.9956 B(  2-C , 10-H ) :   1.0270
B(  3-C ,  4-C ) :   0.8892 B(  3-C , 11-H ) :   1.0401 B(  3-C , 12-H ) :   0.9576
B(  4-C ,  5-C ) :   0.8447 B(  4-C , 13-H ) :   0.9968 B(  4-C , 14-H ) :   1.0305
B(  5-C , 15-H ) :   0.9346 B(  5-C , 16-H ) :   0.9588 B(  6-N , 17-P ) :   0.7271
B(  6-N , 20-H ) :   0.9492 B(  6-N , 21-H ) :   1.0610 B( 17-P , 19-H ) :   1.0108

MP2 TOTAL ENERGY:     -632.209758593 Eh
FINAL SINGLE POINT ENERGY      -632.209758593388

DIPOLE MOMENT
-------------
                                X             Y             Z
Electronic contribution:     -8.88890      -1.26391      -2.03689
Nuclear contribution   :      8.84111       1.37347       2.62097
                        -----------------------------------------
Total Dipole Moment    :     -0.04779       0.10956       0.58408
                        -----------------------------------------
Magnitude (a.u.)       :      0.59619
Magnitude (Debye)      :      1.51538

Rotational constants in cm-1:     0.117286     0.033298     0.028097
Rotational constants in MHz :  3516.144298   998.234877   842.329168

                             ****ORCA TERMINATED NORMALLY****
TOTAL RUN TIME: 0 days 4 hours 33 minutes 50 seconds 792 msec
