                         Program Version 5.0.4 -  RELEASE  -
|  1> ! ri-mp2 aug-cc-pvdz aug-cc-pvdz/c tightscf
|  2> %pal nprocs 16 end
|  3> %maxcore 3800
|  4> %base "DZ_P-S_6_A"
|  5> %scf
|  6> STABPerform true
|  7> STABRestartUHFifUnstable true
|  8> end
|  9>
| 10> *xyz 0 2
| 11> S         1.463919   -0.273064    0.079527
| 12> O         0.235622    0.631894   -0.435789
| 13> C        -0.992386    0.585118    0.316941
| 14> C        -1.830451   -0.598517   -0.095412
| 15> H        -1.490384    1.527244    0.089819
| 16> H        -0.747532    0.554447    1.379106
| 17> H        -2.046547   -0.564897   -1.162844
| 18> H        -2.774944   -0.592223    0.449739
| 19> H        -1.311241   -1.530304    0.128894
| 20> *
| 21>
| 22> $new_job
| 23> ! ri-mp2 aug-cc-pvtz aug-cc-pvtz/c tightscf
| 24> %pal nprocs 16 end
| 25> %maxcore 3800
| 26> %base "TZ_P-S_6_A"
| 27>
| 28> *xyz 0 2
| 29> S         1.463919   -0.273064    0.079527
| 30> O         0.235622    0.631894   -0.435789
| 31> C        -0.992386    0.585118    0.316941
| 32> C        -1.830451   -0.598517   -0.095412
| 33> H        -1.490384    1.527244    0.089819
| 34> H        -0.747532    0.554447    1.379106
| 35> H        -2.046547   -0.564897   -1.162844
| 36> H        -2.774944   -0.592223    0.449739
| 37> H        -1.311241   -1.530304    0.128894
| 38> *
| 39>
| 40> $new_job
| 41> ! ri-mp2 aug-cc-pvqz aug-cc-pvqz/c tightscf
| 42> %pal nprocs 16 end
| 43> %maxcore 3800
| 44> %base "QZ_P-S_6_A"
| 45>
| 46> *xyz 0 2
| 47> S         1.463919   -0.273064    0.079527
| 48> O         0.235622    0.631894   -0.435789
| 49> C        -0.992386    0.585118    0.316941
| 50> C        -1.830451   -0.598517   -0.095412
| 51> H        -1.490384    1.527244    0.089819
| 52> H        -0.747532    0.554447    1.379106
| 53> H        -2.046547   -0.564897   -1.162844
| 54> H        -2.774944   -0.592223    0.449739
| 55> H        -1.311241   -1.530304    0.128894
| 56> *
| 57>
| 58>
| 59>
| 60>
| 61>                          ****END OF INPUT****
 Total Charge           Charge          ....    0
 Multiplicity           Mult            ....    2
 Number of Electrons    NEL             ....   41
MP2 TOTAL ENERGY:     -551.628189936 Eh
FINAL SINGLE POINT ENERGY      -551.628189935970
MP2 TOTAL ENERGY:     -551.820783475 Eh
FINAL SINGLE POINT ENERGY      -551.820783475157

CARTESIAN COORDINATES (ANGSTROEM)
---------------------------------
  S      1.463919   -0.273064    0.079527
  O      0.235622    0.631894   -0.435789
  C     -0.992386    0.585118    0.316941
  C     -1.830451   -0.598517   -0.095412
  H     -1.490384    1.527244    0.089819
  H     -0.747532    0.554447    1.379106
  H     -2.046547   -0.564897   -1.162844
  H     -2.774944   -0.592223    0.449739
  H     -1.311241   -1.530304    0.128894

 Multiplicity           Mult            ....    2
 Number of Electrons    NEL             ....   41
 Basis Dimension        Dim             ....  554

ORBITAL ENERGIES
----------------
                 SPIN UP ORBITALS
  NO   OCC          E(Eh)            E(eV)
   0   1.0000     -92.006766     -2503.6314
   1   1.0000     -20.611477      -560.8668
   2   1.0000     -11.293231      -307.3044
   3   1.0000     -11.226630      -305.4921
   4   1.0000      -9.003507      -244.9979
   5   1.0000      -6.697977      -182.2612
   6   1.0000      -6.681082      -181.8015
   7   1.0000      -6.679173      -181.7496
   8   1.0000      -1.418834       -38.6084
   9   1.0000      -1.047605       -28.5068
  10   1.0000      -0.940958       -25.6048
  11   1.0000      -0.835375       -22.7317
  12   1.0000      -0.675549       -18.3826
  13   1.0000      -0.669876       -18.2283
  14   1.0000      -0.634041       -17.2531
  15   1.0000      -0.570103       -15.5133
  16   1.0000      -0.547784       -14.9060
  17   1.0000      -0.521958       -14.2032
  18   1.0000      -0.498028       -13.5520
  19   1.0000      -0.403797       -10.9879
  20   1.0000      -0.368856       -10.0371
  21   0.0000       0.025879         0.7042
  22   0.0000       0.036144         0.9835
  23   0.0000       0.037228         1.0130
  24   0.0000       0.043486         1.1833
  25   0.0000       0.056995         1.5509

                 SPIN DOWN ORBITALS
  NO   OCC          E(Eh)            E(eV)
   0   1.0000     -91.998367     -2503.4028
   1   1.0000     -20.602467      -560.6216
   2   1.0000     -11.293691      -307.3170
   3   1.0000     -11.226478      -305.4880
   4   1.0000      -8.994261      -244.7463
   5   1.0000      -6.677790      -181.7119
   6   1.0000      -6.674343      -181.6181
   7   1.0000      -6.658974      -181.1999
   8   1.0000      -1.395925       -37.9851
   9   1.0000      -1.041295       -28.3351
  10   1.0000      -0.901376       -24.5277
  11   1.0000      -0.805434       -21.9170
  12   1.0000      -0.668221       -18.1832
  13   1.0000      -0.640422       -17.4268
  14   1.0000      -0.600536       -16.3414
  15   1.0000      -0.560343       -15.2477
  16   1.0000      -0.543646       -14.7934
  17   1.0000      -0.494568       -13.4579
  18   1.0000      -0.475428       -12.9371
  19   1.0000      -0.352085        -9.5807
  20   0.0000       0.024837         0.6758
  21   0.0000       0.027608         0.7513
  22   0.0000       0.037237         1.0133
  23   0.0000       0.041354         1.1253
  24   0.0000       0.043869         1.1937

MULLIKEN ATOMIC CHARGES AND SPIN POPULATIONS
--------------------------------------------
   0 S :    0.221266    0.934685
   1 O :   -0.735329    0.080857
   2 C :   -0.013119   -0.028109
   3 C :   -0.891849    0.011424
   4 H :    0.319104    0.005163
   5 H :    0.288991    0.000374
   6 H :    0.263815   -0.001830
   7 H :    0.284757   -0.001348
   8 H :    0.262363   -0.001216
Sum of atomic charges         :   -0.0000000

LOEWDIN ATOMIC CHARGES AND SPIN POPULATIONS
-------------------------------------------
   0 S :    0.657052    0.734836
   1 O :    0.100983    0.243565
   2 C :   -0.024983    0.013320
   3 C :    0.863745    0.004989
   4 H :   -0.327334   -0.000756
   5 H :   -0.364840   -0.000374
   6 H :   -0.294709   -0.000060
   7 H :   -0.290820    0.000243
   8 H :   -0.319093    0.004236

  Mayer bond orders larger than 0.100000
B(  0-S ,  1-O ) :   0.9244 B(  1-O ,  2-C ) :   0.6787 B(  2-C ,  3-C ) :   1.0583
B(  2-C ,  4-H ) :   0.8281 B(  2-C ,  5-H ) :   0.8837 B(  3-C ,  6-H ) :   0.9034
B(  3-C ,  7-H ) :   0.9233 B(  3-C ,  8-H ) :   0.9171

MP2 TOTAL ENERGY:     -551.881007439 Eh
FINAL SINGLE POINT ENERGY      -551.881007439400

DIPOLE MOMENT
-------------
                                X             Y             Z
Electronic contribution:      7.66091       0.53478      -0.51687
Nuclear contribution   :     -8.39902      -0.58643       0.87403
                        -----------------------------------------
Total Dipole Moment    :     -0.73810      -0.05165       0.35716
                        -----------------------------------------
Magnitude (a.u.)       :      0.82160
Magnitude (Debye)      :      2.08834

Rotational constants in cm-1:     0.545561     0.116019     0.105200
Rotational constants in MHz : 16355.502008  3478.174639  3153.815892

                             ****ORCA TERMINATED NORMALLY****
TOTAL RUN TIME: 0 days 0 hours 37 minutes 51 seconds 91 msec
