                         Program Version 5.0.4 -  RELEASE  -
|  1> ! ri-mp2 aug-cc-pvdz aug-cc-pvdz/c tightscf
|  2> %pal nprocs 16 end
|  3> %maxcore 3800
|  4> %base "DZ_P-N_49_AB"
|  5> %scf
|  6> STABPerform true
|  7> STABRestartUHFifUnstable true
|  8> end
|  9>
| 10> *xyz 0 1
| 11> C         0.921701    0.293406    0.461739
| 12> N        -1.764099   -0.048805   -0.144617
| 13> O        -1.511497   -1.031695   -1.108855
| 14> O        -1.786782   -0.682382    1.119041
| 15> C         2.008921    0.118018   -0.282213
| 16> C         3.240222   -0.605200    0.143629
| 17> H         2.024362    0.538541   -1.285191
| 18> H         3.144099   -1.003769    1.152489
| 19> H         4.104735    0.061691    0.113465
| 20> H         3.458491   -1.429798   -0.538414
| 21> H        -0.653291   -1.431476   -0.884176
| 22> H        -2.715403   -0.914193    1.240494
| 23> P        -0.506440    1.180264   -0.216049
| 24> H         0.882142   -0.119303    1.464388
| 25> H        -0.938667    1.811257    0.969582
| 26> *
| 27>
| 28> $new_job
| 29> ! ri-mp2 aug-cc-pvtz aug-cc-pvtz/c tightscf
| 30> %pal nprocs 16 end
| 31> %maxcore 3800
| 32> %base "TZ_P-N_49_AB"
| 33>
| 34> *xyz 0 1
| 35> C         0.921701    0.293406    0.461739
| 36> N        -1.764099   -0.048805   -0.144617
| 37> O        -1.511497   -1.031695   -1.108855
| 38> O        -1.786782   -0.682382    1.119041
| 39> C         2.008921    0.118018   -0.282213
| 40> C         3.240222   -0.605200    0.143629
| 41> H         2.024362    0.538541   -1.285191
| 42> H         3.144099   -1.003769    1.152489
| 43> H         4.104735    0.061691    0.113465
| 44> H         3.458491   -1.429798   -0.538414
| 45> H        -0.653291   -1.431476   -0.884176
| 46> H        -2.715403   -0.914193    1.240494
| 47> P        -0.506440    1.180264   -0.216049
| 48> H         0.882142   -0.119303    1.464388
| 49> H        -0.938667    1.811257    0.969582
| 50> *
| 51>
| 52> $new_job
| 53> ! ri-mp2 aug-cc-pvqz aug-cc-pvqz/c tightscf
| 54> %pal nprocs 16 end
| 55> %maxcore 3800
| 56> %base "QZ_P-N_49_AB"
| 57>
| 58> *xyz 0 1
| 59> C         0.921701    0.293406    0.461739
| 60> N        -1.764099   -0.048805   -0.144617
| 61> O        -1.511497   -1.031695   -1.108855
| 62> O        -1.786782   -0.682382    1.119041
| 63> C         2.008921    0.118018   -0.282213
| 64> C         3.240222   -0.605200    0.143629
| 65> H         2.024362    0.538541   -1.285191
| 66> H         3.144099   -1.003769    1.152489
| 67> H         4.104735    0.061691    0.113465
| 68> H         3.458491   -1.429798   -0.538414
| 69> H        -0.653291   -1.431476   -0.884176
| 70> H        -2.715403   -0.914193    1.240494
| 71> P        -0.506440    1.180264   -0.216049
| 72> H         0.882142   -0.119303    1.464388
| 73> H        -0.938667    1.811257    0.969582
| 74> *
| 75>
| 76>
| 77>
| 78>
| 79>                          ****END OF INPUT****
 Total Charge           Charge          ....    0
 Multiplicity           Mult            ....    1
 Number of Electrons    NEL             ....   64
MP2 TOTAL ENERGY:     -664.214034354 Eh
FINAL SINGLE POINT ENERGY      -664.214034354452
MP2 TOTAL ENERGY:     -664.543092057 Eh
FINAL SINGLE POINT ENERGY      -664.543092056840

CARTESIAN COORDINATES (ANGSTROEM)
---------------------------------
  C      0.921701    0.293406    0.461739
  N     -1.764099   -0.048805   -0.144617
  O     -1.511497   -1.031695   -1.108855
  O     -1.786782   -0.682382    1.119041
  C      2.008921    0.118018   -0.282213
  C      3.240222   -0.605200    0.143629
  H      2.024362    0.538541   -1.285191
  H      3.144099   -1.003769    1.152489
  H      4.104735    0.061691    0.113465
  H      3.458491   -1.429798   -0.538414
  H     -0.653291   -1.431476   -0.884176
  H     -2.715403   -0.914193    1.240494
  P     -0.506440    1.180264   -0.216049
  H      0.882142   -0.119303    1.464388
  H     -0.938667    1.811257    0.969582

 Multiplicity           Mult            ....    1
 Number of Electrons    NEL             ....   64
 Basis Dimension        Dim             ....  932

ORBITAL ENERGIES
----------------

  NO   OCC          E(Eh)            E(eV)
   0   2.0000     -79.961522     -2175.8636
   1   2.0000     -20.598616      -560.5168
   2   2.0000     -20.595853      -560.4417
   3   2.0000     -15.661265      -426.1647
   4   2.0000     -11.260862      -306.4236
   5   2.0000     -11.236248      -305.7539
   6   2.0000     -11.231172      -305.6157
   7   2.0000      -7.501393      -204.1233
   8   2.0000      -5.395249      -146.8122
   9   2.0000      -5.394899      -146.8027
  10   2.0000      -5.393927      -146.7762
  11   2.0000      -1.468868       -39.9699
  12   2.0000      -1.347629       -36.6708
  13   2.0000      -1.095578       -29.8122
  14   2.0000      -1.037552       -28.2332
  15   2.0000      -0.958857       -26.0918
  16   2.0000      -0.828362       -22.5409
  17   2.0000      -0.757097       -20.6017
  18   2.0000      -0.744592       -20.2614
  19   2.0000      -0.660759       -17.9802
  20   2.0000      -0.652410       -17.7530
  21   2.0000      -0.633575       -17.2405
  22   2.0000      -0.606928       -16.5153
  23   2.0000      -0.596638       -16.2353
  24   2.0000      -0.585233       -15.9250
  25   2.0000      -0.531118       -14.4525
  26   2.0000      -0.503629       -13.7044
  27   2.0000      -0.498577       -13.5670
  28   2.0000      -0.483748       -13.1634
  29   2.0000      -0.411489       -11.1972
  30   2.0000      -0.382266       -10.4020
  31   2.0000      -0.369634       -10.0582
  32   0.0000       0.022344         0.6080
  33   0.0000       0.030460         0.8288
  34   0.0000       0.035707         0.9716
  35   0.0000       0.036713         0.9990
  36   0.0000       0.046352         1.2613

MULLIKEN ATOMIC CHARGES
-----------------------
   0 C :   -0.713908
   1 N :   -0.037692
   2 O :   -0.582672
   3 O :   -0.590391
   4 C :   -0.244266
   5 C :   -0.697450
   6 H :    0.455262
   7 H :    0.230515
   8 H :    0.274519
   9 H :    0.246128
  10 H :    0.358874
  11 H :    0.343529
  12 P :    0.738445
  13 H :    0.342067
  14 H :   -0.122960
Sum of atomic charges:   -0.0000000

LOEWDIN ATOMIC CHARGES
----------------------
   0 C :    0.143481
   1 N :   -0.434773
   2 O :    0.977967
   3 O :    0.995479
   4 C :    0.264688
   5 C :    0.896046
   6 H :   -0.353748
   7 H :   -0.312955
   8 H :   -0.292164
   9 H :   -0.292644
  10 H :   -0.894248
  11 H :   -0.848038
  12 P :    1.001900
  13 H :   -0.401964
  14 H :   -0.449026

  Mayer bond orders larger than 0.100000
B(  0-C ,  4-C ) :   1.4044 B(  0-C , 12-P ) :   0.8148 B(  0-C , 13-H ) :   0.8954
B(  0-C , 14-H ) :  -0.1059 B(  1-N ,  2-O ) :   0.6719 B(  1-N ,  3-O ) :   0.7416
B(  1-N , 12-P ) :   0.6009 B(  2-O , 10-H ) :   0.8479 B(  3-O , 11-H ) :   0.9002
B(  4-C ,  5-C ) :   0.8274 B(  4-C ,  6-H ) :   0.7705 B(  4-C , 12-P ) :  -0.1307
B(  5-C ,  7-H ) :   0.9551 B(  5-C ,  8-H ) :   0.9727 B(  5-C ,  9-H ) :   0.9767
B( 12-P , 14-H ) :   0.9969

MP2 TOTAL ENERGY:     -664.649258371 Eh
FINAL SINGLE POINT ENERGY      -664.649258370830

DIPOLE MOMENT
-------------
                                X             Y             Z
Electronic contribution:     -8.72535       3.33487      -1.85698
Nuclear contribution   :      9.65580      -3.61198       2.42000
                        -----------------------------------------
Total Dipole Moment    :      0.93045      -0.27711       0.56303
                        -----------------------------------------
Magnitude (a.u.)       :      1.12229
Magnitude (Debye)      :      2.85263

Rotational constants in cm-1:     0.123433     0.039220     0.036755
Rotational constants in MHz :  3700.435121  1175.801004  1101.892831

                             ****ORCA TERMINATED NORMALLY****
TOTAL RUN TIME: 0 days 1 hours 11 minutes 11 seconds 86 msec
