                         Program Version 5.0.4 -  RELEASE  -
|  1> ! ri-mp2 aug-cc-pvdz aug-cc-pvdz/c tightscf
|  2> %pal nprocs 16 end
|  3> %maxcore 3800
|  4> %base "DZ_B-B_75_AB"
|  5>
|  6> *xyz 0 1
|  7> B         0.675569   -1.946431   -0.474515
|  8> B        -0.678605   -1.944104    0.483406
|  9> C        -1.894838   -1.003995    0.330157
| 10> C        -1.886730    0.031113   -0.608556
| 11> C        -3.026765   -1.153857    1.138659
| 12> C        -4.103696   -0.297843    0.999692
| 13> C        -4.073532    0.720365    0.064572
| 14> C        -2.959588    0.902649   -0.753114
| 15> H        -3.051735   -1.945959    1.874701
| 16> H        -4.979097   -0.416704    1.625046
| 17> C         1.890632   -1.002474   -0.329255
| 18> C         1.881396    0.041718    0.599534
| 19> C         3.025023   -1.161948   -1.132112
| 20> C         4.103425   -0.306919   -0.997580
| 21> C         4.071449    0.721137   -0.073470
| 22> C         2.956247    0.911103    0.740580
| 23> H         3.051387   -1.961699   -1.859749
| 24> H         4.980921   -0.434035   -1.618328
| 25> N        -2.946749    1.896902   -1.723301
| 26> N         2.902223    1.976785    1.631819
| 27> H        -1.016801    0.168716   -1.241317
| 28> H         1.007610    0.189420    1.224833
| 29> H        -4.923083    1.385207   -0.039289
| 30> H         4.917524    1.392006    0.019508
| 31> H        -3.555415    2.680640   -1.557827
| 32> H        -2.036155    2.174005   -2.049842
| 33> H         3.790882    2.333285    1.941212
| 34> H         2.242770    1.877362    2.385509
| 35> H        -0.739655   -2.750665    1.371970
| 36> H         0.739582   -2.761013   -1.355161
| 37> *
| 38>
| 39> $new_job
| 40> ! ri-mp2 aug-cc-pvtz aug-cc-pvtz/c tightscf
| 41> %pal nprocs 16 end
| 42> %maxcore 3800
| 43> %base "TZ_B-B_75_AB"
| 44>
| 45> *xyz 0 1
| 46> B         0.675569   -1.946431   -0.474515
| 47> B        -0.678605   -1.944104    0.483406
| 48> C        -1.894838   -1.003995    0.330157
| 49> C        -1.886730    0.031113   -0.608556
| 50> C        -3.026765   -1.153857    1.138659
| 51> C        -4.103696   -0.297843    0.999692
| 52> C        -4.073532    0.720365    0.064572
| 53> C        -2.959588    0.902649   -0.753114
| 54> H        -3.051735   -1.945959    1.874701
| 55> H        -4.979097   -0.416704    1.625046
| 56> C         1.890632   -1.002474   -0.329255
| 57> C         1.881396    0.041718    0.599534
| 58> C         3.025023   -1.161948   -1.132112
| 59> C         4.103425   -0.306919   -0.997580
| 60> C         4.071449    0.721137   -0.073470
| 61> C         2.956247    0.911103    0.740580
| 62> H         3.051387   -1.961699   -1.859749
| 63> H         4.980921   -0.434035   -1.618328
| 64> N        -2.946749    1.896902   -1.723301
| 65> N         2.902223    1.976785    1.631819
| 66> H        -1.016801    0.168716   -1.241317
| 67> H         1.007610    0.189420    1.224833
| 68> H        -4.923083    1.385207   -0.039289
| 69> H         4.917524    1.392006    0.019508
| 70> H        -3.555415    2.680640   -1.557827
| 71> H        -2.036155    2.174005   -2.049842
| 72> H         3.790882    2.333285    1.941212
| 73> H         2.242770    1.877362    2.385509
| 74> H        -0.739655   -2.750665    1.371970
| 75> H         0.739582   -2.761013   -1.355161
| 76> *
| 77>
| 78> $new_job
| 79> ! ri-mp2 aug-cc-pvqz aug-cc-pvqz/c tightscf
| 80> %pal nprocs 16 end
| 81> %maxcore 3800
| 82> %base "QZ_B-B_75_AB"
| 83>
| 84> *xyz 0 1
| 85> B         0.675569   -1.946431   -0.474515
| 86> B        -0.678605   -1.944104    0.483406
| 87> C        -1.894838   -1.003995    0.330157
| 88> C        -1.886730    0.031113   -0.608556
| 89> C        -3.026765   -1.153857    1.138659
| 90> C        -4.103696   -0.297843    0.999692
| 91> C        -4.073532    0.720365    0.064572
| 92> C        -2.959588    0.902649   -0.753114
| 93> H        -3.051735   -1.945959    1.874701
| 94> H        -4.979097   -0.416704    1.625046
| 95> C         1.890632   -1.002474   -0.329255
| 96> C         1.881396    0.041718    0.599534
| 97> C         3.025023   -1.161948   -1.132112
| 98> C         4.103425   -0.306919   -0.997580
| 99> C         4.071449    0.721137   -0.073470
|100> C         2.956247    0.911103    0.740580
|101> H         3.051387   -1.961699   -1.859749
|102> H         4.980921   -0.434035   -1.618328
|103> N        -2.946749    1.896902   -1.723301
|104> N         2.902223    1.976785    1.631819
|105> H        -1.016801    0.168716   -1.241317
|106> H         1.007610    0.189420    1.224833
|107> H        -4.923083    1.385207   -0.039289
|108> H         4.917524    1.392006    0.019508
|109> H        -3.555415    2.680640   -1.557827
|110> H        -2.036155    2.174005   -2.049842
|111> H         3.790882    2.333285    1.941212
|112> H         2.242770    1.877362    2.385509
|113> H        -0.739655   -2.750665    1.371970
|114> H         0.739582   -2.761013   -1.355161
|115> *
|116>
|117>
|118>
|119>
|120>                          ****END OF INPUT****
 Total Charge           Charge          ....    0
 Multiplicity           Mult            ....    1
 Number of Electrons    NEL             ....  110
MP2 TOTAL ENERGY:     -623.030645758 Eh
FINAL SINGLE POINT ENERGY      -623.030645758299
MP2 TOTAL ENERGY:     -623.573244504 Eh
FINAL SINGLE POINT ENERGY      -623.573244503633

CARTESIAN COORDINATES (ANGSTROEM)
---------------------------------
  B      0.675569   -1.946431   -0.474515
  B     -0.678605   -1.944104    0.483406
  C     -1.894838   -1.003995    0.330157
  C     -1.886730    0.031113   -0.608556
  C     -3.026765   -1.153857    1.138659
  C     -4.103696   -0.297843    0.999692
  C     -4.073532    0.720365    0.064572
  C     -2.959588    0.902649   -0.753114
  H     -3.051735   -1.945959    1.874701
  H     -4.979097   -0.416704    1.625046
  C      1.890632   -1.002474   -0.329255
  C      1.881396    0.041718    0.599534
  C      3.025023   -1.161948   -1.132112
  C      4.103425   -0.306919   -0.997580
  C      4.071449    0.721137   -0.073470
  C      2.956247    0.911103    0.740580
  H      3.051387   -1.961699   -1.859749
  H      4.980921   -0.434035   -1.618328
  N     -2.946749    1.896902   -1.723301
  N      2.902223    1.976785    1.631819
  H     -1.016801    0.168716   -1.241317
  H      1.007610    0.189420    1.224833
  H     -4.923083    1.385207   -0.039289
  H      4.917524    1.392006    0.019508
  H     -3.555415    2.680640   -1.557827
  H     -2.036155    2.174005   -2.049842
  H      3.790882    2.333285    1.941212
  H      2.242770    1.877362    2.385509
  H     -0.739655   -2.750665    1.371970
  H      0.739582   -2.761013   -1.355161

 Multiplicity           Mult            ....    1
 Number of Electrons    NEL             ....  110
 Basis Dimension        Dim             .... 1924

ORBITAL ENERGIES
----------------

  NO   OCC          E(Eh)            E(eV)
   0   2.0000     -15.564209      -423.5237
   1   2.0000     -15.562215      -423.4694
   2   2.0000     -11.274764      -306.8019
   3   2.0000     -11.273446      -306.7661
   4   2.0000     -11.231971      -305.6375
   5   2.0000     -11.230774      -305.6049
   6   2.0000     -11.230642      -305.6013
   7   2.0000     -11.229473      -305.5695
   8   2.0000     -11.226559      -305.4902
   9   2.0000     -11.225257      -305.4548
  10   2.0000     -11.221736      -305.3590
  11   2.0000     -11.220754      -305.3323
  12   2.0000     -11.209055      -305.0139
  13   2.0000     -11.208012      -304.9855
  14   2.0000      -7.563965      -205.8259
  15   2.0000      -7.563033      -205.8006
  16   2.0000      -1.229535       -33.4573
  17   2.0000      -1.227975       -33.4149
  18   2.0000      -1.130505       -30.7626
  19   2.0000      -1.129019       -30.7222
  20   2.0000      -1.017296       -27.6820
  21   2.0000      -1.013103       -27.5679
  22   2.0000      -0.990254       -26.9462
  23   2.0000      -0.988971       -26.9113
  24   2.0000      -0.839919       -22.8553
  25   2.0000      -0.836321       -22.7574
  26   2.0000      -0.820677       -22.3318
  27   2.0000      -0.813543       -22.1376
  28   2.0000      -0.733168       -19.9505
  29   2.0000      -0.708899       -19.2901
  30   2.0000      -0.692152       -18.8344
  31   2.0000      -0.690741       -18.7960
  32   2.0000      -0.669871       -18.2281
  33   2.0000      -0.657209       -17.8836
  34   2.0000      -0.648655       -17.6508
  35   2.0000      -0.614690       -16.7266
  36   2.0000      -0.605316       -16.4715
  37   2.0000      -0.594328       -16.1725
  38   2.0000      -0.590740       -16.0749
  39   2.0000      -0.585145       -15.9226
  40   2.0000      -0.545085       -14.8325
  41   2.0000      -0.538558       -14.6549
  42   2.0000      -0.537923       -14.6376
  43   2.0000      -0.525169       -14.2906
  44   2.0000      -0.502052       -13.6615
  45   2.0000      -0.496996       -13.5240
  46   2.0000      -0.462014       -12.5721
  47   2.0000      -0.459598       -12.5063
  48   2.0000      -0.450875       -12.2689
  49   2.0000      -0.447938       -12.1890
  50   2.0000      -0.403232       -10.9725
  51   2.0000      -0.344189        -9.3658
  52   2.0000      -0.341264        -9.2863
  53   2.0000      -0.297454        -8.0941
  54   2.0000      -0.295398        -8.0382
  55   0.0000       0.018946         0.5156
  56   0.0000       0.023626         0.6429
  57   0.0000       0.027082         0.7369
  58   0.0000       0.028262         0.7691
  59   0.0000       0.034150         0.9293

MULLIKEN ATOMIC CHARGES
-----------------------
   0 B :    0.911214
   1 B :    0.953239
   2 C :    0.210964
   3 C :   -0.502137
   4 C :   -0.549493
   5 C :   -0.401178
   6 C :   -0.417050
   7 C :    0.571631
   8 H :    0.240167
   9 H :    0.165747
  10 C :    0.201088
  11 C :   -0.531816
  12 C :   -0.542237
  13 C :   -0.391385
  14 C :   -0.405442
  15 C :    0.551233
  16 H :    0.248953
  17 H :    0.176022
  18 N :   -0.868282
  19 N :   -0.843975
  20 H :    0.293294
  21 H :    0.305354
  22 H :    0.315116
  23 H :    0.312273
  24 H :    0.262929
  25 H :    0.284070
  26 H :    0.244062
  27 H :    0.296464
  28 H :   -0.547241
  29 H :   -0.543584
Sum of atomic charges:   -0.0000000

LOEWDIN ATOMIC CHARGES
----------------------
   0 B :    0.001463
   1 B :    0.000889
   2 C :    0.034449
   3 C :    0.330441
   4 C :    0.321452
   5 C :    0.352632
   6 C :    0.347366
   7 C :   -0.220028
   8 H :   -0.330696
   9 H :   -0.318383
  10 C :    0.034809
  11 C :    0.329598
  12 C :    0.322048
  13 C :    0.353113
  14 C :    0.346959
  15 C :   -0.220982
  16 H :   -0.330325
  17 H :   -0.318111
  18 N :    1.276934
  19 N :    1.276348
  20 H :   -0.317618
  21 H :   -0.318245
  22 H :   -0.315934
  23 H :   -0.316001
  24 H :   -0.505859
  25 H :   -0.504567
  26 H :   -0.506573
  27 H :   -0.505457
  28 H :   -0.150008
  29 H :   -0.149713

  Mayer bond orders larger than 0.100000
B(  0-B ,  1-B ) :   1.2574 B(  0-B ,  3-C ) :   0.1124 B(  0-B , 10-C ) :   0.5526
B(  0-B , 28-H ) :  -0.1236 B(  0-B , 29-H ) :   0.5090 B(  1-B ,  2-C ) :   0.5818
B(  1-B , 28-H ) :   0.4871 B(  1-B , 29-H ) :  -0.1372 B(  2-C ,  3-C ) :   1.0052
B(  2-C ,  4-C ) :   0.7313 B(  2-C ,  5-C ) :  -0.5143 B(  2-C ,  6-C ) :  -0.1624
B(  2-C ,  7-C ) :  -0.4158 B(  2-C ,  8-H ) :  -0.1140 B(  2-C , 28-H ) :   0.2042
B(  3-C ,  7-C ) :   1.3904 B(  3-C , 18-N ) :  -0.1024 B(  3-C , 20-H ) :   0.8301
B(  4-C ,  5-C ) :   1.3876 B(  4-C ,  6-C ) :   0.2098 B(  4-C ,  8-H ) :   0.9907
B(  4-C ,  9-H ) :  -0.1827 B(  5-C ,  6-C ) :   1.2688 B(  5-C ,  7-C ) :  -0.1707
B(  5-C ,  9-H ) :   1.2849 B(  6-C ,  7-C ) :   1.1622 B(  6-C ,  9-H ) :  -0.1587
B(  6-C , 22-H ) :   0.9263 B(  7-C , 18-N ) :   0.6601 B(  7-C , 20-H ) :  -0.1119
B(  7-C , 22-H ) :  -0.1308 B( 10-C , 11-C ) :   0.9539 B( 10-C , 12-C ) :   0.7316
B( 10-C , 13-C ) :  -0.5146 B( 10-C , 14-C ) :  -0.1632 B( 10-C , 15-C ) :  -0.3885
B( 10-C , 16-H ) :  -0.1168 B( 10-C , 29-H ) :   0.2163 B( 11-C , 13-C ) :   0.1017
B( 11-C , 15-C ) :   1.3788 B( 11-C , 21-H ) :   0.8150 B( 12-C , 13-C ) :   1.3832
B( 12-C , 14-C ) :   0.2119 B( 12-C , 16-H ) :   0.9772 B( 12-C , 17-H ) :  -0.1811
B( 13-C , 14-C ) :   1.2739 B( 13-C , 15-C ) :  -0.1711 B( 13-C , 17-H ) :   1.2732
B( 14-C , 15-C ) :   1.1639 B( 14-C , 17-H ) :  -0.1619 B( 14-C , 23-H ) :   0.9279
B( 15-C , 19-N ) :   0.6796 B( 15-C , 21-H ) :  -0.1032 B( 15-C , 23-H ) :  -0.1261
B( 18-N , 24-H ) :   0.9550 B( 18-N , 25-H ) :   0.9131 B( 19-N , 26-H ) :   0.9759
B( 19-N , 27-H ) :   0.9012

MP2 TOTAL ENERGY:     -623.745769229 Eh
FINAL SINGLE POINT ENERGY      -623.745769228550

DIPOLE MOMENT
-------------
                                X             Y             Z
Electronic contribution:     -0.12769      -3.88075      -0.21866
Nuclear contribution   :      0.42824       5.05673       0.70914
                        -----------------------------------------
Total Dipole Moment    :      0.30056       1.17598       0.49048
                        -----------------------------------------
Magnitude (a.u.)       :      1.30913
Magnitude (Debye)      :      3.32755

Rotational constants in cm-1:     0.032106     0.008386     0.007888
Rotational constants in MHz :   962.501864   251.414810   236.471667

                             ****ORCA TERMINATED NORMALLY****
TOTAL RUN TIME: 0 days 3 hours 22 minutes 3 seconds 382 msec
