                         Program Version 5.0.4 -  RELEASE  -
|  1> ! ri-mp2 aug-cc-pvdz aug-cc-pvdz/c tightscf
|  2> %pal nprocs 16 end
|  3> %maxcore 3800
|  4> %base "DZ_P-C_70_AB"
|  5> %scf
|  6> STABPerform true
|  7> STABRestartUHFifUnstable true
|  8> end
|  9>
| 10> *xyz 0 1
| 11> C         1.741487   -0.192548    0.252980
| 12> P         0.234609   -1.085234   -0.309685
| 13> C        -1.145902    0.136831    0.017469
| 14> N        -0.853672    1.432504   -0.186132
| 15> O         1.955804    0.979374    0.070741
| 16> H         2.514041   -0.833222    0.721607
| 17> O        -2.233108   -0.300354    0.309473
| 18> H         0.109067    1.729581   -0.270091
| 19> H        -1.582830    2.108879   -0.024640
| 20> H         0.061206   -1.852119    0.856916
| 21> *
| 22>
| 23> $new_job
| 24> ! ri-mp2 aug-cc-pvtz aug-cc-pvtz/c tightscf
| 25> %pal nprocs 16 end
| 26> %maxcore 3800
| 27> %base "TZ_P-C_70_AB"
| 28>
| 29> *xyz 0 1
| 30> C         1.741487   -0.192548    0.252980
| 31> P         0.234609   -1.085234   -0.309685
| 32> C        -1.145902    0.136831    0.017469
| 33> N        -0.853672    1.432504   -0.186132
| 34> O         1.955804    0.979374    0.070741
| 35> H         2.514041   -0.833222    0.721607
| 36> O        -2.233108   -0.300354    0.309473
| 37> H         0.109067    1.729581   -0.270091
| 38> H        -1.582830    2.108879   -0.024640
| 39> H         0.061206   -1.852119    0.856916
| 40> *
| 41>
| 42> $new_job
| 43> ! ri-mp2 aug-cc-pvqz aug-cc-pvqz/c tightscf
| 44> %pal nprocs 16 end
| 45> %maxcore 3800
| 46> %base "QZ_P-C_70_AB"
| 47>
| 48> *xyz 0 1
| 49> C         1.741487   -0.192548    0.252980
| 50> P         0.234609   -1.085234   -0.309685
| 51> C        -1.145902    0.136831    0.017469
| 52> N        -0.853672    1.432504   -0.186132
| 53> O         1.955804    0.979374    0.070741
| 54> H         2.514041   -0.833222    0.721607
| 55> O        -2.233108   -0.300354    0.309473
| 56> H         0.109067    1.729581   -0.270091
| 57> H        -1.582830    2.108879   -0.024640
| 58> H         0.061206   -1.852119    0.856916
| 59> *
| 60>
| 61>
| 62>
| 63>
| 64>                          ****END OF INPUT****
 Total Charge           Charge          ....    0
 Multiplicity           Mult            ....    1
 Number of Electrons    NEL             ....   54
MP2 TOTAL ENERGY:     -623.968667108 Eh
FINAL SINGLE POINT ENERGY      -623.968667108496
MP2 TOTAL ENERGY:     -624.248539635 Eh
FINAL SINGLE POINT ENERGY      -624.248539634816

CARTESIAN COORDINATES (ANGSTROEM)
---------------------------------
  C      1.741487   -0.192548    0.252980
  P      0.234609   -1.085234   -0.309685
  C     -1.145902    0.136831    0.017469
  N     -0.853672    1.432504   -0.186132
  O      1.955804    0.979374    0.070741
  H      2.514041   -0.833222    0.721607
  O     -2.233108   -0.300354    0.309473
  H      0.109067    1.729581   -0.270091
  H     -1.582830    2.108879   -0.024640
  H      0.061206   -1.852119    0.856916

 Multiplicity           Mult            ....    1
 Number of Electrons    NEL             ....   54
 Basis Dimension        Dim             ....  668

ORBITAL ENERGIES
----------------

  NO   OCC          E(Eh)            E(eV)
   0   2.0000     -79.978805     -2176.3339
   1   2.0000     -20.593287      -560.3718
   2   2.0000     -20.537701      -558.8592
   3   2.0000     -15.592351      -424.2895
   4   2.0000     -11.371273      -309.4281
   5   2.0000     -11.366219      -309.2906
   6   2.0000      -7.523195      -204.7165
   7   2.0000      -5.417034      -147.4050
   8   2.0000      -5.416785      -147.3982
   9   2.0000      -5.416064      -147.3786
  10   2.0000      -1.433193       -38.9992
  11   2.0000      -1.403628       -38.1947
  12   2.0000      -1.228705       -33.4348
  13   2.0000      -0.965052       -26.2604
  14   2.0000      -0.849497       -23.1160
  15   2.0000      -0.796460       -21.6728
  16   2.0000      -0.725583       -19.7441
  17   2.0000      -0.695125       -18.9153
  18   2.0000      -0.675747       -18.3880
  19   2.0000      -0.635616       -17.2960
  20   2.0000      -0.604779       -16.4569
  21   2.0000      -0.569288       -15.4911
  22   2.0000      -0.565241       -15.3810
  23   2.0000      -0.477588       -12.9958
  24   2.0000      -0.430511       -11.7148
  25   2.0000      -0.419190       -11.4067
  26   2.0000      -0.389543       -10.6000
  27   0.0000       0.021548         0.5863
  28   0.0000       0.029586         0.8051
  29   0.0000       0.041496         1.1292
  30   0.0000       0.047712         1.2983
  31   0.0000       0.051641         1.4052

MULLIKEN ATOMIC CHARGES
-----------------------
   0 C :   -0.158487
   1 P :    0.657839
   2 C :    0.533454
   3 N :   -0.665557
   4 O :   -0.752887
   5 H :    0.558704
   6 O :   -0.743423
   7 H :    0.398613
   8 H :    0.213443
   9 H :   -0.041699
Sum of atomic charges:    0.0000000

LOEWDIN ATOMIC CHARGES
----------------------
   0 C :   -0.445113
   1 P :    1.189758
   2 C :   -1.067962
   3 N :    1.153458
   4 O :    0.674599
   5 H :   -0.431824
   6 O :    0.586678
   7 H :   -0.701648
   8 H :   -0.492933
   9 H :   -0.465012

  Mayer bond orders larger than 0.100000
B(  0-C ,  1-P ) :   0.9074 B(  0-C ,  4-O ) :   1.6704 B(  0-C ,  5-H ) :   0.6321
B(  1-P ,  2-C ) :   0.8352 B(  1-P ,  9-H ) :   0.9522 B(  2-C ,  3-N ) :   1.1411
B(  2-C ,  6-O ) :   1.4876 B(  3-N ,  6-O ) :   0.1376 B(  3-N ,  7-H ) :   0.8409
B(  3-N ,  8-H ) :   1.0057

MP2 TOTAL ENERGY:     -624.342113474 Eh
FINAL SINGLE POINT ENERGY      -624.342113474455

DIPOLE MOMENT
-------------
                                X             Y             Z
Electronic contribution:      0.11590      -2.12282      -1.34823
Nuclear contribution   :      0.83875       2.12982       1.52909
                        -----------------------------------------
Total Dipole Moment    :      0.95465       0.00700       0.18086
                        -----------------------------------------
Magnitude (a.u.)       :      0.97166
Magnitude (Debye)      :      2.46976

Rotational constants in cm-1:     0.166543     0.076190     0.054659
Rotational constants in MHz :  4992.831086  2284.118184  1638.644636

                             ****ORCA TERMINATED NORMALLY****
TOTAL RUN TIME: 0 days 0 hours 34 minutes 41 seconds 840 msec
