                         Program Version 5.0.4 -  RELEASE  -
|  1> ! ri-mp2 aug-cc-pvdz aug-cc-pvdz/c tightscf
|  2> %pal nprocs 16 end
|  3> %maxcore 3800
|  4> %base "DZ_B-B_1_A"
|  5> %scf
|  6> STABPerform true
|  7> STABRestartUHFifUnstable true
|  8> end
|  9>
| 10> *xyz 0 2
| 11> B         0.000000    0.567258    0.000000
| 12> C         1.392834   -0.097812   -0.011337
| 13> H         1.395599   -1.090847   -0.474909
| 14> H         1.655256   -0.246160    1.045411
| 15> H         2.189411    0.505733   -0.444364
| 16> C        -1.392834   -0.097812    0.011337
| 17> H        -1.655257   -0.246158   -1.045411
| 18> H        -2.189410    0.505732    0.444365
| 19> H        -1.395598   -1.090848    0.474908
| 20> *
| 21>
| 22> $new_job
| 23> ! ri-mp2 aug-cc-pvtz aug-cc-pvtz/c tightscf
| 24> %pal nprocs 16 end
| 25> %maxcore 3800
| 26> %base "TZ_B-B_1_A"
| 27>
| 28> *xyz 0 2
| 29> B         0.000000    0.567258    0.000000
| 30> C         1.392834   -0.097812   -0.011337
| 31> H         1.395599   -1.090847   -0.474909
| 32> H         1.655256   -0.246160    1.045411
| 33> H         2.189411    0.505733   -0.444364
| 34> C        -1.392834   -0.097812    0.011337
| 35> H        -1.655257   -0.246158   -1.045411
| 36> H        -2.189410    0.505732    0.444365
| 37> H        -1.395598   -1.090848    0.474908
| 38> *
| 39>
| 40> $new_job
| 41> ! ri-mp2 aug-cc-pvqz aug-cc-pvqz/c tightscf
| 42> %pal nprocs 16 end
| 43> %maxcore 3800
| 44> %base "QZ_B-B_1_A"
| 45>
| 46> *xyz 0 2
| 47> B         0.000000    0.567258    0.000000
| 48> C         1.392834   -0.097812   -0.011337
| 49> H         1.395599   -1.090847   -0.474909
| 50> H         1.655256   -0.246160    1.045411
| 51> H         2.189411    0.505733   -0.444364
| 52> C        -1.392834   -0.097812    0.011337
| 53> H        -1.655257   -0.246158   -1.045411
| 54> H        -2.189410    0.505732    0.444365
| 55> H        -1.395598   -1.090848    0.474908
| 56> *
| 57>
| 58>
| 59>
| 60>
| 61>                          ****END OF INPUT****
 Total Charge           Charge          ....    0
 Multiplicity           Mult            ....    2
 Number of Electrons    NEL             ....   23
MP2 TOTAL ENERGY:     -104.233531113 Eh
FINAL SINGLE POINT ENERGY      -104.233531112756
MP2 TOTAL ENERGY:     -104.333986438 Eh
FINAL SINGLE POINT ENERGY      -104.333986437721

CARTESIAN COORDINATES (ANGSTROEM)
---------------------------------
  B      0.000000    0.567258    0.000000
  C      1.392834   -0.097812   -0.011337
  H      1.395599   -1.090847   -0.474909
  H      1.655256   -0.246160    1.045411
  H      2.189411    0.505733   -0.444364
  C     -1.392834   -0.097812    0.011337
  H     -1.655257   -0.246158   -1.045411
  H     -2.189410    0.505732    0.444365
  H     -1.395598   -1.090848    0.474908

 Multiplicity           Mult            ....    2
 Number of Electrons    NEL             ....   23
 Basis Dimension        Dim             ....  516

ORBITAL ENERGIES
----------------
                 SPIN UP ORBITALS
  NO   OCC          E(Eh)            E(eV)
   0   1.0000     -11.198560      -304.7283
   1   1.0000     -11.198550      -304.7280
   2   1.0000      -7.606886      -206.9939
   3   1.0000      -0.975726       -26.5509
   4   1.0000      -0.934338       -25.4246
   5   1.0000      -0.618402       -16.8276
   6   1.0000      -0.579601       -15.7718
   7   1.0000      -0.563674       -15.3383
   8   1.0000      -0.547912       -14.9094
   9   1.0000      -0.535136       -14.5618
  10   1.0000      -0.477709       -12.9991
  11   1.0000      -0.299254        -8.1431
  12   0.0000       0.024059         0.6547
  13   0.0000       0.034275         0.9327
  14   0.0000       0.035320         0.9611
  15   0.0000       0.036459         0.9921
  16   0.0000       0.054257         1.4764

                 SPIN DOWN ORBITALS
  NO   OCC          E(Eh)            E(eV)
   0   1.0000     -11.198209      -304.7187
   1   1.0000     -11.198195      -304.7184
   2   1.0000      -7.589827      -206.5297
   3   1.0000      -0.964582       -26.2476
   4   1.0000      -0.931069       -25.3357
   5   1.0000      -0.588698       -16.0193
   6   1.0000      -0.561331       -15.2746
   7   1.0000      -0.553578       -15.0636
   8   1.0000      -0.539806       -14.6889
   9   1.0000      -0.533493       -14.5171
  10   1.0000      -0.467906       -12.7324
  11   0.0000       0.021456         0.5838
  12   0.0000       0.034709         0.9445
  13   0.0000       0.035653         0.9702
  14   0.0000       0.036697         0.9986
  15   0.0000       0.054363         1.4793

MULLIKEN ATOMIC CHARGES AND SPIN POPULATIONS
--------------------------------------------
   0 B :    0.228159    1.051251
   1 C :   -0.993302   -0.056743
   2 H :    0.287380    0.040613
   3 H :    0.263349   -0.003632
   4 H :    0.328494   -0.005863
   5 C :   -0.993302   -0.056743
   6 H :    0.263349   -0.003632
   7 H :    0.328494   -0.005863
   8 H :    0.287380    0.040613
Sum of atomic charges         :   -0.0000000

LOEWDIN ATOMIC CHARGES AND SPIN POPULATIONS
-------------------------------------------
   0 B :    0.020822    0.525945
   1 C :    0.992154    0.165423
   2 H :   -0.322800    0.021926
   3 H :   -0.335260    0.020124
   4 H :   -0.344505    0.029554
   5 C :    0.992154    0.165423
   6 H :   -0.335260    0.020124
   7 H :   -0.344506    0.029554
   8 H :   -0.322799    0.021926

  Mayer bond orders larger than 0.100000
B(  0-B ,  1-C ) :   1.0075 B(  0-B ,  5-C ) :   1.0075 B(  1-C ,  2-H ) :   0.8952
B(  1-C ,  3-H ) :   0.9032 B(  1-C ,  4-H ) :   0.9008 B(  5-C ,  6-H ) :   0.9032
B(  5-C ,  7-H ) :   0.9008 B(  5-C ,  8-H ) :   0.8952

MP2 TOTAL ENERGY:     -104.363868866 Eh
FINAL SINGLE POINT ENERGY      -104.363868865965

DIPOLE MOMENT
-------------
                                X             Y             Z
Electronic contribution:     -0.00000       1.87181      -0.00000
Nuclear contribution   :      0.00000      -2.23971       0.00000
                        -----------------------------------------
Total Dipole Moment    :     -0.00000      -0.36791      -0.00000
                        -----------------------------------------
Magnitude (a.u.)       :      0.36791
Magnitude (Debye)      :      0.93515

Rotational constants in cm-1:     1.738800     0.245112     0.232991
Rotational constants in MHz : 52127.922190  7348.266322  6984.890613

                             ****ORCA TERMINATED NORMALLY****
TOTAL RUN TIME: 0 days 0 hours 14 minutes 49 seconds 205 msec
