                         Program Version 5.0.4 -  RELEASE  -
|  1> ! ri-mp2 aug-cc-pvdz aug-cc-pvdz/c tightscf
|  2> %pal nprocs 16 end
|  3> %maxcore 3800
|  4> %base "DZ_B-P_1_A"
|  5> %scf
|  6> STABPerform true
|  7> STABRestartUHFifUnstable true
|  8> end
|  9>
| 10> *xyz 0 2
| 11> P         1.841340   -0.039165   -0.076486
| 12> C        -2.376774    0.069554    0.010511
| 13> C         0.107190    0.570052    0.083893
| 14> C        -0.969019   -0.500537   -0.081449
| 15> H        -0.030078    1.355494   -0.663052
| 16> H         0.000391    1.051068    1.061327
| 17> H        -0.830604   -1.268010    0.683727
| 18> H        -0.838139   -1.002056   -1.043314
| 19> H        -2.548900    0.817864   -0.765083
| 20> H        -2.543162    0.549857    0.976426
| 21> H        -3.128447   -0.711566   -0.107632
| 22> H         1.730447   -1.039592    0.927157
| 23> *
| 24>
| 25> $new_job
| 26> ! ri-mp2 aug-cc-pvtz aug-cc-pvtz/c tightscf
| 27> %pal nprocs 16 end
| 28> %maxcore 3800
| 29> %base "TZ_B-P_1_A"
| 30>
| 31> *xyz 0 2
| 32> P         1.841340   -0.039165   -0.076486
| 33> C        -2.376774    0.069554    0.010511
| 34> C         0.107190    0.570052    0.083893
| 35> C        -0.969019   -0.500537   -0.081449
| 36> H        -0.030078    1.355494   -0.663052
| 37> H         0.000391    1.051068    1.061327
| 38> H        -0.830604   -1.268010    0.683727
| 39> H        -0.838139   -1.002056   -1.043314
| 40> H        -2.548900    0.817864   -0.765083
| 41> H        -2.543162    0.549857    0.976426
| 42> H        -3.128447   -0.711566   -0.107632
| 43> H         1.730447   -1.039592    0.927157
| 44> *
| 45>
| 46> $new_job
| 47> ! ri-mp2 aug-cc-pvqz aug-cc-pvqz/c tightscf
| 48> %pal nprocs 16 end
| 49> %maxcore 3800
| 50> %base "QZ_B-P_1_A"
| 51>
| 52> *xyz 0 2
| 53> P         1.841340   -0.039165   -0.076486
| 54> C        -2.376774    0.069554    0.010511
| 55> C         0.107190    0.570052    0.083893
| 56> C        -0.969019   -0.500537   -0.081449
| 57> H        -0.030078    1.355494   -0.663052
| 58> H         0.000391    1.051068    1.061327
| 59> H        -0.830604   -1.268010    0.683727
| 60> H        -0.838139   -1.002056   -1.043314
| 61> H        -2.548900    0.817864   -0.765083
| 62> H        -2.543162    0.549857    0.976426
| 63> H        -3.128447   -0.711566   -0.107632
| 64> H         1.730447   -1.039592    0.927157
| 65> *
| 66>
| 67>
| 68>
| 69>
| 70>                          ****END OF INPUT****
 Total Charge           Charge          ....    0
 Multiplicity           Mult            ....    2
 Number of Electrons    NEL             ....   41
MP2 TOTAL ENERGY:     -459.550686184 Eh
FINAL SINGLE POINT ENERGY      -459.550686184275
MP2 TOTAL ENERGY:     -459.706759089 Eh
FINAL SINGLE POINT ENERGY      -459.706759088641

CARTESIAN COORDINATES (ANGSTROEM)
---------------------------------
  P      1.841340   -0.039165   -0.076486
  C     -2.376774    0.069554    0.010511
  C      0.107190    0.570052    0.083893
  C     -0.969019   -0.500537   -0.081449
  H     -0.030078    1.355494   -0.663052
  H      0.000391    1.051068    1.061327
  H     -0.830604   -1.268010    0.683727
  H     -0.838139   -1.002056   -1.043314
  H     -2.548900    0.817864   -0.765083
  H     -2.543162    0.549857    0.976426
  H     -3.128447   -0.711566   -0.107632
  H      1.730447   -1.039592    0.927157

 Multiplicity           Mult            ....    2
 Number of Electrons    NEL             ....   41
 Basis Dimension        Dim             ....  692

ORBITAL ENERGIES
----------------
                 SPIN UP ORBITALS
  NO   OCC          E(Eh)            E(eV)
   0   1.0000     -79.940977     -2175.3046
   1   1.0000     -11.229922      -305.5817
   2   1.0000     -11.228514      -305.5434
   3   1.0000     -11.215962      -305.2018
   4   1.0000      -7.484172      -203.6547
   5   1.0000      -5.389089      -146.6446
   6   1.0000      -5.375015      -146.2616
   7   1.0000      -5.373246      -146.2135
   8   1.0000      -1.072393       -29.1813
   9   1.0000      -0.955639       -26.0043
  10   1.0000      -0.830618       -22.6023
  11   1.0000      -0.775113       -21.0919
  12   1.0000      -0.643805       -17.5188
  13   1.0000      -0.586612       -15.9625
  14   1.0000      -0.555908       -15.1270
  15   1.0000      -0.545412       -14.8414
  16   1.0000      -0.495643       -13.4871
  17   1.0000      -0.483081       -13.1453
  18   1.0000      -0.467917       -12.7327
  19   1.0000      -0.392202       -10.6724
  20   1.0000      -0.347839        -9.4652
  21   0.0000       0.026236         0.7139
  22   0.0000       0.034425         0.9367
  23   0.0000       0.035266         0.9596
  24   0.0000       0.037026         1.0075
  25   0.0000       0.052874         1.4388

                 SPIN DOWN ORBITALS
  NO   OCC          E(Eh)            E(eV)
   0   1.0000     -79.934013     -2175.1151
   1   1.0000     -11.231032      -305.6119
   2   1.0000     -11.227620      -305.5191
   3   1.0000     -11.215869      -305.1993
   4   1.0000      -7.475613      -203.4218
   5   1.0000      -5.370357      -146.1348
   6   1.0000      -5.369984      -146.1247
   7   1.0000      -5.356126      -145.7476
   8   1.0000      -1.068936       -29.0872
   9   1.0000      -0.946711       -25.7613
  10   1.0000      -0.818637       -22.2762
  11   1.0000      -0.729697       -19.8561
  12   1.0000      -0.640892       -17.4396
  13   1.0000      -0.584176       -15.8962
  14   1.0000      -0.550147       -14.9703
  15   1.0000      -0.540062       -14.6958
  16   1.0000      -0.491164       -13.3653
  17   1.0000      -0.481172       -13.0933
  18   1.0000      -0.463061       -12.6005
  19   1.0000      -0.373927       -10.1751
  20   0.0000       0.026433         0.7193
  21   0.0000       0.030178         0.8212
  22   0.0000       0.035259         0.9594
  23   0.0000       0.037085         1.0091
  24   0.0000       0.043697         1.1890

MULLIKEN ATOMIC CHARGES AND SPIN POPULATIONS
--------------------------------------------
   0 P :    0.174763    1.130621
   1 C :   -0.834033    0.004969
   2 C :   -0.593959   -0.095791
   3 C :   -0.373641    0.007570
   4 H :    0.268836   -0.001816
   5 H :    0.222585    0.019561
   6 H :    0.239824   -0.008404
   7 H :    0.275389   -0.003388
   8 H :    0.224611   -0.000207
   9 H :    0.224471    0.000718
  10 H :    0.270946    0.000050
  11 H :   -0.099792   -0.053882
Sum of atomic charges         :   -0.0000000

LOEWDIN ATOMIC CHARGES AND SPIN POPULATIONS
-------------------------------------------
   0 P :    1.309140    0.585569
   1 C :    0.914929    0.003189
   2 C :    0.179235    0.163973
   3 C :    0.388346    0.026426
   4 H :   -0.387423    0.007504
   5 H :   -0.368343    0.025362
   6 H :   -0.304168    0.003939
   7 H :   -0.294965    0.013902
   8 H :   -0.286882    0.000262
   9 H :   -0.286501    0.000429
  10 H :   -0.283370    0.000529
  11 H :   -0.579998    0.168916

  Mayer bond orders larger than 0.100000
B(  0-P ,  2-C ) :   0.8548 B(  0-P , 11-H ) :   0.9407 B(  1-C ,  3-C ) :   0.9457
B(  1-C ,  8-H ) :   0.9565 B(  1-C ,  9-H ) :   0.9544 B(  1-C , 10-H ) :   0.9695
B(  2-C ,  3-C ) :   0.9021 B(  2-C ,  4-H ) :   0.9249 B(  2-C ,  5-H ) :   0.9382
B(  3-C ,  6-H ) :   0.8763 B(  3-C ,  7-H ) :   0.8562

MP2 TOTAL ENERGY:     -459.753709228 Eh
FINAL SINGLE POINT ENERGY      -459.753709228031

DIPOLE MOMENT
-------------
                                X             Y             Z
Electronic contribution:      9.62472       0.22059      -0.99188
Nuclear contribution   :    -10.19773      -0.21503       1.17177
                        -----------------------------------------
Total Dipole Moment    :     -0.57301       0.00556       0.17989
                        -----------------------------------------
Magnitude (a.u.)       :      0.60061
Magnitude (Debye)      :      1.52663

Rotational constants in cm-1:     0.799697     0.077967     0.074728
Rotational constants in MHz : 23974.315259  2337.383161  2240.275931

                             ****ORCA TERMINATED NORMALLY****
TOTAL RUN TIME: 0 days 1 hours 15 minutes 28 seconds 662 msec
