                         Program Version 5.0.4 -  RELEASE  -
|  1> ! ri-mp2 aug-cc-pvdz aug-cc-pvdz/c tightscf
|  2> %pal nprocs 16 end
|  3> %maxcore 3800
|  4> %base "DZ_B-Cl_24_AB"
|  5> %scf
|  6> STABPerform true
|  7> STABRestartUHFifUnstable true
|  8> end
|  9>
| 10> *xyz 0 1
| 11> Cl        -1.148878   -1.511119   -0.019767
| 12> Cl        -1.148868    1.511124   -0.019766
| 13> B        -0.306776   -0.000000    0.000971
| 14> C         1.275952   -0.000006    0.111401
| 15> O         1.837473   -0.000004    1.172837
| 16> O         1.920607   -0.000002   -1.062846
| 17> H         2.875201   -0.000003   -0.881137
| 18> *
| 19>
| 20> $new_job
| 21> ! ri-mp2 aug-cc-pvtz aug-cc-pvtz/c tightscf
| 22> %pal nprocs 16 end
| 23> %maxcore 3800
| 24> %base "TZ_B-Cl_24_AB"
| 25>
| 26> *xyz 0 1
| 27> Cl        -1.148878   -1.511119   -0.019767
| 28> Cl        -1.148868    1.511124   -0.019766
| 29> B        -0.306776   -0.000000    0.000971
| 30> C         1.275952   -0.000006    0.111401
| 31> O         1.837473   -0.000004    1.172837
| 32> O         1.920607   -0.000002   -1.062846
| 33> H         2.875201   -0.000003   -0.881137
| 34> *
| 35>
| 36> $new_job
| 37> ! ri-mp2 aug-cc-pvqz aug-cc-pvqz/c tightscf
| 38> %pal nprocs 16 end
| 39> %maxcore 3800
| 40> %base "QZ_B-Cl_24_AB"
| 41>
| 42> *xyz 0 1
| 43> Cl        -1.148878   -1.511119   -0.019767
| 44> Cl        -1.148868    1.511124   -0.019766
| 45> B        -0.306776   -0.000000    0.000971
| 46> C         1.275952   -0.000006    0.111401
| 47> O         1.837473   -0.000004    1.172837
| 48> O         1.920607   -0.000002   -1.062846
| 49> H         2.875201   -0.000003   -0.881137
| 50> *
| 51>
| 52>
| 53>
| 54>
| 55>                          ****END OF INPUT****
 Total Charge           Charge          ....    0
 Multiplicity           Mult            ....    1
 Number of Electrons    NEL             ....   62
MP2 TOTAL ENERGY:    -1132.891883255 Eh
FINAL SINGLE POINT ENERGY     -1132.891883254757
MP2 TOTAL ENERGY:    -1133.187230734 Eh
FINAL SINGLE POINT ENERGY     -1133.187230734118

CARTESIAN COORDINATES (ANGSTROEM)
---------------------------------
  Cl    -1.148878   -1.511119   -0.019767
  Cl    -1.148868    1.511124   -0.019766
  B     -0.306776   -0.000000    0.000971
  C      1.275952   -0.000006    0.111401
  O      1.837473   -0.000004    1.172837
  O      1.920607   -0.000002   -1.062846
  H      2.875201   -0.000003   -0.881137

 Multiplicity           Mult            ....    1
 Number of Electrons    NEL             ....   62
 Basis Dimension        Dim             ....  534

ORBITAL ENERGIES
----------------

  NO   OCC          E(Eh)            E(eV)
   0   2.0000    -104.865954     -2853.5477
   1   2.0000    -104.865954     -2853.5477
   2   2.0000     -20.630936      -561.3963
   3   2.0000     -20.570103      -559.7410
   4   2.0000     -11.390478      -309.9507
   5   2.0000     -10.593637      -288.2675
   6   2.0000     -10.593628      -288.2673
   7   2.0000      -8.060459      -219.3362
   8   2.0000      -8.060458      -219.3362
   9   2.0000      -8.059328      -219.3055
  10   2.0000      -8.059326      -219.3054
  11   2.0000      -8.059038      -219.2976
  12   2.0000      -8.059038      -219.2976
  13   2.0000      -7.742628      -210.6876
  14   2.0000      -1.486385       -40.4466
  15   2.0000      -1.383815       -37.6555
  16   2.0000      -1.170316       -31.8459
  17   2.0000      -1.126706       -30.6592
  18   2.0000      -0.905098       -24.6290
  19   2.0000      -0.754309       -20.5258
  20   2.0000      -0.722217       -19.6525
  21   2.0000      -0.667060       -18.1516
  22   2.0000      -0.656921       -17.8757
  23   2.0000      -0.604801       -16.4575
  24   2.0000      -0.592632       -16.1263
  25   2.0000      -0.541517       -14.7354
  26   2.0000      -0.517732       -14.0882
  27   2.0000      -0.505845       -13.7647
  28   2.0000      -0.487356       -13.2616
  29   2.0000      -0.478553       -13.0221
  30   2.0000      -0.450066       -12.2469
  31   0.0000       0.025192         0.6855
  32   0.0000       0.035399         0.9633
  33   0.0000       0.040253         1.0953
  34   0.0000       0.040833         1.1111
  35   0.0000       0.056585         1.5398

MULLIKEN ATOMIC CHARGES
-----------------------
   0 Cl:   -0.171699
   1 Cl:   -0.171697
   2 B :    0.585494
   3 C :    0.892861
   4 O :   -0.754870
   5 O :   -0.714560
   6 H :    0.334471
Sum of atomic charges:    0.0000000

LOEWDIN ATOMIC CHARGES
----------------------
   0 Cl:    1.278054
   1 Cl:    1.278055
   2 B :   -2.455958
   3 C :   -1.158814
   4 O :    0.659679
   5 O :    1.205764
   6 H :   -0.806780

  Mayer bond orders larger than 0.100000
B(  0-Cl,  2-B ) :   1.1059 B(  1-Cl,  2-B ) :   1.1059 B(  2-B ,  3-C ) :   0.9241
B(  3-C ,  4-O ) :   1.5315 B(  3-C ,  5-O ) :   0.8773 B(  5-O ,  6-H ) :   0.9064

MP2 TOTAL ENERGY:    -1133.287996953 Eh
FINAL SINGLE POINT ENERGY     -1133.287996953306

DIPOLE MOMENT
-------------
                                X             Y             Z
Electronic contribution:     -5.86515       0.00001       0.13065
Nuclear contribution   :      5.94356      -0.00001      -0.75674
                        -----------------------------------------
Total Dipole Moment    :      0.07841      -0.00000      -0.62609
                        -----------------------------------------
Magnitude (a.u.)       :      0.63098
Magnitude (Debye)      :      1.60383

Rotational constants in cm-1:     0.083079     0.061026     0.042447
Rotational constants in MHz :  2490.631048  1829.518681  1272.515020

                             ****ORCA TERMINATED NORMALLY****
TOTAL RUN TIME: 0 days 0 hours 13 minutes 33 seconds 126 msec
