                         Program Version 5.0.4 -  RELEASE  -
|  1> ! ri-mp2 aug-cc-pvdz aug-cc-pvdz/c tightscf
|  2> %pal nprocs 16 end
|  3> %maxcore 3800
|  4> %base "DZ_B-B_43_A"
|  5> %scf
|  6> STABPerform true
|  7> STABRestartUHFifUnstable true
|  8> end
|  9>
| 10> *xyz 0 2
| 11> B         1.972632   -0.215093    0.000002
| 12> N         0.632417    0.079200   -0.000002
| 13> C        -0.563018    0.010547   -0.000001
| 14> O        -1.722405   -0.013452    0.000001
| 15> H         2.867272    0.565399    0.000005
| 16> *
| 17>
| 18> $new_job
| 19> ! ri-mp2 aug-cc-pvtz aug-cc-pvtz/c tightscf
| 20> %pal nprocs 16 end
| 21> %maxcore 3800
| 22> %base "TZ_B-B_43_A"
| 23>
| 24> *xyz 0 2
| 25> B         1.972632   -0.215093    0.000002
| 26> N         0.632417    0.079200   -0.000002
| 27> C        -0.563018    0.010547   -0.000001
| 28> O        -1.722405   -0.013452    0.000001
| 29> H         2.867272    0.565399    0.000005
| 30> *
| 31>
| 32> $new_job
| 33> ! ri-mp2 aug-cc-pvqz aug-cc-pvqz/c tightscf
| 34> %pal nprocs 16 end
| 35> %maxcore 3800
| 36> %base "QZ_B-B_43_A"
| 37>
| 38> *xyz 0 2
| 39> B         1.972632   -0.215093    0.000002
| 40> N         0.632417    0.079200   -0.000002
| 41> C        -0.563018    0.010547   -0.000001
| 42> O        -1.722405   -0.013452    0.000001
| 43> H         2.867272    0.565399    0.000005
| 44> *
| 45>
| 46>
| 47>
| 48>
| 49>                          ****END OF INPUT****
 Total Charge           Charge          ....    0
 Multiplicity           Mult            ....    2
 Number of Electrons    NEL             ....   27
MP2 TOTAL ENERGY:     -192.980742254 Eh
FINAL SINGLE POINT ENERGY      -192.980742254337
MP2 TOTAL ENERGY:     -193.139337509 Eh
FINAL SINGLE POINT ENERGY      -193.139337508684

CARTESIAN COORDINATES (ANGSTROEM)
---------------------------------
  B      1.972632   -0.215093    0.000002
  N      0.632417    0.079200   -0.000002
  C     -0.563018    0.010547   -0.000001
  O     -1.722405   -0.013452    0.000001
  H      2.867272    0.565399    0.000005

 Multiplicity           Mult            ....    2
 Number of Electrons    NEL             ....   27
 Basis Dimension        Dim             ....  366

ORBITAL ENERGIES
----------------
                 SPIN UP ORBITALS
  NO   OCC          E(Eh)            E(eV)
   0   1.0000     -20.630904      -561.3954
   1   1.0000     -15.602726      -424.5718
   2   1.0000     -11.426819      -310.9396
   3   1.0000      -7.669691      -208.7029
   4   1.0000      -1.491291       -40.5801
   5   1.0000      -1.283387       -34.9227
   6   1.0000      -0.890743       -24.2383
   7   1.0000      -0.748945       -20.3798
   8   1.0000      -0.687322       -18.7030
   9   1.0000      -0.669475       -18.2174
  10   1.0000      -0.609580       -16.5875
  11   1.0000      -0.514942       -14.0123
  12   1.0000      -0.488030       -13.2800
  13   1.0000      -0.328106        -8.9282
  14   0.0000       0.028121         0.7652
  15   0.0000       0.028834         0.7846
  16   0.0000       0.035515         0.9664
  17   0.0000       0.036659         0.9976
  18   0.0000       0.060899         1.6571

                 SPIN DOWN ORBITALS
  NO   OCC          E(Eh)            E(eV)
   0   1.0000     -20.627980      -561.3159
   1   1.0000     -15.606024      -424.6615
   2   1.0000     -11.424609      -310.8794
   3   1.0000      -7.650984      -208.1939
   4   1.0000      -1.485333       -40.4180
   5   1.0000      -1.282930       -34.9103
   6   1.0000      -0.874276       -23.7903
   7   1.0000      -0.743981       -20.2448
   8   1.0000      -0.669401       -18.2153
   9   1.0000      -0.666987       -18.1496
  10   1.0000      -0.581437       -15.8217
  11   1.0000      -0.491619       -13.3776
  12   1.0000      -0.482845       -13.1389
  13   0.0000       0.026516         0.7215
  14   0.0000       0.032238         0.8773
  15   0.0000       0.034203         0.9307
  16   0.0000       0.036308         0.9880
  17   0.0000       0.066725         1.8157

MULLIKEN ATOMIC CHARGES AND SPIN POPULATIONS
--------------------------------------------
   0 B :    0.349973    0.941574
   1 N :   -0.735468   -0.087799
   2 C :    1.061491    0.066396
   3 O :   -0.543266    0.053597
   4 H :   -0.132729    0.026232
Sum of atomic charges         :   -0.0000000

LOEWDIN ATOMIC CHARGES AND SPIN POPULATIONS
-------------------------------------------
   0 B :    0.051748    0.550019
   1 N :    0.437349    0.153616
   2 C :   -0.779373    0.066467
   3 O :    0.608762    0.056143
   4 H :   -0.318486    0.173754

  Mayer bond orders larger than 0.100000
B(  0-B ,  1-N ) :   1.1420 B(  0-B ,  4-H ) :   0.9440 B(  1-N ,  2-C ) :   2.0927
B(  1-N ,  3-O ) :   0.2503 B(  2-C ,  3-O ) :   1.8057

MP2 TOTAL ENERGY:     -193.191798885 Eh
FINAL SINGLE POINT ENERGY      -193.191798885324

DIPOLE MOMENT
-------------
                                X             Y             Z
Electronic contribution:     -0.76491      -0.56000      -0.00000
Nuclear contribution   :      1.18142       0.69605       0.00000
                        -----------------------------------------
Total Dipole Moment    :      0.41651       0.13605      -0.00000
                        -----------------------------------------
Magnitude (a.u.)       :      0.43817
Magnitude (Debye)      :      1.11374

Rotational constants in cm-1:    19.421623     0.157206     0.155944
Rotational constants in MHz : 582245.607385  4712.924073  4675.082126

                             ****ORCA TERMINATED NORMALLY****
TOTAL RUN TIME: 0 days 0 hours 9 minutes 29 seconds 187 msec
