                         Program Version 5.0.4 -  RELEASE  -
|  1> ! ri-mp2 aug-cc-pvdz aug-cc-pvdz/c tightscf
|  2> %pal nprocs 16 end
|  3> %maxcore 3800
|  4> %base "DZ_Si-Si_94_A"
|  5> %scf
|  6> STABPerform true
|  7> STABRestartUHFifUnstable true
|  8> end
|  9>
| 10> *xyz 0 2
| 11> Si         1.426625    0.197907   -0.110390
| 12> O        -0.049446   -0.617658    0.069458
| 13> H         1.362010    1.423638    0.717641
| 14> H         2.409054   -0.788994    0.378384
| 15> C        -1.222717   -0.113027    0.015702
| 16> N        -2.287420    0.316298   -0.028634
| 17> *
| 18>
| 19> $new_job
| 20> ! ri-mp2 aug-cc-pvtz aug-cc-pvtz/c tightscf
| 21> %pal nprocs 16 end
| 22> %maxcore 3800
| 23> %base "TZ_Si-Si_94_A"
| 24>
| 25> *xyz 0 2
| 26> Si         1.426625    0.197907   -0.110390
| 27> O        -0.049446   -0.617658    0.069458
| 28> H         1.362010    1.423638    0.717641
| 29> H         2.409054   -0.788994    0.378384
| 30> C        -1.222717   -0.113027    0.015702
| 31> N        -2.287420    0.316298   -0.028634
| 32> *
| 33>
| 34> $new_job
| 35> ! ri-mp2 aug-cc-pvqz aug-cc-pvqz/c tightscf
| 36> %pal nprocs 16 end
| 37> %maxcore 3800
| 38> %base "QZ_Si-Si_94_A"
| 39>
| 40> *xyz 0 2
| 41> Si         1.426625    0.197907   -0.110390
| 42> O        -0.049446   -0.617658    0.069458
| 43> H         1.362010    1.423638    0.717641
| 44> H         2.409054   -0.788994    0.378384
| 45> C        -1.222717   -0.113027    0.015702
| 46> N        -2.287420    0.316298   -0.028634
| 47> *
| 48>
| 49>
| 50>
| 51>
| 52>                          ****END OF INPUT****
 Total Charge           Charge          ....    0
 Multiplicity           Mult            ....    2
 Number of Electrons    NEL             ....   37
MP2 TOTAL ENERGY:     -457.822066005 Eh
FINAL SINGLE POINT ENERGY      -457.822066004803
MP2 TOTAL ENERGY:     -457.998405077 Eh
FINAL SINGLE POINT ENERGY      -457.998405076916

CARTESIAN COORDINATES (ANGSTROEM)
---------------------------------
  Si     1.426625    0.197907   -0.110390
  O     -0.049446   -0.617658    0.069458
  H      1.362010    1.423638    0.717641
  H      2.409054   -0.788994    0.378384
  C     -1.222717   -0.113027    0.015702
  N     -2.287420    0.316298   -0.028634

 Multiplicity           Mult            ....    2
 Number of Electrons    NEL             ....   37
 Basis Dimension        Dim             ....  416

ORBITAL ENERGIES
----------------
                 SPIN UP ORBITALS
  NO   OCC          E(Eh)            E(eV)
   0   1.0000     -68.857462     -1873.7068
   1   1.0000     -20.657422      -562.1170
   2   1.0000     -15.563127      -423.4942
   3   1.0000     -11.338259      -308.5297
   4   1.0000      -6.202841      -168.7879
   5   1.0000      -4.314592      -117.4060
   6   1.0000      -4.306108      -117.1752
   7   1.0000      -4.304839      -117.1406
   8   1.0000      -1.482860       -40.3507
   9   1.0000      -1.219582       -33.1865
  10   1.0000      -0.886234       -24.1157
  11   1.0000      -0.726005       -19.7556
  12   1.0000      -0.686274       -18.6745
  13   1.0000      -0.659804       -17.9542
  14   1.0000      -0.563518       -15.3341
  15   1.0000      -0.533748       -14.5240
  16   1.0000      -0.462537       -12.5863
  17   1.0000      -0.454939       -12.3795
  18   1.0000      -0.380263       -10.3475
  19   0.0000       0.019491         0.5304
  20   0.0000       0.028617         0.7787
  21   0.0000       0.037446         1.0190
  22   0.0000       0.039046         1.0625
  23   0.0000       0.058071         1.5802

                 SPIN DOWN ORBITALS
  NO   OCC          E(Eh)            E(eV)
   0   1.0000     -68.851553     -1873.5460
   1   1.0000     -20.654615      -562.0407
   2   1.0000     -15.562815      -423.4857
   3   1.0000     -11.338613      -308.5393
   4   1.0000      -6.193394      -168.5308
   5   1.0000      -4.302439      -117.0753
   6   1.0000      -4.301255      -117.0431
   7   1.0000      -4.292589      -116.8073
   8   1.0000      -1.475783       -40.1581
   9   1.0000      -1.218876       -33.1673
  10   1.0000      -0.875299       -23.8181
  11   1.0000      -0.710287       -19.3279
  12   1.0000      -0.668800       -18.1990
  13   1.0000      -0.634314       -17.2606
  14   1.0000      -0.562661       -15.3108
  15   1.0000      -0.518915       -14.1204
  16   1.0000      -0.456137       -12.4121
  17   1.0000      -0.449764       -12.2387
  18   0.0000       0.002877         0.0783
  19   0.0000       0.021773         0.5925
  20   0.0000       0.030950         0.8422
  21   0.0000       0.038636         1.0513
  22   0.0000       0.051451         1.4000

MULLIKEN ATOMIC CHARGES AND SPIN POPULATIONS
--------------------------------------------
   0 Si:    0.886494    0.907068
   1 O :   -0.747941   -0.004540
   2 H :   -0.170575    0.054901
   3 H :   -0.159340    0.045186
   4 C :    0.830409   -0.012090
   5 N :   -0.639048    0.009476
Sum of atomic charges         :   -0.0000000

LOEWDIN ATOMIC CHARGES AND SPIN POPULATIONS
-------------------------------------------
   0 Si:    0.833367    0.578341
   1 O :    0.480637    0.120300
   2 H :   -0.337130    0.135222
   3 H :   -0.354929    0.131238
   4 C :   -0.936231    0.028503
   5 N :    0.314285    0.006395

  Mayer bond orders larger than 0.100000
B(  0-Si,  1-O ) :   0.3552 B(  0-Si,  2-H ) :   0.9227 B(  0-Si,  3-H ) :   0.9065
B(  1-O ,  4-C ) :   1.1721 B(  4-C ,  5-N ) :   2.6709

MP2 TOTAL ENERGY:     -458.055930238 Eh
FINAL SINGLE POINT ENERGY      -458.055930238270

DIPOLE MOMENT
-------------
                                X             Y             Z
Electronic contribution:     -1.64350      -0.69668      -1.07351
Nuclear contribution   :      3.53639       0.59233       1.06340
                        -----------------------------------------
Total Dipole Moment    :      1.89289      -0.10435      -0.01011
                        -----------------------------------------
Magnitude (a.u.)       :      1.89579
Magnitude (Debye)      :      4.81872

Rotational constants in cm-1:     1.350771     0.107365     0.100654
Rotational constants in MHz : 40495.107241  3218.731337  3017.524603

                             ****ORCA TERMINATED NORMALLY****
TOTAL RUN TIME: 0 days 0 hours 14 minutes 40 seconds 74 msec
