                         Program Version 5.0.4 -  RELEASE  -
|  1> ! ri-mp2 aug-cc-pvdz aug-cc-pvdz/c tightscf
|  2> %pal nprocs 16 end
|  3> %maxcore 3800
|  4> %base "DZ_P-Si_4_A"
|  5> %scf
|  6> STABPerform true
|  7> STABRestartUHFifUnstable true
|  8> end
|  9>
| 10> *xyz 0 2
| 11> C         1.193471    0.254612    0.170059
| 12> P        -1.344514   -0.811656   -0.161950
| 13> C        -1.989114    0.897418   -0.297771
| 14> H        -2.382972    1.235159    0.663702
| 15> H        -2.795272    0.923811   -1.029372
| 16> H        -1.204344    1.593914   -0.596725
| 17> O         1.216881    1.459906    0.124591
| 18> C         2.201203   -0.591617   -0.559015
| 19> H         1.698173   -1.361911   -1.145981
| 20> H         2.837550   -1.103035    0.166493
| 21> H         2.815120    0.031724   -1.203158
| 22> C         0.122389   -0.479733    0.937165
| 23> H        -0.191436    0.134218    1.781381
| 24> H         0.488153   -1.442368    1.293561
| 25> *
| 26>
| 27> $new_job
| 28> ! ri-mp2 aug-cc-pvtz aug-cc-pvtz/c tightscf
| 29> %pal nprocs 16 end
| 30> %maxcore 3800
| 31> %base "TZ_P-Si_4_A"
| 32>
| 33> *xyz 0 2
| 34> C         1.193471    0.254612    0.170059
| 35> P        -1.344514   -0.811656   -0.161950
| 36> C        -1.989114    0.897418   -0.297771
| 37> H        -2.382972    1.235159    0.663702
| 38> H        -2.795272    0.923811   -1.029372
| 39> H        -1.204344    1.593914   -0.596725
| 40> O         1.216881    1.459906    0.124591
| 41> C         2.201203   -0.591617   -0.559015
| 42> H         1.698173   -1.361911   -1.145981
| 43> H         2.837550   -1.103035    0.166493
| 44> H         2.815120    0.031724   -1.203158
| 45> C         0.122389   -0.479733    0.937165
| 46> H        -0.191436    0.134218    1.781381
| 47> H         0.488153   -1.442368    1.293561
| 48> *
| 49>
| 50> $new_job
| 51> ! ri-mp2 aug-cc-pvqz aug-cc-pvqz/c tightscf
| 52> %pal nprocs 16 end
| 53> %maxcore 3800
| 54> %base "QZ_P-Si_4_A"
| 55>
| 56> *xyz 0 2
| 57> C         1.193471    0.254612    0.170059
| 58> P        -1.344514   -0.811656   -0.161950
| 59> C        -1.989114    0.897418   -0.297771
| 60> H        -2.382972    1.235159    0.663702
| 61> H        -2.795272    0.923811   -1.029372
| 62> H        -1.204344    1.593914   -0.596725
| 63> O         1.216881    1.459906    0.124591
| 64> C         2.201203   -0.591617   -0.559015
| 65> H         1.698173   -1.361911   -1.145981
| 66> H         2.837550   -1.103035    0.166493
| 67> H         2.815120    0.031724   -1.203158
| 68> C         0.122389   -0.479733    0.937165
| 69> H        -0.191436    0.134218    1.781381
| 70> H         0.488153   -1.442368    1.293561
| 71> *
| 72>
| 73>
| 74>
| 75>
| 76>                          ****END OF INPUT****
 Total Charge           Charge          ....    0
 Multiplicity           Mult            ....    2
 Number of Electrons    NEL             ....   55
MP2 TOTAL ENERGY:     -572.623133778 Eh
FINAL SINGLE POINT ENERGY      -572.623133777572
MP2 TOTAL ENERGY:     -572.872875225 Eh
FINAL SINGLE POINT ENERGY      -572.872875225314

CARTESIAN COORDINATES (ANGSTROEM)
---------------------------------
  C      1.193471    0.254612    0.170059
  P     -1.344514   -0.811656   -0.161950
  C     -1.989114    0.897418   -0.297771
  H     -2.382972    1.235159    0.663702
  H     -2.795272    0.923811   -1.029372
  H     -1.204344    1.593914   -0.596725
  O      1.216881    1.459906    0.124591
  C      2.201203   -0.591617   -0.559015
  H      1.698173   -1.361911   -1.145981
  H      2.837550   -1.103035    0.166493
  H      2.815120    0.031724   -1.203158
  C      0.122389   -0.479733    0.937165
  H     -0.191436    0.134218    1.781381
  H      0.488153   -1.442368    1.293561

 Multiplicity           Mult            ....    2
 Number of Electrons    NEL             ....   55
 Basis Dimension        Dim             ....  852

ORBITAL ENERGIES
----------------
                 SPIN UP ORBITALS
  NO   OCC          E(Eh)            E(eV)
   0   1.0000     -79.952328     -2175.6134
   1   1.0000     -20.544605      -559.0471
   2   1.0000     -11.335767      -308.4619
   3   1.0000     -11.242313      -305.9189
   4   1.0000     -11.235343      -305.7292
   5   1.0000     -11.223303      -305.4016
   6   1.0000      -7.494816      -203.9443
   7   1.0000      -5.399820      -146.9366
   8   1.0000      -5.385664      -146.5514
   9   1.0000      -5.383777      -146.5000
  10   1.0000      -1.394796       -37.9543
  11   1.0000      -1.059892       -28.8411
  12   1.0000      -1.001148       -27.2426
  13   1.0000      -0.953841       -25.9553
  14   1.0000      -0.775934       -21.1143
  15   1.0000      -0.729852       -19.8603
  16   1.0000      -0.655952       -17.8494
  17   1.0000      -0.650379       -17.6977
  18   1.0000      -0.611098       -16.6288
  19   1.0000      -0.585122       -15.9220
  20   1.0000      -0.577584       -15.7169
  21   1.0000      -0.567300       -15.4370
  22   1.0000      -0.545407       -14.8413
  23   1.0000      -0.509968       -13.8769
  24   1.0000      -0.468339       -12.7442
  25   1.0000      -0.431947       -11.7539
  26   1.0000      -0.388468       -10.5707
  27   1.0000      -0.342093        -9.3088
  28   0.0000       0.024619         0.6699
  29   0.0000       0.031346         0.8530
  30   0.0000       0.032296         0.8788
  31   0.0000       0.039203         1.0668
  32   0.0000       0.046831         1.2743

                 SPIN DOWN ORBITALS
  NO   OCC          E(Eh)            E(eV)
   0   1.0000     -79.945328     -2175.4230
   1   1.0000     -20.544408      -559.0418
   2   1.0000     -11.334770      -308.4348
   3   1.0000     -11.243382      -305.9480
   4   1.0000     -11.235285      -305.7276
   5   1.0000     -11.224343      -305.4299
   6   1.0000      -7.486178      -203.7092
   7   1.0000      -5.381047      -146.4257
   8   1.0000      -5.380680      -146.4157
   9   1.0000      -5.366582      -146.0321
  10   1.0000      -1.394132       -37.9362
  11   1.0000      -1.053592       -28.6697
  12   1.0000      -0.992316       -27.0023
  13   1.0000      -0.952111       -25.9083
  14   1.0000      -0.752520       -20.4771
  15   1.0000      -0.697433       -18.9781
  16   1.0000      -0.653666       -17.7871
  17   1.0000      -0.645974       -17.5778
  18   1.0000      -0.605928       -16.4881
  19   1.0000      -0.583629       -15.8813
  20   1.0000      -0.565141       -15.3783
  21   1.0000      -0.564403       -15.3582
  22   1.0000      -0.542399       -14.7594
  23   1.0000      -0.507823       -13.8186
  24   1.0000      -0.465434       -12.6651
  25   1.0000      -0.423154       -11.5146
  26   1.0000      -0.370928       -10.0935
  27   0.0000       0.024658         0.6710
  28   0.0000       0.030615         0.8331
  29   0.0000       0.031830         0.8661
  30   0.0000       0.039025         1.0619
  31   0.0000       0.042138         1.1466

MULLIKEN ATOMIC CHARGES AND SPIN POPULATIONS
--------------------------------------------
   0 C :    0.937677    0.006421
   1 P :    0.364643    1.099374
   2 C :   -1.108658   -0.102007
   3 H :    0.252190    0.026961
   4 H :    0.355270   -0.002449
   5 H :    0.303139    0.017738
   6 O :   -0.827233    0.003302
   7 C :   -0.887317    0.003672
   8 H :    0.238745   -0.003782
   9 H :    0.277934   -0.000173
  10 H :    0.302003   -0.001019
  11 C :   -0.715036   -0.073255
  12 H :    0.253518    0.030192
  13 H :    0.253124   -0.004975
Sum of atomic charges         :   -0.0000000

LOEWDIN ATOMIC CHARGES AND SPIN POPULATIONS
-------------------------------------------
   0 C :   -0.766455    0.032612
   1 P :    1.091863    0.563582
   2 C :    0.670647    0.154909
   3 H :   -0.368343    0.022903
   4 H :   -0.392079    0.007893
   5 H :   -0.407669    0.017004
   6 O :    0.746916    0.006204
   7 C :    0.875219    0.011575
   8 H :   -0.305195    0.009195
   9 H :   -0.289721    0.000569
  10 H :   -0.312918    0.000748
  11 C :    0.233300    0.144924
  12 H :   -0.380985    0.018025
  13 H :   -0.394580    0.009856

  Mayer bond orders larger than 0.100000
B(  0-C ,  6-O ) :   1.1563 B(  0-C ,  7-C ) :   0.8686 B(  0-C , 11-C ) :   0.9280
B(  1-P ,  2-C ) :   0.9291 B(  1-P , 11-C ) :   0.8473 B(  2-C ,  3-H ) :   0.9241
B(  2-C ,  4-H ) :   0.8826 B(  2-C ,  5-H ) :   0.8975 B(  6-O ,  7-C ) :   0.1038
B(  6-O , 11-C ) :   0.1603 B(  7-C ,  8-H ) :   0.9603 B(  7-C ,  9-H ) :   0.9382
B(  7-C , 10-H ) :   0.9517 B( 11-C , 12-H ) :   0.9249 B( 11-C , 13-H ) :   0.9722

MP2 TOTAL ENERGY:     -572.951014997 Eh
FINAL SINGLE POINT ENERGY      -572.951014997499

DIPOLE MOMENT
-------------
                                X             Y             Z
Electronic contribution:     -2.53090      -1.52850       0.12152
Nuclear contribution   :      2.56993       0.80919       0.08628
                        -----------------------------------------
Total Dipole Moment    :      0.03903      -0.71931       0.20780
                        -----------------------------------------
Magnitude (a.u.)       :      0.74974
Magnitude (Debye)      :      1.90569

Rotational constants in cm-1:     0.157459     0.063704     0.052823
Rotational constants in MHz :  4720.507342  1909.784098  1583.596727

                             ****ORCA TERMINATED NORMALLY****
TOTAL RUN TIME: 0 days 3 hours 15 minutes 32 seconds 391 msec
