                         Program Version 5.0.4 -  RELEASE  -
|  1> ! ri-mp2 aug-cc-pvdz aug-cc-pvdz/c tightscf
|  2> %pal nprocs 16 end
|  3> %maxcore 3800
|  4> %base "DZ_P-C_12_AB"
|  5> %scf
|  6> STABPerform true
|  7> STABRestartUHFifUnstable true
|  8> end
|  9>
| 10> *xyz 0 1
| 11> P        -1.396096   -0.116936   -0.000539
| 12> C         0.416091    0.011034   -0.396674
| 13> C         1.088106    1.275542    0.118294
| 14> H         1.048364    1.317118    1.208531
| 15> C         1.128221   -1.242270    0.104189
| 16> H         1.092496   -1.300138    1.194457
| 17> H         2.179240   -1.229565   -0.189499
| 18> H         0.677250   -2.151605   -0.293460
| 19> H         0.605869    2.173736   -0.266597
| 20> H         2.139782    1.303787   -0.177655
| 21> H         0.458700    0.011150   -1.490249
| 22> H        -1.760116    1.213195   -0.319603
| 23> H        -1.294642    0.150528    1.387312
| 24> *
| 25>
| 26> $new_job
| 27> ! ri-mp2 aug-cc-pvtz aug-cc-pvtz/c tightscf
| 28> %pal nprocs 16 end
| 29> %maxcore 3800
| 30> %base "TZ_P-C_12_AB"
| 31>
| 32> *xyz 0 1
| 33> P        -1.396096   -0.116936   -0.000539
| 34> C         0.416091    0.011034   -0.396674
| 35> C         1.088106    1.275542    0.118294
| 36> H         1.048364    1.317118    1.208531
| 37> C         1.128221   -1.242270    0.104189
| 38> H         1.092496   -1.300138    1.194457
| 39> H         2.179240   -1.229565   -0.189499
| 40> H         0.677250   -2.151605   -0.293460
| 41> H         0.605869    2.173736   -0.266597
| 42> H         2.139782    1.303787   -0.177655
| 43> H         0.458700    0.011150   -1.490249
| 44> H        -1.760116    1.213195   -0.319603
| 45> H        -1.294642    0.150528    1.387312
| 46> *
| 47>
| 48> $new_job
| 49> ! ri-mp2 aug-cc-pvqz aug-cc-pvqz/c tightscf
| 50> %pal nprocs 16 end
| 51> %maxcore 3800
| 52> %base "QZ_P-C_12_AB"
| 53>
| 54> *xyz 0 1
| 55> P        -1.396096   -0.116936   -0.000539
| 56> C         0.416091    0.011034   -0.396674
| 57> C         1.088106    1.275542    0.118294
| 58> H         1.048364    1.317118    1.208531
| 59> C         1.128221   -1.242270    0.104189
| 60> H         1.092496   -1.300138    1.194457
| 61> H         2.179240   -1.229565   -0.189499
| 62> H         0.677250   -2.151605   -0.293460
| 63> H         0.605869    2.173736   -0.266597
| 64> H         2.139782    1.303787   -0.177655
| 65> H         0.458700    0.011150   -1.490249
| 66> H        -1.760116    1.213195   -0.319603
| 67> H        -1.294642    0.150528    1.387312
| 68> *
| 69>
| 70>
| 71>
| 72>
| 73>                          ****END OF INPUT****
 Total Charge           Charge          ....    0
 Multiplicity           Mult            ....    1
 Number of Electrons    NEL             ....   42
MP2 TOTAL ENERGY:     -460.178254113 Eh
FINAL SINGLE POINT ENERGY      -460.178254113450
MP2 TOTAL ENERGY:     -460.341061535 Eh
FINAL SINGLE POINT ENERGY      -460.341061535343

CARTESIAN COORDINATES (ANGSTROEM)
---------------------------------
  P     -1.396096   -0.116936   -0.000539
  C      0.416091    0.011034   -0.396674
  C      1.088106    1.275542    0.118294
  H      1.048364    1.317118    1.208531
  C      1.128221   -1.242270    0.104189
  H      1.092496   -1.300138    1.194457
  H      2.179240   -1.229565   -0.189499
  H      0.677250   -2.151605   -0.293460
  H      0.605869    2.173736   -0.266597
  H      2.139782    1.303787   -0.177655
  H      0.458700    0.011150   -1.490249
  H     -1.760116    1.213195   -0.319603
  H     -1.294642    0.150528    1.387312

 Multiplicity           Mult            ....    1
 Number of Electrons    NEL             ....   42
 Basis Dimension        Dim             ....  738

ORBITAL ENERGIES
----------------

  NO   OCC          E(Eh)            E(eV)
   0   2.0000     -79.929167     -2174.9832
   1   2.0000     -11.236574      -305.7627
   2   2.0000     -11.219477      -305.2975
   3   2.0000     -11.217791      -305.2516
   4   2.0000      -7.472492      -203.3369
   5   2.0000      -5.366442      -146.0283
   6   2.0000      -5.366250      -146.0231
   7   2.0000      -5.365178      -145.9939
   8   2.0000      -1.074586       -29.2410
   9   2.0000      -0.937382       -25.5074
  10   2.0000      -0.861217       -23.4349
  11   2.0000      -0.760062       -20.6823
  12   2.0000      -0.626648       -17.0520
  13   2.0000      -0.596447       -16.2301
  14   2.0000      -0.570356       -15.5202
  15   2.0000      -0.542038       -14.7496
  16   2.0000      -0.511257       -13.9120
  17   2.0000      -0.492477       -13.4010
  18   2.0000      -0.478775       -13.0281
  19   2.0000      -0.443734       -12.0746
  20   2.0000      -0.356485        -9.7004
  21   0.0000       0.025650         0.6980
  22   0.0000       0.033981         0.9247
  23   0.0000       0.034489         0.9385
  24   0.0000       0.037792         1.0284
  25   0.0000       0.053013         1.4426

MULLIKEN ATOMIC CHARGES
-----------------------
   0 P :    0.279913
   1 C :   -0.149789
   2 C :   -0.920636
   3 H :    0.241801
   4 C :   -0.871150
   5 H :    0.231867
   6 H :    0.256571
   7 H :    0.292364
   8 H :    0.281937
   9 H :    0.254858
  10 H :    0.289710
  11 H :   -0.098591
  12 H :   -0.088856
Sum of atomic charges:   -0.0000000

LOEWDIN ATOMIC CHARGES
----------------------
   0 P :    1.518112
   1 C :   -0.139658
   2 C :    0.832074
   3 H :   -0.298121
   4 C :    0.816457
   5 H :   -0.294623
   6 H :   -0.282256
   7 H :   -0.298717
   8 H :   -0.299846
   9 H :   -0.280709
  10 H :   -0.355992
  11 H :   -0.464049
  12 H :   -0.452672

  Mayer bond orders larger than 0.100000
B(  0-P ,  1-C ) :   0.7611 B(  0-P , 11-H ) :   0.9400 B(  0-P , 12-H ) :   0.9183
B(  1-C ,  2-C ) :   0.8413 B(  1-C ,  4-C ) :   0.8333 B(  1-C , 10-H ) :   0.8594
B(  2-C ,  3-H ) :   0.9583 B(  2-C ,  8-H ) :   0.9559 B(  2-C ,  9-H ) :   0.9600
B(  4-C ,  5-H ) :   0.9532 B(  4-C ,  6-H ) :   0.9609 B(  4-C ,  7-H ) :   0.9465

MP2 TOTAL ENERGY:     -460.390142001 Eh
FINAL SINGLE POINT ENERGY      -460.390142001131

DIPOLE MOMENT
-------------
                                X             Y             Z
Electronic contribution:     -6.23317      -1.42406      -1.09406
Nuclear contribution   :      6.71491       1.65844       1.09253
                        -----------------------------------------
Total Dipole Moment    :      0.48174       0.23439      -0.00153
                        -----------------------------------------
Magnitude (a.u.)       :      0.53574
Magnitude (Debye)      :      1.36174

Rotational constants in cm-1:     0.257064     0.142035     0.102117
Rotational constants in MHz :  7706.596557  4258.113351  3061.375729

                             ****ORCA TERMINATED NORMALLY****
TOTAL RUN TIME: 0 days 0 hours 33 minutes 5 seconds 730 msec
