                         Program Version 5.0.4 -  RELEASE  -
|  1> ! ri-mp2 aug-cc-pvdz aug-cc-pvdz/c tightscf
|  2> %pal nprocs 16 end
|  3> %maxcore 3800
|  4> %base "DZ_Si-Si_76_AB"
|  5> %scf
|  6> STABPerform true
|  7> STABRestartUHFifUnstable true
|  8> end
|  9>
| 10> *xyz 0 1
| 11> Si        -2.213075    0.240659   -0.193867
| 12> Si        -0.208350   -0.859773    0.297977
| 13> H        -2.383793    1.460238    0.630967
| 14> H        -3.350062   -0.665302    0.092345
| 15> H        -2.270431    0.637765   -1.619299
| 16> N         1.149692    0.110306   -0.115748
| 17> H        -0.105063   -2.109168   -0.491696
| 18> H        -0.260144   -1.272144    1.731903
| 19> C         1.234156    1.506445    0.250343
| 20> H         1.789595    1.661086    1.184947
| 21> H         0.241279    1.936418    0.381048
| 22> H         1.741773    2.077473   -0.533458
| 23> C         2.443146   -0.487607   -0.366512
| 24> H         2.330244   -1.519264   -0.697543
| 25> H         3.085063   -0.485262    0.524632
| 26> H         2.969835    0.060583   -1.154142
| 27> *
| 28>
| 29> $new_job
| 30> ! ri-mp2 aug-cc-pvtz aug-cc-pvtz/c tightscf
| 31> %pal nprocs 16 end
| 32> %maxcore 3800
| 33> %base "TZ_Si-Si_76_AB"
| 34>
| 35> *xyz 0 1
| 36> Si        -2.213075    0.240659   -0.193867
| 37> Si        -0.208350   -0.859773    0.297977
| 38> H        -2.383793    1.460238    0.630967
| 39> H        -3.350062   -0.665302    0.092345
| 40> H        -2.270431    0.637765   -1.619299
| 41> N         1.149692    0.110306   -0.115748
| 42> H        -0.105063   -2.109168   -0.491696
| 43> H        -0.260144   -1.272144    1.731903
| 44> C         1.234156    1.506445    0.250343
| 45> H         1.789595    1.661086    1.184947
| 46> H         0.241279    1.936418    0.381048
| 47> H         1.741773    2.077473   -0.533458
| 48> C         2.443146   -0.487607   -0.366512
| 49> H         2.330244   -1.519264   -0.697543
| 50> H         3.085063   -0.485262    0.524632
| 51> H         2.969835    0.060583   -1.154142
| 52> *
| 53>
| 54> $new_job
| 55> ! ri-mp2 aug-cc-pvqz aug-cc-pvqz/c tightscf
| 56> %pal nprocs 16 end
| 57> %maxcore 3800
| 58> %base "QZ_Si-Si_76_AB"
| 59>
| 60> *xyz 0 1
| 61> Si        -2.213075    0.240659   -0.193867
| 62> Si        -0.208350   -0.859773    0.297977
| 63> H        -2.383793    1.460238    0.630967
| 64> H        -3.350062   -0.665302    0.092345
| 65> H        -2.270431    0.637765   -1.619299
| 66> N         1.149692    0.110306   -0.115748
| 67> H        -0.105063   -2.109168   -0.491696
| 68> H        -0.260144   -1.272144    1.731903
| 69> C         1.234156    1.506445    0.250343
| 70> H         1.789595    1.661086    1.184947
| 71> H         0.241279    1.936418    0.381048
| 72> H         1.741773    2.077473   -0.533458
| 73> C         2.443146   -0.487607   -0.366512
| 74> H         2.330244   -1.519264   -0.697543
| 75> H         3.085063   -0.485262    0.524632
| 76> H         2.969835    0.060583   -1.154142
| 77> *
| 78>
| 79>
| 80>
| 81>
| 82>                          ****END OF INPUT****
 Total Charge           Charge          ....    0
 Multiplicity           Mult            ....    1
 Number of Electrons    NEL             ....   58
MP2 TOTAL ENERGY:     -715.158536773 Eh
FINAL SINGLE POINT ENERGY      -715.158536772527
MP2 TOTAL ENERGY:     -715.367043586 Eh
FINAL SINGLE POINT ENERGY      -715.367043586347

CARTESIAN COORDINATES (ANGSTROEM)
---------------------------------
  Si    -2.213075    0.240659   -0.193867
  Si    -0.208350   -0.859773    0.297977
  H     -2.383793    1.460238    0.630967
  H     -3.350062   -0.665302    0.092345
  H     -2.270431    0.637765   -1.619299
  N      1.149692    0.110306   -0.115748
  H     -0.105063   -2.109168   -0.491696
  H     -0.260144   -1.272144    1.731903
  C      1.234156    1.506445    0.250343
  H      1.789595    1.661086    1.184947
  H      0.241279    1.936418    0.381048
  H      1.741773    2.077473   -0.533458
  C      2.443146   -0.487607   -0.366512
  H      2.330244   -1.519264   -0.697543
  H      3.085063   -0.485262    0.524632
  H      2.969835    0.060583   -1.154142

 Multiplicity           Mult            ....    1
 Number of Electrons    NEL             ....   58
 Basis Dimension        Dim             ....  914

ORBITAL ENERGIES
----------------

  NO   OCC          E(Eh)            E(eV)
   0   2.0000     -68.770135     -1871.3305
   1   2.0000     -68.759877     -1871.0514
   2   2.0000     -15.536531      -422.7705
   3   2.0000     -11.252149      -306.1865
   4   2.0000     -11.249803      -306.1227
   5   2.0000      -6.117809      -166.4740
   6   2.0000      -6.111079      -166.2909
   7   2.0000      -4.224640      -114.9583
   8   2.0000      -4.224180      -114.9458
   9   2.0000      -4.223866      -114.9372
  10   2.0000      -4.217183      -114.7554
  11   2.0000      -4.217124      -114.7538
  12   2.0000      -4.217005      -114.7505
  13   2.0000      -1.202346       -32.7175
  14   2.0000      -0.959219       -26.1017
  15   2.0000      -0.863086       -23.4858
  16   2.0000      -0.743008       -20.2183
  17   2.0000      -0.682078       -18.5603
  18   2.0000      -0.629377       -17.1262
  19   2.0000      -0.614864       -16.7313
  20   2.0000      -0.601455       -16.3664
  21   2.0000      -0.546447       -14.8696
  22   2.0000      -0.521795       -14.1988
  23   2.0000      -0.500670       -13.6239
  24   2.0000      -0.488092       -13.2817
  25   2.0000      -0.478263       -13.0142
  26   2.0000      -0.465815       -12.6755
  27   2.0000      -0.403725       -10.9859
  28   2.0000      -0.350845        -9.5470
  29   0.0000       0.024407         0.6642
  30   0.0000       0.030265         0.8235
  31   0.0000       0.034220         0.9312
  32   0.0000       0.036264         0.9868
  33   0.0000       0.045150         1.2286

MULLIKEN ATOMIC CHARGES
-----------------------
   0 Si:    0.447406
   1 Si:    0.785034
   2 H :   -0.162625
   3 H :   -0.210631
   4 H :   -0.164617
   5 N :   -0.240829
   6 H :   -0.294702
   7 H :   -0.303719
   8 C :   -0.943533
   9 H :    0.317467
  10 H :    0.391454
  11 H :    0.325456
  12 C :   -0.854302
  13 H :    0.312538
  14 H :    0.317493
  15 H :    0.278110
Sum of atomic charges:   -0.0000000

LOEWDIN ATOMIC CHARGES
----------------------
   0 Si:    1.062358
   1 Si:    0.540452
   2 H :   -0.306022
   3 H :   -0.317129
   4 H :   -0.306712
   5 N :    0.313777
   6 H :   -0.242706
   7 H :   -0.245032
   8 C :    0.652900
   9 H :   -0.275566
  10 H :   -0.350214
  11 H :   -0.288144
  12 C :    0.662037
  13 H :   -0.329637
  14 H :   -0.278836
  15 H :   -0.291526

  Mayer bond orders larger than 0.100000
B(  0-Si,  1-Si) :   0.7646 B(  0-Si,  2-H ) :   0.7757 B(  0-Si,  3-H ) :   0.7803
B(  0-Si,  4-H ) :   0.7537 B(  1-Si,  5-N ) :   0.9327 B(  1-Si,  6-H ) :   0.8173
B(  1-Si,  7-H ) :   0.7681 B(  5-N ,  8-C ) :   0.8808 B(  5-N , 12-C ) :   0.8354
B(  8-C ,  9-H ) :   0.9125 B(  8-C , 10-H ) :   0.8469 B(  8-C , 11-H ) :   0.9420
B( 12-C , 13-H ) :   0.9187 B( 12-C , 14-H ) :   0.9307 B( 12-C , 15-H ) :   0.9566

MP2 TOTAL ENERGY:     -715.431332302 Eh
FINAL SINGLE POINT ENERGY      -715.431332302334

DIPOLE MOMENT
-------------
                                X             Y             Z
Electronic contribution:     -3.63209      -1.70730      -0.02573
Nuclear contribution   :      4.07830       1.88359       0.04418
                        -----------------------------------------
Total Dipole Moment    :      0.44620       0.17628       0.01845
                        -----------------------------------------
Magnitude (a.u.)       :      0.48012
Magnitude (Debye)      :      1.22036

Rotational constants in cm-1:     0.183992     0.053327     0.044952
Rotational constants in MHz :  5515.952080  1598.713048  1347.640048

                             ****ORCA TERMINATED NORMALLY****
TOTAL RUN TIME: 0 days 2 hours 2 minutes 2 seconds 816 msec
