                         Program Version 5.0.4 -  RELEASE  -
|  1> ! ri-mp2 aug-cc-pvdz aug-cc-pvdz/c tightscf
|  2> %pal nprocs 16 end
|  3> %maxcore 3800
|  4> %base "DZ_B-F_61_A"
|  5> %scf
|  6> STABPerform true
|  7> STABRestartUHFifUnstable true
|  8> end
|  9>
| 10> *xyz 0 2
| 11> F         2.816322   -0.184992    0.503696
| 12> B         2.177143    0.729539   -0.179405
| 13> O         0.850946    0.745472   -0.412792
| 14> C        -0.011249   -0.330849   -0.221437
| 15> O         0.368602   -1.464801   -0.306153
| 16> N        -1.269279    0.080749    0.018238
| 17> C        -1.688937    1.461262    0.128721
| 18> H        -2.052202    1.666857    1.138573
| 19> H        -2.502778    1.655843   -0.572815
| 20> H        -0.866675    2.128781   -0.094371
| 21> C        -2.298617   -0.918390    0.213567
| 22> H        -3.093773   -0.787107   -0.523166
| 23> H        -2.732154   -0.824474    1.211602
| 24> H        -1.863638   -1.905416    0.102719
| 25> *
| 26>
| 27> $new_job
| 28> ! ri-mp2 aug-cc-pvtz aug-cc-pvtz/c tightscf
| 29> %pal nprocs 16 end
| 30> %maxcore 3800
| 31> %base "TZ_B-F_61_A"
| 32>
| 33> *xyz 0 2
| 34> F         2.816322   -0.184992    0.503696
| 35> B         2.177143    0.729539   -0.179405
| 36> O         0.850946    0.745472   -0.412792
| 37> C        -0.011249   -0.330849   -0.221437
| 38> O         0.368602   -1.464801   -0.306153
| 39> N        -1.269279    0.080749    0.018238
| 40> C        -1.688937    1.461262    0.128721
| 41> H        -2.052202    1.666857    1.138573
| 42> H        -2.502778    1.655843   -0.572815
| 43> H        -0.866675    2.128781   -0.094371
| 44> C        -2.298617   -0.918390    0.213567
| 45> H        -3.093773   -0.787107   -0.523166
| 46> H        -2.732154   -0.824474    1.211602
| 47> H        -1.863638   -1.905416    0.102719
| 48> *
| 49>
| 50> $new_job
| 51> ! ri-mp2 aug-cc-pvqz aug-cc-pvqz/c tightscf
| 52> %pal nprocs 16 end
| 53> %maxcore 3800
| 54> %base "QZ_B-F_61_A"
| 55>
| 56> *xyz 0 2
| 57> F         2.816322   -0.184992    0.503696
| 58> B         2.177143    0.729539   -0.179405
| 59> O         0.850946    0.745472   -0.412792
| 60> C        -0.011249   -0.330849   -0.221437
| 61> O         0.368602   -1.464801   -0.306153
| 62> N        -1.269279    0.080749    0.018238
| 63> C        -1.688937    1.461262    0.128721
| 64> H        -2.052202    1.666857    1.138573
| 65> H        -2.502778    1.655843   -0.572815
| 66> H        -0.866675    2.128781   -0.094371
| 67> C        -2.298617   -0.918390    0.213567
| 68> H        -3.093773   -0.787107   -0.523166
| 69> H        -2.732154   -0.824474    1.211602
| 70> H        -1.863638   -1.905416    0.102719
| 71> *
| 72>
| 73>
| 74>
| 75>
| 76>                          ****END OF INPUT****
 Total Charge           Charge          ....    0
 Multiplicity           Mult            ....    2
 Number of Electrons    NEL             ....   61
MP2 TOTAL ENERGY:     -446.754335122 Eh
FINAL SINGLE POINT ENERGY      -446.754335121708
MP2 TOTAL ENERGY:     -447.146486805 Eh
FINAL SINGLE POINT ENERGY      -447.146486804855

CARTESIAN COORDINATES (ANGSTROEM)
---------------------------------
  F      2.816322   -0.184992    0.503696
  B      2.177143    0.729539   -0.179405
  O      0.850946    0.745472   -0.412792
  C     -0.011249   -0.330849   -0.221437
  O      0.368602   -1.464801   -0.306153
  N     -1.269279    0.080749    0.018238
  C     -1.688937    1.461262    0.128721
  H     -2.052202    1.666857    1.138573
  H     -2.502778    1.655843   -0.572815
  H     -0.866675    2.128781   -0.094371
  C     -2.298617   -0.918390    0.213567
  H     -3.093773   -0.787107   -0.523166
  H     -2.732154   -0.824474    1.211602
  H     -1.863638   -1.905416    0.102719

 Multiplicity           Mult            ....    2
 Number of Electrons    NEL             ....   61
 Basis Dimension        Dim             ....  916

ORBITAL ENERGIES
----------------
                 SPIN UP ORBITALS
  NO   OCC          E(Eh)            E(eV)
   0   1.0000     -26.312921      -716.0110
   1   1.0000     -20.614487      -560.9487
   2   1.0000     -20.534535      -558.7731
   3   1.0000     -15.605754      -424.6542
   4   1.0000     -11.419054      -310.7283
   5   1.0000     -11.274705      -306.8003
   6   1.0000     -11.267349      -306.6002
   7   1.0000      -7.716427      -209.9746
   8   1.0000      -1.634263       -44.4706
   9   1.0000      -1.475629       -40.1539
  10   1.0000      -1.375169       -37.4203
  11   1.0000      -1.274457       -34.6797
  12   1.0000      -0.991894       -26.9908
  13   1.0000      -0.976019       -26.5588
  14   1.0000      -0.846107       -23.0237
  15   1.0000      -0.790754       -21.5175
  16   1.0000      -0.745383       -20.2829
  17   1.0000      -0.725358       -19.7380
  18   1.0000      -0.700177       -19.0528
  19   1.0000      -0.687399       -18.7051
  20   1.0000      -0.679611       -18.4932
  21   1.0000      -0.627082       -17.0638
  22   1.0000      -0.616192       -16.7674
  23   1.0000      -0.594460       -16.1761
  24   1.0000      -0.578694       -15.7471
  25   1.0000      -0.572986       -15.5918
  26   1.0000      -0.547344       -14.8940
  27   1.0000      -0.519433       -14.1345
  28   1.0000      -0.476372       -12.9627
  29   1.0000      -0.395734       -10.7685
  30   1.0000      -0.379119       -10.3163
  31   0.0000       0.020106         0.5471
  32   0.0000       0.031260         0.8506
  33   0.0000       0.032132         0.8744
  34   0.0000       0.038393         1.0447
  35   0.0000       0.045716         1.2440

                 SPIN DOWN ORBITALS
  NO   OCC          E(Eh)            E(eV)
   0   1.0000     -26.309297      -715.9124
   1   1.0000     -20.612395      -560.8918
   2   1.0000     -20.534382      -558.7689
   3   1.0000     -15.605636      -424.6509
   4   1.0000     -11.417956      -310.6984
   5   1.0000     -11.274722      -306.8008
   6   1.0000     -11.267302      -306.5989
   7   1.0000      -7.693626      -209.3542
   8   1.0000      -1.623404       -44.1751
   9   1.0000      -1.472121       -40.0585
  10   1.0000      -1.371799       -37.3285
  11   1.0000      -1.273689       -34.6589
  12   1.0000      -0.991319       -26.9752
  13   1.0000      -0.972428       -26.4611
  14   1.0000      -0.831784       -22.6340
  15   1.0000      -0.778691       -21.1893
  16   1.0000      -0.740842       -20.1593
  17   1.0000      -0.708803       -19.2875
  18   1.0000      -0.698445       -19.0056
  19   1.0000      -0.682128       -18.5616
  20   1.0000      -0.675082       -18.3699
  21   1.0000      -0.625190       -17.0123
  22   1.0000      -0.614759       -16.7285
  23   1.0000      -0.592831       -16.1318
  24   1.0000      -0.578274       -15.7356
  25   1.0000      -0.573000       -15.5921
  26   1.0000      -0.547029       -14.8854
  27   1.0000      -0.518881       -14.1195
  28   1.0000      -0.467617       -12.7245
  29   1.0000      -0.396166       -10.7802
  30   0.0000       0.019031         0.5179
  31   0.0000       0.028273         0.7693
  32   0.0000       0.032252         0.8776
  33   0.0000       0.035601         0.9687
  34   0.0000       0.046614         1.2684

MULLIKEN ATOMIC CHARGES AND SPIN POPULATIONS
--------------------------------------------
   0 F :   -0.682368   -0.015146
   1 B :    1.003190    1.091508
   2 O :   -0.717383   -0.103113
   3 C :    1.358965    0.025719
   4 O :   -0.762049    0.001304
   5 N :   -0.396188    0.001597
   6 C :   -0.828401   -0.004283
   7 H :    0.310445   -0.000072
   8 H :    0.284836   -0.000166
   9 H :    0.337154   -0.002044
  10 C :   -0.777289    0.004033
  11 H :    0.285634    0.000071
  12 H :    0.286363   -0.000117
  13 H :    0.297091    0.000707
Sum of atomic charges         :   -0.0000000

LOEWDIN ATOMIC CHARGES AND SPIN POPULATIONS
-------------------------------------------
   0 F :    0.725840    0.155274
   1 B :   -1.083141    0.614458
   2 O :    0.779376    0.171731
   3 C :   -1.255366    0.037600
   4 O :    0.719663    0.006858
   5 N :    0.377150    0.005265
   6 C :    0.773792    0.003204
   7 H :   -0.272886    0.000309
   8 H :   -0.277844    0.000213
   9 H :   -0.352485    0.002523
  10 C :    0.765182    0.001500
  11 H :   -0.275263    0.000280
  12 H :   -0.272885    0.000239
  13 H :   -0.351131    0.000545

  Mayer bond orders larger than 0.100000
B(  0-F ,  1-B ) :   0.5731 B(  0-F ,  2-O ) :  -0.1528 B(  1-B ,  2-O ) :   0.6860
B(  2-O ,  3-C ) :   0.9166 B(  2-O ,  5-N ) :  -0.1000 B(  3-C ,  4-O ) :   1.3680
B(  3-C ,  5-N ) :   1.3068 B(  4-O ,  5-N ) :   0.2580 B(  5-N ,  6-C ) :   0.7759
B(  5-N , 10-C ) :   0.8008 B(  6-C ,  7-H ) :   0.9405 B(  6-C ,  8-H ) :   0.9655
B(  6-C ,  9-H ) :   0.8890 B( 10-C , 11-H ) :   0.9599 B( 10-C , 12-H ) :   0.9588
B( 10-C , 13-H ) :   0.9224

MP2 TOTAL ENERGY:     -447.271860967 Eh
FINAL SINGLE POINT ENERGY      -447.271860966601

DIPOLE MOMENT
-------------
                                X             Y             Z
Electronic contribution:     15.73967      -0.47220      -0.69414
Nuclear contribution   :    -17.13681       1.47554       0.87305
                        -----------------------------------------
Total Dipole Moment    :     -1.39714       1.00334       0.17890
                        -----------------------------------------
Magnitude (a.u.)       :      1.72937
Magnitude (Debye)      :      4.39570

Rotational constants in cm-1:     0.145365     0.044419     0.036075
Rotational constants in MHz :  4357.929162  1331.642854  1081.508402

                             ****ORCA TERMINATED NORMALLY****
TOTAL RUN TIME: 0 days 4 hours 13 minutes 52 seconds 5 msec
