                         Program Version 5.0.4 -  RELEASE  -
|  1> ! ri-mp2 aug-cc-pvdz aug-cc-pvdz/c tightscf
|  2> %pal nprocs 16 end
|  3> %maxcore 3800
|  4> %base "DZ_B-Cl_74_AB"
|  5> %scf
|  6> STABPerform true
|  7> STABRestartUHFifUnstable true
|  8> end
|  9>
| 10> *xyz 0 1
| 11> C        -0.816698    1.584045    0.494505
| 12> O        -1.696534    1.175669   -0.501087
| 13> C        -2.414351    0.000023   -0.273651
| 14> O        -1.696647   -1.175708   -0.500997
| 15> C        -0.816728   -1.583988    0.494560
| 16> O         0.515195   -1.221161    0.237946
| 17> B         1.076486   -0.000009    0.109519
| 18> Cl         2.808940   -0.000024   -0.255456
| 19> O         0.515243    1.221153    0.238069
| 20> H        -3.227731    0.000030   -0.992851
| 21> H        -2.805423    0.000083    0.752829
| 22> H        -0.823424   -2.670761    0.504750
| 23> H        -1.132898   -1.200649    1.470983
| 24> H        -1.132971    1.200835    1.470944
| 25> H        -0.823362    2.670820    0.504562
| 26> *
| 27>
| 28> $new_job
| 29> ! ri-mp2 aug-cc-pvtz aug-cc-pvtz/c tightscf
| 30> %pal nprocs 16 end
| 31> %maxcore 3800
| 32> %base "TZ_B-Cl_74_AB"
| 33>
| 34> *xyz 0 1
| 35> C        -0.816698    1.584045    0.494505
| 36> O        -1.696534    1.175669   -0.501087
| 37> C        -2.414351    0.000023   -0.273651
| 38> O        -1.696647   -1.175708   -0.500997
| 39> C        -0.816728   -1.583988    0.494560
| 40> O         0.515195   -1.221161    0.237946
| 41> B         1.076486   -0.000009    0.109519
| 42> Cl         2.808940   -0.000024   -0.255456
| 43> O         0.515243    1.221153    0.238069
| 44> H        -3.227731    0.000030   -0.992851
| 45> H        -2.805423    0.000083    0.752829
| 46> H        -0.823424   -2.670761    0.504750
| 47> H        -1.132898   -1.200649    1.470983
| 48> H        -1.132971    1.200835    1.470944
| 49> H        -0.823362    2.670820    0.504562
| 50> *
| 51>
| 52> $new_job
| 53> ! ri-mp2 aug-cc-pvqz aug-cc-pvqz/c tightscf
| 54> %pal nprocs 16 end
| 55> %maxcore 3800
| 56> %base "QZ_B-Cl_74_AB"
| 57>
| 58> *xyz 0 1
| 59> C        -0.816698    1.584045    0.494505
| 60> O        -1.696534    1.175669   -0.501087
| 61> C        -2.414351    0.000023   -0.273651
| 62> O        -1.696647   -1.175708   -0.500997
| 63> C        -0.816728   -1.583988    0.494560
| 64> O         0.515195   -1.221161    0.237946
| 65> B         1.076486   -0.000009    0.109519
| 66> Cl         2.808940   -0.000024   -0.255456
| 67> O         0.515243    1.221153    0.238069
| 68> H        -3.227731    0.000030   -0.992851
| 69> H        -2.805423    0.000083    0.752829
| 70> H        -0.823424   -2.670761    0.504750
| 71> H        -1.132898   -1.200649    1.470983
| 72> H        -1.132971    1.200835    1.470944
| 73> H        -0.823362    2.670820    0.504562
| 74> *
| 75>
| 76>
| 77>
| 78>
| 79>                          ****END OF INPUT****
 Total Charge           Charge          ....    0
 Multiplicity           Mult            ....    1
 Number of Electrons    NEL             ....   78
MP2 TOTAL ENERGY:     -902.341421027 Eh
FINAL SINGLE POINT ENERGY      -902.341421027106
MP2 TOTAL ENERGY:     -902.788699870 Eh
FINAL SINGLE POINT ENERGY      -902.788699869630

CARTESIAN COORDINATES (ANGSTROEM)
---------------------------------
  C     -0.816698    1.584045    0.494505
  O     -1.696534    1.175669   -0.501087
  C     -2.414351    0.000023   -0.273651
  O     -1.696647   -1.175708   -0.500997
  C     -0.816728   -1.583988    0.494560
  O      0.515195   -1.221161    0.237946
  B      1.076486   -0.000009    0.109519
  Cl     2.808940   -0.000024   -0.255456
  O      0.515243    1.221153    0.238069
  H     -3.227731    0.000030   -0.992851
  H     -2.805423    0.000083    0.752829
  H     -0.823424   -2.670761    0.504750
  H     -1.132898   -1.200649    1.470983
  H     -1.132971    1.200835    1.470944
  H     -0.823362    2.670820    0.504562

 Multiplicity           Mult            ....    1
 Number of Electrons    NEL             ....   78
 Basis Dimension        Dim             .... 1000

ORBITAL ENERGIES
----------------

  NO   OCC          E(Eh)            E(eV)
   0   2.0000    -104.810358     -2852.0348
   1   2.0000     -20.593138      -560.3678
   2   2.0000     -20.593120      -560.3673
   3   2.0000     -20.584900      -560.1436
   4   2.0000     -20.584882      -560.1431
   5   2.0000     -11.363493      -309.2164
   6   2.0000     -11.363492      -309.2163
   7   2.0000     -11.357701      -309.0587
   8   2.0000     -10.538333      -286.7626
   9   2.0000      -8.005264      -217.8343
  10   2.0000      -8.004147      -217.8039
  11   2.0000      -8.004002      -217.8000
  12   2.0000      -7.704094      -209.6390
  13   2.0000      -1.476153       -40.1682
  14   2.0000      -1.427882       -38.8546
  15   2.0000      -1.405101       -38.2347
  16   2.0000      -1.358341       -36.9623
  17   2.0000      -1.093867       -29.7656
  18   2.0000      -1.016878       -27.6706
  19   2.0000      -0.951402       -25.8890
  20   2.0000      -0.894389       -24.3376
  21   2.0000      -0.793312       -21.5871
  22   2.0000      -0.743312       -20.2266
  23   2.0000      -0.743237       -20.2245
  24   2.0000      -0.733328       -19.9549
  25   2.0000      -0.693911       -18.8823
  26   2.0000      -0.681219       -18.5369
  27   2.0000      -0.657092       -17.8804
  28   2.0000      -0.614849       -16.7309
  29   2.0000      -0.570495       -15.5240
  30   2.0000      -0.555684       -15.1209
  31   2.0000      -0.539675       -14.6853
  32   2.0000      -0.522659       -14.2223
  33   2.0000      -0.514675       -14.0050
  34   2.0000      -0.505254       -13.7487
  35   2.0000      -0.487289       -13.2598
  36   2.0000      -0.468812       -12.7570
  37   2.0000      -0.450081       -12.2473
  38   2.0000      -0.444771       -12.1028
  39   0.0000       0.018304         0.4981
  40   0.0000       0.028622         0.7789
  41   0.0000       0.030307         0.8247
  42   0.0000       0.034851         0.9483
  43   0.0000       0.045156         1.2288

MULLIKEN ATOMIC CHARGES
-----------------------
   0 C :    0.289847
   1 O :   -0.940657
   2 C :    0.088192
   3 O :   -0.940682
   4 C :    0.289857
   5 O :   -1.236501
   6 B :    1.630931
   7 Cl:   -0.251177
   8 O :   -1.236455
   9 H :    0.565694
  10 H :    0.204248
  11 H :    0.555764
  12 H :    0.212594
  13 H :    0.212574
  14 H :    0.555772
Sum of atomic charges:    0.0000000

LOEWDIN ATOMIC CHARGES
----------------------
   0 C :   -0.180022
   1 O :    0.908730
   2 C :   -0.173853
   3 O :    0.908727
   4 C :   -0.180028
   5 O :    0.863150
   6 B :   -2.213663
   7 Cl:    1.255924
   8 O :    0.863150
   9 H :   -0.348592
  10 H :   -0.343411
  11 H :   -0.340760
  12 H :   -0.339294
  13 H :   -0.339296
  14 H :   -0.340761

  Mayer bond orders larger than 0.100000
B(  0-C ,  1-O ) :   0.7873 B(  0-C ,  8-O ) :   0.7417 B(  0-C , 13-H ) :   0.9119
B(  0-C , 14-H ) :   0.6749 B(  1-O ,  2-C ) :   0.8351 B(  2-C ,  3-O ) :   0.8351
B(  2-C ,  9-H ) :   0.6407 B(  2-C , 10-H ) :   0.9658 B(  3-O ,  4-C ) :   0.7873
B(  4-C ,  5-O ) :   0.7417 B(  4-C , 11-H ) :   0.6749 B(  4-C , 12-H ) :   0.9119
B(  5-O ,  6-B ) :   0.3784 B(  6-B ,  7-Cl) :   0.7623 B(  6-B ,  8-O ) :   0.3784

MP2 TOTAL ENERGY:     -902.933762426 Eh
FINAL SINGLE POINT ENERGY      -902.933762426281

DIPOLE MOMENT
-------------
                                X             Y             Z
Electronic contribution:     12.67940      -0.00028      -2.66564
Nuclear contribution   :    -14.29810       0.00038       3.82729
                        -----------------------------------------
Total Dipole Moment    :     -1.61870       0.00010       1.16166
                        -----------------------------------------
Magnitude (a.u.)       :      1.99240
Magnitude (Debye)      :      5.06427

Rotational constants in cm-1:     0.086497     0.032095     0.025185
Rotational constants in MHz :  2593.101248   962.175343   755.013339

                             ****ORCA TERMINATED NORMALLY****
TOTAL RUN TIME: 0 days 2 hours 5 minutes 41 seconds 164 msec
