                         Program Version 5.0.4 -  RELEASE  -
|  1> ! ri-mp2 aug-cc-pvdz aug-cc-pvdz/c tightscf
|  2> %pal nprocs 16 end
|  3> %maxcore 3800
|  4> %base "DZ_Si-Cl_86_A"
|  5> %scf
|  6> STABPerform true
|  7> STABRestartUHFifUnstable true
|  8> end
|  9>
| 10> *xyz 0 2
| 11> C        -0.861096    0.000000    0.000459
| 12> Si         0.945252    0.000000   -0.681293
| 13> Cl        -0.884128   -0.000012    1.771146
| 14> Cl        -1.679696   -1.450455   -0.614050
| 15> Cl        -1.679687    1.450468   -0.614029
| 16> Cl         1.884493   -1.672262    0.008918
| 17> Cl         1.884493    1.672261    0.008918
| 18> *
| 19>
| 20> $new_job
| 21> ! ri-mp2 aug-cc-pvtz aug-cc-pvtz/c tightscf
| 22> %pal nprocs 16 end
| 23> %maxcore 3800
| 24> %base "TZ_Si-Cl_86_A"
| 25>
| 26> *xyz 0 2
| 27> C        -0.861096    0.000000    0.000459
| 28> Si         0.945252    0.000000   -0.681293
| 29> Cl        -0.884128   -0.000012    1.771146
| 30> Cl        -1.679696   -1.450455   -0.614050
| 31> Cl        -1.679687    1.450468   -0.614029
| 32> Cl         1.884493   -1.672262    0.008918
| 33> Cl         1.884493    1.672261    0.008918
| 34> *
| 35>
| 36> $new_job
| 37> ! ri-mp2 aug-cc-pvqz aug-cc-pvqz/c tightscf
| 38> %pal nprocs 16 end
| 39> %maxcore 3800
| 40> %base "QZ_Si-Cl_86_A"
| 41>
| 42> *xyz 0 2
| 43> C        -0.861096    0.000000    0.000459
| 44> Si         0.945252    0.000000   -0.681293
| 45> Cl        -0.884128   -0.000012    1.771146
| 46> Cl        -1.679696   -1.450455   -0.614050
| 47> Cl        -1.679687    1.450468   -0.614029
| 48> Cl         1.884493   -1.672262    0.008918
| 49> Cl         1.884493    1.672261    0.008918
| 50> *
| 51>
| 52>
| 53>
| 54>
| 55>                          ****END OF INPUT****
 Total Charge           Charge          ....    0
 Multiplicity           Mult            ....    2
 Number of Electrons    NEL             ....  105
MP2 TOTAL ENERGY:    -2625.337212856 Eh
FINAL SINGLE POINT ENERGY     -2625.337212855623
MP2 TOTAL ENERGY:    -2625.704976178 Eh
FINAL SINGLE POINT ENERGY     -2625.704976177681

CARTESIAN COORDINATES (ANGSTROEM)
---------------------------------
  C     -0.861096    0.000000    0.000459
  Si     0.945252    0.000000   -0.681293
  Cl    -0.884128   -0.000012    1.771146
  Cl    -1.679696   -1.450455   -0.614050
  Cl    -1.679687    1.450468   -0.614029
  Cl     1.884493   -1.672262    0.008918
  Cl     1.884493    1.672261    0.008918

 Multiplicity           Mult            ....    2
 Number of Electrons    NEL             ....  105
 Basis Dimension        Dim             ....  584

ORBITAL ENERGIES
----------------
                 SPIN UP ORBITALS
  NO   OCC          E(Eh)            E(eV)
   0   1.0000    -104.872012     -2853.7125
   1   1.0000    -104.872012     -2853.7125
   2   1.0000    -104.870478     -2853.6708
   3   1.0000    -104.858123     -2853.3346
   4   1.0000    -104.858123     -2853.3346
   5   1.0000     -68.898155     -1874.8141
   6   1.0000     -11.433546      -311.1226
   7   1.0000     -10.597662      -288.3770
   8   1.0000     -10.597653      -288.3768
   9   1.0000     -10.596086      -288.3342
  10   1.0000     -10.585384      -288.0429
  11   1.0000     -10.585379      -288.0428
  12   1.0000      -8.064510      -219.4465
  13   1.0000      -8.064508      -219.4464
  14   1.0000      -8.063477      -219.4184
  15   1.0000      -8.062707      -219.3974
  16   1.0000      -8.062706      -219.3974
  17   1.0000      -8.062613      -219.3949
  18   1.0000      -8.062612      -219.3948
  19   1.0000      -8.061077      -219.3531
  20   1.0000      -8.060994      -219.3508
  21   1.0000      -8.053487      -219.1465
  22   1.0000      -8.053486      -219.1465
  23   1.0000      -8.050858      -219.0750
  24   1.0000      -8.050858      -219.0750
  25   1.0000      -8.050548      -219.0665
  26   1.0000      -8.050548      -219.0665
  27   1.0000      -6.238811      -169.7667
  28   1.0000      -4.348975      -118.3416
  29   1.0000      -4.341435      -118.1365
  30   1.0000      -4.340444      -118.1095
  31   1.0000      -1.247886       -33.9567
  32   1.0000      -1.145199       -31.1624
  33   1.0000      -1.124201       -30.5911
  34   1.0000      -1.121498       -30.5175
  35   1.0000      -1.114847       -30.3365
  36   1.0000      -0.868595       -23.6357
  37   1.0000      -0.725768       -19.7491
  38   1.0000      -0.637675       -17.3520
  39   1.0000      -0.637662       -17.3517
  40   1.0000      -0.627178       -17.0664
  41   1.0000      -0.576246       -15.6805
  42   1.0000      -0.546971       -14.8838
  43   1.0000      -0.514192       -13.9919
  44   1.0000      -0.512714       -13.9517
  45   1.0000      -0.507631       -13.8133
  46   1.0000      -0.501612       -13.6496
  47   1.0000      -0.485466       -13.2102
  48   1.0000      -0.472079       -12.8459
  49   1.0000      -0.465531       -12.6677
  50   1.0000      -0.457115       -12.4387
  51   1.0000      -0.449465       -12.2306
  52   1.0000      -0.377797       -10.2804
  53   0.0000       0.031573         0.8591
  54   0.0000       0.039832         1.0839
  55   0.0000       0.040423         1.1000
  56   0.0000       0.043472         1.1829
  57   0.0000       0.066994         1.8230

                 SPIN DOWN ORBITALS
  NO   OCC          E(Eh)            E(eV)
   0   1.0000    -104.872095     -2853.7148
   1   1.0000    -104.872095     -2853.7148
   2   1.0000    -104.870137     -2853.6615
   3   1.0000    -104.856980     -2853.3035
   4   1.0000    -104.856980     -2853.3035
   5   1.0000     -68.891760     -1874.6401
   6   1.0000     -11.430579      -311.0419
   7   1.0000     -10.597749      -288.3794
   8   1.0000     -10.597741      -288.3792
   9   1.0000     -10.595730      -288.3245
  10   1.0000     -10.584136      -288.0090
  11   1.0000     -10.584129      -288.0088
  12   1.0000      -8.064813      -219.4547
  13   1.0000      -8.064811      -219.4547
  14   1.0000      -8.062745      -219.3984
  15   1.0000      -8.062744      -219.3984
  16   1.0000      -8.062704      -219.3973
  17   1.0000      -8.062704      -219.3973
  18   1.0000      -8.062434      -219.3900
  19   1.0000      -8.060804      -219.3456
  20   1.0000      -8.060513      -219.3377
  21   1.0000      -8.050671      -219.0699
  22   1.0000      -8.050670      -219.0699
  23   1.0000      -8.049953      -219.0504
  24   1.0000      -8.049953      -219.0503
  25   1.0000      -8.048474      -219.0101
  26   1.0000      -8.048473      -219.0101
  27   1.0000      -6.228009      -169.4728
  28   1.0000      -4.337317      -118.0244
  29   1.0000      -4.336504      -118.0023
  30   1.0000      -4.328323      -117.7797
  31   1.0000      -1.245049       -33.8795
  32   1.0000      -1.135627       -30.9020
  33   1.0000      -1.123034       -30.5593
  34   1.0000      -1.119605       -30.4660
  35   1.0000      -1.107549       -30.1379
  36   1.0000      -0.857068       -23.3220
  37   1.0000      -0.701414       -19.0864
  38   1.0000      -0.636114       -17.3096
  39   1.0000      -0.633643       -17.2423
  40   1.0000      -0.612785       -16.6747
  41   1.0000      -0.563655       -15.3378
  42   1.0000      -0.528054       -14.3691
  43   1.0000      -0.514053       -13.9881
  44   1.0000      -0.508772       -13.8444
  45   1.0000      -0.503340       -13.6966
  46   1.0000      -0.493906       -13.4399
  47   1.0000      -0.482355       -13.1256
  48   1.0000      -0.470745       -12.8096
  49   1.0000      -0.465124       -12.6567
  50   1.0000      -0.456687       -12.4271
  51   1.0000      -0.437736       -11.9114
  52   0.0000       0.002643         0.0719
  53   0.0000       0.038536         1.0486
  54   0.0000       0.040513         1.1024
  55   0.0000       0.041134         1.1193
  56   0.0000       0.043635         1.1874

MULLIKEN ATOMIC CHARGES AND SPIN POPULATIONS
--------------------------------------------
   0 C :    0.274504    0.005508
   1 Si:    1.472989    0.866458
   2 Cl:   -0.182972    0.025284
   3 Cl:   -0.205776   -0.000437
   4 Cl:   -0.205776   -0.000437
   5 Cl:   -0.576484    0.051812
   6 Cl:   -0.576484    0.051812
Sum of atomic charges         :    0.0000000

LOEWDIN ATOMIC CHARGES AND SPIN POPULATIONS
-------------------------------------------
   0 C :   -2.722923    0.135424
   1 Si:   -1.708182    0.547681
   2 Cl:    0.942818    0.032350
   3 Cl:    0.940138    0.012963
   4 Cl:    0.940139    0.012963
   5 Cl:    0.804005    0.129309
   6 Cl:    0.804006    0.129310

  Mayer bond orders larger than 0.100000
B(  0-C ,  1-Si) :   0.6496 B(  0-C ,  2-Cl) :   0.7991 B(  0-C ,  3-Cl) :   0.8033
B(  0-C ,  4-Cl) :   0.8033 B(  1-Si,  5-Cl) :   0.6819 B(  1-Si,  6-Cl) :   0.6819

MP2 TOTAL ENERGY:    -2625.829818674 Eh
FINAL SINGLE POINT ENERGY     -2625.829818673901

DIPOLE MOMENT
-------------
                                X             Y             Z
Electronic contribution:     -0.46551       0.00000       0.37564
Nuclear contribution   :      0.56384       0.00000      -0.69049
                        -----------------------------------------
Total Dipole Moment    :      0.09833       0.00000      -0.31485
                        -----------------------------------------
Magnitude (a.u.)       :      0.32985
Magnitude (Debye)      :      0.83841

Rotational constants in cm-1:     0.033820     0.025367     0.019578
Rotational constants in MHz :  1013.906628   760.470172   586.944144

                             ****ORCA TERMINATED NORMALLY****
TOTAL RUN TIME: 0 days 0 hours 54 minutes 27 seconds 544 msec
