                         Program Version 5.0.4 -  RELEASE  -
|  1> ! ri-mp2 aug-cc-pvdz aug-cc-pvdz/c tightscf
|  2> %pal nprocs 16 end
|  3> %maxcore 3800
|  4> %base "DZ_B-F_76_AB"
|  5> %scf
|  6> STABPerform true
|  7> STABRestartUHFifUnstable true
|  8> end
|  9>
| 10> *xyz 0 1
| 11> C         0.407273   -1.587504    0.481558
| 12> O         1.350751   -1.176136   -0.455211
| 13> C         2.050819    0.000066   -0.179847
| 14> O         1.350551    1.176120   -0.455346
| 15> C         0.407175    1.587590    0.481483
| 16> O        -0.902096    1.226559    0.141001
| 17> B        -1.450626   -0.000043   -0.026088
| 18> F        -2.729126   -0.000082   -0.389245
| 19> O        -0.901970   -1.226613    0.140821
| 20> H         2.911342    0.000095   -0.842046
| 21> H         2.371818    0.000156    0.870703
| 22> H         0.418198    2.674596    0.491462
| 23> H         0.663058    1.205470    1.476234
| 24> H         0.662993   -1.205195    1.476280
| 25> H         0.418369   -2.674508    0.491726
| 26> *
| 27>
| 28> $new_job
| 29> ! ri-mp2 aug-cc-pvtz aug-cc-pvtz/c tightscf
| 30> %pal nprocs 16 end
| 31> %maxcore 3800
| 32> %base "TZ_B-F_76_AB"
| 33>
| 34> *xyz 0 1
| 35> C         0.407273   -1.587504    0.481558
| 36> O         1.350751   -1.176136   -0.455211
| 37> C         2.050819    0.000066   -0.179847
| 38> O         1.350551    1.176120   -0.455346
| 39> C         0.407175    1.587590    0.481483
| 40> O        -0.902096    1.226559    0.141001
| 41> B        -1.450626   -0.000043   -0.026088
| 42> F        -2.729126   -0.000082   -0.389245
| 43> O        -0.901970   -1.226613    0.140821
| 44> H         2.911342    0.000095   -0.842046
| 45> H         2.371818    0.000156    0.870703
| 46> H         0.418198    2.674596    0.491462
| 47> H         0.663058    1.205470    1.476234
| 48> H         0.662993   -1.205195    1.476280
| 49> H         0.418369   -2.674508    0.491726
| 50> *
| 51>
| 52> $new_job
| 53> ! ri-mp2 aug-cc-pvqz aug-cc-pvqz/c tightscf
| 54> %pal nprocs 16 end
| 55> %maxcore 3800
| 56> %base "QZ_B-F_76_AB"
| 57>
| 58> *xyz 0 1
| 59> C         0.407273   -1.587504    0.481558
| 60> O         1.350751   -1.176136   -0.455211
| 61> C         2.050819    0.000066   -0.179847
| 62> O         1.350551    1.176120   -0.455346
| 63> C         0.407175    1.587590    0.481483
| 64> O        -0.902096    1.226559    0.141001
| 65> B        -1.450626   -0.000043   -0.026088
| 66> F        -2.729126   -0.000082   -0.389245
| 67> O        -0.901970   -1.226613    0.140821
| 68> H         2.911342    0.000095   -0.842046
| 69> H         2.371818    0.000156    0.870703
| 70> H         0.418198    2.674596    0.491462
| 71> H         0.663058    1.205470    1.476234
| 72> H         0.662993   -1.205195    1.476280
| 73> H         0.418369   -2.674508    0.491726
| 74> *
| 75>
| 76>
| 77>
| 78>
| 79>                          ****END OF INPUT****
 Total Charge           Charge          ....    0
 Multiplicity           Mult            ....    1
 Number of Electrons    NEL             ....   70
MP2 TOTAL ENERGY:     -542.358968351 Eh
FINAL SINGLE POINT ENERGY      -542.358968350697
MP2 TOTAL ENERGY:     -542.833970786 Eh
FINAL SINGLE POINT ENERGY      -542.833970786226

CARTESIAN COORDINATES (ANGSTROEM)
---------------------------------
  C      0.407273   -1.587504    0.481558
  O      1.350751   -1.176136   -0.455211
  C      2.050819    0.000066   -0.179847
  O      1.350551    1.176120   -0.455346
  C      0.407175    1.587590    0.481483
  O     -0.902096    1.226559    0.141001
  B     -1.450626   -0.000043   -0.026088
  F     -2.729126   -0.000082   -0.389245
  O     -0.901970   -1.226613    0.140821
  H      2.911342    0.000095   -0.842046
  H      2.371818    0.000156    0.870703
  H      0.418198    2.674596    0.491462
  H      0.663058    1.205470    1.476234
  H      0.662993   -1.205195    1.476280
  H      0.418369   -2.674508    0.491726

 Multiplicity           Mult            ....    1
 Number of Electrons    NEL             ....   70
 Basis Dimension        Dim             ....  996

ORBITAL ENERGIES
----------------

  NO   OCC          E(Eh)            E(eV)
   0   2.0000     -26.278274      -715.0682
   1   2.0000     -20.590334      -560.2915
   2   2.0000     -20.590315      -560.2910
   3   2.0000     -20.580072      -560.0122
   4   2.0000     -20.580054      -560.0117
   5   2.0000     -11.360668      -309.1395
   6   2.0000     -11.360666      -309.1394
   7   2.0000     -11.355404      -308.9963
   8   2.0000      -7.698519      -209.4873
   9   2.0000      -1.599212       -43.5168
  10   2.0000      -1.471976       -40.0545
  11   2.0000      -1.425006       -38.7764
  12   2.0000      -1.397243       -38.0209
  13   2.0000      -1.355041       -36.8725
  14   2.0000      -1.017886       -27.6981
  15   2.0000      -0.949638       -25.8410
  16   2.0000      -0.894367       -24.3370
  17   2.0000      -0.799641       -21.7593
  18   2.0000      -0.758139       -20.6300
  19   2.0000      -0.748875       -20.3779
  20   2.0000      -0.735607       -20.0169
  21   2.0000      -0.712232       -19.3808
  22   2.0000      -0.694937       -18.9102
  23   2.0000      -0.681565       -18.5463
  24   2.0000      -0.665237       -18.1020
  25   2.0000      -0.638401       -17.3718
  26   2.0000      -0.627744       -17.0818
  27   2.0000      -0.588697       -16.0193
  28   2.0000      -0.567869       -15.4525
  29   2.0000      -0.531650       -14.4669
  30   2.0000      -0.519633       -14.1399
  31   2.0000      -0.512548       -13.9471
  32   2.0000      -0.495981       -13.4963
  33   2.0000      -0.487845       -13.2749
  34   2.0000      -0.465671       -12.6716
  35   0.0000       0.019244         0.5236
  36   0.0000       0.029028         0.7899
  37   0.0000       0.030659         0.8343
  38   0.0000       0.035423         0.9639
  39   0.0000       0.044910         1.2221

MULLIKEN ATOMIC CHARGES
-----------------------
   0 C :    0.287148
   1 O :   -0.930952
   2 C :    0.100532
   3 O :   -0.930916
   4 C :    0.287152
   5 O :   -1.060160
   6 B :    1.898877
   7 F :   -0.879441
   8 O :   -1.060232
   9 H :    0.569775
  10 H :    0.194333
  11 H :    0.555053
  12 H :    0.206878
  13 H :    0.206906
  14 H :    0.555047
Sum of atomic charges:    0.0000000

LOEWDIN ATOMIC CHARGES
----------------------
   0 C :   -0.179035
   1 O :    0.907062
   2 C :   -0.175808
   3 O :    0.907066
   4 C :   -0.179028
   5 O :    0.931690
   6 B :   -1.889883
   7 F :    0.805135
   8 O :    0.931689
   9 H :   -0.349422
  10 H :   -0.344583
  11 H :   -0.341867
  12 H :   -0.340576
  13 H :   -0.340573
  14 H :   -0.341866

  Mayer bond orders larger than 0.100000
B(  0-C ,  1-O ) :   0.7987 B(  0-C ,  8-O ) :   0.7454 B(  0-C , 13-H ) :   0.9075
B(  0-C , 14-H ) :   0.6873 B(  1-O ,  2-C ) :   0.8326 B(  2-C ,  3-O ) :   0.8326
B(  2-C ,  9-H ) :   0.6365 B(  2-C , 10-H ) :   0.9708 B(  3-O ,  4-C ) :   0.7986
B(  4-C ,  5-O ) :   0.7453 B(  4-C , 11-H ) :   0.6873 B(  4-C , 12-H ) :   0.9075
B(  5-O ,  6-B ) :   0.4289 B(  5-O ,  7-F ) :  -0.2323 B(  6-B ,  7-F ) :   0.5676
B(  6-B ,  8-O ) :   0.4288 B(  7-F ,  8-O ) :  -0.2322

MP2 TOTAL ENERGY:     -542.986564759 Eh
FINAL SINGLE POINT ENERGY      -542.986564759064

DIPOLE MOMENT
-------------
                                X             Y             Z
Electronic contribution:     -9.54245      -0.00053      -2.96834
Nuclear contribution   :     10.95576       0.00070       4.21807
                        -----------------------------------------
Total Dipole Moment    :      1.41331       0.00017       1.24973
                        -----------------------------------------
Magnitude (a.u.)       :      1.88661
Magnitude (Debye)      :      4.79537

Rotational constants in cm-1:     0.087516     0.049580     0.034546
Rotational constants in MHz :  2623.653425  1486.366200  1035.660502

                             ****ORCA TERMINATED NORMALLY****
TOTAL RUN TIME: 0 days 1 hours 54 minutes 8 seconds 973 msec
