                         Program Version 5.0.4 -  RELEASE  -
|  1> ! ri-mp2 aug-cc-pvdz aug-cc-pvdz/c tightscf
|  2> %pal nprocs 16 end
|  3> %maxcore 3800
|  4> %base "DZ_P-S_13_AB"
|  5> %scf
|  6> STABPerform true
|  7> STABRestartUHFifUnstable true
|  8> end
|  9>
| 10> *xyz 0 1
| 11> C         2.182675    0.641531    0.079252
| 12> S         1.182233   -0.867893   -0.034367
| 13> H         2.066677    1.243977   -0.816683
| 14> H         3.215674    0.313363    0.166356
| 15> H         1.911652    1.216868    0.959996
| 16> P        -0.712115   -0.073127   -0.031924
| 17> O        -0.840010    0.907288    1.228469
| 18> O        -1.740801   -1.104260   -0.080996
| 19> H        -1.216411    0.450323    1.990317
| 20> O        -0.651866    0.993508   -1.206141
| 21> H        -1.446224    1.537175   -1.277418
| 22> *
| 23>
| 24> $new_job
| 25> ! ri-mp2 aug-cc-pvtz aug-cc-pvtz/c tightscf
| 26> %pal nprocs 16 end
| 27> %maxcore 3800
| 28> %base "TZ_P-S_13_AB"
| 29>
| 30> *xyz 0 1
| 31> C         2.182675    0.641531    0.079252
| 32> S         1.182233   -0.867893   -0.034367
| 33> H         2.066677    1.243977   -0.816683
| 34> H         3.215674    0.313363    0.166356
| 35> H         1.911652    1.216868    0.959996
| 36> P        -0.712115   -0.073127   -0.031924
| 37> O        -0.840010    0.907288    1.228469
| 38> O        -1.740801   -1.104260   -0.080996
| 39> H        -1.216411    0.450323    1.990317
| 40> O        -0.651866    0.993508   -1.206141
| 41> H        -1.446224    1.537175   -1.277418
| 42> *
| 43>
| 44> $new_job
| 45> ! ri-mp2 aug-cc-pvqz aug-cc-pvqz/c tightscf
| 46> %pal nprocs 16 end
| 47> %maxcore 3800
| 48> %base "QZ_P-S_13_AB"
| 49>
| 50> *xyz 0 1
| 51> C         2.182675    0.641531    0.079252
| 52> S         1.182233   -0.867893   -0.034367
| 53> H         2.066677    1.243977   -0.816683
| 54> H         3.215674    0.313363    0.166356
| 55> H         1.911652    1.216868    0.959996
| 56> P        -0.712115   -0.073127   -0.031924
| 57> O        -0.840010    0.907288    1.228469
| 58> O        -1.740801   -1.104260   -0.080996
| 59> H        -1.216411    0.450323    1.990317
| 60> O        -0.651866    0.993508   -1.206141
| 61> H        -1.446224    1.537175   -1.277418
| 62> *
| 63>
| 64>
| 65>
| 66>
| 67>                          ****END OF INPUT****
 Total Charge           Charge          ....    0
 Multiplicity           Mult            ....    1
 Number of Electrons    NEL             ....   66
MP2 TOTAL ENERGY:    -1004.778182185 Eh
FINAL SINGLE POINT ENERGY     -1004.778182184695
MP2 TOTAL ENERGY:    -1005.141344225 Eh
FINAL SINGLE POINT ENERGY     -1005.141344224750

CARTESIAN COORDINATES (ANGSTROEM)
---------------------------------
  C      2.182675    0.641531    0.079252
  S      1.182233   -0.867893   -0.034367
  H      2.066677    1.243977   -0.816683
  H      3.215674    0.313363    0.166356
  H      1.911652    1.216868    0.959996
  P     -0.712115   -0.073127   -0.031924
  O     -0.840010    0.907288    1.228469
  O     -1.740801   -1.104260   -0.080996
  H     -1.216411    0.450323    1.990317
  O     -0.651866    0.993508   -1.206141
  H     -1.446224    1.537175   -1.277418

 Multiplicity           Mult            ....    1
 Number of Electrons    NEL             ....   66
 Basis Dimension        Dim             ....  718

ORBITAL ENERGIES
----------------

  NO   OCC          E(Eh)            E(eV)
   0   2.0000     -91.970706     -2502.6501
   1   2.0000     -80.090277     -2179.3672
   2   2.0000     -20.609984      -560.8262
   3   2.0000     -20.609017      -560.7999
   4   2.0000     -20.511840      -558.1555
   5   2.0000     -11.270681      -306.6908
   6   2.0000      -8.974392      -244.2056
   7   2.0000      -7.610693      -207.0975
   8   2.0000      -6.655798      -181.1135
   9   2.0000      -6.654905      -181.0892
  10   2.0000      -6.654044      -181.0657
  11   2.0000      -5.508955      -149.9063
  12   2.0000      -5.508636      -149.8976
  13   2.0000      -5.507567      -149.8685
  14   2.0000      -1.449080       -39.4315
  15   2.0000      -1.393118       -37.9087
  16   2.0000      -1.307760       -35.5860
  17   2.0000      -1.065008       -28.9803
  18   2.0000      -0.912534       -24.8313
  19   2.0000      -0.830380       -22.5958
  20   2.0000      -0.763083       -20.7646
  21   2.0000      -0.677623       -18.4390
  22   2.0000      -0.662144       -18.0179
  23   2.0000      -0.625465       -17.0198
  24   2.0000      -0.608468       -16.5573
  25   2.0000      -0.597393       -16.2559
  26   2.0000      -0.574371       -15.6294
  27   2.0000      -0.570937       -15.5360
  28   2.0000      -0.533198       -14.5091
  29   2.0000      -0.476227       -12.9588
  30   2.0000      -0.473202       -12.8765
  31   2.0000      -0.451189       -12.2775
  32   2.0000      -0.384679       -10.4676
  33   0.0000       0.020335         0.5533
  34   0.0000       0.030410         0.8275
  35   0.0000       0.033063         0.8997
  36   0.0000       0.043664         1.1882
  37   0.0000       0.050341         1.3699

MULLIKEN ATOMIC CHARGES
-----------------------
   0 C :   -0.943282
   1 S :   -0.080587
   2 H :    0.273588
   3 H :    0.389065
   4 H :    0.298254
   5 P :    2.252048
   6 O :   -0.859238
   7 O :   -1.194626
   8 H :    0.376373
   9 O :   -0.877411
  10 H :    0.365816
Sum of atomic charges:    0.0000000

LOEWDIN ATOMIC CHARGES
----------------------
   0 C :    0.496916
   1 S :    1.158288
   2 H :   -0.381856
   3 H :   -0.391573
   4 H :   -0.382978
   5 P :   -1.119333
   6 O :    1.059393
   7 O :    0.230188
   8 H :   -0.872299
   9 O :    1.048147
  10 H :   -0.844894

  Mayer bond orders larger than 0.100000
B(  0-C ,  1-S ) :   0.9701 B(  0-C ,  2-H ) :   0.9119 B(  0-C ,  3-H ) :   0.8277
B(  0-C ,  4-H ) :   0.8994 B(  1-S ,  5-P ) :   1.0500 B(  5-P ,  6-O ) :   0.6756
B(  5-P ,  7-O ) :   1.3060 B(  5-P ,  9-O ) :   0.6273 B(  6-O ,  8-H ) :   0.9128
B(  9-O , 10-H ) :   0.9104

MP2 TOTAL ENERGY:    -1005.258433408 Eh
FINAL SINGLE POINT ENERGY     -1005.258433407987

DIPOLE MOMENT
-------------
                                X             Y             Z
Electronic contribution:     -4.25031      -3.31750      -0.53198
Nuclear contribution   :      4.95700       4.71366       1.01916
                        -----------------------------------------
Total Dipole Moment    :      0.70669       1.39616       0.48718
                        -----------------------------------------
Magnitude (a.u.)       :      1.63891
Magnitude (Debye)      :      4.16578

Rotational constants in cm-1:     0.122048     0.064561     0.058245
Rotational constants in MHz :  3658.915933  1935.495384  1746.147169

                             ****ORCA TERMINATED NORMALLY****
TOTAL RUN TIME: 0 days 0 hours 44 minutes 18 seconds 84 msec
