                         Program Version 5.0.4 -  RELEASE  -
|  1> ! ri-mp2 aug-cc-pvdz aug-cc-pvdz/c tightscf
|  2> %pal nprocs 16 end
|  3> %maxcore 3800
|  4> %base "DZ_Si-Cl_29_AB"
|  5> %scf
|  6> STABPerform true
|  7> STABRestartUHFifUnstable true
|  8> end
|  9>
| 10> *xyz 0 1
| 11> Si         0.319509   -0.077609   -0.000001
| 12> C         1.281954    1.477111   -0.000001
| 13> Cl        -1.684656    0.237958    0.000003
| 14> F         0.668030   -0.956726    1.266974
| 15> F         0.668026   -0.956723   -1.266979
| 16> H         2.350187    1.258209   -0.000011
| 17> H         1.049807    2.070702    0.883864
| 18> H         1.049792    2.070711   -0.883855
| 19> *
| 20>
| 21> $new_job
| 22> ! ri-mp2 aug-cc-pvtz aug-cc-pvtz/c tightscf
| 23> %pal nprocs 16 end
| 24> %maxcore 3800
| 25> %base "TZ_Si-Cl_29_AB"
| 26>
| 27> *xyz 0 1
| 28> Si         0.319509   -0.077609   -0.000001
| 29> C         1.281954    1.477111   -0.000001
| 30> Cl        -1.684656    0.237958    0.000003
| 31> F         0.668030   -0.956726    1.266974
| 32> F         0.668026   -0.956723   -1.266979
| 33> H         2.350187    1.258209   -0.000011
| 34> H         1.049807    2.070702    0.883864
| 35> H         1.049792    2.070711   -0.883855
| 36> *
| 37>
| 38> $new_job
| 39> ! ri-mp2 aug-cc-pvqz aug-cc-pvqz/c tightscf
| 40> %pal nprocs 16 end
| 41> %maxcore 3800
| 42> %base "QZ_Si-Cl_29_AB"
| 43>
| 44> *xyz 0 1
| 45> Si         0.319509   -0.077609   -0.000001
| 46> C         1.281954    1.477111   -0.000001
| 47> Cl        -1.684656    0.237958    0.000003
| 48> F         0.668030   -0.956726    1.266974
| 49> F         0.668026   -0.956723   -1.266979
| 50> H         2.350187    1.258209   -0.000011
| 51> H         1.049807    2.070702    0.883864
| 52> H         1.049792    2.070711   -0.883855
| 53> *
| 54>
| 55>
| 56>
| 57>
| 58>                          ****END OF INPUT****
 Total Charge           Charge          ....    0
 Multiplicity           Mult            ....    1
 Number of Electrons    NEL             ....   58
MP2 TOTAL ENERGY:     -987.958924414 Eh
FINAL SINGLE POINT ENERGY      -987.958924414303
MP2 TOTAL ENERGY:     -988.277174938 Eh
FINAL SINGLE POINT ENERGY      -988.277174938362

CARTESIAN COORDINATES (ANGSTROEM)
---------------------------------
  Si     0.319509   -0.077609   -0.000001
  C      1.281954    1.477111   -0.000001
  Cl    -1.684656    0.237958    0.000003
  F      0.668030   -0.956726    1.266974
  F      0.668026   -0.956723   -1.266979
  H      2.350187    1.258209   -0.000011
  H      1.049807    2.070702    0.883864
  H      1.049792    2.070711   -0.883855

 Multiplicity           Mult            ....    1
 Number of Electrons    NEL             ....   58
 Basis Dimension        Dim             ....  546

ORBITAL ENERGIES
----------------

  NO   OCC          E(Eh)            E(eV)
   0   2.0000    -104.844172     -2852.9550
   1   2.0000     -68.881580     -1874.3631
   2   2.0000     -26.305142      -715.7993
   3   2.0000     -26.305133      -715.7991
   4   2.0000     -11.235072      -305.7219
   5   2.0000     -10.572009      -287.6790
   6   2.0000      -8.038818      -218.7473
   7   2.0000      -8.037686      -218.7165
   8   2.0000      -8.037679      -218.7164
   9   2.0000      -6.217667      -169.1913
  10   2.0000      -4.326006      -117.7166
  11   2.0000      -4.325951      -117.7151
  12   2.0000      -4.324312      -117.6705
  13   2.0000      -1.621804       -44.1315
  14   2.0000      -1.602011       -43.5929
  15   2.0000      -1.118496       -30.4358
  16   2.0000      -0.983983       -26.7755
  17   2.0000      -0.795944       -21.6587
  18   2.0000      -0.733821       -19.9683
  19   2.0000      -0.707094       -19.2410
  20   2.0000      -0.703393       -19.1403
  21   2.0000      -0.676858       -18.4183
  22   2.0000      -0.659298       -17.9404
  23   2.0000      -0.604206       -16.4413
  24   2.0000      -0.585577       -15.9344
  25   2.0000      -0.577991       -15.7279
  26   2.0000      -0.514572       -14.0022
  27   2.0000      -0.489318       -13.3150
  28   2.0000      -0.479385       -13.0447
  29   0.0000       0.022733         0.6186
  30   0.0000       0.037254         1.0137
  31   0.0000       0.038234         1.0404
  32   0.0000       0.041381         1.1260
  33   0.0000       0.059189         1.6106

MULLIKEN ATOMIC CHARGES
-----------------------
   0 Si:    2.276948
   1 C :   -0.964703
   2 Cl:   -0.578800
   3 F :   -0.729180
   4 F :   -0.729180
   5 H :    0.244010
   6 H :    0.240453
   7 H :    0.240453
Sum of atomic charges:    0.0000000

LOEWDIN ATOMIC CHARGES
----------------------
   0 Si:   -1.609436
   1 C :    0.895622
   2 Cl:    0.959964
   3 F :    0.418976
   4 F :    0.418976
   5 H :   -0.354631
   6 H :   -0.364735
   7 H :   -0.364737

  Mayer bond orders larger than 0.100000
B(  0-Si,  1-C ) :   0.9048 B(  0-Si,  2-Cl) :   0.5948 B(  0-Si,  3-F ) :   0.4612
B(  0-Si,  4-F ) :   0.4612 B(  1-C ,  5-H ) :   0.9493 B(  1-C ,  6-H ) :   0.9545
B(  1-C ,  7-H ) :   0.9545

MP2 TOTAL ENERGY:     -988.382287439 Eh
FINAL SINGLE POINT ENERGY      -988.382287439257

DIPOLE MOMENT
-------------
                                X             Y             Z
Electronic contribution:     -4.75629      -5.65861       0.00000
Nuclear contribution   :      5.15914       6.49776      -0.00000
                        -----------------------------------------
Total Dipole Moment    :      0.40285       0.83915      -0.00000
                        -----------------------------------------
Magnitude (a.u.)       :      0.93084
Magnitude (Debye)      :      2.36600

Rotational constants in cm-1:     0.125436     0.079726     0.076382
Rotational constants in MHz :  3760.489391  2390.115654  2289.860895

                             ****ORCA TERMINATED NORMALLY****
TOTAL RUN TIME: 0 days 0 hours 22 minutes 12 seconds 980 msec
