                         Program Version 5.0.4 -  RELEASE  -
|  1> ! ri-mp2 aug-cc-pvdz aug-cc-pvdz/c tightscf
|  2> %pal nprocs 16 end
|  3> %maxcore 3800
|  4> %base "DZ_B-P_10_AB"
|  5> %scf
|  6> STABPerform true
|  7> STABRestartUHFifUnstable true
|  8> end
|  9>
| 10> *xyz 0 1
| 11> B         0.000007    1.862579    0.205633
| 12> P         0.000000    0.138552   -0.319546
| 13> C        -1.467737   -0.839502    0.149275
| 14> H        -2.353093   -0.221952    0.007758
| 15> H        -1.426897   -1.160370    1.189747
| 16> C         1.467730   -0.839513    0.149275
| 17> H        -1.559550   -1.719234   -0.486109
| 18> H         1.559537   -1.719246   -0.486109
| 19> H         2.353091   -0.221969    0.007758
| 20> H         1.426888   -1.160381    1.189747
| 21> H         1.036037    2.443028    0.275467
| 22> H        -1.036018    2.443036    0.275468
| 23> *
| 24>
| 25> $new_job
| 26> ! ri-mp2 aug-cc-pvtz aug-cc-pvtz/c tightscf
| 27> %pal nprocs 16 end
| 28> %maxcore 3800
| 29> %base "TZ_B-P_10_AB"
| 30>
| 31> *xyz 0 1
| 32> B         0.000007    1.862579    0.205633
| 33> P         0.000000    0.138552   -0.319546
| 34> C        -1.467737   -0.839502    0.149275
| 35> H        -2.353093   -0.221952    0.007758
| 36> H        -1.426897   -1.160370    1.189747
| 37> C         1.467730   -0.839513    0.149275
| 38> H        -1.559550   -1.719234   -0.486109
| 39> H         1.559537   -1.719246   -0.486109
| 40> H         2.353091   -0.221969    0.007758
| 41> H         1.426888   -1.160381    1.189747
| 42> H         1.036037    2.443028    0.275467
| 43> H        -1.036018    2.443036    0.275468
| 44> *
| 45>
| 46> $new_job
| 47> ! ri-mp2 aug-cc-pvqz aug-cc-pvqz/c tightscf
| 48> %pal nprocs 16 end
| 49> %maxcore 3800
| 50> %base "QZ_B-P_10_AB"
| 51>
| 52> *xyz 0 1
| 53> B         0.000007    1.862579    0.205633
| 54> P         0.000000    0.138552   -0.319546
| 55> C        -1.467737   -0.839502    0.149275
| 56> H        -2.353093   -0.221952    0.007758
| 57> H        -1.426897   -1.160370    1.189747
| 58> C         1.467730   -0.839513    0.149275
| 59> H        -1.559550   -1.719234   -0.486109
| 60> H         1.559537   -1.719246   -0.486109
| 61> H         2.353091   -0.221969    0.007758
| 62> H         1.426888   -1.160381    1.189747
| 63> H         1.036037    2.443028    0.275467
| 64> H        -1.036018    2.443036    0.275468
| 65> *
| 66>
| 67>
| 68>
| 69>
| 70>                          ****END OF INPUT****
 Total Charge           Charge          ....    0
 Multiplicity           Mult            ....    1
 Number of Electrons    NEL             ....   40
MP2 TOTAL ENERGY:     -446.330011596 Eh
FINAL SINGLE POINT ENERGY      -446.330011596339
MP2 TOTAL ENERGY:     -446.481228740 Eh
FINAL SINGLE POINT ENERGY      -446.481228740118

CARTESIAN COORDINATES (ANGSTROEM)
---------------------------------
  B      0.000007    1.862579    0.205633
  P      0.000000    0.138552   -0.319546
  C     -1.467737   -0.839502    0.149275
  H     -2.353093   -0.221952    0.007758
  H     -1.426897   -1.160370    1.189747
  C      1.467730   -0.839513    0.149275
  H     -1.559550   -1.719234   -0.486109
  H      1.559537   -1.719246   -0.486109
  H      2.353091   -0.221969    0.007758
  H      1.426888   -1.160381    1.189747
  H      1.036037    2.443028    0.275467
  H     -1.036018    2.443036    0.275468

 Multiplicity           Mult            ....    1
 Number of Electrons    NEL             ....   40
 Basis Dimension        Dim             ....  692

ORBITAL ENERGIES
----------------

  NO   OCC          E(Eh)            E(eV)
   0   2.0000     -79.919988     -2174.7334
   1   2.0000     -11.232084      -305.6405
   2   2.0000     -11.232073      -305.6402
   3   2.0000      -7.587676      -206.4712
   4   2.0000      -7.466470      -203.1730
   5   2.0000      -5.361553      -145.8953
   6   2.0000      -5.361272      -145.8876
   7   2.0000      -5.360805      -145.8749
   8   2.0000      -1.010626       -27.5005
   9   2.0000      -0.949956       -25.8496
  10   2.0000      -0.783285       -21.3143
  11   2.0000      -0.643021       -17.4975
  12   2.0000      -0.591649       -16.0996
  13   2.0000      -0.583234       -15.8706
  14   2.0000      -0.574017       -15.6198
  15   2.0000      -0.563994       -15.3471
  16   2.0000      -0.502994       -13.6872
  17   2.0000      -0.462717       -12.5912
  18   2.0000      -0.453187       -12.3318
  19   2.0000      -0.310703        -8.4547
  20   0.0000       0.021037         0.5724
  21   0.0000       0.030982         0.8431
  22   0.0000       0.033990         0.9249
  23   0.0000       0.036946         1.0054
  24   0.0000       0.046345         1.2611

MULLIKEN ATOMIC CHARGES
-----------------------
   0 B :    0.155883
   1 P :    0.618360
   2 C :   -1.102567
   3 H :    0.337605
   4 H :    0.294636
   5 C :   -1.102566
   6 H :    0.291677
   7 H :    0.291676
   8 H :    0.337604
   9 H :    0.294636
  10 H :   -0.208472
  11 H :   -0.208472
Sum of atomic charges:   -0.0000000

LOEWDIN ATOMIC CHARGES
----------------------
   0 B :    0.121624
   1 P :    0.995413
   2 C :    0.775046
   3 H :   -0.365617
   4 H :   -0.344465
   5 C :    0.775045
   6 H :   -0.354727
   7 H :   -0.354726
   8 H :   -0.365616
   9 H :   -0.344465
  10 H :   -0.268756
  11 H :   -0.268756

  Mayer bond orders larger than 0.100000
B(  0-B ,  1-P ) :   1.4236 B(  0-B , 10-H ) :   0.9262 B(  0-B , 11-H ) :   0.9262
B(  1-P ,  2-C ) :   0.9140 B(  1-P ,  5-C ) :   0.9140 B(  2-C ,  3-H ) :   0.8905
B(  2-C ,  4-H ) :   0.8903 B(  2-C ,  6-H ) :   0.9278 B(  5-C ,  7-H ) :   0.9278
B(  5-C ,  8-H ) :   0.8905 B(  5-C ,  9-H ) :   0.8903

MP2 TOTAL ENERGY:     -446.526637060 Eh
FINAL SINGLE POINT ENERGY      -446.526637059885

DIPOLE MOMENT
-------------
                                X             Y             Z
Electronic contribution:      0.00001       2.27993      -1.77172
Nuclear contribution   :     -0.00001      -2.99995       2.14818
                        -----------------------------------------
Total Dipole Moment    :     -0.00000      -0.72002       0.37646
                        -----------------------------------------
Magnitude (a.u.)       :      0.81249
Magnitude (Debye)      :      2.06519

Rotational constants in cm-1:     0.206432     0.202387     0.112535
Rotational constants in MHz :  6188.666735  6067.422819  3373.714906

                             ****ORCA TERMINATED NORMALLY****
TOTAL RUN TIME: 0 days 0 hours 31 minutes 18 seconds 634 msec
