                         Program Version 5.0.4 -  RELEASE  -
|  1> ! ri-mp2 aug-cc-pvdz aug-cc-pvdz/c tightscf
|  2> %pal nprocs 16 end
|  3> %maxcore 3800
|  4> %base "DZ_B-P_20_AB"
|  5>
|  6> *xyz 0 1
|  7> C         0.151407   -0.152942   -0.133894
|  8> C        -0.420317    1.108237   -0.246002
|  9> C        -1.787748    1.239962   -0.093898
| 10> N        -2.604791    0.220829    0.144068
| 11> C        -2.057065   -0.982833    0.239690
| 12> C        -0.699985   -1.221601    0.110078
| 13> H         0.185249    1.982055   -0.446254
| 14> H        -2.249439    2.218078   -0.170923
| 15> H        -2.735321   -1.806559    0.433506
| 16> H        -0.321025   -2.230395    0.205889
| 17> B         2.920593    0.728475    0.689526
| 18> P         1.929308   -0.387225   -0.379780
| 19> H         4.020570    0.393395    0.985499
| 20> H         2.527520    1.823174    0.928463
| 21> H         2.145631   -1.704480    0.048582
| 22> *
| 23>
| 24> $new_job
| 25> ! ri-mp2 aug-cc-pvtz aug-cc-pvtz/c tightscf
| 26> %pal nprocs 16 end
| 27> %maxcore 3800
| 28> %base "TZ_B-P_20_AB"
| 29>
| 30> *xyz 0 1
| 31> C         0.151407   -0.152942   -0.133894
| 32> C        -0.420317    1.108237   -0.246002
| 33> C        -1.787748    1.239962   -0.093898
| 34> N        -2.604791    0.220829    0.144068
| 35> C        -2.057065   -0.982833    0.239690
| 36> C        -0.699985   -1.221601    0.110078
| 37> H         0.185249    1.982055   -0.446254
| 38> H        -2.249439    2.218078   -0.170923
| 39> H        -2.735321   -1.806559    0.433506
| 40> H        -0.321025   -2.230395    0.205889
| 41> B         2.920593    0.728475    0.689526
| 42> P         1.929308   -0.387225   -0.379780
| 43> H         4.020570    0.393395    0.985499
| 44> H         2.527520    1.823174    0.928463
| 45> H         2.145631   -1.704480    0.048582
| 46> *
| 47>
| 48> $new_job
| 49> ! ri-mp2 aug-cc-pvqz aug-cc-pvqz/c tightscf
| 50> %pal nprocs 16 end
| 51> %maxcore 3800
| 52> %base "QZ_B-P_20_AB"
| 53>
| 54> *xyz 0 1
| 55> C         0.151407   -0.152942   -0.133894
| 56> C        -0.420317    1.108237   -0.246002
| 57> C        -1.787748    1.239962   -0.093898
| 58> N        -2.604791    0.220829    0.144068
| 59> C        -2.057065   -0.982833    0.239690
| 60> C        -0.699985   -1.221601    0.110078
| 61> H         0.185249    1.982055   -0.446254
| 62> H        -2.249439    2.218078   -0.170923
| 63> H        -2.735321   -1.806559    0.433506
| 64> H        -0.321025   -2.230395    0.205889
| 65> B         2.920593    0.728475    0.689526
| 66> P         1.929308   -0.387225   -0.379780
| 67> H         4.020570    0.393395    0.985499
| 68> H         2.527520    1.823174    0.928463
| 69> H         2.145631   -1.704480    0.048582
| 70> *
| 71>
| 72>
| 73>
| 74>
| 75>                          ****END OF INPUT****
 Total Charge           Charge          ....    0
 Multiplicity           Mult            ....    1
 Number of Electrons    NEL             ....   64
MP2 TOTAL ENERGY:     -614.340357974 Eh
FINAL SINGLE POINT ENERGY      -614.340357973885
MP2 TOTAL ENERGY:     -614.618783252 Eh
FINAL SINGLE POINT ENERGY      -614.618783252464

CARTESIAN COORDINATES (ANGSTROEM)
---------------------------------
  C      0.151407   -0.152942   -0.133894
  C     -0.420317    1.108237   -0.246002
  C     -1.787748    1.239962   -0.093898
  N     -2.604791    0.220829    0.144068
  C     -2.057065   -0.982833    0.239690
  C     -0.699985   -1.221601    0.110078
  H      0.185249    1.982055   -0.446254
  H     -2.249439    2.218078   -0.170923
  H     -2.735321   -1.806559    0.433506
  H     -0.321025   -2.230395    0.205889
  B      2.920593    0.728475    0.689526
  P      1.929308   -0.387225   -0.379780
  H      4.020570    0.393395    0.985499
  H      2.527520    1.823174    0.928463
  H      2.145631   -1.704480    0.048582

 Multiplicity           Mult            ....    1
 Number of Electrons    NEL             ....   64
 Basis Dimension        Dim             ....  966

ORBITAL ENERGIES
----------------

  NO   OCC          E(Eh)            E(eV)
   0   2.0000     -79.943419     -2175.3710
   1   2.0000     -15.563173      -423.4955
   2   2.0000     -11.276467      -306.8483
   3   2.0000     -11.276004      -306.8357
   4   2.0000     -11.274226      -306.7873
   5   2.0000     -11.244484      -305.9780
   6   2.0000     -11.243488      -305.9509
   7   2.0000      -7.620624      -207.3677
   8   2.0000      -7.490381      -203.8236
   9   2.0000      -5.385036      -146.5343
  10   2.0000      -5.384804      -146.5280
  11   2.0000      -5.384532      -146.5206
  12   2.0000      -1.268377       -34.5143
  13   2.0000      -1.105786       -30.0900
  14   2.0000      -1.041746       -28.3474
  15   2.0000      -0.910730       -24.7822
  16   2.0000      -0.865877       -23.5617
  17   2.0000      -0.822089       -22.3702
  18   2.0000      -0.713737       -19.4218
  19   2.0000      -0.682180       -18.5631
  20   2.0000      -0.665040       -18.0967
  21   2.0000      -0.651314       -17.7232
  22   2.0000      -0.603775       -16.4296
  23   2.0000      -0.555315       -15.1109
  24   2.0000      -0.554482       -15.0882
  25   2.0000      -0.527646       -14.3580
  26   2.0000      -0.500716       -13.6252
  27   2.0000      -0.489319       -13.3150
  28   2.0000      -0.428616       -11.6632
  29   2.0000      -0.415641       -11.3102
  30   2.0000      -0.355599        -9.6763
  31   2.0000      -0.331760        -9.0277
  32   0.0000       0.020603         0.5606
  33   0.0000       0.026289         0.7154
  34   0.0000       0.028140         0.7657
  35   0.0000       0.031153         0.8477
  36   0.0000       0.038262         1.0412

MULLIKEN ATOMIC CHARGES
-----------------------
   0 C :    0.194160
   1 C :   -0.492598
   2 C :   -0.153768
   3 N :   -0.664509
   4 C :   -0.154651
   5 C :   -0.526346
   6 H :    0.298360
   7 H :    0.483249
   8 H :    0.496375
   9 H :    0.282129
  10 B :    0.216894
  11 P :    0.420481
  12 H :   -0.225643
  13 H :   -0.126234
  14 H :   -0.047901
Sum of atomic charges:   -0.0000000

LOEWDIN ATOMIC CHARGES
----------------------
   0 C :   -0.321020
   1 C :    0.229201
   2 C :    0.074130
   3 N :    0.593804
   4 C :    0.070630
   5 C :    0.241188
   6 H :   -0.345449
   7 H :   -0.346609
   8 H :   -0.347478
   9 H :   -0.347204
  10 B :    0.127581
  11 P :    1.314850
  12 H :   -0.264831
  13 H :   -0.249305
  14 H :   -0.429489

  Mayer bond orders larger than 0.100000
B(  0-C ,  1-C ) :   0.8927 B(  0-C ,  2-C ) :  -0.3384 B(  0-C ,  4-C ) :  -0.3863
B(  0-C ,  5-C ) :   0.8687 B(  0-C , 11-P ) :   0.7295 B(  1-C ,  2-C ) :   1.3433
B(  1-C ,  4-C ) :   0.1056 B(  1-C ,  6-H ) :   0.9736 B(  1-C ,  7-H ) :  -0.1392
B(  1-C , 11-P ) :  -0.1217 B(  2-C ,  3-N ) :   1.1504 B(  2-C ,  5-C ) :   0.1145
B(  2-C ,  7-H ) :   0.8774 B(  3-N ,  4-C ) :   1.1342 B(  3-N ,  7-H ) :  -0.1234
B(  3-N ,  8-H ) :  -0.1356 B(  4-C ,  5-C ) :   1.4197 B(  4-C ,  8-H ) :   0.8584
B(  5-C ,  8-H ) :  -0.1260 B(  5-C ,  9-H ) :   0.9817 B(  5-C , 11-P ) :  -0.1576
B( 10-B , 11-P ) :   1.3116 B( 10-B , 12-H ) :   0.9435 B( 10-B , 13-H ) :   0.9233
B( 11-P , 14-H ) :   0.9852

MP2 TOTAL ENERGY:     -614.708120792 Eh
FINAL SINGLE POINT ENERGY      -614.708120791704

DIPOLE MOMENT
-------------
                                X             Y             Z
Electronic contribution:      1.25177      -0.68668      -1.56861
Nuclear contribution   :     -0.61901       0.44825       1.75224
                        -----------------------------------------
Total Dipole Moment    :      0.63276      -0.23843       0.18363
                        -----------------------------------------
Magnitude (a.u.)       :      0.70068
Magnitude (Debye)      :      1.78100

Rotational constants in cm-1:     0.150853     0.037110     0.031334
Rotational constants in MHz :  4522.471059  1112.537074   939.384531

                             ****ORCA TERMINATED NORMALLY****
TOTAL RUN TIME: 0 days 0 hours 25 minutes 16 seconds 65 msec
