                         Program Version 5.0.4 -  RELEASE  -
|  1> ! ri-mp2 aug-cc-pvdz aug-cc-pvdz/c tightscf
|  2> %pal nprocs 16 end
|  3> %maxcore 3800
|  4> %base "DZ_P-O_14_AB"
|  5> %scf
|  6> STABPerform true
|  7> STABRestartUHFifUnstable true
|  8> end
|  9>
| 10> *xyz 0 1
| 11> O        -0.535048   -0.157441    0.907701
| 12> P         0.702352   -0.053590   -0.116160
| 13> O         0.466622   -0.555962   -1.463149
| 14> O         1.159883    1.449964   -0.019422
| 15> O        -1.614202    0.603604    0.332026
| 16> C        -2.556343   -0.330632   -0.165761
| 17> H        -3.367253    0.290998   -0.543229
| 18> H        -2.919435   -0.970997    0.638631
| 19> H        -2.125918   -0.921172   -0.974089
| 20> H         1.221083    1.867999   -0.885303
| 21> O         1.780796   -0.810796    0.749364
| 22> H         1.929890   -1.714139    0.448802
| 23> *
| 24>
| 25> $new_job
| 26> ! ri-mp2 aug-cc-pvtz aug-cc-pvtz/c tightscf
| 27> %pal nprocs 16 end
| 28> %maxcore 3800
| 29> %base "TZ_P-O_14_AB"
| 30>
| 31> *xyz 0 1
| 32> O        -0.535048   -0.157441    0.907701
| 33> P         0.702352   -0.053590   -0.116160
| 34> O         0.466622   -0.555962   -1.463149
| 35> O         1.159883    1.449964   -0.019422
| 36> O        -1.614202    0.603604    0.332026
| 37> C        -2.556343   -0.330632   -0.165761
| 38> H        -3.367253    0.290998   -0.543229
| 39> H        -2.919435   -0.970997    0.638631
| 40> H        -2.125918   -0.921172   -0.974089
| 41> H         1.221083    1.867999   -0.885303
| 42> O         1.780796   -0.810796    0.749364
| 43> H         1.929890   -1.714139    0.448802
| 44> *
| 45>
| 46> $new_job
| 47> ! ri-mp2 aug-cc-pvqz aug-cc-pvqz/c tightscf
| 48> %pal nprocs 16 end
| 49> %maxcore 3800
| 50> %base "QZ_P-O_14_AB"
| 51>
| 52> *xyz 0 1
| 53> O        -0.535048   -0.157441    0.907701
| 54> P         0.702352   -0.053590   -0.116160
| 55> O         0.466622   -0.555962   -1.463149
| 56> O         1.159883    1.449964   -0.019422
| 57> O        -1.614202    0.603604    0.332026
| 58> C        -2.556343   -0.330632   -0.165761
| 59> H        -3.367253    0.290998   -0.543229
| 60> H        -2.919435   -0.970997    0.638631
| 61> H        -2.125918   -0.921172   -0.974089
| 62> H         1.221083    1.867999   -0.885303
| 63> O         1.780796   -0.810796    0.749364
| 64> H         1.929890   -1.714139    0.448802
| 65> *
| 66>
| 67>
| 68>
| 69>
| 70>                          ****END OF INPUT****
 Total Charge           Charge          ....    0
 Multiplicity           Mult            ....    1
 Number of Electrons    NEL             ....   66
MP2 TOTAL ENERGY:     -757.142217646 Eh
FINAL SINGLE POINT ENERGY      -757.142217645679
MP2 TOTAL ENERGY:     -757.583924547 Eh
FINAL SINGLE POINT ENERGY      -757.583924546533

CARTESIAN COORDINATES (ANGSTROEM)
---------------------------------
  O     -0.535048   -0.157441    0.907701
  P      0.702352   -0.053590   -0.116160
  O      0.466622   -0.555962   -1.463149
  O      1.159883    1.449964   -0.019422
  O     -1.614202    0.603604    0.332026
  C     -2.556343   -0.330632   -0.165761
  H     -3.367253    0.290998   -0.543229
  H     -2.919435   -0.970997    0.638631
  H     -2.125918   -0.921172   -0.974089
  H      1.221083    1.867999   -0.885303
  O      1.780796   -0.810796    0.749364
  H      1.929890   -1.714139    0.448802

 Multiplicity           Mult            ....    1
 Number of Electrons    NEL             ....   66
 Basis Dimension        Dim             ....  794

ORBITAL ENERGIES
----------------

  NO   OCC          E(Eh)            E(eV)
   0   2.0000     -80.103901     -2179.7380
   1   2.0000     -20.652785      -561.9908
   2   2.0000     -20.644174      -561.7565
   3   2.0000     -20.612706      -560.9003
   4   2.0000     -20.610171      -560.8313
   5   2.0000     -20.520750      -558.3980
   6   2.0000     -11.288032      -307.1630
   7   2.0000      -7.622511      -207.4191
   8   2.0000      -5.521351      -150.2436
   9   2.0000      -5.520976      -150.2334
  10   2.0000      -5.519983      -150.2064
  11   2.0000      -1.521367       -41.3985
  12   2.0000      -1.448495       -39.4156
  13   2.0000      -1.402613       -38.1670
  14   2.0000      -1.317184       -35.8424
  15   2.0000      -1.257571       -34.2202
  16   2.0000      -0.939373       -25.5616
  17   2.0000      -0.868682       -23.6380
  18   2.0000      -0.757147       -20.6030
  19   2.0000      -0.749645       -20.3989
  20   2.0000      -0.698035       -18.9945
  21   2.0000      -0.684558       -18.6278
  22   2.0000      -0.677538       -18.4367
  23   2.0000      -0.646837       -17.6013
  24   2.0000      -0.623015       -16.9531
  25   2.0000      -0.591296       -16.0900
  26   2.0000      -0.569562       -15.4986
  27   2.0000      -0.562926       -15.3180
  28   2.0000      -0.543978       -14.8024
  29   2.0000      -0.523714       -14.2510
  30   2.0000      -0.497182       -13.5290
  31   2.0000      -0.484998       -13.1975
  32   2.0000      -0.464926       -12.6513
  33   0.0000       0.024104         0.6559
  34   0.0000       0.032122         0.8741
  35   0.0000       0.033711         0.9173
  36   0.0000       0.045510         1.2384
  37   0.0000       0.050716         1.3801

MULLIKEN ATOMIC CHARGES
-----------------------
   0 O :   -0.625892
   1 P :    2.668216
   2 O :   -1.109744
   3 O :   -0.869921
   4 O :   -0.378222
   5 C :   -0.566534
   6 H :    0.399358
   7 H :    0.300383
   8 H :    0.327496
   9 H :    0.381619
  10 O :   -0.914815
  11 H :    0.388057
Sum of atomic charges:   -0.0000000

LOEWDIN ATOMIC CHARGES
----------------------
   0 O :    0.320347
   1 P :   -1.067690
   2 O :    0.317310
   3 O :    1.096397
   4 O :    0.478715
   5 C :    0.506590
   6 H :   -0.339273
   7 H :   -0.322077
   8 H :   -0.354863
   9 H :   -0.861507
  10 O :    1.083700
  11 H :   -0.857646

  Mayer bond orders larger than 0.100000
B(  0-O ,  1-P ) :   0.6407 B(  0-O ,  4-O ) :   0.7738 B(  1-P ,  2-O ) :   1.4381
B(  1-P ,  3-O ) :   0.6543 B(  1-P , 10-O ) :   0.5856 B(  3-O ,  9-H ) :   0.8969
B(  4-O ,  5-C ) :   0.8068 B(  5-C ,  6-H ) :   0.8412 B(  5-C ,  7-H ) :   0.9024
B(  5-C ,  8-H ) :   0.8688 B( 10-O , 11-H ) :   0.8858

MP2 TOTAL ENERGY:     -757.726482752 Eh
FINAL SINGLE POINT ENERGY      -757.726482751784

DIPOLE MOMENT
-------------
                                X             Y             Z
Electronic contribution:      5.49497       1.08960       1.02271
Nuclear contribution   :     -5.72292      -1.34383      -1.15856
                        -----------------------------------------
Total Dipole Moment    :     -0.22795      -0.25423      -0.13585
                        -----------------------------------------
Magnitude (a.u.)       :      0.36749
Magnitude (Debye)      :      0.93408

Rotational constants in cm-1:     0.133160     0.055114     0.054109
Rotational constants in MHz :  3992.026209  1652.274500  1622.133843

                             ****ORCA TERMINATED NORMALLY****
TOTAL RUN TIME: 0 days 1 hours 0 minutes 14 seconds 808 msec
