                         Program Version 5.0.4 -  RELEASE  -
|  1> ! ri-mp2 aug-cc-pvdz aug-cc-pvdz/c tightscf
|  2> %pal nprocs 16 end
|  3> %maxcore 3800
|  4> %base "DZ_B-F_69_AB"
|  5>
|  6> *xyz 0 1
|  7> F         3.643607    0.172132    0.000010
|  8> F         2.601835   -1.824357    0.000006
|  9> B         2.511917   -0.508343   -0.000014
| 10> C         1.142607    0.209367   -0.000006
| 11> C        -0.038132   -0.527821   -0.000005
| 12> C        -1.244673    0.137555    0.000001
| 13> C        -1.326931    1.516859    0.000006
| 14> C         1.066492    1.602225   -0.000001
| 15> H         1.980811    2.181182   -0.000002
| 16> C        -0.155475    2.251410    0.000005
| 17> H        -0.199520    3.331475    0.000009
| 18> H        -2.296735    1.990649    0.000010
| 19> N        -2.491222   -0.646157    0.000002
| 20> O        -2.394391   -1.853309   -0.000006
| 21> O        -3.537117   -0.033986   -0.000006
| 22> H        -0.025823   -1.607683   -0.000008
| 23> *
| 24>
| 25> $new_job
| 26> ! ri-mp2 aug-cc-pvtz aug-cc-pvtz/c tightscf
| 27> %pal nprocs 16 end
| 28> %maxcore 3800
| 29> %base "TZ_B-F_69_AB"
| 30>
| 31> *xyz 0 1
| 32> F         3.643607    0.172132    0.000010
| 33> F         2.601835   -1.824357    0.000006
| 34> B         2.511917   -0.508343   -0.000014
| 35> C         1.142607    0.209367   -0.000006
| 36> C        -0.038132   -0.527821   -0.000005
| 37> C        -1.244673    0.137555    0.000001
| 38> C        -1.326931    1.516859    0.000006
| 39> C         1.066492    1.602225   -0.000001
| 40> H         1.980811    2.181182   -0.000002
| 41> C        -0.155475    2.251410    0.000005
| 42> H        -0.199520    3.331475    0.000009
| 43> H        -2.296735    1.990649    0.000010
| 44> N        -2.491222   -0.646157    0.000002
| 45> O        -2.394391   -1.853309   -0.000006
| 46> O        -3.537117   -0.033986   -0.000006
| 47> H        -0.025823   -1.607683   -0.000008
| 48> *
| 49>
| 50> $new_job
| 51> ! ri-mp2 aug-cc-pvqz aug-cc-pvqz/c tightscf
| 52> %pal nprocs 16 end
| 53> %maxcore 3800
| 54> %base "QZ_B-F_69_AB"
| 55>
| 56> *xyz 0 1
| 57> F         3.643607    0.172132    0.000010
| 58> F         2.601835   -1.824357    0.000006
| 59> B         2.511917   -0.508343   -0.000014
| 60> C         1.142607    0.209367   -0.000006
| 61> C        -0.038132   -0.527821   -0.000005
| 62> C        -1.244673    0.137555    0.000001
| 63> C        -1.326931    1.516859    0.000006
| 64> C         1.066492    1.602225   -0.000001
| 65> H         1.980811    2.181182   -0.000002
| 66> C        -0.155475    2.251410    0.000005
| 67> H        -0.199520    3.331475    0.000009
| 68> H        -2.296735    1.990649    0.000010
| 69> N        -2.491222   -0.646157    0.000002
| 70> O        -2.394391   -1.853309   -0.000006
| 71> O        -3.537117   -0.033986   -0.000006
| 72> H        -0.025823   -1.607683   -0.000008
| 73> *
| 74>
| 75>
| 76>
| 77>
| 78>                          ****END OF INPUT****
 Total Charge           Charge          ....    0
 Multiplicity           Mult            ....    1
 Number of Electrons    NEL             ....   86
MP2 TOTAL ENERGY:     -659.230228307 Eh
FINAL SINGLE POINT ENERGY      -659.230228307185
MP2 TOTAL ENERGY:     -659.786237204 Eh
FINAL SINGLE POINT ENERGY      -659.786237203938

CARTESIAN COORDINATES (ANGSTROEM)
---------------------------------
  F      3.643607    0.172132    0.000010
  F      2.601835   -1.824357    0.000006
  B      2.511917   -0.508343   -0.000014
  C      1.142607    0.209367   -0.000006
  C     -0.038132   -0.527821   -0.000005
  C     -1.244673    0.137555    0.000001
  C     -1.326931    1.516859    0.000006
  C      1.066492    1.602225   -0.000001
  H      1.980811    2.181182   -0.000002
  C     -0.155475    2.251410    0.000005
  H     -0.199520    3.331475    0.000009
  H     -2.296735    1.990649    0.000010
  N     -2.491222   -0.646157    0.000002
  O     -2.394391   -1.853309   -0.000006
  O     -3.537117   -0.033986   -0.000006
  H     -0.025823   -1.607683   -0.000008

 Multiplicity           Mult            ....    1
 Number of Electrons    NEL             ....   86
 Basis Dimension        Dim             .... 1144

ORBITAL ENERGIES
----------------

  NO   OCC          E(Eh)            E(eV)
   0   2.0000     -26.323109      -716.2882
   1   2.0000     -26.322153      -716.2622
   2   2.0000     -20.606954      -560.7437
   3   2.0000     -20.606653      -560.7355
   4   2.0000     -15.860432      -431.5843
   5   2.0000     -11.317110      -307.9542
   6   2.0000     -11.290084      -307.2188
   7   2.0000     -11.289474      -307.2022
   8   2.0000     -11.286419      -307.1191
   9   2.0000     -11.271637      -306.7168
  10   2.0000     -11.257258      -306.3256
  11   2.0000      -7.721273      -210.1065
  12   2.0000      -1.657001       -45.0893
  13   2.0000      -1.625710       -44.2378
  14   2.0000      -1.625002       -44.2186
  15   2.0000      -1.416188       -38.5364
  16   2.0000      -1.217074       -33.1183
  17   2.0000      -1.107066       -30.1248
  18   2.0000      -1.069905       -29.1136
  19   2.0000      -0.972562       -26.4647
  20   2.0000      -0.888451       -24.1760
  21   2.0000      -0.849030       -23.1033
  22   2.0000      -0.826075       -22.4787
  23   2.0000      -0.799452       -21.7542
  24   2.0000      -0.773361       -21.0442
  25   2.0000      -0.740775       -20.1575
  26   2.0000      -0.736370       -20.0377
  27   2.0000      -0.735932       -20.0257
  28   2.0000      -0.726185       -19.7605
  29   2.0000      -0.716989       -19.5102
  30   2.0000      -0.678028       -18.4501
  31   2.0000      -0.671868       -18.2825
  32   2.0000      -0.659041       -17.9334
  33   2.0000      -0.649077       -17.6623
  34   2.0000      -0.612745       -16.6736
  35   2.0000      -0.563727       -15.3398
  36   2.0000      -0.553924       -15.0730
  37   2.0000      -0.530006       -14.4222
  38   2.0000      -0.504002       -13.7146
  39   2.0000      -0.502568       -13.6756
  40   2.0000      -0.465319       -12.6620
  41   2.0000      -0.394837       -10.7441
  42   2.0000      -0.386807       -10.5256
  43   0.0000       0.015524         0.4224
  44   0.0000       0.026733         0.7274
  45   0.0000       0.027585         0.7506
  46   0.0000       0.031884         0.8676
  47   0.0000       0.033577         0.9137

MULLIKEN ATOMIC CHARGES
-----------------------
   0 F :   -0.889629
   1 F :   -0.883931
   2 B :    1.868816
   3 C :    0.183027
   4 C :   -0.329677
   5 C :   -0.043634
   6 C :   -0.120691
   7 C :   -0.317579
   8 H :    0.279785
   9 C :   -0.316228
  10 H :    0.172238
  11 H :    0.437392
  12 N :    0.768637
  13 O :   -0.602691
  14 O :   -0.607416
  15 H :    0.401580
Sum of atomic charges:    0.0000000

LOEWDIN ATOMIC CHARGES
----------------------
   0 F :    0.840428
   1 F :    0.843112
   2 B :   -1.726682
   3 C :    0.027716
   4 C :    0.293524
   5 C :   -0.284340
   6 C :    0.331884
   7 C :    0.332941
   8 H :   -0.312216
   9 C :    0.385486
  10 H :   -0.312068
  11 H :   -0.342664
  12 N :   -0.842816
  13 O :    0.559392
  14 O :    0.555277
  15 H :   -0.348975

  Mayer bond orders larger than 0.100000
B(  0-F ,  2-B ) :   0.1215 B(  1-F ,  2-B ) :   0.1890 B(  1-F ,  3-C ) :  -0.1024
B(  2-B ,  3-C ) :   1.0268 B(  3-C ,  4-C ) :   1.0300 B(  3-C ,  5-C ) :  -0.4952
B(  3-C ,  7-C ) :   0.8968 B(  3-C ,  8-H ) :  -0.1350 B(  3-C ,  9-C ) :  -0.3228
B(  4-C ,  5-C ) :   1.4785 B(  4-C ,  9-C ) :   0.1113 B(  4-C , 12-N ) :  -0.1098
B(  4-C , 15-H ) :   0.7680 B(  5-C ,  6-C ) :   1.1850 B(  5-C ,  9-C ) :  -0.2937
B(  5-C , 11-H ) :  -0.1245 B(  5-C , 12-N ) :   0.8487 B(  5-C , 13-O ) :   0.2665
B(  5-C , 14-O ) :   0.2438 B(  6-C ,  9-C ) :   1.2798 B(  6-C , 10-H ) :  -0.1261
B(  6-C , 11-H ) :   0.7642 B(  6-C , 12-N ) :  -0.1118 B(  7-C ,  8-H ) :   0.9602
B(  7-C ,  9-C ) :   1.2463 B(  7-C , 10-H ) :  -0.1491 B(  9-C , 10-H ) :   1.2439
B( 12-N , 13-O ) :   1.1628 B( 12-N , 14-O ) :   1.1602

MP2 TOTAL ENERGY:     -659.967940425 Eh
FINAL SINGLE POINT ENERGY      -659.967940424559

DIPOLE MOMENT
-------------
                                X             Y             Z
Electronic contribution:      9.18003      -6.00821      -0.00002
Nuclear contribution   :     -8.35543       7.46898       0.00000
                        -----------------------------------------
Total Dipole Moment    :      0.82460       1.46077      -0.00002
                        -----------------------------------------
Magnitude (a.u.)       :      1.67744
Magnitude (Debye)      :      4.26372

Rotational constants in cm-1:     0.061737     0.018604     0.014296
Rotational constants in MHz :  1850.829331   557.726181   428.578859

                             ****ORCA TERMINATED NORMALLY****
TOTAL RUN TIME: 0 days 0 hours 40 minutes 54 seconds 237 msec
