                         Program Version 5.0.4 -  RELEASE  -
|  1> ! ri-mp2 aug-cc-pvdz aug-cc-pvdz/c tightscf
|  2> %pal nprocs 16 end
|  3> %maxcore 3800
|  4> %base "DZ_P-F_23_AB"
|  5> %scf
|  6> STABPerform true
|  7> STABRestartUHFifUnstable true
|  8> end
|  9>
| 10> *xyz 0 1
| 11> F        -1.825243   -0.558415    0.000000
| 12> P        -0.390849   -1.318268    0.000000
| 13> C         0.394786   -0.415324    1.388294
| 14> C         0.394786    1.106064    1.269642
| 15> C         1.075991    1.602391    0.000000
| 16> C         0.394786    1.106064   -1.269642
| 17> C         0.394786   -0.415324   -1.388294
| 18> H         1.419567   -0.799986    1.443096
| 19> H        -0.098332   -0.738607    2.307037
| 20> H         0.888516    1.534519   -2.144643
| 21> H        -0.636713    1.465630   -1.289031
| 22> H         1.419567   -0.799986   -1.443096
| 23> H        -0.098332   -0.738607   -2.307037
| 24> H         0.888516    1.534519    2.144643
| 25> H        -0.636713    1.465630    1.289031
| 26> H         2.122957    1.279541    0.000000
| 27> H         1.090073    2.693870    0.000000
| 28> *
| 29>
| 30> $new_job
| 31> ! ri-mp2 aug-cc-pvtz aug-cc-pvtz/c tightscf
| 32> %pal nprocs 16 end
| 33> %maxcore 3800
| 34> %base "TZ_P-F_23_AB"
| 35>
| 36> *xyz 0 1
| 37> F        -1.825243   -0.558415    0.000000
| 38> P        -0.390849   -1.318268    0.000000
| 39> C         0.394786   -0.415324    1.388294
| 40> C         0.394786    1.106064    1.269642
| 41> C         1.075991    1.602391    0.000000
| 42> C         0.394786    1.106064   -1.269642
| 43> C         0.394786   -0.415324   -1.388294
| 44> H         1.419567   -0.799986    1.443096
| 45> H        -0.098332   -0.738607    2.307037
| 46> H         0.888516    1.534519   -2.144643
| 47> H        -0.636713    1.465630   -1.289031
| 48> H         1.419567   -0.799986   -1.443096
| 49> H        -0.098332   -0.738607   -2.307037
| 50> H         0.888516    1.534519    2.144643
| 51> H        -0.636713    1.465630    1.289031
| 52> H         2.122957    1.279541    0.000000
| 53> H         1.090073    2.693870    0.000000
| 54> *
| 55>
| 56> $new_job
| 57> ! ri-mp2 aug-cc-pvqz aug-cc-pvqz/c tightscf
| 58> %pal nprocs 16 end
| 59> %maxcore 3800
| 60> %base "QZ_P-F_23_AB"
| 61>
| 62> *xyz 0 1
| 63> F        -1.825243   -0.558415    0.000000
| 64> P        -0.390849   -1.318268    0.000000
| 65> C         0.394786   -0.415324    1.388294
| 66> C         0.394786    1.106064    1.269642
| 67> C         1.075991    1.602391    0.000000
| 68> C         0.394786    1.106064   -1.269642
| 69> C         0.394786   -0.415324   -1.388294
| 70> H         1.419567   -0.799986    1.443096
| 71> H        -0.098332   -0.738607    2.307037
| 72> H         0.888516    1.534519   -2.144643
| 73> H        -0.636713    1.465630   -1.289031
| 74> H         1.419567   -0.799986   -1.443096
| 75> H        -0.098332   -0.738607   -2.307037
| 76> H         0.888516    1.534519    2.144643
| 77> H        -0.636713    1.465630    1.289031
| 78> H         2.122957    1.279541    0.000000
| 79> H         1.090073    2.693870    0.000000
| 80> *
| 81>
| 82>
| 83>
| 84>
| 85>                          ****END OF INPUT****
 Total Charge           Charge          ....    0
 Multiplicity           Mult            ....    1
 Number of Electrons    NEL             ....   64
MP2 TOTAL ENERGY:     -636.471160199 Eh
FINAL SINGLE POINT ENERGY      -636.471160198622
MP2 TOTAL ENERGY:     -636.787819536 Eh
FINAL SINGLE POINT ENERGY      -636.787819536206

CARTESIAN COORDINATES (ANGSTROEM)
---------------------------------
  F     -1.825243   -0.558415    0.000000
  P     -0.390849   -1.318268    0.000000
  C      0.394786   -0.415324    1.388294
  C      0.394786    1.106064    1.269642
  C      1.075991    1.602391    0.000000
  C      0.394786    1.106064   -1.269642
  C      0.394786   -0.415324   -1.388294
  H      1.419567   -0.799986    1.443096
  H     -0.098332   -0.738607    2.307037
  H      0.888516    1.534519   -2.144643
  H     -0.636713    1.465630   -1.289031
  H      1.419567   -0.799986   -1.443096
  H     -0.098332   -0.738607   -2.307037
  H      0.888516    1.534519    2.144643
  H     -0.636713    1.465630    1.289031
  H      2.122957    1.279541    0.000000
  H      1.090073    2.693870    0.000000

 Multiplicity           Mult            ....    1
 Number of Electrons    NEL             ....   64
 Basis Dimension        Dim             .... 1024

ORBITAL ENERGIES
----------------

  NO   OCC          E(Eh)            E(eV)
   0   2.0000     -79.981228     -2176.3999
   1   2.0000     -26.274936      -714.9774
   2   2.0000     -11.226758      -305.4956
   3   2.0000     -11.226749      -305.4954
   4   2.0000     -11.224934      -305.4460
   5   2.0000     -11.224882      -305.4446
   6   2.0000     -11.221768      -305.3598
   7   2.0000      -7.516218      -204.5267
   8   2.0000      -5.410699      -147.2326
   9   2.0000      -5.409403      -147.1974
  10   2.0000      -5.408261      -147.1663
  11   2.0000      -1.580415       -43.0053
  12   2.0000      -1.107338       -30.1322
  13   2.0000      -1.018812       -27.7233
  14   2.0000      -0.975118       -26.5343
  15   2.0000      -0.844958       -22.9925
  16   2.0000      -0.815309       -22.1857
  17   2.0000      -0.760987       -20.7075
  18   2.0000      -0.677166       -18.4266
  19   2.0000      -0.667744       -18.1702
  20   2.0000      -0.640792       -17.4368
  21   2.0000      -0.634190       -17.2572
  22   2.0000      -0.598388       -16.2830
  23   2.0000      -0.585991       -15.9456
  24   2.0000      -0.551340       -15.0027
  25   2.0000      -0.545967       -14.8565
  26   2.0000      -0.519719       -14.1423
  27   2.0000      -0.491180       -13.3657
  28   2.0000      -0.485776       -13.2186
  29   2.0000      -0.469800       -12.7839
  30   2.0000      -0.422449       -11.4954
  31   2.0000      -0.347579        -9.4581
  32   0.0000       0.023996         0.6530
  33   0.0000       0.029224         0.7952
  34   0.0000       0.032108         0.8737
  35   0.0000       0.036049         0.9809
  36   0.0000       0.046067         1.2535

MULLIKEN ATOMIC CHARGES
-----------------------
   0 F :   -0.778468
   1 P :    0.925294
   2 C :   -0.689014
   3 C :   -0.407824
   4 C :   -0.446755
   5 C :   -0.407824
   6 C :   -0.689014
   7 H :    0.203688
   8 H :    0.290717
   9 H :    0.284402
  10 H :    0.242383
  11 H :    0.203688
  12 H :    0.290717
  13 H :    0.284402
  14 H :    0.242383
  15 H :    0.205310
  16 H :    0.245915
Sum of atomic charges:    0.0000000

LOEWDIN ATOMIC CHARGES
----------------------
   0 F :    0.332131
   1 P :    0.516607
   2 C :    0.372601
   3 C :    0.464756
   4 C :    0.501754
   5 C :    0.464756
   6 C :    0.372601
   7 H :   -0.346673
   8 H :   -0.348223
   9 H :   -0.266186
  10 H :   -0.286161
  11 H :   -0.346673
  12 H :   -0.348223
  13 H :   -0.266186
  14 H :   -0.286161
  15 H :   -0.267888
  16 H :   -0.262832

  Mayer bond orders larger than 0.100000
B(  0-F ,  1-P ) :   0.4957 B(  1-P ,  2-C ) :   0.7629 B(  1-P ,  6-C ) :   0.7629
B(  2-C ,  3-C ) :   0.9285 B(  2-C ,  7-H ) :   0.9533 B(  2-C ,  8-H ) :   0.9464
B(  3-C ,  4-C ) :   0.8974 B(  3-C , 13-H ) :   0.8847 B(  3-C , 14-H ) :   0.9084
B(  4-C ,  5-C ) :   0.8974 B(  4-C , 15-H ) :   0.9317 B(  4-C , 16-H ) :   0.9340
B(  5-C ,  6-C ) :   0.9285 B(  5-C ,  9-H ) :   0.8847 B(  5-C , 10-H ) :   0.9084
B(  6-C , 11-H ) :   0.9533 B(  6-C , 12-H ) :   0.9464

MP2 TOTAL ENERGY:     -636.886866667 Eh
FINAL SINGLE POINT ENERGY      -636.886866666691

DIPOLE MOMENT
-------------
                                X             Y             Z
Electronic contribution:     -7.71322      -8.26212      -0.00000
Nuclear contribution   :      8.54030       8.70999       0.00000
                        -----------------------------------------
Total Dipole Moment    :      0.82708       0.44787      -0.00000
                        -----------------------------------------
Magnitude (a.u.)       :      0.94056
Magnitude (Debye)      :      2.39071

Rotational constants in cm-1:     0.101985     0.068811     0.055301
Rotational constants in MHz :  3057.448187  2062.910101  1657.877247

                             ****ORCA TERMINATED NORMALLY****
TOTAL RUN TIME: 0 days 1 hours 48 minutes 5 seconds 974 msec
