                         Program Version 5.0.4 -  RELEASE  -
|  1> ! ri-mp2 aug-cc-pvdz aug-cc-pvdz/c tightscf
|  2> %pal nprocs 16 end
|  3> %maxcore 3800
|  4> %base "DZ_Si-Si_140_AB"
|  5> %scf
|  6> STABPerform true
|  7> STABRestartUHFifUnstable true
|  8> end
|  9>
| 10> *xyz 0 1
| 11> Si        -0.958001   -0.667902    0.958741
| 12> Si         0.958001    0.667902    0.958741
| 13> P         0.958001    1.900297   -0.934109
| 14> H         2.163761   -0.181715    1.091040
| 15> H         0.922687    1.609851    2.101081
| 16> H         1.252307    0.803171   -1.777474
| 17> H         2.307694    2.307896   -0.825382
| 18> P        -0.958001   -1.900297   -0.934109
| 19> H        -2.163761    0.181715    1.091040
| 20> H        -0.922687   -1.609851    2.101081
| 21> H        -1.252307   -0.803171   -1.777474
| 22> H        -2.307694   -2.307896   -0.825382
| 23> *
| 24>
| 25> $new_job
| 26> ! ri-mp2 aug-cc-pvtz aug-cc-pvtz/c tightscf
| 27> %pal nprocs 16 end
| 28> %maxcore 3800
| 29> %base "TZ_Si-Si_140_AB"
| 30>
| 31> *xyz 0 1
| 32> Si        -0.958001   -0.667902    0.958741
| 33> Si         0.958001    0.667902    0.958741
| 34> P         0.958001    1.900297   -0.934109
| 35> H         2.163761   -0.181715    1.091040
| 36> H         0.922687    1.609851    2.101081
| 37> H         1.252307    0.803171   -1.777474
| 38> H         2.307694    2.307896   -0.825382
| 39> P        -0.958001   -1.900297   -0.934109
| 40> H        -2.163761    0.181715    1.091040
| 41> H        -0.922687   -1.609851    2.101081
| 42> H        -1.252307   -0.803171   -1.777474
| 43> H        -2.307694   -2.307896   -0.825382
| 44> *
| 45>
| 46> $new_job
| 47> ! ri-mp2 aug-cc-pvqz aug-cc-pvqz/c tightscf
| 48> %pal nprocs 16 end
| 49> %maxcore 3800
| 50> %base "QZ_Si-Si_140_AB"
| 51>
| 52> *xyz 0 1
| 53> Si        -0.958001   -0.667902    0.958741
| 54> Si         0.958001    0.667902    0.958741
| 55> P         0.958001    1.900297   -0.934109
| 56> H         2.163761   -0.181715    1.091040
| 57> H         0.922687    1.609851    2.101081
| 58> H         1.252307    0.803171   -1.777474
| 59> H         2.307694    2.307896   -0.825382
| 60> P        -0.958001   -1.900297   -0.934109
| 61> H        -2.163761    0.181715    1.091040
| 62> H        -0.922687   -1.609851    2.101081
| 63> H        -1.252307   -0.803171   -1.777474
| 64> H        -2.307694   -2.307896   -0.825382
| 65> *
| 66>
| 67>
| 68>
| 69>
| 70>                          ****END OF INPUT****
 Total Charge           Charge          ....    0
 Multiplicity           Mult            ....    1
 Number of Electrons    NEL             ....   66
MP2 TOTAL ENERGY:    -1264.480781805 Eh
FINAL SINGLE POINT ENERGY     -1264.480781805458
MP2 TOTAL ENERGY:    -1264.640969926 Eh
FINAL SINGLE POINT ENERGY     -1264.640969926119

CARTESIAN COORDINATES (ANGSTROEM)
---------------------------------
  Si    -0.958001   -0.667902    0.958741
  Si     0.958001    0.667902    0.958741
  P      0.958001    1.900297   -0.934109
  H      2.163761   -0.181715    1.091040
  H      0.922687    1.609851    2.101081
  H      1.252307    0.803171   -1.777474
  H      2.307694    2.307896   -0.825382
  P     -0.958001   -1.900297   -0.934109
  H     -2.163761    0.181715    1.091040
  H     -0.922687   -1.609851    2.101081
  H     -1.252307   -0.803171   -1.777474
  H     -2.307694   -2.307896   -0.825382

 Multiplicity           Mult            ....    1
 Number of Electrons    NEL             ....   66
 Basis Dimension        Dim             ....  704

ORBITAL ENERGIES
----------------

  NO   OCC          E(Eh)            E(eV)
   0   2.0000     -79.938621     -2175.2405
   1   2.0000     -79.938621     -2175.2405
   2   2.0000     -68.780020     -1871.5995
   3   2.0000     -68.780019     -1871.5995
   4   2.0000      -7.483254      -203.6297
   5   2.0000      -7.483253      -203.6297
   6   2.0000      -6.129988      -166.8055
   7   2.0000      -6.129836      -166.8013
   8   2.0000      -5.377062      -146.3173
   9   2.0000      -5.377062      -146.3173
  10   2.0000      -5.376802      -146.3102
  11   2.0000      -5.376801      -146.3102
  12   2.0000      -5.376150      -146.2925
  13   2.0000      -5.376149      -146.2925
  14   2.0000      -4.236332      -115.2765
  15   2.0000      -4.236014      -115.2678
  16   2.0000      -4.235978      -115.2668
  17   2.0000      -4.235780      -115.2614
  18   2.0000      -4.235673      -115.2585
  19   2.0000      -4.235518      -115.2543
  20   2.0000      -0.868591       -23.6356
  21   2.0000      -0.852917       -23.2091
  22   2.0000      -0.726508       -19.7693
  23   2.0000      -0.651791       -17.7361
  24   2.0000      -0.546215       -14.8633
  25   2.0000      -0.525882       -14.3100
  26   2.0000      -0.512423       -13.9437
  27   2.0000      -0.487315       -13.2605
  28   2.0000      -0.470928       -12.8146
  29   2.0000      -0.444720       -12.1014
  30   2.0000      -0.395218       -10.7544
  31   2.0000      -0.370865       -10.0918
  32   2.0000      -0.370172       -10.0729
  33   0.0000       0.025503         0.6940
  34   0.0000       0.030344         0.8257
  35   0.0000       0.032162         0.8752
  36   0.0000       0.038149         1.0381
  37   0.0000       0.045121         1.2278

MULLIKEN ATOMIC CHARGES
-----------------------
   0 Si:    0.538668
   1 Si:    0.538668
   2 P :   -0.015198
   3 H :   -0.185044
   4 H :   -0.222139
   5 H :   -0.055042
   6 H :   -0.061245
   7 P :   -0.015198
   8 H :   -0.185044
   9 H :   -0.222139
  10 H :   -0.055042
  11 H :   -0.061245
Sum of atomic charges:    0.0000000

LOEWDIN ATOMIC CHARGES
----------------------
   0 Si:    0.387726
   1 Si:    0.387726
   2 P :    1.353726
   3 H :   -0.302966
   4 H :   -0.317244
   5 H :   -0.562082
   6 H :   -0.559160
   7 P :    1.353726
   8 H :   -0.302966
   9 H :   -0.317244
  10 H :   -0.562082
  11 H :   -0.559160

  Mayer bond orders larger than 0.100000
B(  0-Si,  1-Si) :   0.7870 B(  0-Si,  7-P ) :   0.8555 B(  0-Si,  8-H ) :   0.8097
B(  0-Si,  9-H ) :   0.7881 B(  1-Si,  2-P ) :   0.8555 B(  1-Si,  3-H ) :   0.8097
B(  1-Si,  4-H ) :   0.7881 B(  2-P ,  5-H ) :   0.8890 B(  2-P ,  6-H ) :   0.9065
B(  7-P , 10-H ) :   0.8890 B(  7-P , 11-H ) :   0.9065

MP2 TOTAL ENERGY:    -1264.692844767 Eh
FINAL SINGLE POINT ENERGY     -1264.692844767483

DIPOLE MOMENT
-------------
                                X             Y             Z
Electronic contribution:      0.00000      -0.00000      -2.62813
Nuclear contribution   :     -0.00000       0.00000       2.79112
                        -----------------------------------------
Total Dipole Moment    :      0.00000      -0.00000       0.16299
                        -----------------------------------------
Magnitude (a.u.)       :      0.16299
Magnitude (Debye)      :      0.41428

Rotational constants in cm-1:     0.114032     0.042192     0.033645
Rotational constants in MHz :  3418.603777  1264.874496  1008.647545

                             ****ORCA TERMINATED NORMALLY****
TOTAL RUN TIME: 0 days 0 hours 37 minutes 33 seconds 992 msec
