                         Program Version 5.0.4 -  RELEASE  -
|  1> ! ri-mp2 aug-cc-pvdz aug-cc-pvdz/c tightscf
|  2> %pal nprocs 16 end
|  3> %maxcore 3800
|  4> %base "DZ_Si-Cl_74_AB"
|  5> %scf
|  6> STABPerform true
|  7> STABRestartUHFifUnstable true
|  8> end
|  9>
| 10> *xyz 0 1
| 11> Si        -0.344521    0.439998    0.389616
| 12> Cl        -1.914409   -0.727702   -0.144918
| 13> C         1.233621   -0.290761   -0.379189
| 14> F        -0.541237    1.884177   -0.232787
| 15> F         1.466428   -1.523752    0.163959
| 16> F         2.295190    0.508286   -0.052983
| 17> H        -0.239161    0.538813    1.846728
| 18> H         1.222245   -0.401692   -1.466320
| 19> *
| 20>
| 21> $new_job
| 22> ! ri-mp2 aug-cc-pvtz aug-cc-pvtz/c tightscf
| 23> %pal nprocs 16 end
| 24> %maxcore 3800
| 25> %base "TZ_Si-Cl_74_AB"
| 26>
| 27> *xyz 0 1
| 28> Si        -0.344521    0.439998    0.389616
| 29> Cl        -1.914409   -0.727702   -0.144918
| 30> C         1.233621   -0.290761   -0.379189
| 31> F        -0.541237    1.884177   -0.232787
| 32> F         1.466428   -1.523752    0.163959
| 33> F         2.295190    0.508286   -0.052983
| 34> H        -0.239161    0.538813    1.846728
| 35> H         1.222245   -0.401692   -1.466320
| 36> *
| 37>
| 38> $new_job
| 39> ! ri-mp2 aug-cc-pvqz aug-cc-pvqz/c tightscf
| 40> %pal nprocs 16 end
| 41> %maxcore 3800
| 42> %base "QZ_Si-Cl_74_AB"
| 43>
| 44> *xyz 0 1
| 45> Si        -0.344521    0.439998    0.389616
| 46> Cl        -1.914409   -0.727702   -0.144918
| 47> C         1.233621   -0.290761   -0.379189
| 48> F        -0.541237    1.884177   -0.232787
| 49> F         1.466428   -1.523752    0.163959
| 50> F         2.295190    0.508286   -0.052983
| 51> H        -0.239161    0.538813    1.846728
| 52> H         1.222245   -0.401692   -1.466320
| 53> *
| 54>
| 55>
| 56>
| 57>
| 58>                          ****END OF INPUT****
 Total Charge           Charge          ....    0
 Multiplicity           Mult            ....    1
 Number of Electrons    NEL             ....   66
MP2 TOTAL ENERGY:    -1086.921012012 Eh
FINAL SINGLE POINT ENERGY     -1086.921012011504
MP2 TOTAL ENERGY:    -1087.308546477 Eh
FINAL SINGLE POINT ENERGY     -1087.308546476733

CARTESIAN COORDINATES (ANGSTROEM)
---------------------------------
  Si    -0.344521    0.439998    0.389616
  Cl    -1.914409   -0.727702   -0.144918
  C      1.233621   -0.290761   -0.379189
  F     -0.541237    1.884177   -0.232787
  F      1.466428   -1.523752    0.163959
  F      2.295190    0.508286   -0.052983
  H     -0.239161    0.538813    1.846728
  H      1.222245   -0.401692   -1.466320

 Multiplicity           Mult            ....    1
 Number of Electrons    NEL             ....   66
 Basis Dimension        Dim             ....  580

ORBITAL ENERGIES
----------------

  NO   OCC          E(Eh)            E(eV)
   0   2.0000    -104.856866     -2853.3004
   1   2.0000     -68.875419     -1874.1954
   2   2.0000     -26.322302      -716.2662
   3   2.0000     -26.321850      -716.2540
   4   2.0000     -26.316730      -716.1146
   5   2.0000     -11.407061      -310.4019
   6   2.0000     -10.584500      -288.0189
   7   2.0000      -8.051290      -219.0867
   8   2.0000      -8.050140      -219.0554
   9   2.0000      -8.050114      -219.0547
  10   2.0000      -6.216108      -169.1489
  11   2.0000      -4.323840      -117.6577
  12   2.0000      -4.322996      -117.6347
  13   2.0000      -4.322106      -117.6105
  14   2.0000      -1.669211       -45.4215
  15   2.0000      -1.621971       -44.1361
  16   2.0000      -1.610377       -43.8206
  17   2.0000      -1.130420       -30.7603
  18   2.0000      -0.973185       -26.4817
  19   2.0000      -0.812252       -22.1025
  20   2.0000      -0.784172       -21.3384
  21   2.0000      -0.764464       -20.8021
  22   2.0000      -0.755240       -20.5511
  23   2.0000      -0.702893       -19.1267
  24   2.0000      -0.697579       -18.9821
  25   2.0000      -0.680564       -18.5191
  26   2.0000      -0.649251       -17.6670
  27   2.0000      -0.644205       -17.5297
  28   2.0000      -0.612722       -16.6730
  29   2.0000      -0.550251       -14.9731
  30   2.0000      -0.517701       -14.0874
  31   2.0000      -0.499186       -13.5835
  32   2.0000      -0.470191       -12.7946
  33   0.0000       0.027431         0.7464
  34   0.0000       0.035774         0.9735
  35   0.0000       0.040168         1.0930
  36   0.0000       0.041517         1.1297
  37   0.0000       0.058218         1.5842

MULLIKEN ATOMIC CHARGES
-----------------------
   0 Si:    1.754173
   1 Cl:   -0.558670
   2 C :    0.644910
   3 F :   -0.715542
   4 F :   -0.644001
   5 F :   -0.625817
   6 H :   -0.194406
   7 H :    0.339352
Sum of atomic charges:   -0.0000000

LOEWDIN ATOMIC CHARGES
----------------------
   0 Si:   -0.853382
   1 Cl:    0.944402
   2 C :   -1.114261
   3 F :    0.400398
   4 F :    0.687337
   5 F :    0.693280
   6 H :   -0.282828
   7 H :   -0.474946

  Mayer bond orders larger than 0.100000
B(  0-Si,  1-Cl) :   0.6028 B(  0-Si,  2-C ) :   0.8238 B(  0-Si,  3-F ) :   0.4293
B(  0-Si,  6-H ) :   0.9309 B(  2-C ,  4-F ) :   0.5507 B(  2-C ,  5-F ) :   0.5322
B(  2-C ,  7-H ) :   0.8412

MP2 TOTAL ENERGY:    -1087.437760839 Eh
FINAL SINGLE POINT ENERGY     -1087.437760839233

DIPOLE MOMENT
-------------
                                X             Y             Z
Electronic contribution:     -0.82011      -0.29097      -0.71348
Nuclear contribution   :      0.51811       0.27043       0.63043
                        -----------------------------------------
Total Dipole Moment    :     -0.30200      -0.02054      -0.08305
                        -----------------------------------------
Magnitude (a.u.)       :      0.31389
Magnitude (Debye)      :      0.79783

Rotational constants in cm-1:     0.108031     0.053772     0.038156
Rotational constants in MHz :  3238.674912  1612.044316  1143.873783

                             ****ORCA TERMINATED NORMALLY****
TOTAL RUN TIME: 0 days 0 hours 21 minutes 15 seconds 42 msec
