                         Program Version 5.0.4 -  RELEASE  -
|  1> ! ri-mp2 aug-cc-pvdz aug-cc-pvdz/c tightscf
|  2> %pal nprocs 16 end
|  3> %maxcore 3800
|  4> %base "DZ_B-Cl_53_AB"
|  5> %scf
|  6> STABPerform true
|  7> STABRestartUHFifUnstable true
|  8> end
|  9>
| 10> *xyz 0 1
| 11> F         0.000004   -1.105704    1.128152
| 12> B        -0.000029   -0.439710    0.000000
| 13> Cl         0.000004    1.300072   -0.000000
| 14> F         0.000004   -1.105704   -1.128152
| 15> *
| 16>
| 17> $new_job
| 18> ! ri-mp2 aug-cc-pvtz aug-cc-pvtz/c tightscf
| 19> %pal nprocs 16 end
| 20> %maxcore 3800
| 21> %base "TZ_B-Cl_53_AB"
| 22>
| 23> *xyz 0 1
| 24> F         0.000004   -1.105704    1.128152
| 25> B        -0.000029   -0.439710    0.000000
| 26> Cl         0.000004    1.300072   -0.000000
| 27> F         0.000004   -1.105704   -1.128152
| 28> *
| 29>
| 30> $new_job
| 31> ! ri-mp2 aug-cc-pvqz aug-cc-pvqz/c tightscf
| 32> %pal nprocs 16 end
| 33> %maxcore 3800
| 34> %base "QZ_B-Cl_53_AB"
| 35>
| 36> *xyz 0 1
| 37> F         0.000004   -1.105704    1.128152
| 38> B        -0.000029   -0.439710    0.000000
| 39> Cl         0.000004    1.300072   -0.000000
| 40> F         0.000004   -1.105704   -1.128152
| 41> *
| 42>
| 43>
| 44>
| 45>
| 46>                          ****END OF INPUT****
 Total Charge           Charge          ....    0
 Multiplicity           Mult            ....    1
 Number of Electrons    NEL             ....   40
MP2 TOTAL ENERGY:     -683.884681758 Eh
FINAL SINGLE POINT ENERGY      -683.884681757604
MP2 TOTAL ENERGY:     -684.140598461 Eh
FINAL SINGLE POINT ENERGY      -684.140598461196

CARTESIAN COORDINATES (ANGSTROEM)
---------------------------------
  F      0.000004   -1.105704    1.128152
  B     -0.000029   -0.439710    0.000000
  Cl     0.000004    1.300072   -0.000000
  F      0.000004   -1.105704   -1.128152

 Multiplicity           Mult            ....    1
 Number of Electrons    NEL             ....   40
 Basis Dimension        Dim             ....  324

ORBITAL ENERGIES
----------------

  NO   OCC          E(Eh)            E(eV)
   0   2.0000    -104.860754     -2853.4062
   1   2.0000     -26.338185      -716.6985
   2   2.0000     -26.338168      -716.6980
   3   2.0000     -10.588584      -288.1300
   4   2.0000      -8.055523      -219.2019
   5   2.0000      -8.054302      -219.1687
   6   2.0000      -8.054103      -219.1633
   7   2.0000      -7.777392      -211.6336
   8   2.0000      -1.674117       -45.5550
   9   2.0000      -1.642922       -44.7062
  10   2.0000      -1.143061       -31.1043
  11   2.0000      -0.844852       -22.9896
  12   2.0000      -0.793844       -21.6016
  13   2.0000      -0.753392       -20.5008
  14   2.0000      -0.743494       -20.2315
  15   2.0000      -0.685942       -18.6654
  16   2.0000      -0.679998       -18.5037
  17   2.0000      -0.593715       -16.1558
  18   2.0000      -0.505737       -13.7618
  19   2.0000      -0.496369       -13.5069
  20   0.0000       0.034469         0.9380
  21   0.0000       0.040564         1.1038
  22   0.0000       0.041940         1.1412
  23   0.0000       0.042076         1.1449
  24   0.0000       0.096324         2.6211

MULLIKEN ATOMIC CHARGES
-----------------------
   0 F :   -0.682989
   1 B :    1.510308
   2 Cl:   -0.144331
   3 F :   -0.682989
Sum of atomic charges:    0.0000000

LOEWDIN ATOMIC CHARGES
----------------------
   0 F :    0.715215
   1 B :   -2.643619
   2 Cl:    1.213190
   3 F :    0.715215

  Mayer bond orders larger than 0.100000
B(  0-F ,  1-B ) :   0.5298 B(  1-B ,  2-Cl) :   1.1541 B(  1-B ,  3-F ) :   0.5298

MP2 TOTAL ENERGY:     -684.223865125 Eh
FINAL SINGLE POINT ENERGY      -684.223865125117

DIPOLE MOMENT
-------------
                                X             Y             Z
Electronic contribution:     -0.00006      -0.47971      -0.00000
Nuclear contribution   :      0.00001       0.60478       0.00000
                        -----------------------------------------
Total Dipole Moment    :     -0.00005       0.12506      -0.00000
                        -----------------------------------------
Magnitude (a.u.)       :      0.12506
Magnitude (Debye)      :      0.31789

Rotational constants in cm-1:     0.348597     0.155427     0.107498
Rotational constants in MHz : 10450.678549  4659.590121  3222.701038

                             ****ORCA TERMINATED NORMALLY****
TOTAL RUN TIME: 0 days 0 hours 3 minutes 7 seconds 109 msec
