                         Program Version 5.0.4 -  RELEASE  -
|  1> ! ri-mp2 aug-cc-pvdz aug-cc-pvdz/c tightscf
|  2> %pal nprocs 16 end
|  3> %maxcore 3800
|  4> %base "DZ_B-Si_53_AB"
|  5>
|  6> *xyz 0 1
|  7> C        -2.339479   -1.192926    0.658833
|  8> C        -1.070991   -0.691205    0.895997
|  9> C        -3.190783   -0.535074   -0.213605
| 10> C        -2.767459    0.622632   -0.843412
| 11> C        -1.496747    1.119166   -0.602793
| 12> C        -0.623564    0.474491    0.271166
| 13> H        -1.181729    2.026821   -1.102951
| 14> H        -4.183140   -0.923747   -0.400319
| 15> H        -3.429343    1.141963   -1.524110
| 16> H        -2.665987   -2.095575    1.158575
| 17> H        -0.422876   -1.215577    1.590157
| 18> B         2.388952   -0.309556   -0.222141
| 19> O         3.732103   -0.127276   -0.167474
| 20> O         1.920242   -1.451283   -0.803902
| 21> H         0.960528   -1.519811   -0.820739
| 22> H         4.226000   -0.854298   -0.566420
| 23> Si         1.129771    1.083368    0.548070
| 24> H         1.279094    2.396737   -0.121513
| 25> H         1.371283    1.270080    1.998929
| 26> *
| 27>
| 28> $new_job
| 29> ! ri-mp2 aug-cc-pvtz aug-cc-pvtz/c tightscf
| 30> %pal nprocs 16 end
| 31> %maxcore 3800
| 32> %base "TZ_B-Si_53_AB"
| 33>
| 34> *xyz 0 1
| 35> C        -2.339479   -1.192926    0.658833
| 36> C        -1.070991   -0.691205    0.895997
| 37> C        -3.190783   -0.535074   -0.213605
| 38> C        -2.767459    0.622632   -0.843412
| 39> C        -1.496747    1.119166   -0.602793
| 40> C        -0.623564    0.474491    0.271166
| 41> H        -1.181729    2.026821   -1.102951
| 42> H        -4.183140   -0.923747   -0.400319
| 43> H        -3.429343    1.141963   -1.524110
| 44> H        -2.665987   -2.095575    1.158575
| 45> H        -0.422876   -1.215577    1.590157
| 46> B         2.388952   -0.309556   -0.222141
| 47> O         3.732103   -0.127276   -0.167474
| 48> O         1.920242   -1.451283   -0.803902
| 49> H         0.960528   -1.519811   -0.820739
| 50> H         4.226000   -0.854298   -0.566420
| 51> Si         1.129771    1.083368    0.548070
| 52> H         1.279094    2.396737   -0.121513
| 53> H         1.371283    1.270080    1.998929
| 54> *
| 55>
| 56> $new_job
| 57> ! ri-mp2 aug-cc-pvqz aug-cc-pvqz/c tightscf
| 58> %pal nprocs 16 end
| 59> %maxcore 3800
| 60> %base "QZ_B-Si_53_AB"
| 61>
| 62> *xyz 0 1
| 63> C        -2.339479   -1.192926    0.658833
| 64> C        -1.070991   -0.691205    0.895997
| 65> C        -3.190783   -0.535074   -0.213605
| 66> C        -2.767459    0.622632   -0.843412
| 67> C        -1.496747    1.119166   -0.602793
| 68> C        -0.623564    0.474491    0.271166
| 69> H        -1.181729    2.026821   -1.102951
| 70> H        -4.183140   -0.923747   -0.400319
| 71> H        -3.429343    1.141963   -1.524110
| 72> H        -2.665987   -2.095575    1.158575
| 73> H        -0.422876   -1.215577    1.590157
| 74> B         2.388952   -0.309556   -0.222141
| 75> O         3.732103   -0.127276   -0.167474
| 76> O         1.920242   -1.451283   -0.803902
| 77> H         0.960528   -1.519811   -0.820739
| 78> H         4.226000   -0.854298   -0.566420
| 79> Si         1.129771    1.083368    0.548070
| 80> H         1.279094    2.396737   -0.121513
| 81> H         1.371283    1.270080    1.998929
| 82> *
| 83>
| 84>
| 85>
| 86>
| 87>                          ****END OF INPUT****
 Total Charge           Charge          ....    0
 Multiplicity           Mult            ....    1
 Number of Electrons    NEL             ....   80
MP2 TOTAL ENERGY:     -697.346302605 Eh
FINAL SINGLE POINT ENERGY      -697.346302605426
MP2 TOTAL ENERGY:     -697.738605284 Eh
FINAL SINGLE POINT ENERGY      -697.738605283797

CARTESIAN COORDINATES (ANGSTROEM)
---------------------------------
  C     -2.339479   -1.192926    0.658833
  C     -1.070991   -0.691205    0.895997
  C     -3.190783   -0.535074   -0.213605
  C     -2.767459    0.622632   -0.843412
  C     -1.496747    1.119166   -0.602793
  C     -0.623564    0.474491    0.271166
  H     -1.181729    2.026821   -1.102951
  H     -4.183140   -0.923747   -0.400319
  H     -3.429343    1.141963   -1.524110
  H     -2.665987   -2.095575    1.158575
  H     -0.422876   -1.215577    1.590157
  B      2.388952   -0.309556   -0.222141
  O      3.732103   -0.127276   -0.167474
  O      1.920242   -1.451283   -0.803902
  H      0.960528   -1.519811   -0.820739
  H      4.226000   -0.854298   -0.566420
  Si     1.129771    1.083368    0.548070
  H      1.279094    2.396737   -0.121513
  H      1.371283    1.270080    1.998929

 Multiplicity           Mult            ....    1
 Number of Electrons    NEL             ....   80
 Basis Dimension        Dim             .... 1218

ORBITAL ENERGIES
----------------

  NO   OCC          E(Eh)            E(eV)
   0   2.0000     -68.753111     -1870.8673
   1   2.0000     -20.570983      -559.7649
   2   2.0000     -20.565820      -559.6244
   3   2.0000     -11.243456      -305.9500
   4   2.0000     -11.242092      -305.9129
   5   2.0000     -11.241452      -305.8955
   6   2.0000     -11.240143      -305.8598
   7   2.0000     -11.238789      -305.8230
   8   2.0000     -11.226545      -305.4898
   9   2.0000      -7.635954      -207.7849
  10   2.0000      -6.104774      -166.1193
  11   2.0000      -4.211167      -114.5917
  12   2.0000      -4.210927      -114.5851
  13   2.0000      -4.210599      -114.5762
  14   2.0000      -1.387060       -37.7438
  15   2.0000      -1.346323       -36.6353
  16   2.0000      -1.162134       -31.6233
  17   2.0000      -1.025463       -27.9043
  18   2.0000      -1.023421       -27.8487
  19   2.0000      -0.834037       -22.6953
  20   2.0000      -0.833308       -22.6755
  21   2.0000      -0.775644       -21.1063
  22   2.0000      -0.744829       -20.2678
  23   2.0000      -0.723287       -19.6816
  24   2.0000      -0.680276       -18.5112
  25   2.0000      -0.634158       -17.2563
  26   2.0000      -0.633194       -17.2301
  27   2.0000      -0.609714       -16.5912
  28   2.0000      -0.595570       -16.2063
  29   2.0000      -0.575055       -15.6480
  30   2.0000      -0.565866       -15.3980
  31   2.0000      -0.553848       -15.0710
  32   2.0000      -0.517130       -14.0718
  33   2.0000      -0.503314       -13.6959
  34   2.0000      -0.500270       -13.6130
  35   2.0000      -0.473669       -12.8892
  36   2.0000      -0.452807       -12.3215
  37   2.0000      -0.417607       -11.3637
  38   2.0000      -0.348072        -9.4715
  39   2.0000      -0.342560        -9.3215
  40   0.0000       0.020420         0.5557
  41   0.0000       0.026727         0.7273
  42   0.0000       0.028194         0.7672
  43   0.0000       0.033539         0.9126
  44   0.0000       0.039401         1.0722

MULLIKEN ATOMIC CHARGES
-----------------------
   0 C :   -0.250938
   1 C :   -0.348607
   2 C :   -0.422454
   3 C :   -0.302500
   4 C :   -0.577069
   5 C :    0.175139
   6 H :    0.326698
   7 H :    0.349358
   8 H :    0.253725
   9 H :    0.244624
  10 H :    0.335212
  11 B :    1.381660
  12 O :   -1.089979
  13 O :   -1.178521
  14 H :    0.402803
  15 H :    0.330367
  16 Si:    0.794558
  17 H :   -0.245502
  18 H :   -0.178575
Sum of atomic charges:   -0.0000000

LOEWDIN ATOMIC CHARGES
----------------------
   0 C :    0.341219
   1 C :    0.245406
   2 C :    0.336752
   3 C :    0.340174
   4 C :    0.258849
   5 C :   -0.125714
   6 H :   -0.341637
   7 H :   -0.318987
   8 H :   -0.318736
   9 H :   -0.317761
  10 H :   -0.326629
  11 B :   -1.181927
  12 O :    1.277226
  13 O :    1.323353
  14 H :   -0.842050
  15 H :   -0.807198
  16 Si:    0.906165
  17 H :   -0.222887
  18 H :   -0.225617

  Mayer bond orders larger than 0.100000
B(  0-C ,  1-C ) :   1.2472 B(  0-C ,  2-C ) :   1.1660 B(  0-C ,  3-C ) :  -0.1030
B(  0-C ,  4-C ) :   0.1331 B(  0-C ,  5-C ) :  -0.2958 B(  0-C ,  9-H ) :   1.1304
B(  1-C ,  2-C ) :   0.1163 B(  1-C ,  3-C ) :   0.1447 B(  1-C ,  5-C ) :   0.9965
B(  1-C ,  9-H ) :  -0.1445 B(  1-C , 10-H ) :   0.9294 B(  1-C , 16-Si) :  -0.1449
B(  2-C ,  3-C ) :   1.1510 B(  2-C ,  4-C ) :   0.1835 B(  2-C ,  7-H ) :   0.9718
B(  2-C ,  8-H ) :  -0.1005 B(  3-C ,  4-C ) :   1.3672 B(  3-C ,  5-C ) :  -0.3398
B(  3-C ,  8-H ) :   1.1228 B(  4-C ,  5-C ) :   0.8341 B(  4-C ,  6-H ) :   0.9308
B(  4-C ,  8-H ) :  -0.1576 B(  4-C , 16-Si) :  -0.1505 B(  5-C ,  6-H ) :  -0.1218
B(  5-C , 10-H ) :  -0.1421 B(  5-C , 16-Si) :   0.8741 B(  5-C , 17-H ) :  -0.1305
B( 11-B , 12-O ) :   0.4149 B( 11-B , 13-O ) :   0.4307 B( 11-B , 16-Si) :   0.7337
B( 12-O , 13-O ) :  -0.1308 B( 12-O , 15-H ) :   0.9418 B( 12-O , 16-Si) :  -0.1736
B( 13-O , 14-H ) :   0.8632 B( 16-Si, 17-H ) :   0.6949 B( 16-Si, 18-H ) :   0.7114

MP2 TOTAL ENERGY:     -697.865433545 Eh
FINAL SINGLE POINT ENERGY      -697.865433545329

DIPOLE MOMENT
-------------
                                X             Y             Z
Electronic contribution:      5.22489      -0.80917      -0.57610
Nuclear contribution   :     -5.88076       0.38085       0.33801
                        -----------------------------------------
Total Dipole Moment    :     -0.65587      -0.42832      -0.23809
                        -----------------------------------------
Magnitude (a.u.)       :      0.81873
Magnitude (Debye)      :      2.08104

Rotational constants in cm-1:     0.083901     0.020392     0.018631
Rotational constants in MHz :  2515.293926   611.332194   558.546019

                             ****ORCA TERMINATED NORMALLY****
TOTAL RUN TIME: 0 days 0 hours 41 minutes 1 seconds 765 msec
