                         Program Version 5.0.4 -  RELEASE  -
|  1> ! ri-mp2 aug-cc-pvdz aug-cc-pvdz/c tightscf
|  2> %pal nprocs 16 end
|  3> %maxcore 3800
|  4> %base "DZ_P-N_83_AB"
|  5> %scf
|  6> STABPerform true
|  7> STABRestartUHFifUnstable true
|  8> end
|  9>
| 10> *xyz 0 1
| 11> N        -1.680823   -0.295351   -0.241429
| 12> C        -2.034332    0.838037    0.595757
| 13> H        -1.508959    1.752406    0.314343
| 14> H        -1.792555    0.606070    1.634003
| 15> H        -3.108535    1.012623    0.538936
| 16> C         1.071139    0.271943   -0.154009
| 17> C         2.386222   -0.056335    0.504858
| 18> H         2.322334    0.213808    1.561065
| 19> H         3.182825    0.525368    0.045266
| 20> H         2.614415   -1.121417    0.447385
| 21> O         0.861041    1.339499   -0.673665
| 22> P        -0.207577   -1.082779   -0.212213
| 23> H        -0.100220   -1.384873    1.168378
| 24> H        -2.156397   -0.332700   -1.126503
| 25> *
| 26>
| 27> $new_job
| 28> ! ri-mp2 aug-cc-pvtz aug-cc-pvtz/c tightscf
| 29> %pal nprocs 16 end
| 30> %maxcore 3800
| 31> %base "TZ_P-N_83_AB"
| 32>
| 33> *xyz 0 1
| 34> N        -1.680823   -0.295351   -0.241429
| 35> C        -2.034332    0.838037    0.595757
| 36> H        -1.508959    1.752406    0.314343
| 37> H        -1.792555    0.606070    1.634003
| 38> H        -3.108535    1.012623    0.538936
| 39> C         1.071139    0.271943   -0.154009
| 40> C         2.386222   -0.056335    0.504858
| 41> H         2.322334    0.213808    1.561065
| 42> H         3.182825    0.525368    0.045266
| 43> H         2.614415   -1.121417    0.447385
| 44> O         0.861041    1.339499   -0.673665
| 45> P        -0.207577   -1.082779   -0.212213
| 46> H        -0.100220   -1.384873    1.168378
| 47> H        -2.156397   -0.332700   -1.126503
| 48> *
| 49>
| 50> $new_job
| 51> ! ri-mp2 aug-cc-pvqz aug-cc-pvqz/c tightscf
| 52> %pal nprocs 16 end
| 53> %maxcore 3800
| 54> %base "QZ_P-N_83_AB"
| 55>
| 56> *xyz 0 1
| 57> N        -1.680823   -0.295351   -0.241429
| 58> C        -2.034332    0.838037    0.595757
| 59> H        -1.508959    1.752406    0.314343
| 60> H        -1.792555    0.606070    1.634003
| 61> H        -3.108535    1.012623    0.538936
| 62> C         1.071139    0.271943   -0.154009
| 63> C         2.386222   -0.056335    0.504858
| 64> H         2.322334    0.213808    1.561065
| 65> H         3.182825    0.525368    0.045266
| 66> H         2.614415   -1.121417    0.447385
| 67> O         0.861041    1.339499   -0.673665
| 68> P        -0.207577   -1.082779   -0.212213
| 69> H        -0.100220   -1.384873    1.168378
| 70> H        -2.156397   -0.332700   -1.126503
| 71> *
| 72>
| 73>
| 74>
| 75>
| 76>                          ****END OF INPUT****
 Total Charge           Charge          ....    0
 Multiplicity           Mult            ....    1
 Number of Electrons    NEL             ....   56
MP2 TOTAL ENERGY:     -589.263466507 Eh
FINAL SINGLE POINT ENERGY      -589.263466506704
MP2 TOTAL ENERGY:     -589.534196614 Eh
FINAL SINGLE POINT ENERGY      -589.534196614060

CARTESIAN COORDINATES (ANGSTROEM)
---------------------------------
  N     -1.680823   -0.295351   -0.241429
  C     -2.034332    0.838037    0.595757
  H     -1.508959    1.752406    0.314343
  H     -1.792555    0.606070    1.634003
  H     -3.108535    1.012623    0.538936
  C      1.071139    0.271943   -0.154009
  C      2.386222   -0.056335    0.504858
  H      2.322334    0.213808    1.561065
  H      3.182825    0.525368    0.045266
  H      2.614415   -1.121417    0.447385
  O      0.861041    1.339499   -0.673665
  P     -0.207577   -1.082779   -0.212213
  H     -0.100220   -1.384873    1.168378
  H     -2.156397   -0.332700   -1.126503

 Multiplicity           Mult            ....    1
 Number of Electrons    NEL             ....   56
 Basis Dimension        Dim             ....  852

ORBITAL ENERGIES
----------------

  NO   OCC          E(Eh)            E(eV)
   0   2.0000     -79.963212     -2175.9096
   1   2.0000     -20.549226      -559.1729
   2   2.0000     -15.558124      -423.3581
   3   2.0000     -11.326375      -308.2063
   4   2.0000     -11.251969      -306.1816
   5   2.0000     -11.235929      -305.7452
   6   2.0000      -7.502861      -204.1632
   7   2.0000      -5.397078      -146.8620
   8   2.0000      -5.396693      -146.8515
   9   2.0000      -5.396308      -146.8410
  10   2.0000      -1.393156       -37.9097
  11   2.0000      -1.200555       -32.6687
  12   2.0000      -1.019248       -27.7351
  13   2.0000      -0.933115       -25.3913
  14   2.0000      -0.852588       -23.2001
  15   2.0000      -0.733165       -19.9504
  16   2.0000      -0.664682       -18.0869
  17   2.0000      -0.636725       -17.3262
  18   2.0000      -0.626111       -17.0373
  19   2.0000      -0.608470       -16.5573
  20   2.0000      -0.600737       -16.3469
  21   2.0000      -0.572426       -15.5765
  22   2.0000      -0.547286       -14.8924
  23   2.0000      -0.525559       -14.3012
  24   2.0000      -0.504414       -13.7258
  25   2.0000      -0.437168       -11.8959
  26   2.0000      -0.387108       -10.5338
  27   2.0000      -0.350956        -9.5500
  28   0.0000       0.024146         0.6571
  29   0.0000       0.030032         0.8172
  30   0.0000       0.036487         0.9929
  31   0.0000       0.040036         1.0894
  32   0.0000       0.046745         1.2720

MULLIKEN ATOMIC CHARGES
-----------------------
   0 N :   -0.687367
   1 C :   -0.872479
   2 H :    0.314706
   3 H :    0.272664
   4 H :    0.380678
   5 C :    0.531506
   6 C :   -0.860744
   7 H :    0.284006
   8 H :    0.310949
   9 H :    0.231671
  10 O :   -0.829001
  11 P :    0.847655
  12 H :   -0.125223
  13 H :    0.200978
Sum of atomic charges:    0.0000000

LOEWDIN ATOMIC CHARGES
----------------------
   0 N :    0.574666
   1 C :    0.683884
   2 H :   -0.325288
   3 H :   -0.317339
   4 H :   -0.298977
   5 C :   -0.850482
   6 C :    0.798830
   7 H :   -0.304593
   8 H :   -0.318700
   9 H :   -0.327918
  10 O :    0.646028
  11 P :    1.068757
  12 H :   -0.419696
  13 H :   -0.609173

  Mayer bond orders larger than 0.100000
B(  0-N ,  1-C ) :   0.8894 B(  0-N , 11-P ) :   0.8582 B(  0-N , 13-H ) :   1.0325
B(  1-C ,  2-H ) :   0.9043 B(  1-C ,  3-H ) :   0.9506 B(  1-C ,  4-H ) :   0.8738
B(  5-C ,  6-C ) :   0.8955 B(  5-C , 10-O ) :   1.2841 B(  5-C , 11-P ) :   0.7222
B(  6-C ,  7-H ) :   0.8676 B(  6-C ,  8-H ) :   0.9407 B(  6-C ,  9-H ) :   1.0169
B( 11-P , 12-H ) :   0.9486

MP2 TOTAL ENERGY:     -589.620297712 Eh
FINAL SINGLE POINT ENERGY      -589.620297712485

DIPOLE MOMENT
-------------
                                X             Y             Z
Electronic contribution:      0.25298      -2.71302      -4.16768
Nuclear contribution   :     -0.34601       2.32398       4.77726
                        -----------------------------------------
Total Dipole Moment    :     -0.09303      -0.38904       0.60958
                        -----------------------------------------
Magnitude (a.u.)       :      0.72911
Magnitude (Debye)      :      1.85325

Rotational constants in cm-1:     0.155229     0.066696     0.054227
Rotational constants in MHz :  4653.649473  1999.491740  1625.684943

                             ****ORCA TERMINATED NORMALLY****
TOTAL RUN TIME: 0 days 1 hours 1 minutes 1 seconds 830 msec
