                         Program Version 5.0.4 -  RELEASE  -
|  1> ! ri-mp2 aug-cc-pvdz aug-cc-pvdz/c tightscf
|  2> %pal nprocs 16 end
|  3> %maxcore 3800
|  4> %base "DZ_S-F_15_AB"
|  5> %scf
|  6> STABPerform true
|  7> STABRestartUHFifUnstable true
|  8> end
|  9>
| 10> *xyz 0 1
| 11> F        -1.656774    0.000001    1.034328
| 12> S        -1.265397    0.000000   -0.565882
| 13> P         0.792608    0.000000   -0.627167
| 14> C         1.257112   -1.416367    0.439830
| 15> C         1.257112    1.416367    0.439830
| 16> H         0.939771   -2.343084   -0.034180
| 17> H         0.808815   -1.345727    1.429735
| 18> H         2.342841   -1.434883    0.541801
| 19> H         0.939771    2.343083   -0.034181
| 20> H         2.342841    1.434883    0.541800
| 21> H         0.808816    1.345727    1.429735
| 22> *
| 23>
| 24> $new_job
| 25> ! ri-mp2 aug-cc-pvtz aug-cc-pvtz/c tightscf
| 26> %pal nprocs 16 end
| 27> %maxcore 3800
| 28> %base "TZ_S-F_15_AB"
| 29>
| 30> *xyz 0 1
| 31> F        -1.656774    0.000001    1.034328
| 32> S        -1.265397    0.000000   -0.565882
| 33> P         0.792608    0.000000   -0.627167
| 34> C         1.257112   -1.416367    0.439830
| 35> C         1.257112    1.416367    0.439830
| 36> H         0.939771   -2.343084   -0.034180
| 37> H         0.808815   -1.345727    1.429735
| 38> H         2.342841   -1.434883    0.541801
| 39> H         0.939771    2.343083   -0.034181
| 40> H         2.342841    1.434883    0.541800
| 41> H         0.808816    1.345727    1.429735
| 42> *
| 43>
| 44> $new_job
| 45> ! ri-mp2 aug-cc-pvqz aug-cc-pvqz/c tightscf
| 46> %pal nprocs 16 end
| 47> %maxcore 3800
| 48> %base "QZ_S-F_15_AB"
| 49>
| 50> *xyz 0 1
| 51> F        -1.656774    0.000001    1.034328
| 52> S        -1.265397    0.000000   -0.565882
| 53> P         0.792608    0.000000   -0.627167
| 54> C         1.257112   -1.416367    0.439830
| 55> C         1.257112    1.416367    0.439830
| 56> H         0.939771   -2.343084   -0.034180
| 57> H         0.808815   -1.345727    1.429735
| 58> H         2.342841   -1.434883    0.541801
| 59> H         0.939771    2.343083   -0.034181
| 60> H         2.342841    1.434883    0.541800
| 61> H         0.808816    1.345727    1.429735
| 62> *
| 63>
| 64>
| 65>
| 66>
| 67>                          ****END OF INPUT****
 Total Charge           Charge          ....    0
 Multiplicity           Mult            ....    1
 Number of Electrons    NEL             ....   58
MP2 TOTAL ENERGY:     -917.721257917 Eh
FINAL SINGLE POINT ENERGY      -917.721257917078
MP2 TOTAL ENERGY:     -917.984085548 Eh
FINAL SINGLE POINT ENERGY      -917.984085547971

CARTESIAN COORDINATES (ANGSTROEM)
---------------------------------
  F     -1.656774    0.000001    1.034328
  S     -1.265397    0.000000   -0.565882
  P      0.792608    0.000000   -0.627167
  C      1.257112   -1.416367    0.439830
  C      1.257112    1.416367    0.439830
  H      0.939771   -2.343084   -0.034180
  H      0.808815   -1.345727    1.429735
  H      2.342841   -1.434883    0.541801
  H      0.939771    2.343083   -0.034181
  H      2.342841    1.434883    0.541800
  H      0.808816    1.345727    1.429735

 Multiplicity           Mult            ....    1
 Number of Electrons    NEL             ....   58
 Basis Dimension        Dim             ....  684

ORBITAL ENERGIES
----------------

  NO   OCC          E(Eh)            E(eV)
   0   2.0000     -92.022502     -2504.0596
   1   2.0000     -79.970551     -2176.1093
   2   2.0000     -26.297388      -715.5883
   3   2.0000     -11.236830      -305.7697
   4   2.0000     -11.236819      -305.7694
   5   2.0000      -9.017938      -245.3906
   6   2.0000      -7.511014      -204.3851
   7   2.0000      -6.699415      -182.3003
   8   2.0000      -6.697208      -182.2403
   9   2.0000      -6.696223      -182.2135
  10   2.0000      -5.405617      -147.0943
  11   2.0000      -5.404426      -147.0619
  12   2.0000      -5.403893      -147.0474
  13   2.0000      -1.590934       -43.2915
  14   2.0000      -1.044473       -28.4216
  15   2.0000      -0.955945       -26.0126
  16   2.0000      -0.953152       -25.9366
  17   2.0000      -0.753456       -20.5026
  18   2.0000      -0.676941       -18.4205
  19   2.0000      -0.675235       -18.3741
  20   2.0000      -0.643421       -17.5084
  21   2.0000      -0.599654       -16.3174
  22   2.0000      -0.590775       -16.0758
  23   2.0000      -0.577779       -15.7222
  24   2.0000      -0.569744       -15.5035
  25   2.0000      -0.494700       -13.4615
  26   2.0000      -0.455296       -12.3892
  27   2.0000      -0.377508       -10.2725
  28   2.0000      -0.365546        -9.9470
  29   0.0000       0.024273         0.6605
  30   0.0000       0.032795         0.8924
  31   0.0000       0.040154         1.0927
  32   0.0000       0.041067         1.1175
  33   0.0000       0.053866         1.4658

MULLIKEN ATOMIC CHARGES
-----------------------
   0 F :   -0.622103
   1 S :    0.230035
   2 P :    0.709992
   3 C :   -1.099541
   4 C :   -1.099541
   5 H :    0.374068
   6 H :    0.283886
   7 H :    0.282626
   8 H :    0.374068
   9 H :    0.282625
  10 H :    0.283887
Sum of atomic charges:    0.0000000

LOEWDIN ATOMIC CHARGES
----------------------
   0 F :    0.020463
   1 S :    0.400811
   2 P :    0.391832
   3 C :    0.698968
   4 C :    0.698968
   5 H :   -0.377881
   6 H :   -0.364799
   7 H :   -0.362841
   8 H :   -0.377882
   9 H :   -0.362841
  10 H :   -0.364800

  Mayer bond orders larger than 0.100000
B(  0-F ,  1-S ) :   0.5560 B(  1-S ,  2-P ) :   1.0044 B(  2-P ,  3-C ) :   0.8961
B(  2-P ,  4-C ) :   0.8961 B(  3-C ,  5-H ) :   0.8785 B(  3-C ,  6-H ) :   0.9040
B(  3-C ,  7-H ) :   0.9154 B(  4-C ,  8-H ) :   0.8785 B(  4-C ,  9-H ) :   0.9154
B(  4-C , 10-H ) :   0.9040

MP2 TOTAL ENERGY:     -918.067911083 Eh
FINAL SINGLE POINT ENERGY      -918.067911083443

DIPOLE MOMENT
-------------
                                X             Y             Z
Electronic contribution:     -7.91112       0.00000      -3.19258
Nuclear contribution   :      8.84553      -0.00000       3.36979
                        -----------------------------------------
Total Dipole Moment    :      0.93441      -0.00000       0.17721
                        -----------------------------------------
Magnitude (a.u.)       :      0.95107
Magnitude (Debye)      :      2.41742

Rotational constants in cm-1:     0.142052     0.074469     0.069712
Rotational constants in MHz :  4258.621270  2232.539421  2089.919197

                             ****ORCA TERMINATED NORMALLY****
TOTAL RUN TIME: 0 days 0 hours 27 minutes 50 seconds 153 msec
