                         Program Version 5.0.4 -  RELEASE  -
|  1> ! ri-mp2 aug-cc-pvdz aug-cc-pvdz/c tightscf
|  2> %pal nprocs 16 end
|  3> %maxcore 3800
|  4> %base "DZ_B-Cl_56_A"
|  5> %scf
|  6> STABPerform true
|  7> STABRestartUHFifUnstable true
|  8> end
|  9>
| 10> *xyz 0 2
| 11> Cl         3.171405    0.253473    0.000011
| 12> B         1.668267   -0.624784   -0.000031
| 13> O         0.502545    0.042291    0.000007
| 14> C        -0.729827   -0.600646   -0.000003
| 15> O        -0.826783   -1.795722   -0.000004
| 16> N        -1.738339    0.288632   -0.000007
| 17> C        -1.586399    1.728538    0.000003
| 18> H        -2.065482    2.153313    0.884925
| 19> H        -2.065524    2.153326   -0.884889
| 20> H        -0.539467    2.002673   -0.000020
| 21> C        -3.097830   -0.208895   -0.000003
| 22> H        -3.628305    0.145838   -0.886144
| 23> H        -3.628291    0.145811    0.886158
| 24> H        -3.081539   -1.293032   -0.000019
| 25> *
| 26>
| 27> $new_job
| 28> ! ri-mp2 aug-cc-pvtz aug-cc-pvtz/c tightscf
| 29> %pal nprocs 16 end
| 30> %maxcore 3800
| 31> %base "TZ_B-Cl_56_A"
| 32>
| 33> *xyz 0 2
| 34> Cl         3.171405    0.253473    0.000011
| 35> B         1.668267   -0.624784   -0.000031
| 36> O         0.502545    0.042291    0.000007
| 37> C        -0.729827   -0.600646   -0.000003
| 38> O        -0.826783   -1.795722   -0.000004
| 39> N        -1.738339    0.288632   -0.000007
| 40> C        -1.586399    1.728538    0.000003
| 41> H        -2.065482    2.153313    0.884925
| 42> H        -2.065524    2.153326   -0.884889
| 43> H        -0.539467    2.002673   -0.000020
| 44> C        -3.097830   -0.208895   -0.000003
| 45> H        -3.628305    0.145838   -0.886144
| 46> H        -3.628291    0.145811    0.886158
| 47> H        -3.081539   -1.293032   -0.000019
| 48> *
| 49>
| 50> $new_job
| 51> ! ri-mp2 aug-cc-pvqz aug-cc-pvqz/c tightscf
| 52> %pal nprocs 16 end
| 53> %maxcore 3800
| 54> %base "QZ_B-Cl_56_A"
| 55>
| 56> *xyz 0 2
| 57> Cl         3.171405    0.253473    0.000011
| 58> B         1.668267   -0.624784   -0.000031
| 59> O         0.502545    0.042291    0.000007
| 60> C        -0.729827   -0.600646   -0.000003
| 61> O        -0.826783   -1.795722   -0.000004
| 62> N        -1.738339    0.288632   -0.000007
| 63> C        -1.586399    1.728538    0.000003
| 64> H        -2.065482    2.153313    0.884925
| 65> H        -2.065524    2.153326   -0.884889
| 66> H        -0.539467    2.002673   -0.000020
| 67> C        -3.097830   -0.208895   -0.000003
| 68> H        -3.628305    0.145838   -0.886144
| 69> H        -3.628291    0.145811    0.886158
| 70> H        -3.081539   -1.293032   -0.000019
| 71> *
| 72>
| 73>
| 74>
| 75>
| 76>                          ****END OF INPUT****
 Total Charge           Charge          ....    0
 Multiplicity           Mult            ....    2
 Number of Electrons    NEL             ....   69
MP2 TOTAL ENERGY:     -806.744225411 Eh
FINAL SINGLE POINT ENERGY      -806.744225411305
MP2 TOTAL ENERGY:     -807.106686977 Eh
FINAL SINGLE POINT ENERGY      -807.106686976923

CARTESIAN COORDINATES (ANGSTROEM)
---------------------------------
  Cl     3.171405    0.253473    0.000011
  B      1.668267   -0.624784   -0.000031
  O      0.502545    0.042291    0.000007
  C     -0.729827   -0.600646   -0.000003
  O     -0.826783   -1.795722   -0.000004
  N     -1.738339    0.288632   -0.000007
  C     -1.586399    1.728538    0.000003
  H     -2.065482    2.153313    0.884925
  H     -2.065524    2.153326   -0.884889
  H     -0.539467    2.002673   -0.000020
  C     -3.097830   -0.208895   -0.000003
  H     -3.628305    0.145838   -0.886144
  H     -3.628291    0.145811    0.886158
  H     -3.081539   -1.293032   -0.000019

 Multiplicity           Mult            ....    2
 Number of Electrons    NEL             ....   69
 Basis Dimension        Dim             ....  920

ORBITAL ENERGIES
----------------
                 SPIN UP ORBITALS
  NO   OCC          E(Eh)            E(eV)
   0   1.0000    -104.840304     -2852.8497
   1   1.0000     -20.621200      -561.1314
   2   1.0000     -20.536715      -558.8324
   3   1.0000     -15.607364      -424.6980
   4   1.0000     -11.420663      -310.7721
   5   1.0000     -11.274958      -306.8072
   6   1.0000     -11.268476      -306.6308
   7   1.0000     -10.568047      -287.5712
   8   1.0000      -8.036357      -218.6804
   9   1.0000      -8.033363      -218.5989
  10   1.0000      -8.033179      -218.5939
  11   1.0000      -7.712319      -209.8629
  12   1.0000      -1.482207       -40.3329
  13   1.0000      -1.379063       -37.5262
  14   1.0000      -1.276083       -34.7240
  15   1.0000      -1.123701       -30.5775
  16   1.0000      -0.992514       -27.0077
  17   1.0000      -0.976401       -26.5692
  18   1.0000      -0.840042       -22.8587
  19   1.0000      -0.744472       -20.2581
  20   1.0000      -0.716656       -19.5012
  21   1.0000      -0.693682       -18.8761
  22   1.0000      -0.645637       -17.5687
  23   1.0000      -0.628430       -17.1004
  24   1.0000      -0.624757       -17.0005
  25   1.0000      -0.610300       -16.6071
  26   1.0000      -0.579541       -15.7701
  27   1.0000      -0.573742       -15.6123
  28   1.0000      -0.550042       -14.9674
  29   1.0000      -0.529739       -14.4149
  30   1.0000      -0.499568       -13.5939
  31   1.0000      -0.477810       -13.0019
  32   1.0000      -0.465662       -12.6713
  33   1.0000      -0.397521       -10.8171
  34   1.0000      -0.360302        -9.8043
  35   0.0000       0.020335         0.5534
  36   0.0000       0.032182         0.8757
  37   0.0000       0.032211         0.8765
  38   0.0000       0.038853         1.0572
  39   0.0000       0.047335         1.2880

                 SPIN DOWN ORBITALS
  NO   OCC          E(Eh)            E(eV)
   0   1.0000    -104.839111     -2852.8172
   1   1.0000     -20.619854      -561.0948
   2   1.0000     -20.536422      -558.8245
   3   1.0000     -15.607470      -424.7008
   4   1.0000     -11.420348      -310.7635
   5   1.0000     -11.274914      -306.8060
   6   1.0000     -11.268476      -306.6308
   7   1.0000     -10.566640      -287.5329
   8   1.0000      -8.033242      -218.5956
   9   1.0000      -8.032953      -218.5878
  10   1.0000      -8.031000      -218.5346
  11   1.0000      -7.689169      -209.2329
  12   1.0000      -1.478401       -40.2293
  13   1.0000      -1.376549       -37.4578
  14   1.0000      -1.275827       -34.7170
  15   1.0000      -1.112566       -30.2745
  16   1.0000      -0.992171       -26.9984
  17   1.0000      -0.975046       -26.5324
  18   1.0000      -0.834807       -22.7163
  19   1.0000      -0.742209       -20.1965
  20   1.0000      -0.706682       -19.2298
  21   1.0000      -0.694255       -18.8916
  22   1.0000      -0.629507       -17.1297
  23   1.0000      -0.629116       -17.1191
  24   1.0000      -0.613542       -16.6953
  25   1.0000      -0.589544       -16.0423
  26   1.0000      -0.577268       -15.7083
  27   1.0000      -0.573754       -15.6126
  28   1.0000      -0.549004       -14.9392
  29   1.0000      -0.528783       -14.3889
  30   1.0000      -0.483444       -13.1552
  31   1.0000      -0.479060       -13.0359
  32   1.0000      -0.461464       -12.5571
  33   1.0000      -0.397849       -10.8260
  34   0.0000       0.019862         0.5405
  35   0.0000       0.031815         0.8657
  36   0.0000       0.032323         0.8796
  37   0.0000       0.034963         0.9514
  38   0.0000       0.048064         1.3079

MULLIKEN ATOMIC CHARGES AND SPIN POPULATIONS
--------------------------------------------
   0 Cl:   -0.219015    0.038854
   1 B :    0.402065    1.043117
   2 O :   -0.557047   -0.088205
   3 C :    1.401128   -0.005723
   4 O :   -0.761010    0.012949
   5 N :   -0.422454    0.001134
   6 C :   -0.838876   -0.001837
   7 H :    0.304129   -0.000267
   8 H :    0.304124   -0.000267
   9 H :    0.335644    0.002079
  10 C :   -0.794885   -0.000729
  11 H :    0.281410   -0.000162
  12 H :    0.281417   -0.000162
  13 H :    0.283370   -0.000780
Sum of atomic charges         :    0.0000000

LOEWDIN ATOMIC CHARGES AND SPIN POPULATIONS
-------------------------------------------
   0 Cl:    1.139320    0.168005
   1 B :   -1.429218    0.580875
   2 O :    0.723972    0.151036
   3 C :   -1.264771    0.058638
   4 O :    0.714418    0.029320
   5 N :    0.376255    0.002635
   6 C :    0.775919    0.003617
   7 H :   -0.275203    0.000466
   8 H :   -0.275206    0.000466
   9 H :   -0.351242    0.003312
  10 C :    0.765126    0.000788
  11 H :   -0.273989    0.000155
  12 H :   -0.273987    0.000155
  13 H :   -0.351396    0.000533

  Mayer bond orders larger than 0.100000
B(  0-Cl,  1-B ) :   1.1234 B(  1-B ,  2-O ) :   0.5761 B(  2-O ,  3-C ) :   0.9211
B(  3-C ,  4-O ) :   1.3348 B(  3-C ,  5-N ) :   1.3051 B(  4-O ,  5-N ) :   0.2468
B(  5-N ,  6-C ) :   0.7894 B(  5-N , 10-C ) :   0.8324 B(  6-C ,  7-H ) :   0.9481
B(  6-C ,  8-H ) :   0.9481 B(  6-C ,  9-H ) :   0.8809 B( 10-C , 11-H ) :   0.9654
B( 10-C , 12-H ) :   0.9654 B( 10-C , 13-H ) :   0.9323

MP2 TOTAL ENERGY:     -807.224452690 Eh
FINAL SINGLE POINT ENERGY      -807.224452689982

DIPOLE MOMENT
-------------
                                X             Y             Z
Electronic contribution:     19.08944      -3.98945      -0.00002
Nuclear contribution   :    -20.16442       5.23059       0.00002
                        -----------------------------------------
Total Dipole Moment    :     -1.07497       1.24114      -0.00000
                        -----------------------------------------
Magnitude (a.u.)       :      1.64195
Magnitude (Debye)      :      4.17350

Rotational constants in cm-1:     0.142903     0.026301     0.022400
Rotational constants in MHz :  4284.109508   788.498605   671.527878

                             ****ORCA TERMINATED NORMALLY****
TOTAL RUN TIME: 0 days 4 hours 35 minutes 27 seconds 693 msec
