                         Program Version 5.0.4 -  RELEASE  -
|  1> ! ri-mp2 aug-cc-pvdz aug-cc-pvdz/c tightscf
|  2> %pal nprocs 16 end
|  3> %maxcore 3800
|  4> %base "DZ_B-F_77_A"
|  5> %scf
|  6> STABPerform true
|  7> STABRestartUHFifUnstable true
|  8> end
|  9>
| 10> *xyz 0 2
| 11> C        -0.841631    1.393995   -0.002483
| 12> C        -2.135900    0.830064   -0.576105
| 13> C        -2.516999   -0.482666    0.097199
| 14> C        -1.378719   -1.492347    0.017138
| 15> C        -0.086729   -0.921552    0.588996
| 16> C         1.591245    0.968190    0.522340
| 17> C         0.308346    0.392245   -0.083448
| 18> B         2.898916    0.160856    0.265807
| 19> F         3.017330   -0.740375   -0.680816
| 20> H        -0.997712    1.665304    1.047859
| 21> H        -0.566572    2.314598   -0.522979
| 22> H        -2.008266    0.659381   -1.650024
| 23> H        -2.941726    1.559177   -0.471122
| 24> H        -3.420660   -0.893393   -0.357202
| 25> H        -2.754907   -0.291541    1.148863
| 26> H        -1.215589   -1.769399   -1.029306
| 27> H        -1.647369   -2.410433    0.543137
| 28> H         0.719757   -1.651454    0.489114
| 29> H        -0.214888   -0.740052    1.662365
| 30> H         1.468866    1.144932    1.594763
| 31> H         1.797175    1.963738    0.103763
| 32> H         0.493663    0.180670   -1.142745
| 33> *
| 34>
| 35> $new_job
| 36> ! ri-mp2 aug-cc-pvtz aug-cc-pvtz/c tightscf
| 37> %pal nprocs 16 end
| 38> %maxcore 3800
| 39> %base "TZ_B-F_77_A"
| 40>
| 41> *xyz 0 2
| 42> C        -0.841631    1.393995   -0.002483
| 43> C        -2.135900    0.830064   -0.576105
| 44> C        -2.516999   -0.482666    0.097199
| 45> C        -1.378719   -1.492347    0.017138
| 46> C        -0.086729   -0.921552    0.588996
| 47> C         1.591245    0.968190    0.522340
| 48> C         0.308346    0.392245   -0.083448
| 49> B         2.898916    0.160856    0.265807
| 50> F         3.017330   -0.740375   -0.680816
| 51> H        -0.997712    1.665304    1.047859
| 52> H        -0.566572    2.314598   -0.522979
| 53> H        -2.008266    0.659381   -1.650024
| 54> H        -2.941726    1.559177   -0.471122
| 55> H        -3.420660   -0.893393   -0.357202
| 56> H        -2.754907   -0.291541    1.148863
| 57> H        -1.215589   -1.769399   -1.029306
| 58> H        -1.647369   -2.410433    0.543137
| 59> H         0.719757   -1.651454    0.489114
| 60> H        -0.214888   -0.740052    1.662365
| 61> H         1.468866    1.144932    1.594763
| 62> H         1.797175    1.963738    0.103763
| 63> H         0.493663    0.180670   -1.142745
| 64> *
| 65>
| 66> $new_job
| 67> ! ri-mp2 aug-cc-pvqz aug-cc-pvqz/c tightscf
| 68> %pal nprocs 16 end
| 69> %maxcore 3800
| 70> %base "QZ_B-F_77_A"
| 71>
| 72> *xyz 0 2
| 73> C        -0.841631    1.393995   -0.002483
| 74> C        -2.135900    0.830064   -0.576105
| 75> C        -2.516999   -0.482666    0.097199
| 76> C        -1.378719   -1.492347    0.017138
| 77> C        -0.086729   -0.921552    0.588996
| 78> C         1.591245    0.968190    0.522340
| 79> C         0.308346    0.392245   -0.083448
| 80> B         2.898916    0.160856    0.265807
| 81> F         3.017330   -0.740375   -0.680816
| 82> H        -0.997712    1.665304    1.047859
| 83> H        -0.566572    2.314598   -0.522979
| 84> H        -2.008266    0.659381   -1.650024
| 85> H        -2.941726    1.559177   -0.471122
| 86> H        -3.420660   -0.893393   -0.357202
| 87> H        -2.754907   -0.291541    1.148863
| 88> H        -1.215589   -1.769399   -1.029306
| 89> H        -1.647369   -2.410433    0.543137
| 90> H         0.719757   -1.651454    0.489114
| 91> H        -0.214888   -0.740052    1.662365
| 92> H         1.468866    1.144932    1.594763
| 93> H         1.797175    1.963738    0.103763
| 94> H         0.493663    0.180670   -1.142745
| 95> *
| 96>
| 97>
| 98>
| 99>
|100>                          ****END OF INPUT****
 Total Charge           Charge          ....    0
 Multiplicity           Mult            ....    2
 Number of Electrons    NEL             ....   69
MP2 TOTAL ENERGY:     -398.113499578 Eh
FINAL SINGLE POINT ENERGY      -398.113499577599
MP2 TOTAL ENERGY:     -398.476895982 Eh
FINAL SINGLE POINT ENERGY      -398.476895982223

CARTESIAN COORDINATES (ANGSTROEM)
---------------------------------
  C     -0.841631    1.393995   -0.002483
  C     -2.135900    0.830064   -0.576105
  C     -2.516999   -0.482666    0.097199
  C     -1.378719   -1.492347    0.017138
  C     -0.086729   -0.921552    0.588996
  C      1.591245    0.968190    0.522340
  C      0.308346    0.392245   -0.083448
  B      2.898916    0.160856    0.265807
  F      3.017330   -0.740375   -0.680816
  H     -0.997712    1.665304    1.047859
  H     -0.566572    2.314598   -0.522979
  H     -2.008266    0.659381   -1.650024
  H     -2.941726    1.559177   -0.471122
  H     -3.420660   -0.893393   -0.357202
  H     -2.754907   -0.291541    1.148863
  H     -1.215589   -1.769399   -1.029306
  H     -1.647369   -2.410433    0.543137
  H      0.719757   -1.651454    0.489114
  H     -0.214888   -0.740052    1.662365
  H      1.468866    1.144932    1.594763
  H      1.797175    1.963738    0.103763
  H      0.493663    0.180670   -1.142745

 Multiplicity           Mult            ....    2
 Number of Electrons    NEL             ....   69
 Basis Dimension        Dim             .... 1318

ORBITAL ENERGIES
----------------
                 SPIN UP ORBITALS
  NO   OCC          E(Eh)            E(eV)
   0   1.0000     -26.308316      -715.8857
   1   1.0000     -11.226395      -305.4857
   2   1.0000     -11.215005      -305.1758
   3   1.0000     -11.214698      -305.1675
   4   1.0000     -11.213908      -305.1459
   5   1.0000     -11.213645      -305.1388
   6   1.0000     -11.212924      -305.1192
   7   1.0000     -11.211435      -305.0787
   8   1.0000      -7.668737      -208.6769
   9   1.0000      -1.626392       -44.2564
  10   1.0000      -1.128902       -30.7190
  11   1.0000      -1.041824       -28.3495
  12   1.0000      -1.006706       -27.3939
  13   1.0000      -0.935359       -25.4524
  14   1.0000      -0.835744       -22.7417
  15   1.0000      -0.812256       -22.1026
  16   1.0000      -0.783571       -21.3220
  17   1.0000      -0.757084       -20.6013
  18   1.0000      -0.709793       -19.3144
  19   1.0000      -0.681167       -18.5355
  20   1.0000      -0.647706       -17.6250
  21   1.0000      -0.617891       -16.8137
  22   1.0000      -0.607390       -16.5279
  23   1.0000      -0.603949       -16.4343
  24   1.0000      -0.571909       -15.5624
  25   1.0000      -0.540501       -14.7078
  26   1.0000      -0.528494       -14.3810
  27   1.0000      -0.527393       -14.3511
  28   1.0000      -0.495599       -13.4859
  29   1.0000      -0.483831       -13.1657
  30   1.0000      -0.474261       -12.9053
  31   1.0000      -0.454084       -12.3563
  32   1.0000      -0.439967       -11.9721
  33   1.0000      -0.427426       -11.6309
  34   1.0000      -0.334150        -9.0927
  35   0.0000       0.023707         0.6451
  36   0.0000       0.028336         0.7711
  37   0.0000       0.029225         0.7953
  38   0.0000       0.030485         0.8295
  39   0.0000       0.041379         1.1260

                 SPIN DOWN ORBITALS
  NO   OCC          E(Eh)            E(eV)
   0   1.0000     -26.304954      -715.7942
   1   1.0000     -11.225490      -305.4611
   2   1.0000     -11.215064      -305.1774
   3   1.0000     -11.214552      -305.1635
   4   1.0000     -11.213858      -305.1446
   5   1.0000     -11.213599      -305.1375
   6   1.0000     -11.212917      -305.1190
   7   1.0000     -11.208479      -304.9982
   8   1.0000      -7.650027      -208.1678
   9   1.0000      -1.617031       -44.0017
  10   1.0000      -1.127558       -30.6824
  11   1.0000      -1.038130       -28.2490
  12   1.0000      -1.006470       -27.3874
  13   1.0000      -0.928013       -25.2525
  14   1.0000      -0.835362       -22.7314
  15   1.0000      -0.807491       -21.9729
  16   1.0000      -0.772987       -21.0341
  17   1.0000      -0.756099       -20.5745
  18   1.0000      -0.681938       -18.5565
  19   1.0000      -0.680436       -18.5156
  20   1.0000      -0.646166       -17.5831
  21   1.0000      -0.613624       -16.6976
  22   1.0000      -0.605562       -16.4782
  23   1.0000      -0.601439       -16.3660
  24   1.0000      -0.562684       -15.3114
  25   1.0000      -0.535225       -14.5642
  26   1.0000      -0.528253       -14.3745
  27   1.0000      -0.518240       -14.1020
  28   1.0000      -0.488228       -13.2854
  29   1.0000      -0.482988       -13.1428
  30   1.0000      -0.472154       -12.8480
  31   1.0000      -0.453470       -12.3395
  32   1.0000      -0.431743       -11.7483
  33   1.0000      -0.425806       -11.5868
  34   0.0000       0.022531         0.6131
  35   0.0000       0.027221         0.7407
  36   0.0000       0.028738         0.7820
  37   0.0000       0.030252         0.8232
  38   0.0000       0.041534         1.1302

MULLIKEN ATOMIC CHARGES AND SPIN POPULATIONS
--------------------------------------------
   0 C :   -0.444983    0.000418
   1 C :   -0.508719    0.002078
   2 C :   -0.445916   -0.000492
   3 C :   -0.489555    0.004810
   4 C :   -0.405163   -0.004367
   5 C :   -0.560188   -0.052298
   6 C :    0.329149    0.046677
   7 B :    0.704673    1.067692
   8 F :   -0.751322   -0.027926
   9 H :    0.145365   -0.001517
  10 H :    0.248867   -0.000498
  11 H :    0.133030   -0.000373
  12 H :    0.226891    0.001102
  13 H :    0.250448    0.000102
  14 H :    0.102369    0.000045
  15 H :    0.128916    0.000239
  16 H :    0.221243   -0.000271
  17 H :    0.301858   -0.007110
  18 H :    0.181343   -0.000055
  19 H :    0.209973   -0.002167
  20 H :    0.207060   -0.027912
  21 H :    0.214661    0.001824
Sum of atomic charges         :   -0.0000000

LOEWDIN ATOMIC CHARGES AND SPIN POPULATIONS
-------------------------------------------
   0 C :    0.529193    0.004907
   1 C :    0.542736    0.001509
   2 C :    0.535571    0.000202
   3 C :    0.546727    0.000321
   4 C :    0.521233    0.005231
   5 C :    0.576516    0.171774
   6 C :    0.078593    0.026414
   7 B :   -0.602318    0.575936
   8 F :    0.766662    0.151487
   9 H :   -0.257941    0.000378
  10 H :   -0.255145    0.000589
  11 H :   -0.260363    0.000227
  12 H :   -0.257093    0.000466
  13 H :   -0.258366    0.000042
  14 H :   -0.262019   -0.000003
  15 H :   -0.258388    0.000063
  16 H :   -0.255846    0.000022
  17 H :   -0.266529    0.001965
  18 H :   -0.255914    0.000380
  19 H :   -0.320503    0.028865
  20 H :   -0.317056    0.025890
  21 H :   -0.269753    0.003334

  Mayer bond orders larger than 0.100000
B(  0-C ,  1-C ) :   0.8860 B(  0-C ,  6-C ) :   0.5652 B(  0-C ,  9-H ) :   1.0281
B(  0-C , 10-H ) :   0.9684 B(  1-C ,  2-C ) :   0.8759 B(  1-C , 11-H ) :   1.0426
B(  1-C , 12-H ) :   1.0052 B(  2-C ,  3-C ) :   0.8685 B(  2-C , 13-H ) :   0.9534
B(  2-C , 14-H ) :   1.0640 B(  3-C ,  4-C ) :   0.8307 B(  3-C , 15-H ) :   1.0422
B(  3-C , 16-H ) :   1.0110 B(  4-C ,  6-C ) :   0.7044 B(  4-C , 17-H ) :   0.9513
B(  4-C , 18-H ) :   0.9621 B(  5-C ,  6-C ) :   0.6910 B(  5-C ,  7-B ) :   0.8750
B(  5-C ,  8-F ) :  -0.1097 B(  5-C , 19-H ) :   0.9886 B(  5-C , 20-H ) :   1.0369
B(  6-C , 21-H ) :   0.9617 B(  7-B ,  8-F ) :   0.3679

MP2 TOTAL ENERGY:     -398.588535729 Eh
FINAL SINGLE POINT ENERGY      -398.588535728663

DIPOLE MOMENT
-------------
                                X             Y             Z
Electronic contribution:     16.41352      -2.07874      -1.78354
Nuclear contribution   :    -16.94376       2.38083       1.91302
                        -----------------------------------------
Total Dipole Moment    :     -0.53025       0.30209       0.12948
                        -----------------------------------------
Magnitude (a.u.)       :      0.62384
Magnitude (Debye)      :      1.58569

Rotational constants in cm-1:     0.105540     0.031513     0.027002
Rotational constants in MHz :  3164.008219   944.750700   809.509365

                             ****ORCA TERMINATED NORMALLY****
TOTAL RUN TIME: 0 days 9 hours 25 minutes 52 seconds 309 msec
