                         Program Version 5.0.4 -  RELEASE  -
|  1> ! ri-mp2 aug-cc-pvdz aug-cc-pvdz/c tightscf
|  2> %pal nprocs 16 end
|  3> %maxcore 3800
|  4> %base "DZ_B-B_58_AB"
|  5> %scf
|  6> STABPerform true
|  7> STABRestartUHFifUnstable true
|  8> end
|  9>
| 10> *xyz 0 1
| 11> B         0.746754    0.923054   -0.335522
| 12> B        -0.746754    0.923054    0.335522
| 13> P        -2.024255   -0.395944    0.004541
| 14> H        -1.908317   -0.679407   -1.367816
| 15> H        -3.244782    0.302067   -0.002981
| 16> P         2.024255   -0.395944   -0.004540
| 17> H         1.908321   -0.679403    1.367818
| 18> H         3.244783    0.302066    0.002975
| 19> H        -1.028164    1.701227    1.195593
| 20> H         1.028163    1.701225   -1.195596
| 21> *
| 22>
| 23> $new_job
| 24> ! ri-mp2 aug-cc-pvtz aug-cc-pvtz/c tightscf
| 25> %pal nprocs 16 end
| 26> %maxcore 3800
| 27> %base "TZ_B-B_58_AB"
| 28>
| 29> *xyz 0 1
| 30> B         0.746754    0.923054   -0.335522
| 31> B        -0.746754    0.923054    0.335522
| 32> P        -2.024255   -0.395944    0.004541
| 33> H        -1.908317   -0.679407   -1.367816
| 34> H        -3.244782    0.302067   -0.002981
| 35> P         2.024255   -0.395944   -0.004540
| 36> H         1.908321   -0.679403    1.367818
| 37> H         3.244783    0.302066    0.002975
| 38> H        -1.028164    1.701227    1.195593
| 39> H         1.028163    1.701225   -1.195596
| 40> *
| 41>
| 42> $new_job
| 43> ! ri-mp2 aug-cc-pvqz aug-cc-pvqz/c tightscf
| 44> %pal nprocs 16 end
| 45> %maxcore 3800
| 46> %base "QZ_B-B_58_AB"
| 47>
| 48> *xyz 0 1
| 49> B         0.746754    0.923054   -0.335522
| 50> B        -0.746754    0.923054    0.335522
| 51> P        -2.024255   -0.395944    0.004541
| 52> H        -1.908317   -0.679407   -1.367816
| 53> H        -3.244782    0.302067   -0.002981
| 54> P         2.024255   -0.395944   -0.004540
| 55> H         1.908321   -0.679403    1.367818
| 56> H         3.244783    0.302066    0.002975
| 57> H        -1.028164    1.701227    1.195593
| 58> H         1.028163    1.701225   -1.195596
| 59> *
| 60>
| 61>
| 62>
| 63>
| 64>                          ****END OF INPUT****
 Total Charge           Charge          ....    0
 Multiplicity           Mult            ....    1
 Number of Electrons    NEL             ....   46
MP2 TOTAL ENERGY:     -734.736284499 Eh
FINAL SINGLE POINT ENERGY      -734.736284498905
MP2 TOTAL ENERGY:     -734.868304590 Eh
FINAL SINGLE POINT ENERGY      -734.868304590170

CARTESIAN COORDINATES (ANGSTROEM)
---------------------------------
  B      0.746754    0.923054   -0.335522
  B     -0.746754    0.923054    0.335522
  P     -2.024255   -0.395944    0.004541
  H     -1.908317   -0.679407   -1.367816
  H     -3.244782    0.302067   -0.002981
  P      2.024255   -0.395944   -0.004540
  H      1.908321   -0.679403    1.367818
  H      3.244783    0.302066    0.002975
  H     -1.028164    1.701227    1.195593
  H      1.028163    1.701225   -1.195596

 Multiplicity           Mult            ....    1
 Number of Electrons    NEL             ....   46
 Basis Dimension        Dim             ....  604

ORBITAL ENERGIES
----------------

  NO   OCC          E(Eh)            E(eV)
   0   2.0000     -79.931915     -2175.0580
   1   2.0000     -79.931915     -2175.0580
   2   2.0000      -7.600268      -206.8138
   3   2.0000      -7.599283      -206.7870
   4   2.0000      -7.478087      -203.4891
   5   2.0000      -7.478087      -203.4891
   6   2.0000      -5.372412      -146.1908
   7   2.0000      -5.372411      -146.1907
   8   2.0000      -5.372145      -146.1835
   9   2.0000      -5.372144      -146.1835
  10   2.0000      -5.371932      -146.1777
  11   2.0000      -5.371932      -146.1777
  12   2.0000      -0.877825       -23.8868
  13   2.0000      -0.856325       -23.3018
  14   2.0000      -0.704342       -19.1661
  15   2.0000      -0.614583       -16.7237
  16   2.0000      -0.556094       -15.1321
  17   2.0000      -0.532182       -14.4814
  18   2.0000      -0.489202       -13.3119
  19   2.0000      -0.464890       -12.6503
  20   2.0000      -0.438805       -11.9405
  21   2.0000      -0.372764       -10.1434
  22   2.0000      -0.350740        -9.5441
  23   0.0000       0.021962         0.5976
  24   0.0000       0.030064         0.8181
  25   0.0000       0.032143         0.8747
  26   0.0000       0.034563         0.9405
  27   0.0000       0.048815         1.3283

MULLIKEN ATOMIC CHARGES
-----------------------
   0 B :    0.177926
   1 B :    0.177925
   2 P :    0.135214
   3 H :   -0.048651
   4 H :   -0.077730
   5 P :    0.135214
   6 H :   -0.048651
   7 H :   -0.077731
   8 H :   -0.186758
   9 H :   -0.186758
Sum of atomic charges:    0.0000000

LOEWDIN ATOMIC CHARGES
----------------------
   0 B :   -0.368472
   1 B :   -0.368472
   2 P :    1.582789
   3 H :   -0.481310
   4 H :   -0.489811
   5 P :    1.582789
   6 H :   -0.481310
   7 H :   -0.489810
   8 H :   -0.243197
   9 H :   -0.243196

  Mayer bond orders larger than 0.100000
B(  0-B ,  1-B ) :   1.0091 B(  0-B ,  5-P ) :   1.1099 B(  0-B ,  9-H ) :   0.9055
B(  1-B ,  2-P ) :   1.1099 B(  1-B ,  8-H ) :   0.9055 B(  2-P ,  3-H ) :   0.9114
B(  2-P ,  4-H ) :   0.9294 B(  5-P ,  6-H ) :   0.9114 B(  5-P ,  7-H ) :   0.9294

MP2 TOTAL ENERGY:     -734.910434091 Eh
FINAL SINGLE POINT ENERGY      -734.910434091237

DIPOLE MOMENT
-------------
                                X             Y             Z
Electronic contribution:     -0.00000      -1.40448       0.00001
Nuclear contribution   :      0.00000       1.84547      -0.00001
                        -----------------------------------------
Total Dipole Moment    :      0.00000       0.44098       0.00000
                        -----------------------------------------
Magnitude (a.u.)       :      0.44098
Magnitude (Debye)      :      1.12089

Rotational constants in cm-1:     0.382305     0.055148     0.050827
Rotational constants in MHz : 11461.202917  1653.284885  1523.742506

                             ****ORCA TERMINATED NORMALLY****
TOTAL RUN TIME: 0 days 0 hours 14 minutes 15 seconds 789 msec
