                         Program Version 5.0.4 -  RELEASE  -
|  1> ! ri-mp2 aug-cc-pvdz aug-cc-pvdz/c tightscf
|  2> %pal nprocs 16 end
|  3> %maxcore 3800
|  4> %base "DZ_P-Cl_11_AB"
|  5> %scf
|  6> STABPerform true
|  7> STABRestartUHFifUnstable true
|  8> end
|  9>
| 10> *xyz 0 1
| 11> Cl        -0.103756    2.324579    0.081033
| 12> P        -0.007648    0.591317   -0.970838
| 13> S         1.692033   -0.291709    0.164906
| 14> S        -1.671794   -0.548064   -0.099534
| 15> O         2.786788    0.583802   -0.144553
| 16> O         1.346212   -0.547249    1.536901
| 17> O        -2.855894   -0.014008   -0.708525
| 18> O        -1.278532   -1.912878   -0.348970
| 19> C         1.935749   -1.839269   -0.652021
| 20> H         2.792892   -2.293981   -0.156638
| 21> H         2.158330   -1.652399   -1.699542
| 22> H         1.042595   -2.446189   -0.528377
| 23> C        -1.769450   -0.279123    1.642933
| 24> H        -2.027484    0.759629    1.825126
| 25> H        -0.823358   -0.550033    2.101405
| 26> H        -2.574601   -0.935249    1.972776
| 27> *
| 28>
| 29> $new_job
| 30> ! ri-mp2 aug-cc-pvtz aug-cc-pvtz/c tightscf
| 31> %pal nprocs 16 end
| 32> %maxcore 3800
| 33> %base "TZ_P-Cl_11_AB"
| 34>
| 35> *xyz 0 1
| 36> Cl        -0.103756    2.324579    0.081033
| 37> P        -0.007648    0.591317   -0.970838
| 38> S         1.692033   -0.291709    0.164906
| 39> S        -1.671794   -0.548064   -0.099534
| 40> O         2.786788    0.583802   -0.144553
| 41> O         1.346212   -0.547249    1.536901
| 42> O        -2.855894   -0.014008   -0.708525
| 43> O        -1.278532   -1.912878   -0.348970
| 44> C         1.935749   -1.839269   -0.652021
| 45> H         2.792892   -2.293981   -0.156638
| 46> H         2.158330   -1.652399   -1.699542
| 47> H         1.042595   -2.446189   -0.528377
| 48> C        -1.769450   -0.279123    1.642933
| 49> H        -2.027484    0.759629    1.825126
| 50> H        -0.823358   -0.550033    2.101405
| 51> H        -2.574601   -0.935249    1.972776
| 52> *
| 53>
| 54> $new_job
| 55> ! ri-mp2 aug-cc-pvqz aug-cc-pvqz/c tightscf
| 56> %pal nprocs 16 end
| 57> %maxcore 3800
| 58> %base "QZ_P-Cl_11_AB"
| 59>
| 60> *xyz 0 1
| 61> Cl        -0.103756    2.324579    0.081033
| 62> P        -0.007648    0.591317   -0.970838
| 63> S         1.692033   -0.291709    0.164906
| 64> S        -1.671794   -0.548064   -0.099534
| 65> O         2.786788    0.583802   -0.144553
| 66> O         1.346212   -0.547249    1.536901
| 67> O        -2.855894   -0.014008   -0.708525
| 68> O        -1.278532   -1.912878   -0.348970
| 69> C         1.935749   -1.839269   -0.652021
| 70> H         2.792892   -2.293981   -0.156638
| 71> H         2.158330   -1.652399   -1.699542
| 72> H         1.042595   -2.446189   -0.528377
| 73> C        -1.769450   -0.279123    1.642933
| 74> H        -2.027484    0.759629    1.825126
| 75> H        -0.823358   -0.550033    2.101405
| 76> H        -2.574601   -0.935249    1.972776
| 77> *
| 78>
| 79>
| 80>
| 81>
| 82>                          ****END OF INPUT****
 Total Charge           Charge          ....    0
 Multiplicity           Mult            ....    1
 Number of Electrons    NEL             ....  114
MP2 TOTAL ENERGY:    -1975.558857026 Eh
FINAL SINGLE POINT ENERGY     -1975.558857026214
MP2 TOTAL ENERGY:    -1976.175483874 Eh
FINAL SINGLE POINT ENERGY     -1976.175483873903

CARTESIAN COORDINATES (ANGSTROEM)
---------------------------------
  Cl    -0.103756    2.324579    0.081033
  P     -0.007648    0.591317   -0.970838
  S      1.692033   -0.291709    0.164906
  S     -1.671794   -0.548064   -0.099534
  O      2.786788    0.583802   -0.144553
  O      1.346212   -0.547249    1.536901
  O     -2.855894   -0.014008   -0.708525
  O     -1.278532   -1.912878   -0.348970
  C      1.935749   -1.839269   -0.652021
  H      2.792892   -2.293981   -0.156638
  H      2.158330   -1.652399   -1.699542
  H      1.042595   -2.446189   -0.528377
  C     -1.769450   -0.279123    1.642933
  H     -2.027484    0.759629    1.825126
  H     -0.823358   -0.550033    2.101405
  H     -2.574601   -0.935249    1.972776

 Multiplicity           Mult            ....    1
 Number of Electrons    NEL             ....  114
 Basis Dimension        Dim             .... 1092

ORBITAL ENERGIES
----------------

  NO   OCC          E(Eh)            E(eV)
   0   2.0000    -104.885821     -2854.0883
   1   2.0000     -92.195067     -2508.7553
   2   2.0000     -92.193871     -2508.7228
   3   2.0000     -80.071772     -2178.8637
   4   2.0000     -20.573740      -559.8399
   5   2.0000     -20.572407      -559.8036
   6   2.0000     -20.569845      -559.7339
   7   2.0000     -20.568796      -559.7054
   8   2.0000     -11.288258      -307.1691
   9   2.0000     -11.283463      -307.0386
  10   2.0000     -10.611767      -288.7609
  11   2.0000      -9.166886      -249.4436
  12   2.0000      -9.165784      -249.4137
  13   2.0000      -8.078625      -219.8306
  14   2.0000      -8.076978      -219.7858
  15   2.0000      -8.076866      -219.7827
  16   2.0000      -7.607905      -207.0216
  17   2.0000      -6.852131      -186.4560
  18   2.0000      -6.851130      -186.4287
  19   2.0000      -6.851002      -186.4252
  20   2.0000      -6.850981      -186.4247
  21   2.0000      -6.850068      -186.3998
  22   2.0000      -6.849889      -186.3950
  23   2.0000      -5.500180      -149.6675
  24   2.0000      -5.499650      -149.6531
  25   2.0000      -5.498701      -149.6273
  26   2.0000      -1.485087       -40.4113
  27   2.0000      -1.481408       -40.3112
  28   2.0000      -1.372283       -37.3417
  29   2.0000      -1.370664       -37.2977
  30   2.0000      -1.168443       -31.7949
  31   2.0000      -1.070796       -29.1378
  32   2.0000      -1.064671       -28.9712
  33   2.0000      -0.938002       -25.5243
  34   2.0000      -0.859361       -23.3844
  35   2.0000      -0.796815       -21.6824
  36   2.0000      -0.721630       -19.6365
  37   2.0000      -0.695912       -18.9367
  38   2.0000      -0.693252       -18.8644
  39   2.0000      -0.683215       -18.5912
  40   2.0000      -0.676588       -18.4109
  41   2.0000      -0.673861       -18.3367
  42   2.0000      -0.627275       -17.0690
  43   2.0000      -0.623013       -16.9531
  44   2.0000      -0.616559       -16.7774
  45   2.0000      -0.601758       -16.3747
  46   2.0000      -0.549408       -14.9501
  47   2.0000      -0.546191       -14.8626
  48   2.0000      -0.533991       -14.5306
  49   2.0000      -0.533523       -14.5179
  50   2.0000      -0.522873       -14.2281
  51   2.0000      -0.511731       -13.9249
  52   2.0000      -0.506357       -13.7787
  53   2.0000      -0.502823       -13.6825
  54   2.0000      -0.495114       -13.4727
  55   2.0000      -0.427357       -11.6290
  56   2.0000      -0.406265       -11.0550
  57   0.0000       0.023207         0.6315
  58   0.0000       0.026946         0.7332
  59   0.0000       0.035343         0.9617
  60   0.0000       0.038415         1.0453
  61   0.0000       0.046808         1.2737

MULLIKEN ATOMIC CHARGES
-----------------------
   0 Cl:   -0.489396
   1 P :    0.836136
   2 S :    2.403417
   3 S :    2.353995
   4 O :   -1.328004
   5 O :   -1.261546
   6 O :   -1.322888
   7 O :   -1.256842
   8 C :   -1.111436
   9 H :    0.375374
  10 H :    0.333265
  11 H :    0.425990
  12 C :   -1.111059
  13 H :    0.349593
  14 H :    0.446773
  15 H :    0.356627
Sum of atomic charges:   -0.0000000

LOEWDIN ATOMIC CHARGES
----------------------
   0 Cl:    0.770447
   1 P :   -0.111754
   2 S :   -0.475483
   3 S :   -0.481003
   4 O :    0.234478
   5 O :    0.288417
   6 O :    0.237407
   7 O :    0.268309
   8 C :    0.745556
   9 H :   -0.328882
  10 H :   -0.336457
  11 H :   -0.407404
  12 C :    0.734602
  13 H :   -0.360744
  14 H :   -0.446423
  15 H :   -0.331064

  Mayer bond orders larger than 0.100000
B(  0-Cl,  1-P ) :   0.8635 B(  1-P ,  2-S ) :   0.8148 B(  1-P ,  3-S ) :   0.8201
B(  2-S ,  4-O ) :   0.9380 B(  2-S ,  5-O ) :   0.9172 B(  2-S ,  8-C ) :   0.9167
B(  3-S ,  6-O ) :   0.9126 B(  3-S ,  7-O ) :   0.9976 B(  3-S , 12-C ) :   0.9212
B(  8-C ,  9-H ) :   0.8178 B(  8-C , 10-H ) :   0.8903 B(  8-C , 11-H ) :   0.8347
B( 12-C , 13-H ) :   0.8898 B( 12-C , 14-H ) :   0.8112 B( 12-C , 15-H ) :   0.8223

MP2 TOTAL ENERGY:    -1976.377100991 Eh
FINAL SINGLE POINT ENERGY     -1976.377100991078

DIPOLE MOMENT
-------------
                                X             Y             Z
Electronic contribution:     -0.55349      10.15431      -3.98389
Nuclear contribution   :      0.68959     -10.49558       4.12418
                        -----------------------------------------
Total Dipole Moment    :      0.13610      -0.34128       0.14029
                        -----------------------------------------
Magnitude (a.u.)       :      0.39329
Magnitude (Debye)      :      0.99966

Rotational constants in cm-1:     0.035818     0.023063     0.017926
Rotational constants in MHz :  1073.810659   691.409774   537.402380

                             ****ORCA TERMINATED NORMALLY****
TOTAL RUN TIME: 0 days 2 hours 8 minutes 24 seconds 917 msec
