                         Program Version 5.0.4 -  RELEASE  -
|  1> ! ri-mp2 aug-cc-pvdz aug-cc-pvdz/c tightscf
|  2> %pal nprocs 16 end
|  3> %maxcore 3800
|  4> %base "DZ_B-P_42_AB"
|  5>
|  6> *xyz 0 1
|  7> P         0.094598   -1.026946   -0.453654
|  8> N         1.458998    0.092655    0.045672
|  9> B        -1.415335    0.113231    0.040198
| 10> O         1.364821    1.268468   -0.288379
| 11> O         2.419046   -0.378963    0.597944
| 12> O        -2.556050   -0.565922    0.294240
| 13> O        -1.347619    1.452064    0.049475
| 14> H        -0.453058    1.783096   -0.141523
| 15> H        -3.311417    0.003444    0.481811
| 16> H         0.167620   -1.802277    0.717576
| 17> *
| 18>
| 19> $new_job
| 20> ! ri-mp2 aug-cc-pvtz aug-cc-pvtz/c tightscf
| 21> %pal nprocs 16 end
| 22> %maxcore 3800
| 23> %base "TZ_B-P_42_AB"
| 24>
| 25> *xyz 0 1
| 26> P         0.094598   -1.026946   -0.453654
| 27> N         1.458998    0.092655    0.045672
| 28> B        -1.415335    0.113231    0.040198
| 29> O         1.364821    1.268468   -0.288379
| 30> O         2.419046   -0.378963    0.597944
| 31> O        -2.556050   -0.565922    0.294240
| 32> O        -1.347619    1.452064    0.049475
| 33> H        -0.453058    1.783096   -0.141523
| 34> H        -3.311417    0.003444    0.481811
| 35> H         0.167620   -1.802277    0.717576
| 36> *
| 37>
| 38> $new_job
| 39> ! ri-mp2 aug-cc-pvqz aug-cc-pvqz/c tightscf
| 40> %pal nprocs 16 end
| 41> %maxcore 3800
| 42> %base "QZ_B-P_42_AB"
| 43>
| 44> *xyz 0 1
| 45> P         0.094598   -1.026946   -0.453654
| 46> N         1.458998    0.092655    0.045672
| 47> B        -1.415335    0.113231    0.040198
| 48> O         1.364821    1.268468   -0.288379
| 49> O         2.419046   -0.378963    0.597944
| 50> O        -2.556050   -0.565922    0.294240
| 51> O        -1.347619    1.452064    0.049475
| 52> H        -0.453058    1.783096   -0.141523
| 53> H        -3.311417    0.003444    0.481811
| 54> H         0.167620   -1.802277    0.717576
| 55> *
| 56>
| 57>
| 58>
| 59>
| 60>                          ****END OF INPUT****
 Total Charge           Charge          ....    0
 Multiplicity           Mult            ....    1
 Number of Electrons    NEL             ....   62
MP2 TOTAL ENERGY:     -722.313387737 Eh
FINAL SINGLE POINT ENERGY      -722.313387737131
MP2 TOTAL ENERGY:     -722.673739095 Eh
FINAL SINGLE POINT ENERGY      -722.673739095076

CARTESIAN COORDINATES (ANGSTROEM)
---------------------------------
  P      0.094598   -1.026946   -0.453654
  N      1.458998    0.092655    0.045672
  B     -1.415335    0.113231    0.040198
  O      1.364821    1.268468   -0.288379
  O      2.419046   -0.378963    0.597944
  O     -2.556050   -0.565922    0.294240
  O     -1.347619    1.452064    0.049475
  H     -0.453058    1.783096   -0.141523
  H     -3.311417    0.003444    0.481811
  H      0.167620   -1.802277    0.717576

 Multiplicity           Mult            ....    1
 Number of Electrons    NEL             ....   62
 Basis Dimension        Dim             ....  702

ORBITAL ENERGIES
----------------

  NO   OCC          E(Eh)            E(eV)
   0   2.0000     -80.004480     -2177.0326
   1   2.0000     -20.621939      -561.1515
   2   2.0000     -20.611582      -560.8697
   3   2.0000     -20.599399      -560.5381
   4   2.0000     -20.588892      -560.2522
   5   2.0000     -15.849222      -431.2793
   6   2.0000      -7.685191      -209.1247
   7   2.0000      -7.547197      -205.3697
   8   2.0000      -5.441214      -148.0630
   9   2.0000      -5.439837      -148.0255
  10   2.0000      -5.439272      -148.0101
  11   2.0000      -1.622236       -44.1433
  12   2.0000      -1.421212       -38.6732
  13   2.0000      -1.412958       -38.4486
  14   2.0000      -1.377563       -37.4854
  15   2.0000      -1.016462       -27.6593
  16   2.0000      -0.857395       -23.3309
  17   2.0000      -0.807992       -21.9866
  18   2.0000      -0.764448       -20.8017
  19   2.0000      -0.741781       -20.1849
  20   2.0000      -0.731993       -19.9185
  21   2.0000      -0.719795       -19.5866
  22   2.0000      -0.648066       -17.6348
  23   2.0000      -0.607256       -16.5243
  24   2.0000      -0.600241       -16.3334
  25   2.0000      -0.534325       -14.5397
  26   2.0000      -0.531190       -14.4544
  27   2.0000      -0.505748       -13.7621
  28   2.0000      -0.478328       -13.0160
  29   2.0000      -0.474174       -12.9029
  30   2.0000      -0.416397       -11.3307
  31   0.0000       0.018944         0.5155
  32   0.0000       0.032454         0.8831
  33   0.0000       0.035633         0.9696
  34   0.0000       0.037561         1.0221
  35   0.0000       0.055690         1.5154

MULLIKEN ATOMIC CHARGES
-----------------------
   0 P :    0.567592
   1 N :    0.615819
   2 B :    1.307925
   3 O :   -0.610404
   4 O :   -0.551667
   5 O :   -0.960993
   6 O :   -1.075027
   7 H :    0.406102
   8 H :    0.335405
   9 H :   -0.034752
Sum of atomic charges:    0.0000000

LOEWDIN ATOMIC CHARGES
----------------------
   0 P :    1.224314
   1 N :   -1.052618
   2 B :   -1.439857
   3 O :    0.517823
   4 O :    0.447054
   5 O :    1.279108
   6 O :    1.320300
   7 H :   -1.042873
   8 H :   -0.787098
   9 H :   -0.466154

  Mayer bond orders larger than 0.100000
B(  0-P ,  1-N ) :   0.6014 B(  0-P ,  2-B ) :   0.9888 B(  0-P ,  9-H ) :   0.9623
B(  1-N ,  3-O ) :   1.2326 B(  1-N ,  4-O ) :   1.3901 B(  2-B ,  5-O ) :   0.4544
B(  2-B ,  6-O ) :   0.6245 B(  3-O ,  4-O ) :   0.1447 B(  5-O ,  6-O ) :  -0.1245
B(  5-O ,  8-H ) :   0.9253 B(  6-O ,  7-H ) :   0.8634

MP2 TOTAL ENERGY:     -722.794972461 Eh
FINAL SINGLE POINT ENERGY      -722.794972460936

DIPOLE MOMENT
-------------
                                X             Y             Z
Electronic contribution:      1.18305      -1.28379      -1.39836
Nuclear contribution   :     -2.40805       0.85293       1.39193
                        -----------------------------------------
Total Dipole Moment    :     -1.22500      -0.43086      -0.00643
                        -----------------------------------------
Magnitude (a.u.)       :      1.29858
Magnitude (Debye)      :      3.30072

Rotational constants in cm-1:     0.138248     0.050231     0.039541
Rotational constants in MHz :  4144.582367  1505.875043  1185.401443

                             ****ORCA TERMINATED NORMALLY****
TOTAL RUN TIME: 0 days 0 hours 7 minutes 32 seconds 106 msec
