                         Program Version 5.0.4 -  RELEASE  -
|  1> ! ri-mp2 aug-cc-pvdz aug-cc-pvdz/c tightscf
|  2> %pal nprocs 16 end
|  3> %maxcore 3800
|  4> %base "DZ_S-Cl_35_A"
|  5> %scf
|  6> STABPerform true
|  7> STABRestartUHFifUnstable true
|  8> end
|  9>
| 10> *xyz 0 2
| 11> S        -1.443751   -0.534619    0.000000
| 12> C        -0.072454    0.515977   -0.000002
| 13> O        -0.053484    1.693284    0.000002
| 14> Cl         1.409565   -0.475778    0.000000
| 15> *
| 16>
| 17> $new_job
| 18> ! ri-mp2 aug-cc-pvtz aug-cc-pvtz/c tightscf
| 19> %pal nprocs 16 end
| 20> %maxcore 3800
| 21> %base "TZ_S-Cl_35_A"
| 22>
| 23> *xyz 0 2
| 24> S        -1.443751   -0.534619    0.000000
| 25> C        -0.072454    0.515977   -0.000002
| 26> O        -0.053484    1.693284    0.000002
| 27> Cl         1.409565   -0.475778    0.000000
| 28> *
| 29>
| 30> $new_job
| 31> ! ri-mp2 aug-cc-pvqz aug-cc-pvqz/c tightscf
| 32> %pal nprocs 16 end
| 33> %maxcore 3800
| 34> %base "QZ_S-Cl_35_A"
| 35>
| 36> *xyz 0 2
| 37> S        -1.443751   -0.534619    0.000000
| 38> C        -0.072454    0.515977   -0.000002
| 39> O        -0.053484    1.693284    0.000002
| 40> Cl         1.409565   -0.475778    0.000000
| 41> *
| 42>
| 43>
| 44>
| 45>
| 46>                          ****END OF INPUT****
 Total Charge           Charge          ....    0
 Multiplicity           Mult            ....    2
 Number of Electrons    NEL             ....   47
MP2 TOTAL ENERGY:     -970.345770564 Eh
FINAL SINGLE POINT ENERGY      -970.345770563565
MP2 TOTAL ENERGY:     -970.544020975 Eh
FINAL SINGLE POINT ENERGY      -970.544020975254

CARTESIAN COORDINATES (ANGSTROEM)
---------------------------------
  S     -1.443751   -0.534619    0.000000
  C     -0.072454    0.515977   -0.000002
  O     -0.053484    1.693284    0.000002
  Cl     1.409565   -0.475778    0.000000

 Multiplicity           Mult            ....    2
 Number of Electrons    NEL             ....   47
 Basis Dimension        Dim             ....  328

ORBITAL ENERGIES
----------------
                 SPIN UP ORBITALS
  NO   OCC          E(Eh)            E(eV)
   0   1.0000    -104.872159     -2853.7165
   1   1.0000     -92.037756     -2504.4747
   2   1.0000     -20.606511      -560.7317
   3   1.0000     -11.443425      -311.3914
   4   1.0000     -10.597965      -288.3853
   5   1.0000      -9.040313      -245.9994
   6   1.0000      -8.065246      -219.4665
   7   1.0000      -8.063355      -219.4151
   8   1.0000      -8.062859      -219.4016
   9   1.0000      -6.736265      -183.3031
  10   1.0000      -6.717207      -182.7845
  11   1.0000      -6.715905      -182.7491
  12   1.0000      -1.471356       -40.0376
  13   1.0000      -1.169638       -31.8275
  14   1.0000      -1.064747       -28.9732
  15   1.0000      -0.783292       -21.3145
  16   1.0000      -0.692632       -18.8475
  17   1.0000      -0.672608       -18.3026
  18   1.0000      -0.632709       -17.2169
  19   1.0000      -0.531787       -14.4706
  20   1.0000      -0.489968       -13.3327
  21   1.0000      -0.469037       -12.7631
  22   1.0000      -0.467259       -12.7148
  23   1.0000      -0.439698       -11.9648
  24   0.0000       0.037063         1.0085
  25   0.0000       0.052522         1.4292
  26   0.0000       0.064489         1.7548
  27   0.0000       0.071920         1.9570
  28   0.0000       0.083778         2.2797

                 SPIN DOWN ORBITALS
  NO   OCC          E(Eh)            E(eV)
   0   1.0000    -104.871524     -2853.6992
   1   1.0000     -92.028257     -2504.2162
   2   1.0000     -20.605956      -560.7166
   3   1.0000     -11.444325      -311.4159
   4   1.0000     -10.597279      -288.3666
   5   1.0000      -9.029806      -245.7135
   6   1.0000      -8.064091      -219.4351
   7   1.0000      -8.062509      -219.3920
   8   1.0000      -8.061610      -219.3676
   9   1.0000      -6.712529      -182.6572
  10   1.0000      -6.710108      -182.5913
  11   1.0000      -6.693395      -182.1365
  12   1.0000      -1.469247       -39.9803
  13   1.0000      -1.159520       -31.5522
  14   1.0000      -1.000394       -27.2221
  15   1.0000      -0.765655       -20.8345
  16   1.0000      -0.681536       -18.5455
  17   1.0000      -0.650825       -17.7098
  18   1.0000      -0.632381       -17.2080
  19   1.0000      -0.490860       -13.3570
  20   1.0000      -0.489505       -13.3201
  21   1.0000      -0.460377       -12.5275
  22   1.0000      -0.419706       -11.4208
  23   0.0000      -0.026825        -0.7300
  24   0.0000       0.038588         1.0500
  25   0.0000       0.053876         1.4660
  26   0.0000       0.068894         1.8747
  27   0.0000       0.071456         1.9444

MULLIKEN ATOMIC CHARGES AND SPIN POPULATIONS
--------------------------------------------
   0 S :    0.308236    1.061303
   1 C :    0.230302   -0.088415
   2 O :   -0.497312    0.002499
   3 Cl:   -0.041225    0.024613
Sum of atomic charges         :   -0.0000000

LOEWDIN ATOMIC CHARGES AND SPIN POPULATIONS
-------------------------------------------
   0 S :    0.861809    0.734275
   1 C :   -2.200925    0.200661
   2 O :    0.418916    0.013996
   3 Cl:    0.920199    0.051068

  Mayer bond orders larger than 0.100000
B(  0-S ,  1-C ) :   1.0683 B(  1-C ,  2-O ) :   1.8062 B(  1-C ,  3-Cl) :   0.9895

MP2 TOTAL ENERGY:     -970.611388501 Eh
FINAL SINGLE POINT ENERGY      -970.611388501040

DIPOLE MOMENT
-------------
                                X             Y             Z
Electronic contribution:      1.41553      -1.37824      -0.00000
Nuclear contribution   :     -1.82308       0.66890       0.00000
                        -----------------------------------------
Total Dipole Moment    :     -0.40755      -0.70934      -0.00000
                        -----------------------------------------
Magnitude (a.u.)       :      0.81809
Magnitude (Debye)      :      2.07941

Rotational constants in cm-1:     0.254487     0.122737     0.082802
Rotational constants in MHz :  7629.328065  3679.572179  2482.351306

                             ****ORCA TERMINATED NORMALLY****
TOTAL RUN TIME: 0 days 0 hours 7 minutes 31 seconds 451 msec
