                         Program Version 5.0.4 -  RELEASE  -
|  1> ! ri-mp2 aug-cc-pvdz aug-cc-pvdz/c tightscf
|  2> %pal nprocs 16 end
|  3> %maxcore 3800
|  4> %base "DZ_P-N_68_AB"
|  5> %scf
|  6> STABPerform true
|  7> STABRestartUHFifUnstable true
|  8> end
|  9>
| 10> *xyz 0 1
| 11> P        -1.287855   -0.122479   -0.018743
| 12> N         0.417103    0.011729   -0.399459
| 13> O         1.026820   -1.119223    0.194083
| 14> O         0.974972    1.154270    0.202146
| 15> H         1.615204    1.474979   -0.444346
| 16> H         1.615236   -1.457904   -0.489951
| 17> H        -1.608802    1.166134   -0.497127
| 18> H        -1.237869    0.291502    1.338945
| 19> *
| 20>
| 21> $new_job
| 22> ! ri-mp2 aug-cc-pvtz aug-cc-pvtz/c tightscf
| 23> %pal nprocs 16 end
| 24> %maxcore 3800
| 25> %base "TZ_P-N_68_AB"
| 26>
| 27> *xyz 0 1
| 28> P        -1.287855   -0.122479   -0.018743
| 29> N         0.417103    0.011729   -0.399459
| 30> O         1.026820   -1.119223    0.194083
| 31> O         0.974972    1.154270    0.202146
| 32> H         1.615204    1.474979   -0.444346
| 33> H         1.615236   -1.457904   -0.489951
| 34> H        -1.608802    1.166134   -0.497127
| 35> H        -1.237869    0.291502    1.338945
| 36> *
| 37>
| 38> $new_job
| 39> ! ri-mp2 aug-cc-pvqz aug-cc-pvqz/c tightscf
| 40> %pal nprocs 16 end
| 41> %maxcore 3800
| 42> %base "QZ_P-N_68_AB"
| 43>
| 44> *xyz 0 1
| 45> P        -1.287855   -0.122479   -0.018743
| 46> N         0.417103    0.011729   -0.399459
| 47> O         1.026820   -1.119223    0.194083
| 48> O         0.974972    1.154270    0.202146
| 49> H         1.615204    1.474979   -0.444346
| 50> H         1.615236   -1.457904   -0.489951
| 51> H        -1.608802    1.166134   -0.497127
| 52> H        -1.237869    0.291502    1.338945
| 53> *
| 54>
| 55>
| 56>
| 57>
| 58>                          ****END OF INPUT****
 Total Charge           Charge          ....    0
 Multiplicity           Mult            ....    1
 Number of Electrons    NEL             ....   42
MP2 TOTAL ENERGY:     -547.858750807 Eh
FINAL SINGLE POINT ENERGY      -547.858750807196
MP2 TOTAL ENERGY:     -548.079756055 Eh
FINAL SINGLE POINT ENERGY      -548.079756054868

CARTESIAN COORDINATES (ANGSTROEM)
---------------------------------
  P     -1.287855   -0.122479   -0.018743
  N      0.417103    0.011729   -0.399459
  O      1.026820   -1.119223    0.194083
  O      0.974972    1.154270    0.202146
  H      1.615204    1.474979   -0.444346
  H      1.615236   -1.457904   -0.489951
  H     -1.608802    1.166134   -0.497127
  H     -1.237869    0.291502    1.338945

 Multiplicity           Mult            ....    1
 Number of Electrons    NEL             ....   42
 Basis Dimension        Dim             ....  508

ORBITAL ENERGIES
----------------

  NO   OCC          E(Eh)            E(eV)
   0   2.0000     -79.965780     -2175.9795
   1   2.0000     -20.604837      -560.6861
   2   2.0000     -20.604341      -560.6726
   3   2.0000     -15.672934      -426.4822
   4   2.0000      -7.506438      -204.2606
   5   2.0000      -5.400207      -146.9471
   6   2.0000      -5.399774      -146.9353
   7   2.0000      -5.398778      -146.9082
   8   2.0000      -1.473599       -40.0987
   9   2.0000      -1.357774       -36.9469
  10   2.0000      -1.049991       -28.5717
  11   2.0000      -0.824833       -22.4449
  12   2.0000      -0.728215       -19.8157
  13   2.0000      -0.720587       -19.6082
  14   2.0000      -0.647373       -17.6159
  15   2.0000      -0.611193       -16.6314
  16   2.0000      -0.531905       -14.4739
  17   2.0000      -0.511609       -13.9216
  18   2.0000      -0.497601       -13.5404
  19   2.0000      -0.416881       -11.3439
  20   2.0000      -0.385542       -10.4911
  21   0.0000       0.023020         0.6264
  22   0.0000       0.036425         0.9912
  23   0.0000       0.040267         1.0957
  24   0.0000       0.052242         1.4216
  25   0.0000       0.067871         1.8469

MULLIKEN ATOMIC CHARGES
-----------------------
   0 P :    0.551485
   1 N :   -0.006318
   2 O :   -0.562522
   3 O :   -0.560396
   4 H :    0.352379
   5 H :    0.354667
   6 H :   -0.074679
   7 H :   -0.054616
Sum of atomic charges:   -0.0000000

LOEWDIN ATOMIC CHARGES
----------------------
   0 P :    1.265541
   1 N :   -0.497825
   2 O :    0.960601
   3 O :    0.976986
   4 H :   -0.854988
   5 H :   -0.861318
   6 H :   -0.508616
   7 H :   -0.480381

  Mayer bond orders larger than 0.100000
B(  0-P ,  1-N ) :   0.7062 B(  0-P ,  6-H ) :   0.9119 B(  0-P ,  7-H ) :   0.9105
B(  1-N ,  2-O ) :   0.7912 B(  1-N ,  3-O ) :   0.7742 B(  2-O ,  5-H ) :   0.9121
B(  3-O ,  4-H ) :   0.9037

MP2 TOTAL ENERGY:     -548.152668704 Eh
FINAL SINGLE POINT ENERGY      -548.152668704110

DIPOLE MOMENT
-------------
                                X             Y             Z
Electronic contribution:     -1.21623      -1.31025      -0.57322
Nuclear contribution   :      1.60102       1.55008      -0.06887
                        -----------------------------------------
Total Dipole Moment    :      0.38479       0.23984      -0.64209
                        -----------------------------------------
Magnitude (a.u.)       :      0.78604
Magnitude (Debye)      :      1.99795

Rotational constants in cm-1:     0.315631     0.166285     0.117956
Rotational constants in MHz :  9462.367180  4985.100856  3536.237152

                             ****ORCA TERMINATED NORMALLY****
TOTAL RUN TIME: 0 days 0 hours 13 minutes 44 seconds 469 msec
