                         Program Version 5.0.4 -  RELEASE  -
|  1> ! ri-mp2 aug-cc-pvdz aug-cc-pvdz/c tightscf
|  2> %pal nprocs 16 end
|  3> %maxcore 3800
|  4> %base "DZ_P-F_12_AB"
|  5> %scf
|  6> STABPerform true
|  7> STABRestartUHFifUnstable true
|  8> end
|  9>
| 10> *xyz 0 1
| 11> F        -0.083916    2.111248    0.189791
| 12> P        -0.012838    0.908766   -0.844886
| 13> S         1.675995   -0.125981    0.168062
| 14> S        -1.681928   -0.313190   -0.116035
| 15> O         2.760563    0.795868   -0.030202
| 16> O         1.335251   -0.551031    1.499433
| 17> O        -2.866102    0.304216   -0.643316
| 18> O        -1.311265   -1.644433   -0.529672
| 19> C         1.931063   -1.558167   -0.832797
| 20> H         2.796376   -2.061139   -0.402135
| 21> H         2.145235   -1.244137   -1.851518
| 22> H         1.045188   -2.186041   -0.778369
| 23> C        -1.752619   -0.226012    1.645784
| 24> H        -1.922551    0.808649    1.932492
| 25> H        -0.829744   -0.614906    2.064208
| 26> H        -2.609983   -0.840294    1.920191
| 27> *
| 28>
| 29> $new_job
| 30> ! ri-mp2 aug-cc-pvtz aug-cc-pvtz/c tightscf
| 31> %pal nprocs 16 end
| 32> %maxcore 3800
| 33> %base "TZ_P-F_12_AB"
| 34>
| 35> *xyz 0 1
| 36> F        -0.083916    2.111248    0.189791
| 37> P        -0.012838    0.908766   -0.844886
| 38> S         1.675995   -0.125981    0.168062
| 39> S        -1.681928   -0.313190   -0.116035
| 40> O         2.760563    0.795868   -0.030202
| 41> O         1.335251   -0.551031    1.499433
| 42> O        -2.866102    0.304216   -0.643316
| 43> O        -1.311265   -1.644433   -0.529672
| 44> C         1.931063   -1.558167   -0.832797
| 45> H         2.796376   -2.061139   -0.402135
| 46> H         2.145235   -1.244137   -1.851518
| 47> H         1.045188   -2.186041   -0.778369
| 48> C        -1.752619   -0.226012    1.645784
| 49> H        -1.922551    0.808649    1.932492
| 50> H        -0.829744   -0.614906    2.064208
| 51> H        -2.609983   -0.840294    1.920191
| 52> *
| 53>
| 54> $new_job
| 55> ! ri-mp2 aug-cc-pvqz aug-cc-pvqz/c tightscf
| 56> %pal nprocs 16 end
| 57> %maxcore 3800
| 58> %base "QZ_P-F_12_AB"
| 59>
| 60> *xyz 0 1
| 61> F        -0.083916    2.111248    0.189791
| 62> P        -0.012838    0.908766   -0.844886
| 63> S         1.675995   -0.125981    0.168062
| 64> S        -1.681928   -0.313190   -0.116035
| 65> O         2.760563    0.795868   -0.030202
| 66> O         1.335251   -0.551031    1.499433
| 67> O        -2.866102    0.304216   -0.643316
| 68> O        -1.311265   -1.644433   -0.529672
| 69> C         1.931063   -1.558167   -0.832797
| 70> H         2.796376   -2.061139   -0.402135
| 71> H         2.145235   -1.244137   -1.851518
| 72> H         1.045188   -2.186041   -0.778369
| 73> C        -1.752619   -0.226012    1.645784
| 74> H        -1.922551    0.808649    1.932492
| 75> H        -0.829744   -0.614906    2.064208
| 76> H        -2.609983   -0.840294    1.920191
| 77> *
| 78>
| 79>
| 80>
| 81>
| 82>                          ****END OF INPUT****
 Total Charge           Charge          ....    0
 Multiplicity           Mult            ....    1
 Number of Electrons    NEL             ....  106
MP2 TOTAL ENERGY:    -1615.551125282 Eh
FINAL SINGLE POINT ENERGY     -1615.551125282316
MP2 TOTAL ENERGY:    -1616.191991663 Eh
FINAL SINGLE POINT ENERGY     -1616.191991663067

CARTESIAN COORDINATES (ANGSTROEM)
---------------------------------
  F     -0.083916    2.111248    0.189791
  P     -0.012838    0.908766   -0.844886
  S      1.675995   -0.125981    0.168062
  S     -1.681928   -0.313190   -0.116035
  O      2.760563    0.795868   -0.030202
  O      1.335251   -0.551031    1.499433
  O     -2.866102    0.304216   -0.643316
  O     -1.311265   -1.644433   -0.529672
  C      1.931063   -1.558167   -0.832797
  H      2.796376   -2.061139   -0.402135
  H      2.145235   -1.244137   -1.851518
  H      1.045188   -2.186041   -0.778369
  C     -1.752619   -0.226012    1.645784
  H     -1.922551    0.808649    1.932492
  H     -0.829744   -0.614906    2.064208
  H     -2.609983   -0.840294    1.920191

 Multiplicity           Mult            ....    1
 Number of Electrons    NEL             ....  106
 Basis Dimension        Dim             .... 1088

ORBITAL ENERGIES
----------------

  NO   OCC          E(Eh)            E(eV)
   0   2.0000     -92.195289     -2508.7614
   1   2.0000     -92.193822     -2508.7214
   2   2.0000     -80.091443     -2179.3990
   3   2.0000     -26.361997      -717.3464
   4   2.0000     -20.574822      -559.8694
   5   2.0000     -20.574372      -559.8571
   6   2.0000     -20.570756      -559.7587
   7   2.0000     -20.569887      -559.7351
   8   2.0000     -11.290482      -307.2296
   9   2.0000     -11.284926      -307.0784
  10   2.0000      -9.167359      -249.4565
  11   2.0000      -9.166044      -249.4207
  12   2.0000      -7.624207      -207.4652
  13   2.0000      -6.852563      -186.4677
  14   2.0000      -6.851633      -186.4424
  15   2.0000      -6.851492      -186.4386
  16   2.0000      -6.851225      -186.4313
  17   2.0000      -6.850353      -186.4076
  18   2.0000      -6.850170      -186.4026
  19   2.0000      -5.516930      -150.1233
  20   2.0000      -5.516138      -150.1018
  21   2.0000      -5.515059      -150.0724
  22   2.0000      -1.670792       -45.4646
  23   2.0000      -1.485402       -40.4198
  24   2.0000      -1.482240       -40.3338
  25   2.0000      -1.372929       -37.3593
  26   2.0000      -1.371566       -37.3222
  27   2.0000      -1.074769       -29.2460
  28   2.0000      -1.068249       -29.0685
  29   2.0000      -0.963171       -26.2092
  30   2.0000      -0.864158       -23.5149
  31   2.0000      -0.830622       -22.6024
  32   2.0000      -0.762022       -20.7357
  33   2.0000      -0.756575       -20.5875
  34   2.0000      -0.737030       -20.0556
  35   2.0000      -0.701184       -19.0802
  36   2.0000      -0.693100       -18.8602
  37   2.0000      -0.689516       -18.7627
  38   2.0000      -0.677645       -18.4396
  39   2.0000      -0.676828       -18.4174
  40   2.0000      -0.630332       -17.1522
  41   2.0000      -0.625194       -17.0124
  42   2.0000      -0.618490       -16.8300
  43   2.0000      -0.616223       -16.7683
  44   2.0000      -0.569518       -15.4974
  45   2.0000      -0.539865       -14.6905
  46   2.0000      -0.528615       -14.3843
  47   2.0000      -0.522335       -14.2135
  48   2.0000      -0.512824       -13.9547
  49   2.0000      -0.504621       -13.7314
  50   2.0000      -0.502688       -13.6788
  51   2.0000      -0.432475       -11.7682
  52   2.0000      -0.416474       -11.3328
  53   0.0000       0.022362         0.6085
  54   0.0000       0.027022         0.7353
  55   0.0000       0.034385         0.9357
  56   0.0000       0.038542         1.0488
  57   0.0000       0.045426         1.2361

MULLIKEN ATOMIC CHARGES
-----------------------
   0 F :   -0.703001
   1 P :    1.126863
   2 S :    2.344552
   3 S :    2.288956
   4 O :   -1.332303
   5 O :   -1.244547
   6 O :   -1.320751
   7 O :   -1.239161
   8 C :   -1.084675
   9 H :    0.366730
  10 H :    0.336176
  11 H :    0.423080
  12 C :   -1.097631
  13 H :    0.331768
  14 H :    0.434292
  15 H :    0.369651
Sum of atomic charges:    0.0000000

LOEWDIN ATOMIC CHARGES
----------------------
   0 F :    0.266942
   1 P :    0.186693
   2 S :   -0.393860
   3 S :   -0.421930
   4 O :    0.239160
   5 O :    0.291196
   6 O :    0.237899
   7 O :    0.261548
   8 C :    0.747009
   9 H :   -0.329186
  10 H :   -0.335902
  11 H :   -0.398907
  12 C :    0.759771
  13 H :   -0.335197
  14 H :   -0.445434
  15 H :   -0.329801

  Mayer bond orders larger than 0.100000
B(  0-F ,  1-P ) :   0.5458 B(  0-F ,  2-S ) :  -0.1012 B(  1-P ,  2-S ) :   0.8052
B(  1-P ,  3-S ) :   0.8220 B(  2-S ,  4-O ) :   0.9569 B(  2-S ,  5-O ) :   0.9501
B(  2-S ,  8-C ) :   0.9091 B(  3-S ,  6-O ) :   0.9440 B(  3-S ,  7-O ) :   1.0114
B(  3-S , 12-C ) :   0.9093 B(  8-C ,  9-H ) :   0.8113 B(  8-C , 10-H ) :   0.8896
B(  8-C , 11-H ) :   0.8375 B( 12-C , 13-H ) :   0.8873 B( 12-C , 14-H ) :   0.8132
B( 12-C , 15-H ) :   0.8250

MP2 TOTAL ENERGY:    -1616.401410457 Eh
FINAL SINGLE POINT ENERGY     -1616.401410457430

DIPOLE MOMENT
-------------
                                X             Y             Z
Electronic contribution:     -0.52885       8.17249      -3.39922
Nuclear contribution   :      0.68717      -8.69541       3.35221
                        -----------------------------------------
Total Dipole Moment    :      0.15832      -0.52292      -0.04701
                        -----------------------------------------
Magnitude (a.u.)       :      0.54838
Magnitude (Debye)      :      1.39388

Rotational constants in cm-1:     0.049190     0.023254     0.020734
Rotational constants in MHz :  1474.683878   697.136869   621.590647

                             ****ORCA TERMINATED NORMALLY****
TOTAL RUN TIME: 0 days 2 hours 12 minutes 24 seconds 342 msec
