                         Program Version 5.0.4 -  RELEASE  -
|  1> ! ri-mp2 aug-cc-pvdz aug-cc-pvdz/c tightscf
|  2> %pal nprocs 16 end
|  3> %maxcore 3800
|  4> %base "DZ_Si-Si_122_A"
|  5> %scf
|  6> STABPerform true
|  7> STABRestartUHFifUnstable true
|  8> end
|  9>
| 10> *xyz 0 2
| 11> Si         1.514063   -0.542392   -0.099073
| 12> S        -0.056200    0.943384    0.035340
| 13> H         2.734996    0.264989    0.119979
| 14> H         1.313663   -1.560338    0.956345
| 15> C        -1.379421   -0.104612   -0.006808
| 16> N        -2.295686   -0.796806   -0.030555
| 17> *
| 18>
| 19> $new_job
| 20> ! ri-mp2 aug-cc-pvtz aug-cc-pvtz/c tightscf
| 21> %pal nprocs 16 end
| 22> %maxcore 3800
| 23> %base "TZ_Si-Si_122_A"
| 24>
| 25> *xyz 0 2
| 26> Si         1.514063   -0.542392   -0.099073
| 27> S        -0.056200    0.943384    0.035340
| 28> H         2.734996    0.264989    0.119979
| 29> H         1.313663   -1.560338    0.956345
| 30> C        -1.379421   -0.104612   -0.006808
| 31> N        -2.295686   -0.796806   -0.030555
| 32> *
| 33>
| 34> $new_job
| 35> ! ri-mp2 aug-cc-pvqz aug-cc-pvqz/c tightscf
| 36> %pal nprocs 16 end
| 37> %maxcore 3800
| 38> %base "QZ_Si-Si_122_A"
| 39>
| 40> *xyz 0 2
| 41> Si         1.514063   -0.542392   -0.099073
| 42> S        -0.056200    0.943384    0.035340
| 43> H         2.734996    0.264989    0.119979
| 44> H         1.313663   -1.560338    0.956345
| 45> C        -1.379421   -0.104612   -0.006808
| 46> N        -2.295686   -0.796806   -0.030555
| 47> *
| 48>
| 49>
| 50>
| 51>
| 52>                          ****END OF INPUT****
 Total Charge           Charge          ....    0
 Multiplicity           Mult            ....    2
 Number of Electrons    NEL             ....   45
MP2 TOTAL ENERGY:     -780.434421439 Eh
FINAL SINGLE POINT ENERGY      -780.434421438585
MP2 TOTAL ENERGY:     -780.592796776 Eh
FINAL SINGLE POINT ENERGY      -780.592796775570

CARTESIAN COORDINATES (ANGSTROEM)
---------------------------------
  Si     1.514063   -0.542392   -0.099073
  S     -0.056200    0.943384    0.035340
  H      2.734996    0.264989    0.119979
  H      1.313663   -1.560338    0.956345
  C     -1.379421   -0.104612   -0.006808
  N     -2.295686   -0.796806   -0.030555

 Multiplicity           Mult            ....    2
 Number of Electrons    NEL             ....   45
 Basis Dimension        Dim             ....  420

ORBITAL ENERGIES
----------------
                 SPIN UP ORBITALS
  NO   OCC          E(Eh)            E(eV)
   0   1.0000     -92.014151     -2503.8323
   1   1.0000     -68.840853     -1873.2548
   2   1.0000     -15.582044      -424.0090
   3   1.0000     -11.300520      -307.5028
   4   1.0000      -9.017155      -245.3693
   5   1.0000      -6.699036      -182.2900
   6   1.0000      -6.698209      -182.2675
   7   1.0000      -6.696622      -182.2243
   8   1.0000      -6.188751      -168.4045
   9   1.0000      -4.300168      -117.0135
  10   1.0000      -4.291615      -116.7808
  11   1.0000      -4.290554      -116.7519
  12   1.0000      -1.238142       -33.6916
  13   1.0000      -1.056741       -28.7554
  14   1.0000      -0.765287       -20.8245
  15   1.0000      -0.658741       -17.9253
  16   1.0000      -0.566523       -15.4159
  17   1.0000      -0.555773       -15.1234
  18   1.0000      -0.545375       -14.8404
  19   1.0000      -0.521072       -14.1791
  20   1.0000      -0.453588       -12.3428
  21   1.0000      -0.424494       -11.5511
  22   1.0000      -0.357604        -9.7309
  23   0.0000       0.021743         0.5917
  24   0.0000       0.030068         0.8182
  25   0.0000       0.039283         1.0689
  26   0.0000       0.040487         1.1017
  27   0.0000       0.060119         1.6359

                 SPIN DOWN ORBITALS
  NO   OCC          E(Eh)            E(eV)
   0   1.0000     -92.013301     -2503.8092
   1   1.0000     -68.834892     -1873.0926
   2   1.0000     -15.581830      -424.0031
   3   1.0000     -11.300660      -307.5066
   4   1.0000      -9.016193      -245.3431
   5   1.0000      -6.698195      -182.2671
   6   1.0000      -6.696660      -182.2254
   7   1.0000      -6.694438      -182.1649
   8   1.0000      -6.179268      -168.1464
   9   1.0000      -4.287673      -116.6735
  10   1.0000      -4.286826      -116.6505
  11   1.0000      -4.278120      -116.4136
  12   1.0000      -1.237702       -33.6796
  13   1.0000      -1.050559       -28.5872
  14   1.0000      -0.734439       -19.9851
  15   1.0000      -0.644941       -17.5497
  16   1.0000      -0.564819       -15.3695
  17   1.0000      -0.549149       -14.9431
  18   1.0000      -0.536901       -14.6098
  19   1.0000      -0.510748       -13.8982
  20   1.0000      -0.444283       -12.0896
  21   1.0000      -0.403261       -10.9733
  22   0.0000       0.003044         0.0828
  23   0.0000       0.023391         0.6365
  24   0.0000       0.031575         0.8592
  25   0.0000       0.040803         1.1103
  26   0.0000       0.047909         1.3037

MULLIKEN ATOMIC CHARGES AND SPIN POPULATIONS
--------------------------------------------
   0 Si:    0.791262    0.874111
   1 S :    0.142305    0.047352
   2 H :   -0.204810    0.028853
   3 H :   -0.169425    0.053112
   4 C :   -0.078224   -0.009900
   5 N :   -0.481107    0.006471
Sum of atomic charges         :    0.0000000

LOEWDIN ATOMIC CHARGES AND SPIN POPULATIONS
-------------------------------------------
   0 Si:    0.624182    0.555794
   1 S :    0.930115    0.151111
   2 H :   -0.403569    0.123976
   3 H :   -0.372800    0.134653
   4 C :   -1.040564    0.029435
   5 N :    0.262636    0.005031

  Mayer bond orders larger than 0.100000
B(  0-Si,  1-S ) :   0.7673 B(  0-Si,  2-H ) :   0.8971 B(  0-Si,  3-H ) :   0.9036
B(  1-S ,  4-C ) :   0.9114 B(  4-C ,  5-N ) :   2.6356

MP2 TOTAL ENERGY:     -780.645506957 Eh
FINAL SINGLE POINT ENERGY      -780.645506957254

DIPOLE MOMENT
-------------
                                X             Y             Z
Electronic contribution:     -2.18401       1.56240      -1.03386
Nuclear contribution   :      3.78096      -1.24231       1.03612
                        -----------------------------------------
Total Dipole Moment    :      1.59695       0.32010       0.00226
                        -----------------------------------------
Magnitude (a.u.)       :      1.62871
Magnitude (Debye)      :      4.13986

Rotational constants in cm-1:     0.340223     0.098304     0.077098
Rotational constants in MHz : 10199.624627  2947.091650  2311.335709

                             ****ORCA TERMINATED NORMALLY****
TOTAL RUN TIME: 0 days 0 hours 16 minutes 44 seconds 289 msec
