                         Program Version 5.0.4 -  RELEASE  -
|  1> ! ri-mp2 aug-cc-pvdz aug-cc-pvdz/c tightscf
|  2> %pal nprocs 16 end
|  3> %maxcore 3800
|  4> %base "DZ_Si-Si_25_AB"
|  5> %scf
|  6> STABPerform true
|  7> STABRestartUHFifUnstable true
|  8> end
|  9>
| 10> *xyz 0 1
| 11> Si        -1.336442   -0.573267    0.000000
| 12> Si         0.527617    0.839501    0.000001
| 13> Cl         2.171264   -0.414732   -0.000001
| 14> H         0.598145    1.689804    1.204126
| 15> H         0.598144    1.689806   -1.204123
| 16> F        -2.677218    0.309843    0.000000
| 17> H        -1.344632   -1.422515    1.208118
| 18> H        -1.344631   -1.422512   -1.208121
| 19> *
| 20>
| 21> $new_job
| 22> ! ri-mp2 aug-cc-pvtz aug-cc-pvtz/c tightscf
| 23> %pal nprocs 16 end
| 24> %maxcore 3800
| 25> %base "TZ_Si-Si_25_AB"
| 26>
| 27> *xyz 0 1
| 28> Si        -1.336442   -0.573267    0.000000
| 29> Si         0.527617    0.839501    0.000001
| 30> Cl         2.171264   -0.414732   -0.000001
| 31> H         0.598145    1.689804    1.204126
| 32> H         0.598144    1.689806   -1.204123
| 33> F        -2.677218    0.309843    0.000000
| 34> H        -1.344632   -1.422515    1.208118
| 35> H        -1.344631   -1.422512   -1.208121
| 36> *
| 37>
| 38> $new_job
| 39> ! ri-mp2 aug-cc-pvqz aug-cc-pvqz/c tightscf
| 40> %pal nprocs 16 end
| 41> %maxcore 3800
| 42> %base "QZ_Si-Si_25_AB"
| 43>
| 44> *xyz 0 1
| 45> Si        -1.336442   -0.573267    0.000000
| 46> Si         0.527617    0.839501    0.000001
| 47> Cl         2.171264   -0.414732   -0.000001
| 48> H         0.598145    1.689804    1.204126
| 49> H         0.598144    1.689806   -1.204123
| 50> F        -2.677218    0.309843    0.000000
| 51> H        -1.344632   -1.422515    1.208118
| 52> H        -1.344631   -1.422512   -1.208121
| 53> *
| 54>
| 55>
| 56>
| 57>
| 58>                          ****END OF INPUT****
 Total Charge           Charge          ....    0
 Multiplicity           Mult            ....    1
 Number of Electrons    NEL             ....   58
MP2 TOTAL ENERGY:    -1139.806830341 Eh
FINAL SINGLE POINT ENERGY     -1139.806830340535
MP2 TOTAL ENERGY:    -1140.030406646 Eh
FINAL SINGLE POINT ENERGY     -1140.030406646250

CARTESIAN COORDINATES (ANGSTROEM)
---------------------------------
  Si    -1.336442   -0.573267    0.000000
  Si     0.527617    0.839501    0.000001
  Cl     2.171264   -0.414732   -0.000001
  H      0.598145    1.689804    1.204126
  H      0.598144    1.689806   -1.204123
  F     -2.677218    0.309843    0.000000
  H     -1.344632   -1.422515    1.208118
  H     -1.344631   -1.422512   -1.208121

 Multiplicity           Mult            ....    1
 Number of Electrons    NEL             ....   58
 Basis Dimension        Dim             ....  516

ORBITAL ENERGIES
----------------

  NO   OCC          E(Eh)            E(eV)
   0   2.0000    -104.834460     -2852.6907
   1   2.0000     -68.821371     -1872.7247
   2   2.0000     -68.820943     -1872.7131
   3   2.0000     -26.289872      -715.3838
   4   2.0000     -10.561711      -287.3988
   5   2.0000      -8.028511      -218.4669
   6   2.0000      -8.027378      -218.4361
   7   2.0000      -8.027378      -218.4360
   8   2.0000      -6.167275      -167.8201
   9   2.0000      -6.165834      -167.7809
  10   2.0000      -4.274083      -116.3037
  11   2.0000      -4.273118      -116.2775
  12   2.0000      -4.272979      -116.2737
  13   2.0000      -4.272794      -116.2686
  14   2.0000      -4.271981      -116.2465
  15   2.0000      -4.271921      -116.2449
  16   2.0000      -1.591682       -43.3119
  17   2.0000      -1.102801       -30.0088
  18   2.0000      -0.788134       -21.4462
  19   2.0000      -0.721892       -19.6437
  20   2.0000      -0.674901       -18.3650
  21   2.0000      -0.672993       -18.3131
  22   2.0000      -0.628760       -17.1094
  23   2.0000      -0.538313       -14.6482
  24   2.0000      -0.534536       -14.5455
  25   2.0000      -0.495873       -13.4934
  26   2.0000      -0.494703       -13.4615
  27   2.0000      -0.457858       -12.4590
  28   2.0000      -0.411617       -11.2007
  29   0.0000       0.027891         0.7590
  30   0.0000       0.029502         0.8028
  31   0.0000       0.035394         0.9631
  32   0.0000       0.040720         1.1080
  33   0.0000       0.049986         1.3602

MULLIKEN ATOMIC CHARGES
-----------------------
   0 Si:    1.050519
   1 Si:    0.916044
   2 Cl:   -0.573478
   3 H :   -0.184476
   4 H :   -0.184477
   5 F :   -0.691781
   6 H :   -0.166176
   7 H :   -0.166176
Sum of atomic charges:    0.0000000

LOEWDIN ATOMIC CHARGES
----------------------
   0 Si:    0.186712
   1 Si:   -0.055684
   2 Cl:    0.821528
   3 H :   -0.343490
   4 H :   -0.343490
   5 F :    0.346763
   6 H :   -0.306170
   7 H :   -0.306170

  Mayer bond orders larger than 0.100000
B(  0-Si,  1-Si) :   0.8495 B(  0-Si,  5-F ) :   0.3095 B(  0-Si,  6-H ) :   0.8724
B(  0-Si,  7-H ) :   0.8724 B(  1-Si,  2-Cl) :   0.5299 B(  1-Si,  3-H ) :   0.8775
B(  1-Si,  4-H ) :   0.8775

MP2 TOTAL ENERGY:    -1140.105955113 Eh
FINAL SINGLE POINT ENERGY     -1140.105955113022

DIPOLE MOMENT
-------------
                                X             Y             Z
Electronic contribution:      1.79013      -0.69458       0.00000
Nuclear contribution   :     -1.81100       0.76552       0.00000
                        -----------------------------------------
Total Dipole Moment    :     -0.02087       0.07093       0.00000
                        -----------------------------------------
Magnitude (a.u.)       :      0.07394
Magnitude (Debye)      :      0.18793

Rotational constants in cm-1:     0.321403     0.045355     0.040877
Rotational constants in MHz :  9635.425812  1359.710391  1225.456856

                             ****ORCA TERMINATED NORMALLY****
TOTAL RUN TIME: 0 days 0 hours 11 minutes 23 seconds 272 msec
