                         Program Version 5.0.4 -  RELEASE  -
|  1> ! ri-mp2 aug-cc-pvdz aug-cc-pvdz/c tightscf
|  2> %pal nprocs 16 end
|  3> %maxcore 3800
|  4> %base "DZ_B-F_54_AB"
|  5> %scf
|  6> STABPerform true
|  7> STABRestartUHFifUnstable true
|  8> end
|  9>
| 10> *xyz 0 1
| 11> F        -1.849054    0.684591    0.737655
| 12> B        -1.193116   -0.156206   -0.038404
| 13> F        -1.821744   -1.239421   -0.433360
| 14> C         0.303537    0.153664   -0.457413
| 15> O         1.077865   -0.488677    0.520975
| 16> O         0.574346    1.529289   -0.554267
| 17> C         2.457399   -0.567127    0.210206
| 18> H         2.611295   -1.137346   -0.711361
| 19> H         2.940904   -1.081731    1.036615
| 20> H         2.890153    0.427454    0.093968
| 21> H         0.233419    1.971424    0.231701
| 22> H         0.543698   -0.249421   -1.447983
| 23> *
| 24>
| 25> $new_job
| 26> ! ri-mp2 aug-cc-pvtz aug-cc-pvtz/c tightscf
| 27> %pal nprocs 16 end
| 28> %maxcore 3800
| 29> %base "TZ_B-F_54_AB"
| 30>
| 31> *xyz 0 1
| 32> F        -1.849054    0.684591    0.737655
| 33> B        -1.193116   -0.156206   -0.038404
| 34> F        -1.821744   -1.239421   -0.433360
| 35> C         0.303537    0.153664   -0.457413
| 36> O         1.077865   -0.488677    0.520975
| 37> O         0.574346    1.529289   -0.554267
| 38> C         2.457399   -0.567127    0.210206
| 39> H         2.611295   -1.137346   -0.711361
| 40> H         2.940904   -1.081731    1.036615
| 41> H         2.890153    0.427454    0.093968
| 42> H         0.233419    1.971424    0.231701
| 43> H         0.543698   -0.249421   -1.447983
| 44> *
| 45>
| 46> $new_job
| 47> ! ri-mp2 aug-cc-pvqz aug-cc-pvqz/c tightscf
| 48> %pal nprocs 16 end
| 49> %maxcore 3800
| 50> %base "QZ_B-F_54_AB"
| 51>
| 52> *xyz 0 1
| 53> F        -1.849054    0.684591    0.737655
| 54> B        -1.193116   -0.156206   -0.038404
| 55> F        -1.821744   -1.239421   -0.433360
| 56> C         0.303537    0.153664   -0.457413
| 57> O         1.077865   -0.488677    0.520975
| 58> O         0.574346    1.529289   -0.554267
| 59> C         2.457399   -0.567127    0.210206
| 60> H         2.611295   -1.137346   -0.711361
| 61> H         2.940904   -1.081731    1.036615
| 62> H         2.890153    0.427454    0.093968
| 63> H         0.233419    1.971424    0.231701
| 64> H         0.543698   -0.249421   -1.447983
| 65> *
| 66>
| 67>
| 68>
| 69>
| 70>                          ****END OF INPUT****
 Total Charge           Charge          ....    0
 Multiplicity           Mult            ....    1
 Number of Electrons    NEL             ....   56
MP2 TOTAL ENERGY:     -453.269137368 Eh
FINAL SINGLE POINT ENERGY      -453.269137367562
MP2 TOTAL ENERGY:     -453.666860250 Eh
FINAL SINGLE POINT ENERGY      -453.666860249970

CARTESIAN COORDINATES (ANGSTROEM)
---------------------------------
  F     -1.849054    0.684591    0.737655
  B     -1.193116   -0.156206   -0.038404
  F     -1.821744   -1.239421   -0.433360
  C      0.303537    0.153664   -0.457413
  O      1.077865   -0.488677    0.520975
  O      0.574346    1.529289   -0.554267
  C      2.457399   -0.567127    0.210206
  H      2.611295   -1.137346   -0.711361
  H      2.940904   -1.081731    1.036615
  H      2.890153    0.427454    0.093968
  H      0.233419    1.971424    0.231701
  H      0.543698   -0.249421   -1.447983

 Multiplicity           Mult            ....    1
 Number of Electrons    NEL             ....   56
 Basis Dimension        Dim             ....  790

ORBITAL ENERGIES
----------------

  NO   OCC          E(Eh)            E(eV)
   0   2.0000     -26.322841      -716.2809
   1   2.0000     -26.320991      -716.2306
   2   2.0000     -20.576804      -559.9233
   3   2.0000     -20.576777      -559.9226
   4   2.0000     -11.331447      -308.3443
   5   2.0000     -11.278591      -306.9061
   6   2.0000      -7.716204      -209.9686
   7   2.0000      -1.656212       -45.0678
   8   2.0000      -1.624462       -44.2039
   9   2.0000      -1.427406       -38.8417
  10   2.0000      -1.355278       -36.8790
  11   2.0000      -0.983236       -26.7552
  12   2.0000      -0.888602       -24.1801
  13   2.0000      -0.828540       -22.5457
  14   2.0000      -0.775581       -21.1046
  15   2.0000      -0.764724       -20.8092
  16   2.0000      -0.726329       -19.7644
  17   2.0000      -0.702368       -19.1124
  18   2.0000      -0.686215       -18.6728
  19   2.0000      -0.669890       -18.2286
  20   2.0000      -0.663901       -18.0657
  21   2.0000      -0.658978       -17.9317
  22   2.0000      -0.607299       -16.5254
  23   2.0000      -0.593499       -16.1499
  24   2.0000      -0.551689       -15.0122
  25   2.0000      -0.490419       -13.3450
  26   2.0000      -0.468882       -12.7589
  27   2.0000      -0.458834       -12.4855
  28   0.0000       0.023845         0.6489
  29   0.0000       0.032935         0.8962
  30   0.0000       0.033211         0.9037
  31   0.0000       0.037055         1.0083
  32   0.0000       0.049971         1.3598

MULLIKEN ATOMIC CHARGES
-----------------------
   0 F :   -0.816004
   1 B :    1.680533
   2 F :   -0.841482
   3 C :    0.769294
   4 O :   -0.824473
   5 O :   -0.884725
   6 C :   -0.634733
   7 H :    0.273869
   8 H :    0.386426
   9 H :    0.288661
  10 H :    0.366653
  11 H :    0.235981
Sum of atomic charges:   -0.0000000

LOEWDIN ATOMIC CHARGES
----------------------
   0 F :    0.841675
   1 B :   -1.745188
   2 F :    0.835236
   3 C :   -0.505848
   4 O :    0.853502
   5 O :    1.263745
   6 C :    0.581203
   7 H :   -0.309170
   8 H :   -0.322690
   9 H :   -0.315536
  10 H :   -0.804158
  11 H :   -0.372773

  Mayer bond orders larger than 0.100000
B(  0-F ,  1-B ) :   0.3070 B(  1-B ,  2-F ) :   0.3261 B(  1-B ,  3-C ) :   0.8960
B(  3-C ,  4-O ) :   0.6660 B(  3-C ,  5-O ) :   0.5574 B(  3-C , 11-H ) :   0.9316
B(  4-O ,  6-C ) :   0.9286 B(  5-O , 10-H ) :   0.8461 B(  6-C ,  7-H ) :   0.9006
B(  6-C ,  8-H ) :   0.8689 B(  6-C ,  9-H ) :   0.9115

MP2 TOTAL ENERGY:     -453.794423989 Eh
FINAL SINGLE POINT ENERGY      -453.794423988535

DIPOLE MOMENT
-------------
                                X             Y             Z
Electronic contribution:    -12.68508      -0.58099       0.93566
Nuclear contribution   :     13.24121       0.59409      -1.02156
                        -----------------------------------------
Total Dipole Moment    :      0.55613       0.01310      -0.08591
                        -----------------------------------------
Magnitude (a.u.)       :      0.56288
Magnitude (Debye)      :      1.43072

Rotational constants in cm-1:     0.140274     0.057398     0.047630
Rotational constants in MHz :  4205.322441  1720.743380  1427.904025

                             ****ORCA TERMINATED NORMALLY****
TOTAL RUN TIME: 0 days 0 hours 52 minutes 41 seconds 789 msec
