                         Program Version 5.0.4 -  RELEASE  -
|  1> ! ri-mp2 aug-cc-pvdz aug-cc-pvdz/c tightscf
|  2> %pal nprocs 16 end
|  3> %maxcore 3800
|  4> %base "DZ_S-S_4_A"
|  5> %scf
|  6> STABPerform true
|  7> STABRestartUHFifUnstable true
|  8> end
|  9>
| 10> *xyz 0 2
| 11> S         2.292407   -0.521352    0.176238
| 12> C         0.810751    0.404418   -0.064074
| 13> O         0.877737    1.479139   -0.598105
| 14> C        -0.461114   -0.250007    0.376979
| 15> C        -2.576283   -0.275750   -0.051161
| 16> C        -1.334934   -0.851790   -0.758575
| 17> H        -1.276359   -1.927767   -0.904811
| 18> H        -1.137141   -0.348656   -1.703818
| 19> C        -1.647904    0.666588    0.739373
| 20> H        -3.050835   -1.014152    0.594104
| 21> H        -1.536241    1.634034    0.254013
| 22> H        -1.847586    0.813722    1.798377
| 23> H        -0.257182   -0.992005    1.149819
| 24> H        -3.338152    0.182584   -0.677892
| 25> *
| 26>
| 27> $new_job
| 28> ! ri-mp2 aug-cc-pvtz aug-cc-pvtz/c tightscf
| 29> %pal nprocs 16 end
| 30> %maxcore 3800
| 31> %base "TZ_S-S_4_A"
| 32>
| 33> *xyz 0 2
| 34> S         2.292407   -0.521352    0.176238
| 35> C         0.810751    0.404418   -0.064074
| 36> O         0.877737    1.479139   -0.598105
| 37> C        -0.461114   -0.250007    0.376979
| 38> C        -2.576283   -0.275750   -0.051161
| 39> C        -1.334934   -0.851790   -0.758575
| 40> H        -1.276359   -1.927767   -0.904811
| 41> H        -1.137141   -0.348656   -1.703818
| 42> C        -1.647904    0.666588    0.739373
| 43> H        -3.050835   -1.014152    0.594104
| 44> H        -1.536241    1.634034    0.254013
| 45> H        -1.847586    0.813722    1.798377
| 46> H        -0.257182   -0.992005    1.149819
| 47> H        -3.338152    0.182584   -0.677892
| 48> *
| 49>
| 50> $new_job
| 51> ! ri-mp2 aug-cc-pvqz aug-cc-pvqz/c tightscf
| 52> %pal nprocs 16 end
| 53> %maxcore 3800
| 54> %base "QZ_S-S_4_A"
| 55>
| 56> *xyz 0 2
| 57> S         2.292407   -0.521352    0.176238
| 58> C         0.810751    0.404418   -0.064074
| 59> O         0.877737    1.479139   -0.598105
| 60> C        -0.461114   -0.250007    0.376979
| 61> C        -2.576283   -0.275750   -0.051161
| 62> C        -1.334934   -0.851790   -0.758575
| 63> H        -1.276359   -1.927767   -0.904811
| 64> H        -1.137141   -0.348656   -1.703818
| 65> C        -1.647904    0.666588    0.739373
| 66> H        -3.050835   -1.014152    0.594104
| 67> H        -1.536241    1.634034    0.254013
| 68> H        -1.847586    0.813722    1.798377
| 69> H        -0.257182   -0.992005    1.149819
| 70> H        -3.338152    0.182584   -0.677892
| 71> *
| 72>
| 73>
| 74>
| 75>
| 76>                          ****END OF INPUT****
 Total Charge           Charge          ....    0
 Multiplicity           Mult            ....    2
 Number of Electrons    NEL             ....   61
MP2 TOTAL ENERGY:     -666.812500520 Eh
FINAL SINGLE POINT ENERGY      -666.812500520381
MP2 TOTAL ENERGY:     -667.095096604 Eh
FINAL SINGLE POINT ENERGY      -667.095096603801

CARTESIAN COORDINATES (ANGSTROEM)
---------------------------------
  S      2.292407   -0.521352    0.176238
  C      0.810751    0.404418   -0.064074
  O      0.877737    1.479139   -0.598105
  C     -0.461114   -0.250007    0.376979
  C     -2.576283   -0.275750   -0.051161
  C     -1.334934   -0.851790   -0.758575
  H     -1.276359   -1.927767   -0.904811
  H     -1.137141   -0.348656   -1.703818
  C     -1.647904    0.666588    0.739373
  H     -3.050835   -1.014152    0.594104
  H     -1.536241    1.634034    0.254013
  H     -1.847586    0.813722    1.798377
  H     -0.257182   -0.992005    1.149819
  H     -3.338152    0.182584   -0.677892

 Multiplicity           Mult            ....    2
 Number of Electrons    NEL             ....   61
 Basis Dimension        Dim             ....  886

ORBITAL ENERGIES
----------------
                 SPIN UP ORBITALS
  NO   OCC          E(Eh)            E(eV)
   0   1.0000     -91.997450     -2503.3779
   1   1.0000     -20.558745      -559.4319
   2   1.0000     -11.364832      -309.2528
   3   1.0000     -11.254382      -306.2473
   4   1.0000     -11.241452      -305.8955
   5   1.0000     -11.233760      -305.6862
   6   1.0000     -11.232377      -305.6485
   7   1.0000      -9.000519      -244.9166
   8   1.0000      -6.696579      -182.2232
   9   1.0000      -6.677510      -181.7043
  10   1.0000      -6.676433      -181.6750
  11   1.0000      -1.413445       -38.4618
  12   1.0000      -1.157865       -31.5071
  13   1.0000      -1.047840       -28.5132
  14   1.0000      -0.943098       -25.6630
  15   1.0000      -0.917454       -24.9652
  16   1.0000      -0.796202       -21.6658
  17   1.0000      -0.740316       -20.1450
  18   1.0000      -0.681673       -18.5493
  19   1.0000      -0.673308       -18.3216
  20   1.0000      -0.622024       -16.9261
  21   1.0000      -0.590186       -16.0598
  22   1.0000      -0.574246       -15.6260
  23   1.0000      -0.556558       -15.1447
  24   1.0000      -0.511228       -13.9112
  25   1.0000      -0.497812       -13.5461
  26   1.0000      -0.478368       -13.0171
  27   1.0000      -0.456610       -12.4250
  28   1.0000      -0.451605       -12.2888
  29   1.0000      -0.412799       -11.2328
  30   1.0000      -0.405071       -11.0225
  31   0.0000       0.023175         0.6306
  32   0.0000       0.031424         0.8551
  33   0.0000       0.032501         0.8844
  34   0.0000       0.038054         1.0355
  35   0.0000       0.048850         1.3293

                 SPIN DOWN ORBITALS
  NO   OCC          E(Eh)            E(eV)
   0   1.0000     -91.988058     -2503.1223
   1   1.0000     -20.557743      -559.4046
   2   1.0000     -11.365642      -309.2748
   3   1.0000     -11.254098      -306.2396
   4   1.0000     -11.241463      -305.8958
   5   1.0000     -11.233563      -305.6808
   6   1.0000     -11.232368      -305.6483
   7   1.0000      -8.990151      -244.6345
   8   1.0000      -6.672570      -181.5699
   9   1.0000      -6.670732      -181.5198
  10   1.0000      -6.654320      -181.0732
  11   1.0000      -1.409979       -38.3675
  12   1.0000      -1.156896       -31.4807
  13   1.0000      -1.003103       -27.2958
  14   1.0000      -0.918994       -25.0071
  15   1.0000      -0.911271       -24.7970
  16   1.0000      -0.785821       -21.3833
  17   1.0000      -0.735863       -20.0239
  18   1.0000      -0.672728       -18.3059
  19   1.0000      -0.669641       -18.2218
  20   1.0000      -0.608745       -16.5648
  21   1.0000      -0.588882       -16.0243
  22   1.0000      -0.570018       -15.5110
  23   1.0000      -0.556360       -15.1393
  24   1.0000      -0.499684       -13.5971
  25   1.0000      -0.492575       -13.4036
  26   1.0000      -0.471749       -12.8369
  27   1.0000      -0.456413       -12.4196
  28   1.0000      -0.405161       -11.0250
  29   1.0000      -0.385392       -10.4871
  30   0.0000       0.000073         0.0020
  31   0.0000       0.023782         0.6472
  32   0.0000       0.031878         0.8674
  33   0.0000       0.033187         0.9031
  34   0.0000       0.038370         1.0441

MULLIKEN ATOMIC CHARGES AND SPIN POPULATIONS
--------------------------------------------
   0 S :   -0.043593    1.141556
   1 C :    0.400091   -0.154595
   2 O :   -0.793195    0.003728
   3 C :    0.009428    0.013235
   4 C :   -0.568951   -0.000650
   5 C :   -0.623025    0.001285
   6 H :    0.332127    0.001917
   7 H :    0.264283    0.000604
   8 C :   -0.553107    0.004194
   9 H :    0.241846    0.000031
  10 H :    0.266974   -0.000238
  11 H :    0.350373   -0.000735
  12 H :    0.392219   -0.010639
  13 H :    0.324531    0.000309
Sum of atomic charges         :   -0.0000000

LOEWDIN ATOMIC CHARGES AND SPIN POPULATIONS
-------------------------------------------
   0 S :    1.060619    0.738834
   1 C :   -1.325672    0.189090
   2 O :    0.603224    0.022239
   3 C :   -0.072280    0.024658
   4 C :    0.563114    0.000548
   5 C :    0.534268    0.001563
   6 H :   -0.246932    0.000050
   7 H :   -0.272176   -0.000039
   8 C :    0.534692    0.002611
   9 H :   -0.266528    0.000070
  10 H :   -0.292798    0.000624
  11 H :   -0.244524    0.000295
  12 H :   -0.323191    0.019342
  13 H :   -0.251815    0.000115

  Mayer bond orders larger than 0.100000
B(  0-S ,  1-C ) :   1.0271 B(  0-S ,  3-C ) :  -0.2001 B(  1-C ,  2-O ) :   1.3571
B(  1-C ,  3-C ) :   0.6953 B(  2-O ,  3-C ) :   0.1206 B(  3-C ,  5-C ) :   0.9353
B(  3-C ,  8-C ) :   0.9051 B(  3-C , 12-H ) :   0.8221 B(  4-C ,  5-C ) :   1.0327
B(  4-C ,  8-C ) :   1.0721 B(  4-C ,  9-H ) :   0.9147 B(  4-C , 13-H ) :   0.8562
B(  5-C ,  6-H ) :   0.8350 B(  5-C ,  7-H ) :   0.9094 B(  8-C , 10-H ) :   0.9126
B(  8-C , 11-H ) :   0.8283

MP2 TOTAL ENERGY:     -667.185858370 Eh
FINAL SINGLE POINT ENERGY      -667.185858370248

DIPOLE MOMENT
-------------
                                X             Y             Z
Electronic contribution:     11.70695       0.72038      -0.05969
Nuclear contribution   :    -12.43445      -1.60433       0.49231
                        -----------------------------------------
Total Dipole Moment    :     -0.72751      -0.88395       0.43262
                        -----------------------------------------
Magnitude (a.u.)       :      1.22384
Magnitude (Debye)      :      3.11076

Rotational constants in cm-1:     0.165493     0.043879     0.039768
Rotational constants in MHz :  4961.364466  1315.447098  1192.205876

                             ****ORCA TERMINATED NORMALLY****
TOTAL RUN TIME: 0 days 3 hours 34 minutes 14 seconds 695 msec
