                         Program Version 5.0.4 -  RELEASE  -
|  1> ! ri-mp2 aug-cc-pvdz aug-cc-pvdz/c tightscf
|  2> %pal nprocs 16 end
|  3> %maxcore 3800
|  4> %base "DZ_S-F_38_AB"
|  5> %scf
|  6> STABPerform true
|  7> STABRestartUHFifUnstable true
|  8> end
|  9>
| 10> *xyz 0 1
| 11> F        -1.062081    1.024239    0.000000
| 12> S        -0.770407   -0.562988    0.000000
| 13> C         0.956021   -0.561043    0.000000
| 14> C         1.766075    0.483836    0.000000
| 15> H         1.326483   -1.582358   -0.000001
| 16> H         1.389844    1.496320    0.000001
| 17> H         2.836331    0.338938    0.000000
| 18> *
| 19>
| 20> $new_job
| 21> ! ri-mp2 aug-cc-pvtz aug-cc-pvtz/c tightscf
| 22> %pal nprocs 16 end
| 23> %maxcore 3800
| 24> %base "TZ_S-F_38_AB"
| 25>
| 26> *xyz 0 1
| 27> F        -1.062081    1.024239    0.000000
| 28> S        -0.770407   -0.562988    0.000000
| 29> C         0.956021   -0.561043    0.000000
| 30> C         1.766075    0.483836    0.000000
| 31> H         1.326483   -1.582358   -0.000001
| 32> H         1.389844    1.496320    0.000001
| 33> H         2.836331    0.338938    0.000000
| 34> *
| 35>
| 36> $new_job
| 37> ! ri-mp2 aug-cc-pvqz aug-cc-pvqz/c tightscf
| 38> %pal nprocs 16 end
| 39> %maxcore 3800
| 40> %base "QZ_S-F_38_AB"
| 41>
| 42> *xyz 0 1
| 43> F        -1.062081    1.024239    0.000000
| 44> S        -0.770407   -0.562988    0.000000
| 45> C         0.956021   -0.561043    0.000000
| 46> C         1.766075    0.483836    0.000000
| 47> H         1.326483   -1.582358   -0.000001
| 48> H         1.389844    1.496320    0.000001
| 49> H         2.836331    0.338938    0.000000
| 50> *
| 51>
| 52>
| 53>
| 54>
| 55>                          ****END OF INPUT****
 Total Charge           Charge          ....    0
 Multiplicity           Mult            ....    1
 Number of Electrons    NEL             ....   40
MP2 TOTAL ENERGY:     -575.031972525 Eh
FINAL SINGLE POINT ENERGY      -575.031972524582
MP2 TOTAL ENERGY:     -575.241481385 Eh
FINAL SINGLE POINT ENERGY      -575.241481384690

CARTESIAN COORDINATES (ANGSTROEM)
---------------------------------
  F     -1.062081    1.024239    0.000000
  S     -0.770407   -0.562988    0.000000
  C      0.956021   -0.561043    0.000000
  C      1.766075    0.483836    0.000000
  H      1.326483   -1.582358   -0.000001
  H      1.389844    1.496320    0.000001
  H      2.836331    0.338938    0.000000

 Multiplicity           Mult            ....    1
 Number of Electrons    NEL             ....   40
 Basis Dimension        Dim             ....  462

ORBITAL ENERGIES
----------------

  NO   OCC          E(Eh)            E(eV)
   0   2.0000     -92.042472     -2504.6030
   1   2.0000     -26.316867      -716.1183
   2   2.0000     -11.280255      -306.9514
   3   2.0000     -11.239739      -305.8489
   4   2.0000      -9.037027      -245.9100
   5   2.0000      -6.718816      -182.8283
   6   2.0000      -6.716666      -182.7698
   7   2.0000      -6.715508      -182.7382
   8   2.0000      -1.618230       -44.0343
   9   2.0000      -1.100786       -29.9539
  10   2.0000      -0.963962       -26.2308
  11   2.0000      -0.798881       -21.7387
  12   2.0000      -0.714700       -19.4480
  13   2.0000      -0.698824       -19.0160
  14   2.0000      -0.672141       -18.2899
  15   2.0000      -0.636065       -17.3082
  16   2.0000      -0.566966       -15.4279
  17   2.0000      -0.494776       -13.4635
  18   2.0000      -0.468427       -12.7466
  19   2.0000      -0.336653        -9.1608
  20   0.0000       0.025669         0.6985
  21   0.0000       0.033602         0.9143
  22   0.0000       0.043041         1.1712
  23   0.0000       0.059564         1.6208
  24   0.0000       0.070175         1.9095

MULLIKEN ATOMIC CHARGES
-----------------------
   0 F :   -0.621962
   1 S :    0.731031
   2 C :   -0.540987
   3 C :   -0.826435
   4 H :    0.458340
   5 H :    0.431249
   6 H :    0.368764
Sum of atomic charges:    0.0000000

LOEWDIN ATOMIC CHARGES
----------------------
   0 F :    0.103757
   1 S :    0.687319
   2 C :   -0.192853
   3 C :    0.647379
   4 H :   -0.468787
   5 H :   -0.403436
   6 H :   -0.373379

  Mayer bond orders larger than 0.100000
B(  0-F ,  1-S ) :   0.5859 B(  1-S ,  2-C ) :   0.8946 B(  2-C ,  3-C ) :   1.7557
B(  2-C ,  4-H ) :   0.7757 B(  3-C ,  5-H ) :   0.7884 B(  3-C ,  6-H ) :   0.9175

MP2 TOTAL ENERGY:     -575.309859649 Eh
FINAL SINGLE POINT ENERGY      -575.309859648590

DIPOLE MOMENT
-------------
                                X             Y             Z
Electronic contribution:     -5.81487       0.25854       0.00000
Nuclear contribution   :      6.37245      -0.71296       0.00000
                        -----------------------------------------
Total Dipole Moment    :      0.55758      -0.45442       0.00000
                        -----------------------------------------
Magnitude (a.u.)       :      0.71930
Magnitude (Debye)      :      1.82832

Rotational constants in cm-1:     0.406107     0.168178     0.118927
Rotational constants in MHz : 12174.767448  5041.843961  3565.351873

                             ****ORCA TERMINATED NORMALLY****
TOTAL RUN TIME: 0 days 0 hours 6 minutes 37 seconds 13 msec
