                         Program Version 5.0.4 -  RELEASE  -
|  1> ! ri-mp2 aug-cc-pvdz aug-cc-pvdz/c tightscf
|  2> %pal nprocs 16 end
|  3> %maxcore 3800
|  4> %base "DZ_Si-Si_101_AB"
|  5>
|  6> *xyz 0 1
|  7> Si         1.810439   -0.814767   -0.000002
|  8> Si         0.509743    1.127957    0.000002
|  9> H         3.231208   -0.396411    0.000000
| 10> H         1.546140   -1.621090   -1.209444
| 11> O        -1.144701    0.748491    0.000008
| 12> H         0.745323    1.954283   -1.201191
| 13> H         0.745331    1.954284    1.201192
| 14> N        -1.464642   -0.616860    0.000002
| 15> O        -2.610823   -0.790568   -0.000010
| 16> H         1.546139   -1.621091    1.209440
| 17> *
| 18>
| 19> $new_job
| 20> ! ri-mp2 aug-cc-pvtz aug-cc-pvtz/c tightscf
| 21> %pal nprocs 16 end
| 22> %maxcore 3800
| 23> %base "TZ_Si-Si_101_AB"
| 24>
| 25> *xyz 0 1
| 26> Si         1.810439   -0.814767   -0.000002
| 27> Si         0.509743    1.127957    0.000002
| 28> H         3.231208   -0.396411    0.000000
| 29> H         1.546140   -1.621090   -1.209444
| 30> O        -1.144701    0.748491    0.000008
| 31> H         0.745323    1.954283   -1.201191
| 32> H         0.745331    1.954284    1.201192
| 33> N        -1.464642   -0.616860    0.000002
| 34> O        -2.610823   -0.790568   -0.000010
| 35> H         1.546139   -1.621091    1.209440
| 36> *
| 37>
| 38> $new_job
| 39> ! ri-mp2 aug-cc-pvqz aug-cc-pvqz/c tightscf
| 40> %pal nprocs 16 end
| 41> %maxcore 3800
| 42> %base "QZ_Si-Si_101_AB"
| 43>
| 44> *xyz 0 1
| 45> Si         1.810439   -0.814767   -0.000002
| 46> Si         0.509743    1.127957    0.000002
| 47> H         3.231208   -0.396411    0.000000
| 48> H         1.546140   -1.621090   -1.209444
| 49> O        -1.144701    0.748491    0.000008
| 50> H         0.745323    1.954283   -1.201191
| 51> H         0.745331    1.954284    1.201192
| 52> N        -1.464642   -0.616860    0.000002
| 53> O        -2.610823   -0.790568   -0.000010
| 54> H         1.546139   -1.621091    1.209440
| 55> *
| 56>
| 57>
| 58>
| 59>
| 60>                          ****END OF INPUT****
 Total Charge           Charge          ....    0
 Multiplicity           Mult            ....    1
 Number of Electrons    NEL             ....   56
MP2 TOTAL ENERGY:     -785.671523883 Eh
FINAL SINGLE POINT ENERGY      -785.671523882943
MP2 TOTAL ENERGY:     -785.915929131 Eh
FINAL SINGLE POINT ENERGY      -785.915929130724

CARTESIAN COORDINATES (ANGSTROEM)
---------------------------------
  Si     1.810439   -0.814767   -0.000002
  Si     0.509743    1.127957    0.000002
  H      3.231208   -0.396411    0.000000
  H      1.546140   -1.621090   -1.209444
  O     -1.144701    0.748491    0.000008
  H      0.745323    1.954283   -1.201191
  H      0.745331    1.954284    1.201192
  N     -1.464642   -0.616860    0.000002
  O     -2.610823   -0.790568   -0.000010
  H      1.546139   -1.621091    1.209440

 Multiplicity           Mult            ....    1
 Number of Electrons    NEL             ....   56
 Basis Dimension        Dim             ....  638

ORBITAL ENERGIES
----------------

  NO   OCC          E(Eh)            E(eV)
   0   2.0000     -68.810358     -1872.4250
   1   2.0000     -68.779535     -1871.5863
   2   2.0000     -20.657855      -562.1288
   3   2.0000     -20.611921      -560.8789
   4   2.0000     -15.791969      -429.7213
   5   2.0000      -6.156572      -167.5288
   6   2.0000      -6.130556      -166.8209
   7   2.0000      -4.263320      -116.0108
   8   2.0000      -4.262753      -115.9954
   9   2.0000      -4.262560      -115.9902
  10   2.0000      -4.236740      -115.2876
  11   2.0000      -4.236619      -115.2843
  12   2.0000      -4.236549      -115.2824
  13   2.0000      -1.613526       -43.9063
  14   2.0000      -1.384276       -37.6681
  15   2.0000      -0.944950       -25.7134
  16   2.0000      -0.800599       -21.7854
  17   2.0000      -0.749272       -20.3887
  18   2.0000      -0.728113       -19.8130
  19   2.0000      -0.691763       -18.8238
  20   2.0000      -0.660332       -17.9685
  21   2.0000      -0.563817       -15.3422
  22   2.0000      -0.553554       -15.0630
  23   2.0000      -0.500653       -13.6234
  24   2.0000      -0.498099       -13.5540
  25   2.0000      -0.472019       -12.8443
  26   2.0000      -0.456860       -12.4318
  27   2.0000      -0.418878       -11.3983
  28   0.0000       0.024816         0.6753
  29   0.0000       0.029816         0.8113
  30   0.0000       0.039018         1.0617
  31   0.0000       0.041324         1.1245
  32   0.0000       0.049230         1.3396

MULLIKEN ATOMIC CHARGES
-----------------------
   0 Si:    0.430865
   1 Si:    1.076254
   2 H :   -0.218677
   3 H :   -0.137424
   4 O :   -0.754596
   5 H :   -0.193134
   6 H :   -0.193134
   7 N :    0.575000
   8 O :   -0.447729
   9 H :   -0.137424
Sum of atomic charges:    0.0000000

LOEWDIN ATOMIC CHARGES
----------------------
   0 Si:    1.012343
   1 Si:    0.344494
   2 H :   -0.321475
   3 H :   -0.312871
   4 O :    0.286580
   5 H :   -0.292948
   6 H :   -0.292949
   7 N :   -0.485837
   8 O :    0.375534
   9 H :   -0.312871

  Mayer bond orders larger than 0.100000
B(  0-Si,  1-Si) :   0.8180 B(  0-Si,  2-H ) :   0.7914 B(  0-Si,  3-H ) :   0.8057
B(  0-Si,  9-H ) :   0.8057 B(  1-Si,  4-O ) :   0.4089 B(  1-Si,  5-H ) :   0.8765
B(  1-Si,  6-H ) :   0.8765 B(  4-O ,  7-N ) :   0.9952 B(  7-N ,  8-O ) :   1.7394

MP2 TOTAL ENERGY:     -785.997594175 Eh
FINAL SINGLE POINT ENERGY      -785.997594175141

DIPOLE MOMENT
-------------
                                X             Y             Z
Electronic contribution:     -6.63143      -0.14620       0.00000
Nuclear contribution   :      7.46043       0.24197      -0.00000
                        -----------------------------------------
Total Dipole Moment    :      0.82900       0.09577      -0.00000
                        -----------------------------------------
Magnitude (a.u.)       :      0.83452
Magnitude (Debye)      :      2.12117

Rotational constants in cm-1:     0.172676     0.059934     0.045911
Rotational constants in MHz :  5176.705697  1796.786593  1376.385332

                             ****ORCA TERMINATED NORMALLY****
TOTAL RUN TIME: 0 days 0 hours 6 minutes 3 seconds 965 msec
