                         Program Version 5.0.4 -  RELEASE  -
|  1> ! ri-mp2 aug-cc-pvdz aug-cc-pvdz/c tightscf
|  2> %pal nprocs 16 end
|  3> %maxcore 3800
|  4> %base "DZ_P-S_25_AB"
|  5> %scf
|  6> STABPerform true
|  7> STABRestartUHFifUnstable true
|  8> end
|  9>
| 10> *xyz 0 1
| 11> C         1.601628   -0.963496    0.562300
| 12> S         0.183049   -1.225363   -0.560139
| 13> P        -1.161208    0.182959    0.151740
| 14> O        -0.903304    0.599312    1.529475
| 15> O        -2.558013   -0.492557   -0.182735
| 16> C         2.697028   -0.076456   -0.004488
| 17> H         1.980833   -1.965841    0.755362
| 18> H         1.200994   -0.566343    1.492874
| 19> C         2.276653    1.366567   -0.227049
| 20> H         3.065336   -0.504941   -0.939207
| 21> H         3.531649   -0.110218    0.701551
| 22> H         1.511647    1.435264   -1.000746
| 23> H         3.124214    1.971928   -0.547605
| 24> H         1.876121    1.802462    0.689901
| 25> O        -1.232201    1.386922   -0.880631
| 26> H        -1.015618    2.222593   -0.450993
| 27> H        -2.689552   -1.332597    0.271534
| 28> *
| 29>
| 30> $new_job
| 31> ! ri-mp2 aug-cc-pvtz aug-cc-pvtz/c tightscf
| 32> %pal nprocs 16 end
| 33> %maxcore 3800
| 34> %base "TZ_P-S_25_AB"
| 35>
| 36> *xyz 0 1
| 37> C         1.601628   -0.963496    0.562300
| 38> S         0.183049   -1.225363   -0.560139
| 39> P        -1.161208    0.182959    0.151740
| 40> O        -0.903304    0.599312    1.529475
| 41> O        -2.558013   -0.492557   -0.182735
| 42> C         2.697028   -0.076456   -0.004488
| 43> H         1.980833   -1.965841    0.755362
| 44> H         1.200994   -0.566343    1.492874
| 45> C         2.276653    1.366567   -0.227049
| 46> H         3.065336   -0.504941   -0.939207
| 47> H         3.531649   -0.110218    0.701551
| 48> H         1.511647    1.435264   -1.000746
| 49> H         3.124214    1.971928   -0.547605
| 50> H         1.876121    1.802462    0.689901
| 51> O        -1.232201    1.386922   -0.880631
| 52> H        -1.015618    2.222593   -0.450993
| 53> H        -2.689552   -1.332597    0.271534
| 54> *
| 55>
| 56> $new_job
| 57> ! ri-mp2 aug-cc-pvqz aug-cc-pvqz/c tightscf
| 58> %pal nprocs 16 end
| 59> %maxcore 3800
| 60> %base "QZ_P-S_25_AB"
| 61>
| 62> *xyz 0 1
| 63> C         1.601628   -0.963496    0.562300
| 64> S         0.183049   -1.225363   -0.560139
| 65> P        -1.161208    0.182959    0.151740
| 66> O        -0.903304    0.599312    1.529475
| 67> O        -2.558013   -0.492557   -0.182735
| 68> C         2.697028   -0.076456   -0.004488
| 69> H         1.980833   -1.965841    0.755362
| 70> H         1.200994   -0.566343    1.492874
| 71> C         2.276653    1.366567   -0.227049
| 72> H         3.065336   -0.504941   -0.939207
| 73> H         3.531649   -0.110218    0.701551
| 74> H         1.511647    1.435264   -1.000746
| 75> H         3.124214    1.971928   -0.547605
| 76> H         1.876121    1.802462    0.689901
| 77> O        -1.232201    1.386922   -0.880631
| 78> H        -1.015618    2.222593   -0.450993
| 79> H        -2.689552   -1.332597    0.271534
| 80> *
| 81>
| 82>
| 83>
| 84>
| 85>                          ****END OF INPUT****
 Total Charge           Charge          ....    0
 Multiplicity           Mult            ....    1
 Number of Electrons    NEL             ....   82
MP2 TOTAL ENERGY:    -1083.159553424 Eh
FINAL SINGLE POINT ENERGY     -1083.159553424241
MP2 TOTAL ENERGY:    -1083.595932179 Eh
FINAL SINGLE POINT ENERGY     -1083.595932178840

CARTESIAN COORDINATES (ANGSTROEM)
---------------------------------
  C      1.601628   -0.963496    0.562300
  S      0.183049   -1.225363   -0.560139
  P     -1.161208    0.182959    0.151740
  O     -0.903304    0.599312    1.529475
  O     -2.558013   -0.492557   -0.182735
  C      2.697028   -0.076456   -0.004488
  H      1.980833   -1.965841    0.755362
  H      1.200994   -0.566343    1.492874
  C      2.276653    1.366567   -0.227049
  H      3.065336   -0.504941   -0.939207
  H      3.531649   -0.110218    0.701551
  H      1.511647    1.435264   -1.000746
  H      3.124214    1.971928   -0.547605
  H      1.876121    1.802462    0.689901
  O     -1.232201    1.386922   -0.880631
  H     -1.015618    2.222593   -0.450993
  H     -2.689552   -1.332597    0.271534

 Multiplicity           Mult            ....    1
 Number of Electrons    NEL             ....   82
 Basis Dimension        Dim             .... 1062

ORBITAL ENERGIES
----------------

  NO   OCC          E(Eh)            E(eV)
   0   2.0000     -91.964279     -2502.4752
   1   2.0000     -80.089968     -2179.3588
   2   2.0000     -20.606960      -560.7439
   3   2.0000     -20.602387      -560.6195
   4   2.0000     -20.514693      -558.2332
   5   2.0000     -11.267514      -306.6046
   6   2.0000     -11.234584      -305.7086
   7   2.0000     -11.218031      -305.2582
   8   2.0000      -8.968434      -244.0435
   9   2.0000      -7.610182      -207.0836
  10   2.0000      -6.649837      -180.9513
  11   2.0000      -6.648967      -180.9276
  12   2.0000      -6.648289      -180.9091
  13   2.0000      -5.508479      -149.8933
  14   2.0000      -5.508061      -149.8820
  15   2.0000      -5.507217      -149.8590
  16   2.0000      -1.446639       -39.3651
  17   2.0000      -1.391100       -37.8538
  18   2.0000      -1.309329       -35.6287
  19   2.0000      -1.098673       -29.8964
  20   2.0000      -1.007739       -27.4220
  21   2.0000      -0.917637       -24.9702
  22   2.0000      -0.851402       -23.1678
  23   2.0000      -0.797442       -21.6995
  24   2.0000      -0.730807       -19.8863
  25   2.0000      -0.691070       -18.8050
  26   2.0000      -0.662714       -18.0334
  27   2.0000      -0.642503       -17.4834
  28   2.0000      -0.627335       -17.0706
  29   2.0000      -0.612100       -16.6561
  30   2.0000      -0.590198       -16.0601
  31   2.0000      -0.577412       -15.7122
  32   2.0000      -0.562826       -15.3153
  33   2.0000      -0.526685       -14.3318
  34   2.0000      -0.513356       -13.9691
  35   2.0000      -0.509953       -13.8765
  36   2.0000      -0.486692       -13.2436
  37   2.0000      -0.475226       -12.9316
  38   2.0000      -0.470309       -12.7978
  39   2.0000      -0.435371       -11.8471
  40   2.0000      -0.380836       -10.3631
  41   0.0000       0.023330         0.6348
  42   0.0000       0.028595         0.7781
  43   0.0000       0.031287         0.8514
  44   0.0000       0.038065         1.0358
  45   0.0000       0.041687         1.1344

MULLIKEN ATOMIC CHARGES
-----------------------
   0 C :   -0.483143
   1 S :   -0.254960
   2 P :    2.458230
   3 O :   -1.176604
   4 O :   -1.104388
   5 C :   -0.441362
   6 H :    0.342197
   7 H :    0.317347
   8 C :   -0.818580
   9 H :    0.249108
  10 H :    0.256480
  11 H :    0.296535
  12 H :    0.306054
  13 H :    0.199713
  14 O :   -0.962715
  15 H :    0.437610
  16 H :    0.378475
Sum of atomic charges:   -0.0000000

LOEWDIN ATOMIC CHARGES
----------------------
   0 C :    0.118030
   1 S :    1.229994
   2 P :   -1.065395
   3 O :    0.302001
   4 O :    1.049307
   5 C :    0.430819
   6 H :   -0.367604
   7 H :   -0.427207
   8 C :    0.888396
   9 H :   -0.291412
  10 H :   -0.278533
  11 H :   -0.330087
  12 H :   -0.276070
  13 H :   -0.286386
  14 O :    1.061391
  15 H :   -0.878282
  16 H :   -0.878961

  Mayer bond orders larger than 0.100000
B(  0-C ,  1-S ) :   0.9244 B(  0-C ,  3-O ) :  -0.1261 B(  0-C ,  5-C ) :   0.9553
B(  0-C ,  6-H ) :   0.8530 B(  0-C ,  7-H ) :   0.8650 B(  1-S ,  2-P ) :   1.0665
B(  2-P ,  3-O ) :   1.3322 B(  2-P ,  4-O ) :   0.3622 B(  2-P , 14-O ) :   0.5932
B(  4-O , 16-H ) :   0.8677 B(  5-C ,  8-C ) :   0.9711 B(  5-C ,  9-H ) :   0.8879
B(  5-C , 10-H ) :   0.8582 B(  8-C , 11-H ) :   0.9329 B(  8-C , 12-H ) :   0.9325
B(  8-C , 13-H ) :   0.9644 B( 14-O , 15-H ) :   0.8545

MP2 TOTAL ENERGY:    -1083.735223734 Eh
FINAL SINGLE POINT ENERGY     -1083.735223734298

DIPOLE MOMENT
-------------
                                X             Y             Z
Electronic contribution:    -12.76447      -3.09062      -0.98176
Nuclear contribution   :     13.42585       2.80061       0.84113
                        -----------------------------------------
Total Dipole Moment    :      0.66138      -0.29001      -0.14062
                        -----------------------------------------
Magnitude (a.u.)       :      0.73573
Magnitude (Debye)      :      1.87007

Rotational constants in cm-1:     0.078277     0.034592     0.030124
Rotational constants in MHz :  2346.698073  1037.041333   903.097064

                             ****ORCA TERMINATED NORMALLY****
TOTAL RUN TIME: 0 days 2 hours 47 minutes 26 seconds 130 msec
