                         Program Version 5.0.4 -  RELEASE  -
|  1> ! ri-mp2 aug-cc-pvdz aug-cc-pvdz/c tightscf
|  2> %pal nprocs 16 end
|  3> %maxcore 3800
|  4> %base "DZ_Si-F_6_AB"
|  5> %scf
|  6> STABPerform true
|  7> STABRestartUHFifUnstable true
|  8> end
|  9>
| 10> *xyz 0 1
| 11> Si        -0.478705    0.019285    0.324560
| 12> C         1.140173   -0.623101   -0.352159
| 13> F        -0.794633    1.433516   -0.314094
| 14> F        -1.618422   -0.983043   -0.139755
| 15> H         1.172448   -0.578670   -1.443132
| 16> H         1.321671   -1.657540   -0.050678
| 17> F         2.176934    0.166893    0.151488
| 18> H        -0.508194    0.148534    1.784160
| 19> *
| 20>
| 21> $new_job
| 22> ! ri-mp2 aug-cc-pvtz aug-cc-pvtz/c tightscf
| 23> %pal nprocs 16 end
| 24> %maxcore 3800
| 25> %base "TZ_Si-F_6_AB"
| 26>
| 27> *xyz 0 1
| 28> Si        -0.478705    0.019285    0.324560
| 29> C         1.140173   -0.623101   -0.352159
| 30> F        -0.794633    1.433516   -0.314094
| 31> F        -1.618422   -0.983043   -0.139755
| 32> H         1.172448   -0.578670   -1.443132
| 33> H         1.321671   -1.657540   -0.050678
| 34> F         2.176934    0.166893    0.151488
| 35> H        -0.508194    0.148534    1.784160
| 36> *
| 37>
| 38> $new_job
| 39> ! ri-mp2 aug-cc-pvqz aug-cc-pvqz/c tightscf
| 40> %pal nprocs 16 end
| 41> %maxcore 3800
| 42> %base "QZ_Si-F_6_AB"
| 43>
| 44> *xyz 0 1
| 45> Si        -0.478705    0.019285    0.324560
| 46> C         1.140173   -0.623101   -0.352159
| 47> F        -0.794633    1.433516   -0.314094
| 48> F        -1.618422   -0.983043   -0.139755
| 49> H         1.172448   -0.578670   -1.443132
| 50> H         1.321671   -1.657540   -0.050678
| 51> F         2.176934    0.166893    0.151488
| 52> H        -0.508194    0.148534    1.784160
| 53> *
| 54>
| 55>
| 56>
| 57>
| 58>                          ****END OF INPUT****
 Total Charge           Charge          ....    0
 Multiplicity           Mult            ....    1
 Number of Electrons    NEL             ....   50
MP2 TOTAL ENERGY:     -627.874248233 Eh
FINAL SINGLE POINT ENERGY      -627.874248232563
MP2 TOTAL ENERGY:     -628.209294376 Eh
FINAL SINGLE POINT ENERGY      -628.209294376000

CARTESIAN COORDINATES (ANGSTROEM)
---------------------------------
  Si    -0.478705    0.019285    0.324560
  C      1.140173   -0.623101   -0.352159
  F     -0.794633    1.433516   -0.314094
  F     -1.618422   -0.983043   -0.139755
  H      1.172448   -0.578670   -1.443132
  H      1.321671   -1.657540   -0.050678
  F      2.176934    0.166893    0.151488
  H     -0.508194    0.148534    1.784160

 Multiplicity           Mult            ....    1
 Number of Electrons    NEL             ....   50
 Basis Dimension        Dim             ....  542

ORBITAL ENERGIES
----------------

  NO   OCC          E(Eh)            E(eV)
   0   2.0000     -68.856191     -1873.6722
   1   2.0000     -26.307269      -715.8572
   2   2.0000     -26.303936      -715.7665
   3   2.0000     -26.295031      -715.5242
   4   2.0000     -11.314077      -307.8717
   5   2.0000      -6.196451      -168.6140
   6   2.0000      -4.304644      -117.1353
   7   2.0000      -4.303788      -117.1120
   8   2.0000      -4.302751      -117.0838
   9   2.0000      -1.620283       -44.0901
  10   2.0000      -1.602644       -43.6102
  11   2.0000      -1.600960       -43.5643
  12   2.0000      -0.971214       -26.4281
  13   2.0000      -0.805741       -21.9253
  14   2.0000      -0.733986       -19.9728
  15   2.0000      -0.721163       -19.6238
  16   2.0000      -0.717118       -19.5138
  17   2.0000      -0.704476       -19.1698
  18   2.0000      -0.699468       -19.0335
  19   2.0000      -0.674219       -18.3464
  20   2.0000      -0.667990       -18.1769
  21   2.0000      -0.657480       -17.8909
  22   2.0000      -0.574455       -15.6317
  23   2.0000      -0.549984       -14.9658
  24   2.0000      -0.479208       -13.0399
  25   0.0000       0.024744         0.6733
  26   0.0000       0.035407         0.9635
  27   0.0000       0.036797         1.0013
  28   0.0000       0.042274         1.1503
  29   0.0000       0.056725         1.5436

MULLIKEN ATOMIC CHARGES
-----------------------
   0 Si:    1.864174
   1 C :   -0.151945
   2 F :   -0.688306
   3 F :   -0.694057
   4 H :    0.267903
   5 H :    0.262153
   6 F :   -0.647190
   7 H :   -0.212731
Sum of atomic charges:    0.0000000

LOEWDIN ATOMIC CHARGES
----------------------
   0 Si:   -0.458607
   1 C :   -0.027932
   2 F :    0.433048
   3 F :    0.429131
   4 H :   -0.405016
   5 H :   -0.409390
   6 F :    0.686511
   7 H :   -0.247746

  Mayer bond orders larger than 0.100000
B(  0-Si,  1-C ) :   0.8978 B(  0-Si,  2-F ) :   0.4407 B(  0-Si,  3-F ) :   0.4331
B(  0-Si,  7-H ) :   0.9353 B(  1-C ,  4-H ) :   0.9171 B(  1-C ,  5-H ) :   0.9017
B(  1-C ,  6-F ) :   0.5285

MP2 TOTAL ENERGY:     -628.319983697 Eh
FINAL SINGLE POINT ENERGY      -628.319983697332

DIPOLE MOMENT
-------------
                                X             Y             Z
Electronic contribution:     -2.04641       1.91438      -0.47171
Nuclear contribution   :      2.10869      -2.53113       0.53394
                        -----------------------------------------
Total Dipole Moment    :      0.06229      -0.61675       0.06223
                        -----------------------------------------
Magnitude (a.u.)       :      0.62300
Magnitude (Debye)      :      1.58354

Rotational constants in cm-1:     0.216403     0.088857     0.069381
Rotational constants in MHz :  6487.590349  2663.867102  2079.998684

                             ****ORCA TERMINATED NORMALLY****
TOTAL RUN TIME: 0 days 0 hours 12 minutes 36 seconds 901 msec
