                         Program Version 5.0.4 -  RELEASE  -
|  1> ! ri-mp2 aug-cc-pvdz aug-cc-pvdz/c tightscf
|  2> %pal nprocs 16 end
|  3> %maxcore 3800
|  4> %base "DZ_B-P_38_A"
|  5> %scf
|  6> STABPerform true
|  7> STABRestartUHFifUnstable true
|  8> end
|  9>
| 10> *xyz 0 2
| 11> C         0.218062   -0.062369    0.546150
| 12> C         1.334183    0.744798   -0.063529
| 13> C         1.317805   -0.727075   -0.261542
| 14> H         1.059941   -1.108375   -1.239663
| 15> H         2.026497   -1.333548    0.284687
| 16> H         2.065766    1.168782    0.609696
| 17> H         1.088836    1.372500   -0.910128
| 18> P        -1.442293    0.072121   -0.167545
| 19> H         0.277017   -0.220315    1.614415
| 20> H        -2.103967   -0.692977    0.827695
| 21> *
| 22>
| 23> $new_job
| 24> ! ri-mp2 aug-cc-pvtz aug-cc-pvtz/c tightscf
| 25> %pal nprocs 16 end
| 26> %maxcore 3800
| 27> %base "TZ_B-P_38_A"
| 28>
| 29> *xyz 0 2
| 30> C         0.218062   -0.062369    0.546150
| 31> C         1.334183    0.744798   -0.063529
| 32> C         1.317805   -0.727075   -0.261542
| 33> H         1.059941   -1.108375   -1.239663
| 34> H         2.026497   -1.333548    0.284687
| 35> H         2.065766    1.168782    0.609696
| 36> H         1.088836    1.372500   -0.910128
| 37> P        -1.442293    0.072121   -0.167545
| 38> H         0.277017   -0.220315    1.614415
| 39> H        -2.103967   -0.692977    0.827695
| 40> *
| 41>
| 42> $new_job
| 43> ! ri-mp2 aug-cc-pvqz aug-cc-pvqz/c tightscf
| 44> %pal nprocs 16 end
| 45> %maxcore 3800
| 46> %base "QZ_B-P_38_A"
| 47>
| 48> *xyz 0 2
| 49> C         0.218062   -0.062369    0.546150
| 50> C         1.334183    0.744798   -0.063529
| 51> C         1.317805   -0.727075   -0.261542
| 52> H         1.059941   -1.108375   -1.239663
| 53> H         2.026497   -1.333548    0.284687
| 54> H         2.065766    1.168782    0.609696
| 55> H         1.088836    1.372500   -0.910128
| 56> P        -1.442293    0.072121   -0.167545
| 57> H         0.277017   -0.220315    1.614415
| 58> H        -2.103967   -0.692977    0.827695
| 59> *
| 60>
| 61>
| 62>
| 63>
| 64>                          ****END OF INPUT****
 Total Charge           Charge          ....    0
 Multiplicity           Mult            ....    2
 Number of Electrons    NEL             ....   39
MP2 TOTAL ENERGY:     -458.326252499 Eh
FINAL SINGLE POINT ENERGY      -458.326252498616
MP2 TOTAL ENERGY:     -458.476263510 Eh
FINAL SINGLE POINT ENERGY      -458.476263509793

CARTESIAN COORDINATES (ANGSTROEM)
---------------------------------
  C      0.218062   -0.062369    0.546150
  C      1.334183    0.744798   -0.063529
  C      1.317805   -0.727075   -0.261542
  H      1.059941   -1.108375   -1.239663
  H      2.026497   -1.333548    0.284687
  H      2.065766    1.168782    0.609696
  H      1.088836    1.372500   -0.910128
  P     -1.442293    0.072121   -0.167545
  H      0.277017   -0.220315    1.614415
  H     -2.103967   -0.692977    0.827695

 Multiplicity           Mult            ....    2
 Number of Electrons    NEL             ....   39
 Basis Dimension        Dim             ....  600

ORBITAL ENERGIES
----------------
                 SPIN UP ORBITALS
  NO   OCC          E(Eh)            E(eV)
   0   1.0000     -79.941844     -2175.3282
   1   1.0000     -11.238180      -305.8064
   2   1.0000     -11.237296      -305.7824
   3   1.0000     -11.234776      -305.7138
   4   1.0000      -7.485077      -203.6793
   5   1.0000      -5.389778      -146.6633
   6   1.0000      -5.375975      -146.2877
   7   1.0000      -5.374278      -146.2416
   8   1.0000      -1.153721       -31.3943
   9   1.0000      -0.891258       -24.2524
  10   1.0000      -0.833666       -22.6852
  11   1.0000      -0.758785       -20.6476
  12   1.0000      -0.674295       -18.3485
  13   1.0000      -0.612923       -16.6785
  14   1.0000      -0.526411       -14.3244
  15   1.0000      -0.513061       -13.9611
  16   1.0000      -0.462655       -12.5895
  17   1.0000      -0.428605       -11.6629
  18   1.0000      -0.398941       -10.8557
  19   1.0000      -0.331689        -9.0257
  20   0.0000       0.025580         0.6961
  21   0.0000       0.034862         0.9486
  22   0.0000       0.036294         0.9876
  23   0.0000       0.038286         1.0418
  24   0.0000       0.052898         1.4394

                 SPIN DOWN ORBITALS
  NO   OCC          E(Eh)            E(eV)
   0   1.0000     -79.934969     -2175.1411
   1   1.0000     -11.239476      -305.8417
   2   1.0000     -11.235322      -305.7287
   3   1.0000     -11.234220      -305.6987
   4   1.0000      -7.476614      -203.4490
   5   1.0000      -5.371389      -146.1629
   6   1.0000      -5.371071      -146.1543
   7   1.0000      -5.357319      -145.7801
   8   1.0000      -1.148904       -31.2633
   9   1.0000      -0.862909       -23.4810
  10   1.0000      -0.828833       -22.5537
  11   1.0000      -0.730601       -19.8807
  12   1.0000      -0.669000       -18.2044
  13   1.0000      -0.606245       -16.4968
  14   1.0000      -0.524383       -14.2692
  15   1.0000      -0.509346       -13.8600
  16   1.0000      -0.436260       -11.8712
  17   1.0000      -0.423990       -11.5374
  18   1.0000      -0.378606       -10.3024
  19   0.0000       0.025852         0.7035
  20   0.0000       0.029745         0.8094
  21   0.0000       0.034951         0.9511
  22   0.0000       0.038482         1.0472
  23   0.0000       0.046335         1.2608

MULLIKEN ATOMIC CHARGES AND SPIN POPULATIONS
--------------------------------------------
   0 C :   -0.659739   -0.130176
   1 C :   -0.670861    0.013984
   2 C :   -0.678356    0.056473
   3 H :    0.368076   -0.010975
   4 H :    0.381337    0.001359
   5 H :    0.401661   -0.000196
   6 H :    0.349112    0.002064
   7 P :    0.266100    1.120239
   8 H :    0.360878    0.005089
   9 H :   -0.118206   -0.057861
Sum of atomic charges         :   -0.0000000

LOEWDIN ATOMIC CHARGES AND SPIN POPULATIONS
-------------------------------------------
   0 C :   -0.182716    0.159742
   1 C :    0.475265    0.020126
   2 C :    0.490932    0.040634
   3 H :   -0.301049    0.016092
   4 H :   -0.277001    0.008011
   5 H :   -0.276986    0.002548
   6 H :   -0.301661    0.001172
   7 P :    1.325229    0.572992
   8 H :   -0.364516    0.006873
   9 H :   -0.587498    0.171810

  Mayer bond orders larger than 0.100000
B(  0-C ,  1-C ) :   0.9587 B(  0-C ,  2-C ) :   0.9663 B(  0-C ,  7-P ) :   0.7294
B(  0-C ,  8-H ) :   0.8620 B(  1-C ,  2-C ) :   1.0605 B(  1-C ,  5-H ) :   0.8068
B(  1-C ,  6-H ) :   0.8516 B(  2-C ,  3-H ) :   0.8335 B(  2-C ,  4-H ) :   0.8196
B(  7-P ,  9-H ) :   0.9496

MP2 TOTAL ENERGY:     -458.522525194 Eh
FINAL SINGLE POINT ENERGY      -458.522525194420

DIPOLE MOMENT
-------------
                                X             Y             Z
Electronic contribution:     -5.31805       0.73469      -1.01791
Nuclear contribution   :      5.80273      -0.88491       1.34977
                        -----------------------------------------
Total Dipole Moment    :      0.48469      -0.15022       0.33185
                        -----------------------------------------
Magnitude (a.u.)       :      0.60631
Magnitude (Debye)      :      1.54112

Rotational constants in cm-1:     0.535963     0.126232     0.118543
Rotational constants in MHz : 16067.768055  3784.346398  3553.831984

                             ****ORCA TERMINATED NORMALLY****
TOTAL RUN TIME: 0 days 0 hours 59 minutes 11 seconds 950 msec
