                         Program Version 5.0.4 -  RELEASE  -
|  1> ! ri-mp2 aug-cc-pvdz aug-cc-pvdz/c tightscf
|  2> %pal nprocs 16 end
|  3> %maxcore 3800
|  4> %base "DZ_B-S_23_AB"
|  5>
|  6> *xyz 0 1
|  7> B        -0.000000   -0.000000    2.971541
|  8> S         1.496271    0.551313    3.805862
|  9> S        -1.496271   -0.551313    3.805862
| 10> C        -0.000000   -0.000000    1.414540
| 11> C        -0.802520   -0.882283    0.688636
| 12> H        -1.437178   -1.585003    1.213325
| 13> C         0.802520    0.882283    0.688636
| 14> H         1.437178    1.585003    1.213325
| 15> C        -0.790600   -0.893270   -0.692256
| 16> C         0.000000    0.000000   -1.416249
| 17> B         0.000000    0.000000   -2.973152
| 18> S         0.000000    1.519776   -3.938518
| 19> S        -0.000000   -1.519776   -3.938518
| 20> C         0.790600    0.893270   -0.692256
| 21> H         1.423513    1.596673   -1.218403
| 22> H        -1.423513   -1.596673   -1.218403
| 23> H         0.165396   -2.365208   -2.913717
| 24> H        -0.165396    2.365208   -2.913717
| 25> H         1.064644    0.511978    5.072168
| 26> H        -1.064644   -0.511978    5.072168
| 27> *
| 28>
| 29> $new_job
| 30> ! ri-mp2 aug-cc-pvtz aug-cc-pvtz/c tightscf
| 31> %pal nprocs 16 end
| 32> %maxcore 3800
| 33> %base "TZ_B-S_23_AB"
| 34>
| 35> *xyz 0 1
| 36> B        -0.000000   -0.000000    2.971541
| 37> S         1.496271    0.551313    3.805862
| 38> S        -1.496271   -0.551313    3.805862
| 39> C        -0.000000   -0.000000    1.414540
| 40> C        -0.802520   -0.882283    0.688636
| 41> H        -1.437178   -1.585003    1.213325
| 42> C         0.802520    0.882283    0.688636
| 43> H         1.437178    1.585003    1.213325
| 44> C        -0.790600   -0.893270   -0.692256
| 45> C         0.000000    0.000000   -1.416249
| 46> B         0.000000    0.000000   -2.973152
| 47> S         0.000000    1.519776   -3.938518
| 48> S        -0.000000   -1.519776   -3.938518
| 49> C         0.790600    0.893270   -0.692256
| 50> H         1.423513    1.596673   -1.218403
| 51> H        -1.423513   -1.596673   -1.218403
| 52> H         0.165396   -2.365208   -2.913717
| 53> H        -0.165396    2.365208   -2.913717
| 54> H         1.064644    0.511978    5.072168
| 55> H        -1.064644   -0.511978    5.072168
| 56> *
| 57>
| 58> $new_job
| 59> ! ri-mp2 aug-cc-pvqz aug-cc-pvqz/c tightscf
| 60> %pal nprocs 16 end
| 61> %maxcore 3800
| 62> %base "QZ_B-S_23_AB"
| 63>
| 64> *xyz 0 1
| 65> B        -0.000000   -0.000000    2.971541
| 66> S         1.496271    0.551313    3.805862
| 67> S        -1.496271   -0.551313    3.805862
| 68> C        -0.000000   -0.000000    1.414540
| 69> C        -0.802520   -0.882283    0.688636
| 70> H        -1.437178   -1.585003    1.213325
| 71> C         0.802520    0.882283    0.688636
| 72> H         1.437178    1.585003    1.213325
| 73> C        -0.790600   -0.893270   -0.692256
| 74> C         0.000000    0.000000   -1.416249
| 75> B         0.000000    0.000000   -2.973152
| 76> S         0.000000    1.519776   -3.938518
| 77> S        -0.000000   -1.519776   -3.938518
| 78> C         0.790600    0.893270   -0.692256
| 79> H         1.423513    1.596673   -1.218403
| 80> H        -1.423513   -1.596673   -1.218403
| 81> H         0.165396   -2.365208   -2.913717
| 82> H        -0.165396    2.365208   -2.913717
| 83> H         1.064644    0.511978    5.072168
| 84> H        -1.064644   -0.511978    5.072168
| 85> *
| 86>
| 87>
| 88>
| 89>
| 90>                          ****END OF INPUT****
 Total Charge           Charge          ....    0
 Multiplicity           Mult            ....    1
 Number of Electrons    NEL             ....  118
MP2 TOTAL ENERGY:    -1873.098743166 Eh
FINAL SINGLE POINT ENERGY     -1873.098743166008
MP2 TOTAL ENERGY:    -1873.540295070 Eh
FINAL SINGLE POINT ENERGY     -1873.540295070418

CARTESIAN COORDINATES (ANGSTROEM)
---------------------------------
  B     -0.000000   -0.000000    2.971541
  S      1.496271    0.551313    3.805862
  S     -1.496271   -0.551313    3.805862
  C     -0.000000   -0.000000    1.414540
  C     -0.802520   -0.882283    0.688636
  H     -1.437178   -1.585003    1.213325
  C      0.802520    0.882283    0.688636
  H      1.437178    1.585003    1.213325
  C     -0.790600   -0.893270   -0.692256
  C      0.000000    0.000000   -1.416249
  B      0.000000    0.000000   -2.973152
  S      0.000000    1.519776   -3.938518
  S     -0.000000   -1.519776   -3.938518
  C      0.790600    0.893270   -0.692256
  H      1.423513    1.596673   -1.218403
  H     -1.423513   -1.596673   -1.218403
  H      0.165396   -2.365208   -2.913717
  H     -0.165396    2.365208   -2.913717
  H      1.064644    0.511978    5.072168
  H     -1.064644   -0.511978    5.072168

 Multiplicity           Mult            ....    1
 Number of Electrons    NEL             ....  118
 Basis Dimension        Dim             .... 1344

ORBITAL ENERGIES
----------------

  NO   OCC          E(Eh)            E(eV)
   0   2.0000     -91.963727     -2502.4602
   1   2.0000     -91.963726     -2502.4602
   2   2.0000     -91.957991     -2502.3042
   3   2.0000     -91.957991     -2502.3042
   4   2.0000     -11.249203      -306.1064
   5   2.0000     -11.249169      -306.1054
   6   2.0000     -11.247443      -306.0585
   7   2.0000     -11.247345      -306.0558
   8   2.0000     -11.239726      -305.8485
   9   2.0000     -11.236042      -305.7483
  10   2.0000      -8.968869      -244.0553
  11   2.0000      -8.968861      -244.0551
  12   2.0000      -8.963199      -243.9011
  13   2.0000      -8.963195      -243.9009
  14   2.0000      -7.657989      -208.3845
  15   2.0000      -7.655779      -208.3243
  16   2.0000      -6.650454      -180.9680
  17   2.0000      -6.650451      -180.9680
  18   2.0000      -6.649406      -180.9395
  19   2.0000      -6.649404      -180.9395
  20   2.0000      -6.648988      -180.9282
  21   2.0000      -6.648988      -180.9282
  22   2.0000      -6.644754      -180.8130
  23   2.0000      -6.644752      -180.8129
  24   2.0000      -6.643790      -180.7867
  25   2.0000      -6.643784      -180.7866
  26   2.0000      -6.643352      -180.7748
  27   2.0000      -6.643349      -180.7747
  28   2.0000      -1.170783       -31.8586
  29   2.0000      -1.054028       -28.6815
  30   2.0000      -1.033825       -28.1318
  31   2.0000      -1.018781       -27.7224
  32   2.0000      -0.996567       -27.1180
  33   2.0000      -0.969933       -26.3932
  34   2.0000      -0.966834       -26.3089
  35   2.0000      -0.843687       -22.9579
  36   2.0000      -0.840105       -22.8604
  37   2.0000      -0.735152       -20.0045
  38   2.0000      -0.683929       -18.6107
  39   2.0000      -0.649731       -17.6801
  40   2.0000      -0.640281       -17.4229
  41   2.0000      -0.634127       -17.2555
  42   2.0000      -0.602297       -16.3893
  43   2.0000      -0.577753       -15.7215
  44   2.0000      -0.565340       -15.3837
  45   2.0000      -0.535230       -14.5644
  46   2.0000      -0.535224       -14.5642
  47   2.0000      -0.525666       -14.3041
  48   2.0000      -0.505641       -13.7592
  49   2.0000      -0.489541       -13.3211
  50   2.0000      -0.475236       -12.9318
  51   2.0000      -0.447337       -12.1727
  52   2.0000      -0.441578       -12.0159
  53   2.0000      -0.437269       -11.8987
  54   2.0000      -0.430595       -11.7171
  55   2.0000      -0.379244       -10.3198
  56   2.0000      -0.371657       -10.1133
  57   2.0000      -0.353264        -9.6128
  58   2.0000      -0.346456        -9.4275
  59   0.0000       0.019644         0.5345
  60   0.0000       0.025661         0.6983
  61   0.0000       0.028020         0.7625
  62   0.0000       0.031904         0.8682
  63   0.0000       0.038874         1.0578

MULLIKEN ATOMIC CHARGES
-----------------------
   0 B :    0.526756
   1 S :   -0.110166
   2 S :   -0.110166
   3 C :    0.129296
   4 C :   -0.308720
   5 H :    0.126611
   6 C :   -0.308730
   7 H :    0.126610
   8 C :   -0.442379
   9 C :    0.270781
  10 B :    0.559416
  11 S :   -0.126154
  12 S :   -0.126155
  13 C :   -0.442372
  14 H :    0.147773
  15 H :    0.147775
  16 H :    0.000522
  17 H :    0.000522
  18 H :   -0.030609
  19 H :   -0.030610
Sum of atomic charges:    0.0000000

LOEWDIN ATOMIC CHARGES
----------------------
   0 B :   -1.633293
   1 S :    1.735396
   2 S :    1.735396
   3 C :   -0.126469
   4 C :    0.300585
   5 H :   -0.356491
   6 C :    0.300585
   7 H :   -0.356491
   8 C :    0.311797
   9 C :   -0.095627
  10 B :   -1.671071
  11 S :    1.685821
  12 S :    1.685821
  13 C :    0.311797
  14 H :   -0.335405
  15 H :   -0.335405
  16 H :   -0.780219
  17 H :   -0.780219
  18 H :   -0.798255
  19 H :   -0.798255

  Mayer bond orders larger than 0.100000
B(  0-B ,  1-S ) :   1.0399 B(  0-B ,  2-S ) :   1.0399 B(  0-B ,  3-C ) :   1.0749
B(  0-B , 18-H ) :  -0.1059 B(  0-B , 19-H ) :  -0.1059 B(  1-S , 18-H ) :   1.1105
B(  2-S , 19-H ) :   1.1105 B(  3-C ,  4-C ) :   1.0688 B(  3-C ,  5-H ) :  -0.1254
B(  3-C ,  6-C ) :   1.0688 B(  3-C ,  7-H ) :  -0.1254 B(  3-C ,  8-C ) :  -0.3329
B(  3-C , 13-C ) :  -0.3329 B(  4-C ,  5-H ) :   1.1463 B(  4-C ,  8-C ) :   1.0971
B(  4-C ,  9-C ) :  -0.2623 B(  4-C , 13-C ) :   0.1753 B(  4-C , 15-H ) :  -0.1626
B(  5-H ,  8-C ) :  -0.1292 B(  6-C ,  7-H ) :   1.1463 B(  6-C ,  8-C ) :   0.1753
B(  6-C ,  9-C ) :  -0.2624 B(  6-C , 13-C ) :   1.0971 B(  6-C , 14-H ) :  -0.1626
B(  7-H , 13-C ) :  -0.1292 B(  8-C ,  9-C ) :   1.0900 B(  8-C , 12-S ) :   0.1024
B(  8-C , 15-H ) :   1.1594 B(  9-C , 10-B ) :   0.9277 B(  9-C , 13-C ) :   1.0900
B( 10-B , 11-S ) :   1.0072 B( 10-B , 12-S ) :   1.0072 B( 10-B , 16-H ) :  -0.1050
B( 10-B , 17-H ) :  -0.1050 B( 11-S , 13-C ) :   0.1024 B( 11-S , 17-H ) :   1.0719
B( 12-S , 16-H ) :   1.0719 B( 13-C , 14-H ) :   1.1594

MP2 TOTAL ENERGY:    -1873.683881628 Eh
FINAL SINGLE POINT ENERGY     -1873.683881628235

DIPOLE MOMENT
-------------
                                X             Y             Z
Electronic contribution:     -0.00000       0.00000      -3.05451
Nuclear contribution   :      0.00000      -0.00000       4.15901
                        -----------------------------------------
Total Dipole Moment    :     -0.00000       0.00000       1.10450
                        -----------------------------------------
Magnitude (a.u.)       :      1.10450
Magnitude (Debye)      :      2.80743

Rotational constants in cm-1:     0.040907     0.007120     0.006572
Rotational constants in MHz :  1226.366583   213.454773   197.027059

                             ****ORCA TERMINATED NORMALLY****
TOTAL RUN TIME: 0 days 1 hours 12 minutes 49 seconds 664 msec
