                         Program Version 5.0.4 -  RELEASE  -
|  1> ! ri-mp2 aug-cc-pvdz aug-cc-pvdz/c tightscf
|  2> %pal nprocs 16 end
|  3> %maxcore 3800
|  4> %base "DZ_B-S_1_AB"
|  5> %scf
|  6> STABPerform true
|  7> STABRestartUHFifUnstable true
|  8> end
|  9>
| 10> *xyz 0 1
| 11> S        -0.185624   -1.221305   -0.309650
| 12> B        -1.509400    0.000354   -0.076576
| 13> S        -1.423583    1.747691   -0.444774
| 14> S        -3.065992   -0.631575    0.579968
| 15> S         1.458737   -0.213796   -1.038715
| 16> C         2.460555    0.068134    0.403533
| 17> C         3.744459   -0.242908    0.304190
| 18> C         1.838601    0.729539    1.588143
| 19> H         2.575043    0.855494    2.380108
| 20> H         1.014060    0.132388    1.977846
| 21> H         1.431700    1.706184    1.324297
| 22> H         4.144003   -0.745580   -0.565359
| 23> H         4.435494    0.014182    1.096924
| 24> H        -2.685401   -1.909142    0.726853
| 25> H        -0.166195    1.719885   -0.922233
| 26> *
| 27>
| 28> $new_job
| 29> ! ri-mp2 aug-cc-pvtz aug-cc-pvtz/c tightscf
| 30> %pal nprocs 16 end
| 31> %maxcore 3800
| 32> %base "TZ_B-S_1_AB"
| 33>
| 34> *xyz 0 1
| 35> S        -0.185624   -1.221305   -0.309650
| 36> B        -1.509400    0.000354   -0.076576
| 37> S        -1.423583    1.747691   -0.444774
| 38> S        -3.065992   -0.631575    0.579968
| 39> S         1.458737   -0.213796   -1.038715
| 40> C         2.460555    0.068134    0.403533
| 41> C         3.744459   -0.242908    0.304190
| 42> C         1.838601    0.729539    1.588143
| 43> H         2.575043    0.855494    2.380108
| 44> H         1.014060    0.132388    1.977846
| 45> H         1.431700    1.706184    1.324297
| 46> H         4.144003   -0.745580   -0.565359
| 47> H         4.435494    0.014182    1.096924
| 48> H        -2.685401   -1.909142    0.726853
| 49> H        -0.166195    1.719885   -0.922233
| 50> *
| 51>
| 52> $new_job
| 53> ! ri-mp2 aug-cc-pvqz aug-cc-pvqz/c tightscf
| 54> %pal nprocs 16 end
| 55> %maxcore 3800
| 56> %base "QZ_B-S_1_AB"
| 57>
| 58> *xyz 0 1
| 59> S        -0.185624   -1.221305   -0.309650
| 60> B        -1.509400    0.000354   -0.076576
| 61> S        -1.423583    1.747691   -0.444774
| 62> S        -3.065992   -0.631575    0.579968
| 63> S         1.458737   -0.213796   -1.038715
| 64> C         2.460555    0.068134    0.403533
| 65> C         3.744459   -0.242908    0.304190
| 66> C         1.838601    0.729539    1.588143
| 67> H         2.575043    0.855494    2.380108
| 68> H         1.014060    0.132388    1.977846
| 69> H         1.431700    1.706184    1.324297
| 70> H         4.144003   -0.745580   -0.565359
| 71> H         4.435494    0.014182    1.096924
| 72> H        -2.685401   -1.909142    0.726853
| 73> H        -0.166195    1.719885   -0.922233
| 74> *
| 75>
| 76>
| 77>
| 78>
| 79>                          ****END OF INPUT****
 Total Charge           Charge          ....    0
 Multiplicity           Mult            ....    1
 Number of Electrons    NEL             ....   94
MP2 TOTAL ENERGY:    -1733.669370305 Eh
FINAL SINGLE POINT ENERGY     -1733.669370305192
MP2 TOTAL ENERGY:    -1734.004992785 Eh
FINAL SINGLE POINT ENERGY     -1734.004992785269

CARTESIAN COORDINATES (ANGSTROEM)
---------------------------------
  S     -0.185624   -1.221305   -0.309650
  B     -1.509400    0.000354   -0.076576
  S     -1.423583    1.747691   -0.444774
  S     -3.065992   -0.631575    0.579968
  S      1.458737   -0.213796   -1.038715
  C      2.460555    0.068134    0.403533
  C      3.744459   -0.242908    0.304190
  C      1.838601    0.729539    1.588143
  H      2.575043    0.855494    2.380108
  H      1.014060    0.132388    1.977846
  H      1.431700    1.706184    1.324297
  H      4.144003   -0.745580   -0.565359
  H      4.435494    0.014182    1.096924
  H     -2.685401   -1.909142    0.726853
  H     -0.166195    1.719885   -0.922233

 Multiplicity           Mult            ....    1
 Number of Electrons    NEL             ....   94
 Basis Dimension        Dim             ....  978

ORBITAL ENERGIES
----------------

  NO   OCC          E(Eh)            E(eV)
   0   2.0000     -91.991825     -2503.2248
   1   2.0000     -91.982468     -2502.9702
   2   2.0000     -91.963665     -2502.4585
   3   2.0000     -91.959579     -2502.3474
   4   2.0000     -11.283059      -307.0277
   5   2.0000     -11.242886      -305.9345
   6   2.0000     -11.236884      -305.7711
   7   2.0000      -8.992408      -244.6959
   8   2.0000      -8.985132      -244.4979
   9   2.0000      -8.968576      -244.0474
  10   2.0000      -8.964979      -243.9495
  11   2.0000      -7.681528      -209.0250
  12   2.0000      -6.673722      -181.6012
  13   2.0000      -6.672518      -181.5684
  14   2.0000      -6.671739      -181.5473
  15   2.0000      -6.666493      -181.4045
  16   2.0000      -6.665173      -181.3686
  17   2.0000      -6.664857      -181.3600
  18   2.0000      -6.650095      -180.9583
  19   2.0000      -6.649207      -180.9341
  20   2.0000      -6.648629      -180.9184
  21   2.0000      -6.646466      -180.8595
  22   2.0000      -6.645679      -180.8381
  23   2.0000      -6.645135      -180.8233
  24   2.0000      -1.131261       -30.7832
  25   2.0000      -1.052742       -28.6466
  26   2.0000      -1.004829       -27.3428
  27   2.0000      -0.973042       -26.4778
  28   2.0000      -0.961523       -26.1644
  29   2.0000      -0.889680       -24.2094
  30   2.0000      -0.736009       -20.0278
  31   2.0000      -0.662381       -18.0243
  32   2.0000      -0.642030       -17.4705
  33   2.0000      -0.620060       -16.8727
  34   2.0000      -0.604793       -16.4572
  35   2.0000      -0.577186       -15.7060
  36   2.0000      -0.545869       -14.8538
  37   2.0000      -0.536657       -14.6032
  38   2.0000      -0.525228       -14.2922
  39   2.0000      -0.495077       -13.4717
  40   2.0000      -0.467121       -12.7110
  41   2.0000      -0.455674       -12.3995
  42   2.0000      -0.442065       -12.0292
  43   2.0000      -0.410767       -11.1776
  44   2.0000      -0.377597       -10.2749
  45   2.0000      -0.373928       -10.1751
  46   2.0000      -0.348133        -9.4732
  47   0.0000       0.023032         0.6267
  48   0.0000       0.030118         0.8196
  49   0.0000       0.032191         0.8760
  50   0.0000       0.035830         0.9750
  51   0.0000       0.043413         1.1813

MULLIKEN ATOMIC CHARGES
-----------------------
   0 S :   -0.002082
   1 B :   -0.023850
   2 S :    0.005532
   3 S :   -0.068872
   4 S :   -0.030409
   5 C :   -0.066154
   6 C :   -0.736626
   7 C :   -0.781664
   8 H :    0.369097
   9 H :    0.262607
  10 H :    0.272735
  11 H :    0.405541
  12 H :    0.307288
  13 H :    0.036953
  14 H :    0.049906
Sum of atomic charges:   -0.0000000

LOEWDIN ATOMIC CHARGES
----------------------
   0 S :    0.853251
   1 B :   -2.279555
   2 S :    1.593954
   3 S :    1.546329
   4 S :    0.828798
   5 C :   -0.540918
   6 C :    0.665892
   7 C :    0.768944
   8 H :   -0.309201
   9 H :   -0.339836
  10 H :   -0.316729
  11 H :   -0.385560
  12 H :   -0.351404
  13 H :   -0.826706
  14 H :   -0.907261

  Mayer bond orders larger than 0.100000
B(  0-S ,  1-B ) :   1.2552 B(  0-S ,  4-S ) :   1.1576 B(  1-B ,  2-S ) :   1.1801
B(  1-B ,  3-S ) :   1.0515 B(  2-S , 14-H ) :   1.0252 B(  3-S , 13-H ) :   1.0721
B(  4-S ,  5-C ) :   0.7563 B(  5-C ,  6-C ) :   1.4354 B(  5-C ,  7-C ) :   0.8155
B(  6-C , 11-H ) :   0.9045 B(  6-C , 12-H ) :   0.9987 B(  7-C ,  8-H ) :   0.8942
B(  7-C ,  9-H ) :   0.9549 B(  7-C , 10-H ) :   0.9309

MP2 TOTAL ENERGY:    -1734.113775683 Eh
FINAL SINGLE POINT ENERGY     -1734.113775683394

DIPOLE MOMENT
-------------
                                X             Y             Z
Electronic contribution:    -10.82424      -1.76599      -5.49079
Nuclear contribution   :     11.69330       1.72815       5.92948
                        -----------------------------------------
Total Dipole Moment    :      0.86906      -0.03785       0.43869
                        -----------------------------------------
Magnitude (a.u.)       :      0.97424
Magnitude (Debye)      :      2.47633

Rotational constants in cm-1:     0.060173     0.018776     0.017312
Rotational constants in MHz :  1803.932532   562.890239   519.004710

                             ****ORCA TERMINATED NORMALLY****
TOTAL RUN TIME: 0 days 2 hours 4 minutes 9 seconds 992 msec
