                         Program Version 5.0.4 -  RELEASE  -
|  1> ! ri-mp2 aug-cc-pvdz aug-cc-pvdz/c tightscf
|  2> %pal nprocs 16 end
|  3> %maxcore 3800
|  4> %base "DZ_S-F_21_AB"
|  5> %scf
|  6> STABPerform true
|  7> STABRestartUHFifUnstable true
|  8> end
|  9>
| 10> *xyz 0 1
| 11> F        -1.911276    0.414891    0.232468
| 12> S        -0.803775   -0.685932   -0.230376
| 13> C         0.681166    0.121835    0.383328
| 14> C         1.822523   -0.835486    0.060266
| 15> H         1.679727   -1.811330    0.524422
| 16> H         2.757891   -0.418475    0.432714
| 17> H         1.925613   -0.973915   -1.017223
| 18> C         0.881607    1.497732   -0.224486
| 19> H         0.576516    0.203477    1.466838
| 20> H         1.023116    1.424133   -1.303288
| 21> H         1.763627    1.972207    0.210323
| 22> H         0.023624    2.140314   -0.034624
| 23> *
| 24>
| 25> $new_job
| 26> ! ri-mp2 aug-cc-pvtz aug-cc-pvtz/c tightscf
| 27> %pal nprocs 16 end
| 28> %maxcore 3800
| 29> %base "TZ_S-F_21_AB"
| 30>
| 31> *xyz 0 1
| 32> F        -1.911276    0.414891    0.232468
| 33> S        -0.803775   -0.685932   -0.230376
| 34> C         0.681166    0.121835    0.383328
| 35> C         1.822523   -0.835486    0.060266
| 36> H         1.679727   -1.811330    0.524422
| 37> H         2.757891   -0.418475    0.432714
| 38> H         1.925613   -0.973915   -1.017223
| 39> C         0.881607    1.497732   -0.224486
| 40> H         0.576516    0.203477    1.466838
| 41> H         1.023116    1.424133   -1.303288
| 42> H         1.763627    1.972207    0.210323
| 43> H         0.023624    2.140314   -0.034624
| 44> *
| 45>
| 46> $new_job
| 47> ! ri-mp2 aug-cc-pvqz aug-cc-pvqz/c tightscf
| 48> %pal nprocs 16 end
| 49> %maxcore 3800
| 50> %base "QZ_S-F_21_AB"
| 51>
| 52> *xyz 0 1
| 53> F        -1.911276    0.414891    0.232468
| 54> S        -0.803775   -0.685932   -0.230376
| 55> C         0.681166    0.121835    0.383328
| 56> C         1.822523   -0.835486    0.060266
| 57> H         1.679727   -1.811330    0.524422
| 58> H         2.757891   -0.418475    0.432714
| 59> H         1.925613   -0.973915   -1.017223
| 60> C         0.881607    1.497732   -0.224486
| 61> H         0.576516    0.203477    1.466838
| 62> H         1.023116    1.424133   -1.303288
| 63> H         1.763627    1.972207    0.210323
| 64> H         0.023624    2.140314   -0.034624
| 65> *
| 66>
| 67>
| 68>
| 69>
| 70>                          ****END OF INPUT****
 Total Charge           Charge          ....    0
 Multiplicity           Mult            ....    1
 Number of Electrons    NEL             ....   50
MP2 TOTAL ENERGY:     -615.445788403 Eh
FINAL SINGLE POINT ENERGY      -615.445788403406
MP2 TOTAL ENERGY:     -615.698679713 Eh
FINAL SINGLE POINT ENERGY      -615.698679712611

CARTESIAN COORDINATES (ANGSTROEM)
---------------------------------
  F     -1.911276    0.414891    0.232468
  S     -0.803775   -0.685932   -0.230376
  C      0.681166    0.121835    0.383328
  C      1.822523   -0.835486    0.060266
  H      1.679727   -1.811330    0.524422
  H      2.757891   -0.418475    0.432714
  H      1.925613   -0.973915   -1.017223
  C      0.881607    1.497732   -0.224486
  H      0.576516    0.203477    1.466838
  H      1.023116    1.424133   -1.303288
  H      1.763627    1.972207    0.210323
  H      0.023624    2.140314   -0.034624

 Multiplicity           Mult            ....    1
 Number of Electrons    NEL             ....   50
 Basis Dimension        Dim             ....  726

ORBITAL ENERGIES
----------------

  NO   OCC          E(Eh)            E(eV)
   0   2.0000     -92.016217     -2503.8886
   1   2.0000     -26.296518      -715.5646
   2   2.0000     -11.273947      -306.7797
   3   2.0000     -11.238211      -305.8073
   4   2.0000     -11.226329      -305.4839
   5   2.0000      -9.011390      -245.2124
   6   2.0000      -6.693080      -182.1280
   7   2.0000      -6.690871      -182.0679
   8   2.0000      -6.689736      -182.0370
   9   2.0000      -1.594812       -43.3970
  10   2.0000      -1.112508       -30.2729
  11   2.0000      -0.954879       -25.9836
  12   2.0000      -0.944356       -25.6972
  13   2.0000      -0.798583       -21.7305
  14   2.0000      -0.688878       -18.7453
  15   2.0000      -0.677584       -18.4380
  16   2.0000      -0.672119       -18.2893
  17   2.0000      -0.632947       -17.2234
  18   2.0000      -0.582463       -15.8496
  19   2.0000      -0.570976       -15.5371
  20   2.0000      -0.556525       -15.1438
  21   2.0000      -0.512250       -13.9390
  22   2.0000      -0.505802       -13.7636
  23   2.0000      -0.452297       -12.3076
  24   2.0000      -0.360464        -9.8087
  25   0.0000       0.024510         0.6670
  26   0.0000       0.033400         0.9089
  27   0.0000       0.034492         0.9386
  28   0.0000       0.041370         1.1257
  29   0.0000       0.054479         1.4824

MULLIKEN ATOMIC CHARGES
-----------------------
   0 F :   -0.657178
   1 S :    0.437553
   2 C :    0.141817
   3 C :   -0.888752
   4 H :    0.286392
   5 H :    0.286096
   6 H :    0.244622
   7 C :   -0.926791
   8 H :    0.274840
   9 H :    0.248253
  10 H :    0.243832
  11 H :    0.309316
Sum of atomic charges:   -0.0000000

LOEWDIN ATOMIC CHARGES
----------------------
   0 F :    0.099485
   1 S :    0.761220
   2 C :   -0.340953
   3 C :    0.789503
   4 H :   -0.298143
   5 H :   -0.281353
   6 H :   -0.298735
   7 C :    0.825107
   8 H :   -0.364356
   9 H :   -0.300294
  10 H :   -0.281501
  11 H :   -0.309980

  Mayer bond orders larger than 0.100000
B(  0-F ,  1-S ) :   0.5883 B(  0-F ,  2-C ) :  -0.1334 B(  1-S ,  2-C ) :   0.7269
B(  2-C ,  3-C ) :   0.8462 B(  2-C ,  7-C ) :   0.8605 B(  2-C ,  8-H ) :   0.8412
B(  3-C ,  4-H ) :   0.9545 B(  3-C ,  5-H ) :   0.9341 B(  3-C ,  6-H ) :   0.9398
B(  7-C ,  9-H ) :   0.9520 B(  7-C , 10-H ) :   0.9513 B(  7-C , 11-H ) :   0.9444

MP2 TOTAL ENERGY:     -615.778660241 Eh
FINAL SINGLE POINT ENERGY      -615.778660240742

DIPOLE MOMENT
-------------
                                X             Y             Z
Electronic contribution:    -10.56277      -2.12233       0.05582
Nuclear contribution   :     11.63233       2.14228       0.05654
                        -----------------------------------------
Total Dipole Moment    :      1.06955       0.01995       0.11236
                        -----------------------------------------
Magnitude (a.u.)       :      1.07562
Magnitude (Debye)      :      2.73401

Rotational constants in cm-1:     0.212173     0.097553     0.072921
Rotational constants in MHz :  6360.793590  2924.563529  2186.122613

                             ****ORCA TERMINATED NORMALLY****
TOTAL RUN TIME: 0 days 0 hours 39 minutes 54 seconds 771 msec
