                         Program Version 5.0.4 -  RELEASE  -
|  1> ! ri-mp2 aug-cc-pvdz aug-cc-pvdz/c tightscf
|  2> %pal nprocs 16 end
|  3> %maxcore 3800
|  4> %base "DZ_P-S_5_AB"
|  5> %scf
|  6> STABPerform true
|  7> STABRestartUHFifUnstable true
|  8> end
|  9>
| 10> *xyz 0 1
| 11> P         1.479931   -0.117586    0.044911
| 12> S        -0.000003    1.380016    0.000000
| 13> P        -1.479933   -0.117588   -0.044911
| 14> O         1.238426   -1.000480    1.196834
| 15> O         2.850571    0.652850    0.058841
| 16> O        -1.238426   -1.000476   -1.196838
| 17> O        -1.484293   -0.764256    1.374219
| 18> H        -0.570070   -1.048781    1.613676
| 19> H         3.258117    0.667533    0.933570
| 20> O        -2.850575    0.652845   -0.058834
| 21> H        -3.258125    0.667530   -0.933561
| 22> O         1.484305   -0.764251   -1.374221
| 23> H         0.570086   -1.048783   -1.613687
| 24> *
| 25>
| 26> $new_job
| 27> ! ri-mp2 aug-cc-pvtz aug-cc-pvtz/c tightscf
| 28> %pal nprocs 16 end
| 29> %maxcore 3800
| 30> %base "TZ_P-S_5_AB"
| 31>
| 32> *xyz 0 1
| 33> P         1.479931   -0.117586    0.044911
| 34> S        -0.000003    1.380016    0.000000
| 35> P        -1.479933   -0.117588   -0.044911
| 36> O         1.238426   -1.000480    1.196834
| 37> O         2.850571    0.652850    0.058841
| 38> O        -1.238426   -1.000476   -1.196838
| 39> O        -1.484293   -0.764256    1.374219
| 40> H        -0.570070   -1.048781    1.613676
| 41> H         3.258117    0.667533    0.933570
| 42> O        -2.850575    0.652845   -0.058834
| 43> H        -3.258125    0.667530   -0.933561
| 44> O         1.484305   -0.764251   -1.374221
| 45> H         0.570086   -1.048783   -1.613687
| 46> *
| 47>
| 48> $new_job
| 49> ! ri-mp2 aug-cc-pvqz aug-cc-pvqz/c tightscf
| 50> %pal nprocs 16 end
| 51> %maxcore 3800
| 52> %base "QZ_P-S_5_AB"
| 53>
| 54> *xyz 0 1
| 55> P         1.479931   -0.117586    0.044911
| 56> S        -0.000003    1.380016    0.000000
| 57> P        -1.479933   -0.117588   -0.044911
| 58> O         1.238426   -1.000480    1.196834
| 59> O         2.850571    0.652850    0.058841
| 60> O        -1.238426   -1.000476   -1.196838
| 61> O        -1.484293   -0.764256    1.374219
| 62> H        -0.570070   -1.048781    1.613676
| 63> H         3.258117    0.667533    0.933570
| 64> O        -2.850575    0.652845   -0.058834
| 65> H        -3.258125    0.667530   -0.933561
| 66> O         1.484305   -0.764251   -1.374221
| 67> H         0.570086   -1.048783   -1.613687
| 68> *
| 69>
| 70>
| 71>
| 72>
| 73>                          ****END OF INPUT****
 Total Charge           Charge          ....    0
 Multiplicity           Mult            ....    1
 Number of Electrons    NEL             ....   98
MP2 TOTAL ENERGY:    -1532.354237799 Eh
FINAL SINGLE POINT ENERGY     -1532.354237798843
MP2 TOTAL ENERGY:    -1532.946521325 Eh
FINAL SINGLE POINT ENERGY     -1532.946521324623

CARTESIAN COORDINATES (ANGSTROEM)
---------------------------------
  P      1.479931   -0.117586    0.044911
  S     -0.000003    1.380016    0.000000
  P     -1.479933   -0.117588   -0.044911
  O      1.238426   -1.000480    1.196834
  O      2.850571    0.652850    0.058841
  O     -1.238426   -1.000476   -1.196838
  O     -1.484293   -0.764256    1.374219
  H     -0.570070   -1.048781    1.613676
  H      3.258117    0.667533    0.933570
  O     -2.850575    0.652845   -0.058834
  H     -3.258125    0.667530   -0.933561
  O      1.484305   -0.764251   -1.374221
  H      0.570086   -1.048783   -1.613687

 Multiplicity           Mult            ....    1
 Number of Electrons    NEL             ....   98
 Basis Dimension        Dim             ....  916

ORBITAL ENERGIES
----------------

  NO   OCC          E(Eh)            E(eV)
   0   2.0000     -91.991366     -2503.2123
   1   2.0000     -80.118663     -2180.1396
   2   2.0000     -80.118662     -2180.1396
   3   2.0000     -20.633634      -561.4697
   4   2.0000     -20.633634      -561.4697
   5   2.0000     -20.608152      -560.7763
   6   2.0000     -20.608151      -560.7763
   7   2.0000     -20.543518      -559.0175
   8   2.0000     -20.543517      -559.0175
   9   2.0000      -8.996502      -244.8073
  10   2.0000      -7.638554      -207.8556
  11   2.0000      -7.638552      -207.8556
  12   2.0000      -6.677408      -181.7015
  13   2.0000      -6.677108      -181.6933
  14   2.0000      -6.675973      -181.6625
  15   2.0000      -5.537150      -150.6735
  16   2.0000      -5.537130      -150.6730
  17   2.0000      -5.536577      -150.6579
  18   2.0000      -5.536574      -150.6578
  19   2.0000      -5.535470      -150.6278
  20   2.0000      -5.535469      -150.6278
  21   2.0000      -1.472897       -40.0796
  22   2.0000      -1.466879       -39.9158
  23   2.0000      -1.411895       -38.4196
  24   2.0000      -1.408684       -38.3322
  25   2.0000      -1.339991       -36.4630
  26   2.0000      -1.335699       -36.3462
  27   2.0000      -1.036466       -28.2037
  28   2.0000      -0.880273       -23.9534
  29   2.0000      -0.865549       -23.5528
  30   2.0000      -0.750652       -20.4263
  31   2.0000      -0.749970       -20.4077
  32   2.0000      -0.724373       -19.7112
  33   2.0000      -0.700979       -19.0746
  34   2.0000      -0.686950       -18.6929
  35   2.0000      -0.677540       -18.4368
  36   2.0000      -0.653156       -17.7733
  37   2.0000      -0.623713       -16.9721
  38   2.0000      -0.613311       -16.6890
  39   2.0000      -0.604168       -16.4403
  40   2.0000      -0.595114       -16.1939
  41   2.0000      -0.583576       -15.8799
  42   2.0000      -0.534847       -14.5539
  43   2.0000      -0.534625       -14.5479
  44   2.0000      -0.504185       -13.7196
  45   2.0000      -0.504172       -13.7192
  46   2.0000      -0.489215       -13.3122
  47   2.0000      -0.465807       -12.6753
  48   2.0000      -0.415622       -11.3096
  49   0.0000       0.020500         0.5578
  50   0.0000       0.024918         0.6781
  51   0.0000       0.044934         1.2227
  52   0.0000       0.048209         1.3118
  53   0.0000       0.050627         1.3776

MULLIKEN ATOMIC CHARGES
-----------------------
   0 P :    2.406325
   1 S :   -0.307156
   2 P :    2.406325
   3 O :   -1.082038
   4 O :   -1.056431
   5 O :   -1.082040
   6 O :   -0.849292
   7 H :    0.343977
   8 H :    0.391037
   9 O :   -1.056431
  10 H :    0.391038
  11 O :   -0.849292
  12 H :    0.343979
Sum of atomic charges:   -0.0000000

LOEWDIN ATOMIC CHARGES
----------------------
   0 P :   -1.087108
   1 S :    1.069656
   2 P :   -1.087112
   3 O :    0.413245
   4 O :    1.063375
   5 O :    0.413238
   6 O :    1.067850
   7 H :   -1.132729
   8 H :   -0.859462
   9 O :    1.063375
  10 H :   -0.859462
  11 O :    1.067849
  12 H :   -1.132715

  Mayer bond orders larger than 0.100000
B(  0-P ,  1-S ) :   0.9415 B(  0-P ,  3-O ) :   1.3376 B(  0-P ,  4-O ) :   0.4466
B(  0-P , 11-O ) :   0.7713 B(  1-S ,  2-P ) :   0.9415 B(  2-P ,  5-O ) :   1.3376
B(  2-P ,  6-O ) :   0.7713 B(  2-P ,  9-O ) :   0.4466 B(  4-O ,  8-H ) :   0.9098
B(  6-O ,  7-H ) :   0.8237 B(  9-O , 10-H ) :   0.9098 B( 11-O , 12-H ) :   0.8237

MP2 TOTAL ENERGY:    -1533.139944309 Eh
FINAL SINGLE POINT ENERGY     -1533.139944309467

DIPOLE MOMENT
-------------
                                X             Y             Z
Electronic contribution:     -0.00001       1.63750      -0.00000
Nuclear contribution   :      0.00001      -0.58446      -0.00000
                        -----------------------------------------
Total Dipole Moment    :     -0.00000       1.05303      -0.00000
                        -----------------------------------------
Magnitude (a.u.)       :      1.05303
Magnitude (Debye)      :      2.67660

Rotational constants in cm-1:     0.069416     0.025902     0.025284
Rotational constants in MHz :  2081.052547   776.529258   757.990347

                             ****ORCA TERMINATED NORMALLY****
TOTAL RUN TIME: 0 days 1 hours 36 minutes 49 seconds 354 msec
