                         Program Version 5.0.4 -  RELEASE  -
|  1> ! ri-mp2 aug-cc-pvdz aug-cc-pvdz/c tightscf
|  2> %pal nprocs 16 end
|  3> %maxcore 3800
|  4> %base "DZ_P-N_56_AB"
|  5> %scf
|  6> STABPerform true
|  7> STABRestartUHFifUnstable true
|  8> end
|  9>
| 10> *xyz 0 1
| 11> C         1.816688    0.038463    0.078107
| 12> N        -0.974682   -0.091988   -0.187834
| 13> C        -1.875130   -0.237333    0.939803
| 14> H        -1.779395   -1.233281    1.368260
| 15> H        -2.908940   -0.103964    0.610747
| 16> H        -1.670012    0.497024    1.726324
| 17> C        -1.057856    1.192014   -0.856838
| 18> H        -2.100450    1.407606   -1.102176
| 19> H        -0.490907    1.167593   -1.786108
| 20> H        -0.669092    2.005557   -0.237824
| 21> O         1.755412    1.047517    0.727218
| 22> P         0.377805   -1.068978   -0.271379
| 23> H         2.794544   -0.328753   -0.312184
| 24> H         0.634450   -1.072202   -1.665690
| 25> *
| 26>
| 27> $new_job
| 28> ! ri-mp2 aug-cc-pvtz aug-cc-pvtz/c tightscf
| 29> %pal nprocs 16 end
| 30> %maxcore 3800
| 31> %base "TZ_P-N_56_AB"
| 32>
| 33> *xyz 0 1
| 34> C         1.816688    0.038463    0.078107
| 35> N        -0.974682   -0.091988   -0.187834
| 36> C        -1.875130   -0.237333    0.939803
| 37> H        -1.779395   -1.233281    1.368260
| 38> H        -2.908940   -0.103964    0.610747
| 39> H        -1.670012    0.497024    1.726324
| 40> C        -1.057856    1.192014   -0.856838
| 41> H        -2.100450    1.407606   -1.102176
| 42> H        -0.490907    1.167593   -1.786108
| 43> H        -0.669092    2.005557   -0.237824
| 44> O         1.755412    1.047517    0.727218
| 45> P         0.377805   -1.068978   -0.271379
| 46> H         2.794544   -0.328753   -0.312184
| 47> H         0.634450   -1.072202   -1.665690
| 48> *
| 49>
| 50> $new_job
| 51> ! ri-mp2 aug-cc-pvqz aug-cc-pvqz/c tightscf
| 52> %pal nprocs 16 end
| 53> %maxcore 3800
| 54> %base "QZ_P-N_56_AB"
| 55>
| 56> *xyz 0 1
| 57> C         1.816688    0.038463    0.078107
| 58> N        -0.974682   -0.091988   -0.187834
| 59> C        -1.875130   -0.237333    0.939803
| 60> H        -1.779395   -1.233281    1.368260
| 61> H        -2.908940   -0.103964    0.610747
| 62> H        -1.670012    0.497024    1.726324
| 63> C        -1.057856    1.192014   -0.856838
| 64> H        -2.100450    1.407606   -1.102176
| 65> H        -0.490907    1.167593   -1.786108
| 66> H        -0.669092    2.005557   -0.237824
| 67> O         1.755412    1.047517    0.727218
| 68> P         0.377805   -1.068978   -0.271379
| 69> H         2.794544   -0.328753   -0.312184
| 70> H         0.634450   -1.072202   -1.665690
| 71> *
| 72>
| 73>
| 74>
| 75>
| 76>                          ****END OF INPUT****
 Total Charge           Charge          ....    0
 Multiplicity           Mult            ....    1
 Number of Electrons    NEL             ....   56
MP2 TOTAL ENERGY:     -589.240728590 Eh
FINAL SINGLE POINT ENERGY      -589.240728590276
MP2 TOTAL ENERGY:     -589.511528549 Eh
FINAL SINGLE POINT ENERGY      -589.511528549429

CARTESIAN COORDINATES (ANGSTROEM)
---------------------------------
  C      1.816688    0.038463    0.078107
  N     -0.974682   -0.091988   -0.187834
  C     -1.875130   -0.237333    0.939803
  H     -1.779395   -1.233281    1.368260
  H     -2.908940   -0.103964    0.610747
  H     -1.670012    0.497024    1.726324
  C     -1.057856    1.192014   -0.856838
  H     -2.100450    1.407606   -1.102176
  H     -0.490907    1.167593   -1.786108
  H     -0.669092    2.005557   -0.237824
  O      1.755412    1.047517    0.727218
  P      0.377805   -1.068978   -0.271379
  H      2.794544   -0.328753   -0.312184
  H      0.634450   -1.072202   -1.665690

 Multiplicity           Mult            ....    1
 Number of Electrons    NEL             ....   56
 Basis Dimension        Dim             ....  852

ORBITAL ENERGIES
----------------

  NO   OCC          E(Eh)            E(eV)
   0   2.0000     -79.967955     -2176.0387
   1   2.0000     -20.563079      -559.5498
   2   2.0000     -15.563424      -423.5023
   3   2.0000     -11.328630      -308.2677
   4   2.0000     -11.256113      -306.2944
   5   2.0000     -11.253897      -306.2341
   6   2.0000      -7.507735      -204.2959
   7   2.0000      -5.401902      -146.9932
   8   2.0000      -5.401541      -146.9834
   9   2.0000      -5.401173      -146.9734
  10   2.0000      -1.401193       -38.1284
  11   2.0000      -1.229055       -33.4443
  12   2.0000      -0.967847       -26.3364
  13   2.0000      -0.938846       -25.5473
  14   2.0000      -0.854032       -23.2394
  15   2.0000      -0.755029       -20.5454
  16   2.0000      -0.669127       -18.2079
  17   2.0000      -0.651889       -17.7388
  18   2.0000      -0.638715       -17.3803
  19   2.0000      -0.623802       -16.9745
  20   2.0000      -0.581693       -15.8287
  21   2.0000      -0.557703       -15.1759
  22   2.0000      -0.540238       -14.7006
  23   2.0000      -0.528166       -14.3721
  24   2.0000      -0.519860       -14.1461
  25   2.0000      -0.438977       -11.9452
  26   2.0000      -0.381137       -10.3713
  27   2.0000      -0.351432        -9.5630
  28   0.0000       0.024651         0.6708
  29   0.0000       0.030997         0.8435
  30   0.0000       0.035675         0.9708
  31   0.0000       0.040888         1.1126
  32   0.0000       0.048439         1.3181

MULLIKEN ATOMIC CHARGES
-----------------------
   0 C :   -0.156831
   1 N :   -0.290031
   2 C :   -0.874872
   3 H :    0.339573
   4 H :    0.299489
   5 H :    0.307365
   6 C :   -0.829666
   7 H :    0.303403
   8 H :    0.291511
   9 H :    0.321999
  10 O :   -0.746649
  11 P :    0.669511
  12 H :    0.530997
  13 H :   -0.165799
Sum of atomic charges:    0.0000000

LOEWDIN ATOMIC CHARGES
----------------------
   0 C :   -0.459643
   1 N :    0.158989
   2 C :    0.654218
   3 H :   -0.339527
   4 H :   -0.296299
   5 H :   -0.280988
   6 C :    0.662423
   7 H :   -0.294919
   8 H :   -0.320037
   9 H :   -0.295971
  10 O :    0.613428
  11 P :    1.057656
  12 H :   -0.434151
  13 H :   -0.425178

  Mayer bond orders larger than 0.100000
B(  0-C , 10-O ) :   1.6341 B(  0-C , 11-P ) :   0.8600 B(  0-C , 12-H ) :   0.6923
B(  1-N ,  2-C ) :   0.8868 B(  1-N ,  6-C ) :   0.8241 B(  1-N , 11-P ) :   0.7569
B(  1-N , 13-H ) :  -0.1024 B(  2-C ,  3-H ) :   0.9205 B(  2-C ,  4-H ) :   0.9341
B(  2-C ,  5-H ) :   0.9156 B(  6-C ,  7-H ) :   0.9254 B(  6-C ,  8-H ) :   0.9607
B(  6-C ,  9-H ) :   0.9011 B( 11-P , 13-H ) :   1.0046

MP2 TOTAL ENERGY:     -589.597432769 Eh
FINAL SINGLE POINT ENERGY      -589.597432769125

DIPOLE MOMENT
-------------
                                X             Y             Z
Electronic contribution:      6.09216      -3.68215       0.55287
Nuclear contribution   :     -6.53357       3.37667      -1.13086
                        -----------------------------------------
Total Dipole Moment    :     -0.44141      -0.30548      -0.57799
                        -----------------------------------------
Magnitude (a.u.)       :      0.78882
Magnitude (Debye)      :      2.00501

Rotational constants in cm-1:     0.135743     0.072287     0.062073
Rotational constants in MHz :  4069.472136  2167.096951  1860.907273

                             ****ORCA TERMINATED NORMALLY****
TOTAL RUN TIME: 0 days 0 hours 59 minutes 44 seconds 298 msec
