                         Program Version 5.0.4 -  RELEASE  -
|  1> ! ri-mp2 aug-cc-pvdz aug-cc-pvdz/c tightscf
|  2> %pal nprocs 16 end
|  3> %maxcore 3800
|  4> %base "DZ_B-B_15_AB"
|  5> %scf
|  6> STABPerform true
|  7> STABRestartUHFifUnstable true
|  8> end
|  9>
| 10> *xyz 0 1
| 11> B         1.310237    0.316748    0.439117
| 12> B        -0.166379    0.775391   -0.238638
| 13> Cl        -1.559986   -0.239462    0.036358
| 14> F         2.167213   -0.418807   -0.255296
| 15> H        -0.356050    1.764038   -0.871683
| 16> H         1.651608    0.615389    1.548864
| 17> *
| 18>
| 19> $new_job
| 20> ! ri-mp2 aug-cc-pvtz aug-cc-pvtz/c tightscf
| 21> %pal nprocs 16 end
| 22> %maxcore 3800
| 23> %base "TZ_B-B_15_AB"
| 24>
| 25> *xyz 0 1
| 26> B         1.310237    0.316748    0.439117
| 27> B        -0.166379    0.775391   -0.238638
| 28> Cl        -1.559986   -0.239462    0.036358
| 29> F         2.167213   -0.418807   -0.255296
| 30> H        -0.356050    1.764038   -0.871683
| 31> H         1.651608    0.615389    1.548864
| 32> *
| 33>
| 34> $new_job
| 35> ! ri-mp2 aug-cc-pvqz aug-cc-pvqz/c tightscf
| 36> %pal nprocs 16 end
| 37> %maxcore 3800
| 38> %base "QZ_B-B_15_AB"
| 39>
| 40> *xyz 0 1
| 41> B         1.310237    0.316748    0.439117
| 42> B        -0.166379    0.775391   -0.238638
| 43> Cl        -1.559986   -0.239462    0.036358
| 44> F         2.167213   -0.418807   -0.255296
| 45> H        -0.356050    1.764038   -0.871683
| 46> H         1.651608    0.615389    1.548864
| 47> *
| 48>
| 49>
| 50>
| 51>
| 52>                          ****END OF INPUT****
 Total Charge           Charge          ....    0
 Multiplicity           Mult            ....    1
 Number of Electrons    NEL             ....   38
MP2 TOTAL ENERGY:     -610.062262199 Eh
FINAL SINGLE POINT ENERGY      -610.062262198602
MP2 TOTAL ENERGY:     -610.253947996 Eh
FINAL SINGLE POINT ENERGY      -610.253947996380

CARTESIAN COORDINATES (ANGSTROEM)
---------------------------------
  B      1.310237    0.316748    0.439117
  B     -0.166379    0.775391   -0.238638
  Cl    -1.559986   -0.239462    0.036358
  F      2.167213   -0.418807   -0.255296
  H     -0.356050    1.764038   -0.871683
  H      1.651608    0.615389    1.548864

 Multiplicity           Mult            ....    1
 Number of Electrons    NEL             ....   38
 Basis Dimension        Dim             ....  416

ORBITAL ENERGIES
----------------

  NO   OCC          E(Eh)            E(eV)
   0   2.0000    -104.843959     -2852.9492
   1   2.0000     -26.307709      -715.8691
   2   2.0000     -10.571443      -287.6636
   3   2.0000      -8.038225      -218.7312
   4   2.0000      -8.037342      -218.7072
   5   2.0000      -8.036891      -218.6949
   6   2.0000      -7.659225      -208.4181
   7   2.0000      -7.655721      -208.3228
   8   2.0000      -1.620378       -44.0927
   9   2.0000      -1.121855       -30.5272
  10   2.0000      -0.800026       -21.7698
  11   2.0000      -0.722159       -19.6510
  12   2.0000      -0.692987       -18.8571
  13   2.0000      -0.678352       -18.4589
  14   2.0000      -0.604398       -16.4465
  15   2.0000      -0.554921       -15.1002
  16   2.0000      -0.500963       -13.6319
  17   2.0000      -0.490920       -13.3586
  18   2.0000      -0.418970       -11.4007
  19   0.0000       0.028470         0.7747
  20   0.0000       0.030644         0.8339
  21   0.0000       0.033457         0.9104
  22   0.0000       0.034553         0.9402
  23   0.0000       0.050351         1.3701

MULLIKEN ATOMIC CHARGES
-----------------------
   0 B :    0.963514
   1 B :    0.324609
   2 Cl:   -0.209174
   3 F :   -0.716646
   4 H :   -0.168158
   5 H :   -0.194144
Sum of atomic charges:   -0.0000000

LOEWDIN ATOMIC CHARGES
----------------------
   0 B :   -0.680266
   1 B :   -0.838383
   2 Cl:    1.285507
   3 F :    0.786362
   4 H :   -0.307055
   5 H :   -0.246165

  Mayer bond orders larger than 0.100000
B(  0-B ,  1-B ) :   0.9999 B(  0-B ,  3-F ) :   0.4562 B(  0-B ,  5-H ) :   0.9577
B(  1-B ,  2-Cl) :   1.1388 B(  1-B ,  4-H ) :   0.9271

MP2 TOTAL ENERGY:     -610.316315405 Eh
FINAL SINGLE POINT ENERGY      -610.316315404626

DIPOLE MOMENT
-------------
                                X             Y             Z
Electronic contribution:     -0.41739      -1.60635      -0.54434
Nuclear contribution   :      0.42527       2.06146       0.65415
                        -----------------------------------------
Total Dipole Moment    :      0.00789       0.45511       0.10981
                        -----------------------------------------
Magnitude (a.u.)       :      0.46823
Magnitude (Debye)      :      1.19016

Rotational constants in cm-1:     0.716817     0.082489     0.078874
Rotational constants in MHz : 21489.631121  2472.946546  2364.588845

                             ****ORCA TERMINATED NORMALLY****
TOTAL RUN TIME: 0 days 0 hours 5 minutes 30 seconds 678 msec
