                         Program Version 5.0.4 -  RELEASE  -
|  1> ! ri-mp2 aug-cc-pvdz aug-cc-pvdz/c tightscf
|  2> %pal nprocs 16 end
|  3> %maxcore 3800
|  4> %base "DZ_P-Cl_6_AB"
|  5> %scf
|  6> STABPerform true
|  7> STABRestartUHFifUnstable true
|  8> end
|  9>
| 10> *xyz 0 1
| 11> Cl        -2.844087   -0.619501   -0.233182
| 12> O         2.332744   -2.235774    0.188901
| 13> P        -1.470578    0.705500    0.597697
| 14> N         0.466166   -1.047162   -0.410761
| 15> N         1.106460    1.056487    0.166905
| 16> C         0.015939    0.313090   -0.453196
| 17> C         1.744142   -1.198626    0.021650
| 18> C         2.281955    0.203737    0.222320
| 19> C         1.321504    2.380319   -0.369471
| 20> H        -0.140591   -1.831588   -0.581529
| 21> H         2.809350    0.279808    1.172359
| 22> H         2.996542    0.416614   -0.584955
| 23> H         2.047995    2.909659    0.245262
| 24> H         1.692827    2.355555   -1.404632
| 25> H         0.391969    2.947918   -0.347988
| 26> H        -1.057422   -0.133628    1.654232
| 27> H        -0.184089    0.634478   -1.486127
| 28> *
| 29>
| 30> $new_job
| 31> ! ri-mp2 aug-cc-pvtz aug-cc-pvtz/c tightscf
| 32> %pal nprocs 16 end
| 33> %maxcore 3800
| 34> %base "TZ_P-Cl_6_AB"
| 35>
| 36> *xyz 0 1
| 37> Cl        -2.844087   -0.619501   -0.233182
| 38> O         2.332744   -2.235774    0.188901
| 39> P        -1.470578    0.705500    0.597697
| 40> N         0.466166   -1.047162   -0.410761
| 41> N         1.106460    1.056487    0.166905
| 42> C         0.015939    0.313090   -0.453196
| 43> C         1.744142   -1.198626    0.021650
| 44> C         2.281955    0.203737    0.222320
| 45> C         1.321504    2.380319   -0.369471
| 46> H        -0.140591   -1.831588   -0.581529
| 47> H         2.809350    0.279808    1.172359
| 48> H         2.996542    0.416614   -0.584955
| 49> H         2.047995    2.909659    0.245262
| 50> H         1.692827    2.355555   -1.404632
| 51> H         0.391969    2.947918   -0.347988
| 52> H        -1.057422   -0.133628    1.654232
| 53> H        -0.184089    0.634478   -1.486127
| 54> *
| 55>
| 56> $new_job
| 57> ! ri-mp2 aug-cc-pvqz aug-cc-pvqz/c tightscf
| 58> %pal nprocs 16 end
| 59> %maxcore 3800
| 60> %base "QZ_P-Cl_6_AB"
| 61>
| 62> *xyz 0 1
| 63> Cl        -2.844087   -0.619501   -0.233182
| 64> O         2.332744   -2.235774    0.188901
| 65> P        -1.470578    0.705500    0.597697
| 66> N         0.466166   -1.047162   -0.410761
| 67> N         1.106460    1.056487    0.166905
| 68> C         0.015939    0.313090   -0.453196
| 69> C         1.744142   -1.198626    0.021650
| 70> C         2.281955    0.203737    0.222320
| 71> C         1.321504    2.380319   -0.369471
| 72> H        -0.140591   -1.831588   -0.581529
| 73> H         2.809350    0.279808    1.172359
| 74> H         2.996542    0.416614   -0.584955
| 75> H         2.047995    2.909659    0.245262
| 76> H         1.692827    2.355555   -1.404632
| 77> H         0.391969    2.947918   -0.347988
| 78> H        -1.057422   -0.133628    1.654232
| 79> H        -0.184089    0.634478   -1.486127
| 80> *
| 81>
| 82>
| 83>
| 84>
| 85>                          ****END OF INPUT****
 Total Charge           Charge          ....    0
 Multiplicity           Mult            ....    1
 Number of Electrons    NEL             ....   86
MP2 TOTAL ENERGY:    -1141.574880987 Eh
FINAL SINGLE POINT ENERGY     -1141.574880987118
MP2 TOTAL ENERGY:    -1141.976805576 Eh
FINAL SINGLE POINT ENERGY     -1141.976805575839

CARTESIAN COORDINATES (ANGSTROEM)
---------------------------------
  Cl    -2.844087   -0.619501   -0.233182
  O      2.332744   -2.235774    0.188901
  P     -1.470578    0.705500    0.597697
  N      0.466166   -1.047162   -0.410761
  N      1.106460    1.056487    0.166905
  C      0.015939    0.313090   -0.453196
  C      1.744142   -1.198626    0.021650
  C      2.281955    0.203737    0.222320
  C      1.321504    2.380319   -0.369471
  H     -0.140591   -1.831588   -0.581529
  H      2.809350    0.279808    1.172359
  H      2.996542    0.416614   -0.584955
  H      2.047995    2.909659    0.245262
  H      1.692827    2.355555   -1.404632
  H      0.391969    2.947918   -0.347988
  H     -1.057422   -0.133628    1.654232
  H     -0.184089    0.634478   -1.486127

 Multiplicity           Mult            ....    1
 Number of Electrons    NEL             ....   86
 Basis Dimension        Dim             .... 1096

ORBITAL ENERGIES
----------------

  NO   OCC          E(Eh)            E(eV)
   0   2.0000    -104.839593     -2852.8304
   1   2.0000     -80.001197     -2176.9432
   2   2.0000     -20.527904      -558.5927
   3   2.0000     -15.599434      -424.4822
   4   2.0000     -15.586988      -424.1435
   5   2.0000     -11.358928      -309.0921
   6   2.0000     -11.329711      -308.2971
   7   2.0000     -11.280194      -306.9497
   8   2.0000     -11.272049      -306.7280
   9   2.0000     -10.565837      -287.5110
  10   2.0000      -8.032701      -218.5809
  11   2.0000      -8.031334      -218.5437
  12   2.0000      -8.031238      -218.5411
  13   2.0000      -7.539953      -205.1726
  14   2.0000      -5.433520      -147.8536
  15   2.0000      -5.432409      -147.8234
  16   2.0000      -5.431416      -147.7963
  17   2.0000      -1.401671       -38.1414
  18   2.0000      -1.318163       -35.8690
  19   2.0000      -1.210435       -32.9376
  20   2.0000      -1.116474       -30.3808
  21   2.0000      -1.028810       -27.9953
  22   2.0000      -0.980073       -26.6691
  23   2.0000      -0.863103       -23.4862
  24   2.0000      -0.825976       -22.4760
  25   2.0000      -0.811179       -22.0733
  26   2.0000      -0.721373       -19.6296
  27   2.0000      -0.690565       -18.7912
  28   2.0000      -0.646523       -17.5928
  29   2.0000      -0.640167       -17.4198
  30   2.0000      -0.621232       -16.9046
  31   2.0000      -0.603135       -16.4121
  32   2.0000      -0.589170       -16.0321
  33   2.0000      -0.574618       -15.6362
  34   2.0000      -0.555265       -15.1095
  35   2.0000      -0.539029       -14.6677
  36   2.0000      -0.528853       -14.3908
  37   2.0000      -0.497652       -13.5418
  38   2.0000      -0.464837       -12.6489
  39   2.0000      -0.433481       -11.7956
  40   2.0000      -0.423014       -11.5108
  41   2.0000      -0.398228       -10.8363
  42   2.0000      -0.362452        -9.8628
  43   0.0000       0.020101         0.5470
  44   0.0000       0.027931         0.7600
  45   0.0000       0.033460         0.9105
  46   0.0000       0.035175         0.9572
  47   0.0000       0.046847         1.2748

MULLIKEN ATOMIC CHARGES
-----------------------
   0 Cl:   -0.555020
   1 O :   -0.864412
   2 P :    0.546919
   3 N :   -0.782169
   4 N :   -0.294507
   5 C :    0.493585
   6 C :    1.043600
   7 C :   -0.595958
   8 C :   -0.920310
   9 H :    0.136183
  10 H :    0.307140
  11 H :    0.275226
  12 H :    0.315827
  13 H :    0.343433
  14 H :    0.297140
  15 H :   -0.108942
  16 H :    0.362265
Sum of atomic charges:    0.0000000

LOEWDIN ATOMIC CHARGES
----------------------
   0 Cl:    0.691966
   1 O :    0.690607
   2 P :    0.519166
   3 N :    0.770168
   4 N :    0.370871
   5 C :   -0.492046
   6 C :   -0.850382
   7 C :    0.320279
   8 C :    0.737173
   9 H :   -0.498264
  10 H :   -0.274992
  11 H :   -0.272697
  12 H :   -0.280932
  13 H :   -0.268917
  14 H :   -0.307753
  15 H :   -0.502707
  16 H :   -0.351541

  Mayer bond orders larger than 0.100000
B(  0-Cl,  2-P ) :   0.8010 B(  0-Cl,  5-C ) :  -0.1924 B(  1-O ,  3-N ) :   0.2710
B(  1-O ,  6-C ) :   0.8984 B(  1-O ,  7-C ) :   0.2654 B(  2-P ,  4-N ) :   0.1157
B(  2-P ,  5-C ) :   0.5090 B(  2-P , 15-H ) :   0.9941 B(  3-N ,  5-C ) :   0.5401
B(  3-N ,  6-C ) :   1.2157 B(  3-N ,  9-H ) :   1.1326 B(  4-N ,  5-C ) :   0.6892
B(  4-N ,  7-C ) :   0.8882 B(  4-N ,  8-C ) :   0.9134 B(  5-C , 16-H ) :   0.8839
B(  6-C ,  7-C ) :   1.2634 B(  7-C , 10-H ) :   0.9162 B(  7-C , 11-H ) :   0.8723
B(  8-C , 12-H ) :   0.9479 B(  8-C , 13-H ) :   0.8776 B(  8-C , 14-H ) :   0.9612

MP2 TOTAL ENERGY:    -1142.107331395 Eh
FINAL SINGLE POINT ENERGY     -1142.107331395393

DIPOLE MOMENT
-------------
                                X             Y             Z
Electronic contribution:    -13.64393      -6.05846       1.17896
Nuclear contribution   :     13.64672       7.52354      -1.52009
                        -----------------------------------------
Total Dipole Moment    :      0.00279       1.46508      -0.34113
                        -----------------------------------------
Magnitude (a.u.)       :      1.50427
Magnitude (Debye)      :      3.82355

Rotational constants in cm-1:     0.059492     0.026508     0.019624
Rotational constants in MHz :  1783.531671   794.692308   588.324743

                             ****ORCA TERMINATED NORMALLY****
TOTAL RUN TIME: 0 days 3 hours 14 minutes 7 seconds 571 msec
