                         Program Version 5.0.4 -  RELEASE  -
|  1> ! ri-mp2 aug-cc-pvdz aug-cc-pvdz/c tightscf
|  2> %pal nprocs 16 end
|  3> %maxcore 3800
|  4> %base "DZ_B-Cl_52_AB"
|  5>
|  6> *xyz 0 1
|  7> Cl        -0.000000   -0.492203    1.519750
|  8> B         0.000000    0.353428    0.000000
|  9> Cl        -0.000000   -0.492203   -1.519750
| 10> F        -0.000000    1.663086   -0.000000
| 11> *
| 12>
| 13> $new_job
| 14> ! ri-mp2 aug-cc-pvtz aug-cc-pvtz/c tightscf
| 15> %pal nprocs 16 end
| 16> %maxcore 3800
| 17> %base "TZ_B-Cl_52_AB"
| 18>
| 19> *xyz 0 1
| 20> Cl        -0.000000   -0.492203    1.519750
| 21> B         0.000000    0.353428    0.000000
| 22> Cl        -0.000000   -0.492203   -1.519750
| 23> F        -0.000000    1.663086   -0.000000
| 24> *
| 25>
| 26> $new_job
| 27> ! ri-mp2 aug-cc-pvqz aug-cc-pvqz/c tightscf
| 28> %pal nprocs 16 end
| 29> %maxcore 3800
| 30> %base "QZ_B-Cl_52_AB"
| 31>
| 32> *xyz 0 1
| 33> Cl        -0.000000   -0.492203    1.519750
| 34> B         0.000000    0.353428    0.000000
| 35> Cl        -0.000000   -0.492203   -1.519750
| 36> F        -0.000000    1.663086   -0.000000
| 37> *
| 38>
| 39>
| 40>
| 41>
| 42>                          ****END OF INPUT****
 Total Charge           Charge          ....    0
 Multiplicity           Mult            ....    1
 Number of Electrons    NEL             ....   48
MP2 TOTAL ENERGY:    -1043.866064207 Eh
FINAL SINGLE POINT ENERGY     -1043.866064206670
MP2 TOTAL ENERGY:    -1044.093633006 Eh
FINAL SINGLE POINT ENERGY     -1044.093633006338

CARTESIAN COORDINATES (ANGSTROEM)
---------------------------------
  Cl    -0.000000   -0.492203    1.519750
  B      0.000000    0.353428    0.000000
  Cl    -0.000000   -0.492203   -1.519750
  F     -0.000000    1.663086   -0.000000

 Multiplicity           Mult            ....    1
 Number of Electrons    NEL             ....   48
 Basis Dimension        Dim             ....  328

ORBITAL ENERGIES
----------------

  NO   OCC          E(Eh)            E(eV)
   0   2.0000    -104.859881     -2853.3824
   1   2.0000    -104.859881     -2853.3824
   2   2.0000     -26.338876      -716.7172
   3   2.0000     -10.587708      -288.1062
   4   2.0000     -10.587698      -288.1059
   5   2.0000      -8.054588      -219.1765
   6   2.0000      -8.054586      -219.1764
   7   2.0000      -8.053394      -219.1440
   8   2.0000      -8.053393      -219.1440
   9   2.0000      -8.053177      -219.1381
  10   2.0000      -8.053176      -219.1381
  11   2.0000      -7.776099      -211.5984
  12   2.0000      -1.659263       -45.1508
  13   2.0000      -1.160438       -31.5771
  14   2.0000      -1.123338       -30.5676
  15   2.0000      -0.819072       -22.2881
  16   2.0000      -0.736633       -20.0448
  17   2.0000      -0.718641       -19.5552
  18   2.0000      -0.664441       -18.0804
  19   2.0000      -0.564629       -15.3643
  20   2.0000      -0.525721       -14.3056
  21   2.0000      -0.513180       -13.9643
  22   2.0000      -0.486568       -13.2402
  23   2.0000      -0.473116       -12.8741
  24   0.0000       0.033080         0.9001
  25   0.0000       0.040224         1.0945
  26   0.0000       0.041267         1.1229
  27   0.0000       0.041396         1.1264
  28   0.0000       0.087871         2.3911

MULLIKEN ATOMIC CHARGES
-----------------------
   0 Cl:   -0.139551
   1 B :    0.961886
   2 Cl:   -0.139551
   3 F :   -0.682785
Sum of atomic charges:    0.0000000

LOEWDIN ATOMIC CHARGES
----------------------
   0 Cl:    1.164347
   1 B :   -2.991438
   2 Cl:    1.164347
   3 F :    0.662743

  Mayer bond orders larger than 0.100000
B(  0-Cl,  1-B ) :   1.1664 B(  1-B ,  2-Cl) :   1.1664 B(  1-B ,  3-F ) :   0.5425

MP2 TOTAL ENERGY:    -1044.169482790 Eh
FINAL SINGLE POINT ENERGY     -1044.169482790111

DIPOLE MOMENT
-------------
                                X             Y             Z
Electronic contribution:     -0.00000       0.33840      -0.00000
Nuclear contribution   :      0.00000      -0.46445       0.00000
                        -----------------------------------------
Total Dipole Moment    :     -0.00000      -0.12605      -0.00000
                        -----------------------------------------
Magnitude (a.u.)       :      0.12605
Magnitude (Debye)      :      0.32040

Rotational constants in cm-1:     0.237193     0.102937     0.071784
Rotational constants in MHz :  7110.877760  3085.960149  2152.028461

                             ****ORCA TERMINATED NORMALLY****
TOTAL RUN TIME: 0 days 0 hours 1 minutes 5 seconds 522 msec
