                         Program Version 5.0.4 -  RELEASE  -
|  1> ! ri-mp2 aug-cc-pvdz aug-cc-pvdz/c tightscf
|  2> %pal nprocs 16 end
|  3> %maxcore 3800
|  4> %base "DZ_B-B_60_AB"
|  5> %scf
|  6> STABPerform true
|  7> STABRestartUHFifUnstable true
|  8> end
|  9>
| 10> *xyz 0 1
| 11> B        -2.642381   -0.156356    0.185482
| 12> B        -1.192943   -0.893303    0.018226
| 13> P         0.368419   -0.049822   -0.451191
| 14> C         0.429298    1.674772    0.168999
| 15> H         0.460122    1.726828    1.256798
| 16> H        -0.452153    2.210042   -0.182649
| 17> H         1.307899    2.180385   -0.230122
| 18> C         1.818139   -0.867979    0.315678
| 19> H         1.778468   -1.932427    0.090640
| 20> H         1.845128   -0.738428    1.397001
| 21> H         2.737144   -0.464466   -0.108109
| 22> H        -1.107505   -2.085631    0.064446
| 23> H        -3.308299    0.234293   -0.725249
| 24> H        -3.095083    0.024268    1.278503
| 25> *
| 26>
| 27> $new_job
| 28> ! ri-mp2 aug-cc-pvtz aug-cc-pvtz/c tightscf
| 29> %pal nprocs 16 end
| 30> %maxcore 3800
| 31> %base "TZ_B-B_60_AB"
| 32>
| 33> *xyz 0 1
| 34> B        -2.642381   -0.156356    0.185482
| 35> B        -1.192943   -0.893303    0.018226
| 36> P         0.368419   -0.049822   -0.451191
| 37> C         0.429298    1.674772    0.168999
| 38> H         0.460122    1.726828    1.256798
| 39> H        -0.452153    2.210042   -0.182649
| 40> H         1.307899    2.180385   -0.230122
| 41> C         1.818139   -0.867979    0.315678
| 42> H         1.778468   -1.932427    0.090640
| 43> H         1.845128   -0.738428    1.397001
| 44> H         2.737144   -0.464466   -0.108109
| 45> H        -1.107505   -2.085631    0.064446
| 46> H        -3.308299    0.234293   -0.725249
| 47> H        -3.095083    0.024268    1.278503
| 48> *
| 49>
| 50> $new_job
| 51> ! ri-mp2 aug-cc-pvqz aug-cc-pvqz/c tightscf
| 52> %pal nprocs 16 end
| 53> %maxcore 3800
| 54> %base "QZ_B-B_60_AB"
| 55>
| 56> *xyz 0 1
| 57> B        -2.642381   -0.156356    0.185482
| 58> B        -1.192943   -0.893303    0.018226
| 59> P         0.368419   -0.049822   -0.451191
| 60> C         0.429298    1.674772    0.168999
| 61> H         0.460122    1.726828    1.256798
| 62> H        -0.452153    2.210042   -0.182649
| 63> H         1.307899    2.180385   -0.230122
| 64> C         1.818139   -0.867979    0.315678
| 65> H         1.778468   -1.932427    0.090640
| 66> H         1.845128   -0.738428    1.397001
| 67> H         2.737144   -0.464466   -0.108109
| 68> H        -1.107505   -2.085631    0.064446
| 69> H        -3.308299    0.234293   -0.725249
| 70> H        -3.095083    0.024268    1.278503
| 71> *
| 72>
| 73>
| 74>
| 75>
| 76>                          ****END OF INPUT****
 Total Charge           Charge          ....    0
 Multiplicity           Mult            ....    1
 Number of Electrons    NEL             ....   46
MP2 TOTAL ENERGY:     -471.652115302 Eh
FINAL SINGLE POINT ENERGY      -471.652115301899
MP2 TOTAL ENERGY:     -471.824600873 Eh
FINAL SINGLE POINT ENERGY      -471.824600873189

CARTESIAN COORDINATES (ANGSTROEM)
---------------------------------
  B     -2.642381   -0.156356    0.185482
  B     -1.192943   -0.893303    0.018226
  P      0.368419   -0.049822   -0.451191
  C      0.429298    1.674772    0.168999
  H      0.460122    1.726828    1.256798
  H     -0.452153    2.210042   -0.182649
  H      1.307899    2.180385   -0.230122
  C      1.818139   -0.867979    0.315678
  H      1.778468   -1.932427    0.090640
  H      1.845128   -0.738428    1.397001
  H      2.737144   -0.464466   -0.108109
  H     -1.107505   -2.085631    0.064446
  H     -3.308299    0.234293   -0.725249
  H     -3.095083    0.024268    1.278503

 Multiplicity           Mult            ....    1
 Number of Electrons    NEL             ....   46
 Basis Dimension        Dim             ....  818

ORBITAL ENERGIES
----------------

  NO   OCC          E(Eh)            E(eV)
   0   2.0000     -79.919463     -2174.7192
   1   2.0000     -11.229278      -305.5642
   2   2.0000     -11.228115      -305.5325
   3   2.0000      -7.585018      -206.3988
   4   2.0000      -7.575995      -206.1533
   5   2.0000      -7.464696      -203.1247
   6   2.0000      -5.359436      -145.8377
   7   2.0000      -5.359300      -145.8340
   8   2.0000      -5.358792      -145.8201
   9   2.0000      -1.007595       -27.4181
  10   2.0000      -0.945853       -25.7380
  11   2.0000      -0.786932       -21.4135
  12   2.0000      -0.699047       -19.0220
  13   2.0000      -0.611514       -16.6401
  14   2.0000      -0.589454       -16.0399
  15   2.0000      -0.578214       -15.7340
  16   2.0000      -0.564038       -15.3482
  17   2.0000      -0.560364       -15.2483
  18   2.0000      -0.489743       -13.3266
  19   2.0000      -0.484438       -13.1822
  20   2.0000      -0.448537       -12.2053
  21   2.0000      -0.423127       -11.5139
  22   2.0000      -0.315219        -8.5775
  23   0.0000       0.021041         0.5726
  24   0.0000       0.029400         0.8000
  25   0.0000       0.030479         0.8294
  26   0.0000       0.033293         0.9060
  27   0.0000       0.041489         1.1290

MULLIKEN ATOMIC CHARGES
-----------------------
   0 B :    0.547083
   1 B :   -0.009861
   2 P :    0.602713
   3 C :   -1.208662
   4 H :    0.324097
   5 H :    0.328433
   6 H :    0.338677
   7 C :   -1.202346
   8 H :    0.365176
   9 H :    0.306936
  10 H :    0.333518
  11 H :   -0.256162
  12 H :   -0.235748
  13 H :   -0.233855
Sum of atomic charges:    0.0000000

LOEWDIN ATOMIC CHARGES
----------------------
   0 B :    0.389772
   1 B :   -0.196271
   2 P :    1.017096
   3 C :    0.779973
   4 H :   -0.338469
   5 H :   -0.358346
   6 H :   -0.351595
   7 C :    0.777221
   8 H :   -0.363731
   9 H :   -0.340335
  10 H :   -0.355077
  11 H :   -0.237267
  12 H :   -0.210667
  13 H :   -0.212304

  Mayer bond orders larger than 0.100000
B(  0-B ,  1-B ) :   0.9755 B(  0-B , 12-H ) :   0.9802 B(  0-B , 13-H ) :   0.9820
B(  1-B ,  2-P ) :   1.2416 B(  1-B , 11-H ) :   0.8787 B(  2-P ,  3-C ) :   0.8809
B(  2-P ,  7-C ) :   0.9011 B(  3-C ,  4-H ) :   0.8654 B(  3-C ,  5-H ) :   0.8945
B(  3-C ,  6-H ) :   0.9010 B(  7-C ,  8-H ) :   0.8692 B(  7-C ,  9-H ) :   0.8877
B(  7-C , 10-H ) :   0.8917

MP2 TOTAL ENERGY:     -471.876584677 Eh
FINAL SINGLE POINT ENERGY      -471.876584676587

DIPOLE MOMENT
-------------
                                X             Y             Z
Electronic contribution:     -2.47703      -1.87737      -2.67069
Nuclear contribution   :      2.92921       2.06494       3.13231
                        -----------------------------------------
Total Dipole Moment    :      0.45218       0.18758       0.46162
                        -----------------------------------------
Magnitude (a.u.)       :      0.67287
Magnitude (Debye)      :      1.71029

Rotational constants in cm-1:     0.193330     0.089111     0.067838
Rotational constants in MHz :  5795.883973  2671.486232  2033.739668

                             ****ORCA TERMINATED NORMALLY****
TOTAL RUN TIME: 0 days 1 hours 1 minutes 0 seconds 570 msec
