                         Program Version 5.0.4 -  RELEASE  -
|  1> ! ri-mp2 aug-cc-pvdz aug-cc-pvdz/c tightscf
|  2> %pal nprocs 16 end
|  3> %maxcore 3800
|  4> %base "DZ_Si-F_28_AB"
|  5>
|  6> *xyz 0 1
|  7> Si        -0.755327    0.000000    0.384108
|  8> F        -1.499631    1.270470   -0.216102
|  9> C         1.006753    0.000000   -0.186673
| 10> F        -1.499631   -1.270470   -0.216102
| 11> F         1.751523    1.063345   -0.020425
| 12> F         1.751523   -1.063345   -0.020425
| 13> *
| 14>
| 15> $new_job
| 16> ! ri-mp2 aug-cc-pvtz aug-cc-pvtz/c tightscf
| 17> %pal nprocs 16 end
| 18> %maxcore 3800
| 19> %base "TZ_Si-F_28_AB"
| 20>
| 21> *xyz 0 1
| 22> Si        -0.755327    0.000000    0.384108
| 23> F        -1.499631    1.270470   -0.216102
| 24> C         1.006753    0.000000   -0.186673
| 25> F        -1.499631   -1.270470   -0.216102
| 26> F         1.751523    1.063345   -0.020425
| 27> F         1.751523   -1.063345   -0.020425
| 28> *
| 29>
| 30> $new_job
| 31> ! ri-mp2 aug-cc-pvqz aug-cc-pvqz/c tightscf
| 32> %pal nprocs 16 end
| 33> %maxcore 3800
| 34> %base "QZ_Si-F_28_AB"
| 35>
| 36> *xyz 0 1
| 37> Si        -0.755327    0.000000    0.384108
| 38> F        -1.499631    1.270470   -0.216102
| 39> C         1.006753    0.000000   -0.186673
| 40> F        -1.499631   -1.270470   -0.216102
| 41> F         1.751523    1.063345   -0.020425
| 42> F         1.751523   -1.063345   -0.020425
| 43> *
| 44>
| 45>
| 46>
| 47>
| 48>                          ****END OF INPUT****
 Total Charge           Charge          ....    0
 Multiplicity           Mult            ....    1
 Number of Electrons    NEL             ....   56
MP2 TOTAL ENERGY:     -725.649834737 Eh
FINAL SINGLE POINT ENERGY      -725.649834737101
MP2 TOTAL ENERGY:     -726.055142167 Eh
FINAL SINGLE POINT ENERGY      -726.055142166807

CARTESIAN COORDINATES (ANGSTROEM)
---------------------------------
  Si    -0.755327    0.000000    0.384108
  F     -1.499631    1.270470   -0.216102
  C      1.006753    0.000000   -0.186673
  F     -1.499631   -1.270470   -0.216102
  F      1.751523    1.063345   -0.020425
  F      1.751523   -1.063345   -0.020425

 Multiplicity           Mult            ....    1
 Number of Electrons    NEL             ....   56
 Basis Dimension        Dim             ....  484

ORBITAL ENERGIES
----------------

  NO   OCC          E(Eh)            E(eV)
   0   2.0000     -68.867959     -1873.9924
   1   2.0000     -26.384641      -717.9626
   2   2.0000     -26.384617      -717.9619
   3   2.0000     -26.312309      -715.9943
   4   2.0000     -26.312300      -715.9941
   5   2.0000     -11.477437      -312.3169
   6   2.0000      -6.207539      -168.9157
   7   2.0000      -4.314191      -117.3951
   8   2.0000      -4.313394      -117.3734
   9   2.0000      -4.311750      -117.3287
  10   2.0000      -1.749385       -47.6032
  11   2.0000      -1.678877       -45.6846
  12   2.0000      -1.624820       -44.2136
  13   2.0000      -1.605583       -43.6901
  14   2.0000      -0.988886       -26.9089
  15   2.0000      -0.853095       -23.2139
  16   2.0000      -0.836740       -22.7689
  17   2.0000      -0.797528       -21.7019
  18   2.0000      -0.788374       -21.4527
  19   2.0000      -0.733568       -19.9614
  20   2.0000      -0.721508       -19.6332
  21   2.0000      -0.708838       -19.2885
  22   2.0000      -0.705499       -19.1976
  23   2.0000      -0.702118       -19.1056
  24   2.0000      -0.678340       -18.4586
  25   2.0000      -0.661800       -18.0085
  26   2.0000      -0.616633       -16.7794
  27   2.0000      -0.338530        -9.2119
  28   0.0000      -0.007291        -0.1984
  29   0.0000       0.036628         0.9967
  30   0.0000       0.041062         1.1174
  31   0.0000       0.043490         1.1834
  32   0.0000       0.053492         1.4556

MULLIKEN ATOMIC CHARGES
-----------------------
   0 Si:    1.670047
   1 F :   -0.700886
   2 C :    0.717222
   3 F :   -0.700886
   4 F :   -0.492748
   5 F :   -0.492748
Sum of atomic charges:   -0.0000000

LOEWDIN ATOMIC CHARGES
----------------------
   0 Si:   -0.571159
   1 F :    0.320815
   2 C :   -1.371605
   3 F :    0.320815
   4 F :    0.650567
   5 F :    0.650567

  Mayer bond orders larger than 0.100000
B(  0-Si,  1-F ) :   0.4344 B(  0-Si,  2-C ) :   1.2586 B(  0-Si,  3-F ) :   0.4344
B(  2-C ,  4-F ) :   0.7628 B(  2-C ,  5-F ) :   0.7628

MP2 TOTAL ENERGY:     -726.190439950 Eh
FINAL SINGLE POINT ENERGY      -726.190439949756

DIPOLE MOMENT
-------------
                                X             Y             Z
Electronic contribution:      0.67575      -0.00000      -0.25143
Nuclear contribution   :     -0.40920       0.00000       0.40212
                        -----------------------------------------
Total Dipole Moment    :      0.26655      -0.00000       0.15070
                        -----------------------------------------
Magnitude (a.u.)       :      0.30620
Magnitude (Debye)      :      0.77830

Rotational constants in cm-1:     0.152364     0.071261     0.050396
Rotational constants in MHz :  4567.747414  2136.361355  1510.838769

                             ****ORCA TERMINATED NORMALLY****
TOTAL RUN TIME: 0 days 0 hours 2 minutes 21 seconds 9 msec
