                         Program Version 5.0.4 -  RELEASE  -
|  1> ! ri-mp2 aug-cc-pvdz aug-cc-pvdz/c tightscf
|  2> %pal nprocs 16 end
|  3> %maxcore 3800
|  4> %base "DZ_B-P_60_AB"
|  5>
|  6> *xyz 0 1
|  7> C        -2.007058    1.589712   -0.754956
|  8> C        -0.703805    1.673019   -0.295078
|  9> C        -2.767294    0.455417   -0.548942
| 10> C        -2.231105   -0.627913    0.143795
| 11> C        -0.923043   -0.536335    0.617555
| 12> C        -0.152592    0.600682    0.397554
| 13> H        -0.512526   -1.365128    1.185019
| 14> H        -3.782341    0.403218   -0.922328
| 15> H        -2.437768    2.424401   -1.292787
| 16> H        -0.119388    2.563372   -0.479813
| 17> B         2.439584   -0.456820   -0.337227
| 18> O         3.792828   -0.459911   -0.462268
| 19> O         1.754791   -1.272316   -1.169681
| 20> N        -2.964392   -1.787637    0.324092
| 21> H        -3.963452   -1.700019    0.250781
| 22> H        -2.671044   -2.391109    1.073254
| 23> H         4.262138    0.090589    0.167385
| 24> H         0.797810   -1.193748   -1.089863
| 25> P         1.555998    0.602358    1.044547
| 26> H         1.967853    1.860937    0.553657
| 27> *
| 28>
| 29> $new_job
| 30> ! ri-mp2 aug-cc-pvtz aug-cc-pvtz/c tightscf
| 31> %pal nprocs 16 end
| 32> %maxcore 3800
| 33> %base "TZ_B-P_60_AB"
| 34>
| 35> *xyz 0 1
| 36> C        -2.007058    1.589712   -0.754956
| 37> C        -0.703805    1.673019   -0.295078
| 38> C        -2.767294    0.455417   -0.548942
| 39> C        -2.231105   -0.627913    0.143795
| 40> C        -0.923043   -0.536335    0.617555
| 41> C        -0.152592    0.600682    0.397554
| 42> H        -0.512526   -1.365128    1.185019
| 43> H        -3.782341    0.403218   -0.922328
| 44> H        -2.437768    2.424401   -1.292787
| 45> H        -0.119388    2.563372   -0.479813
| 46> B         2.439584   -0.456820   -0.337227
| 47> O         3.792828   -0.459911   -0.462268
| 48> O         1.754791   -1.272316   -1.169681
| 49> N        -2.964392   -1.787637    0.324092
| 50> H        -3.963452   -1.700019    0.250781
| 51> H        -2.671044   -2.391109    1.073254
| 52> H         4.262138    0.090589    0.167385
| 53> H         0.797810   -1.193748   -1.089863
| 54> P         1.555998    0.602358    1.044547
| 55> H         1.967853    1.860937    0.553657
| 56> *
| 57>
| 58> $new_job
| 59> ! ri-mp2 aug-cc-pvqz aug-cc-pvqz/c tightscf
| 60> %pal nprocs 16 end
| 61> %maxcore 3800
| 62> %base "QZ_B-P_60_AB"
| 63>
| 64> *xyz 0 1
| 65> C        -2.007058    1.589712   -0.754956
| 66> C        -0.703805    1.673019   -0.295078
| 67> C        -2.767294    0.455417   -0.548942
| 68> C        -2.231105   -0.627913    0.143795
| 69> C        -0.923043   -0.536335    0.617555
| 70> C        -0.152592    0.600682    0.397554
| 71> H        -0.512526   -1.365128    1.185019
| 72> H        -3.782341    0.403218   -0.922328
| 73> H        -2.437768    2.424401   -1.292787
| 74> H        -0.119388    2.563372   -0.479813
| 75> B         2.439584   -0.456820   -0.337227
| 76> O         3.792828   -0.459911   -0.462268
| 77> O         1.754791   -1.272316   -1.169681
| 78> N        -2.964392   -1.787637    0.324092
| 79> H        -3.963452   -1.700019    0.250781
| 80> H        -2.671044   -2.391109    1.073254
| 81> H         4.262138    0.090589    0.167385
| 82> H         0.797810   -1.193748   -1.089863
| 83> P         1.555998    0.602358    1.044547
| 84> H         1.967853    1.860937    0.553657
| 85> *
| 86>
| 87>
| 88>
| 89>
| 90>                          ****END OF INPUT****
 Total Charge           Charge          ....    0
 Multiplicity           Mult            ....    1
 Number of Electrons    NEL             ....   88
MP2 TOTAL ENERGY:     -803.823759324 Eh
FINAL SINGLE POINT ENERGY      -803.823759323728
MP2 TOTAL ENERGY:     -804.269422891 Eh
FINAL SINGLE POINT ENERGY      -804.269422890623

CARTESIAN COORDINATES (ANGSTROEM)
---------------------------------
  C     -2.007058    1.589712   -0.754956
  C     -0.703805    1.673019   -0.295078
  C     -2.767294    0.455417   -0.548942
  C     -2.231105   -0.627913    0.143795
  C     -0.923043   -0.536335    0.617555
  C     -0.152592    0.600682    0.397554
  H     -0.512526   -1.365128    1.185019
  H     -3.782341    0.403218   -0.922328
  H     -2.437768    2.424401   -1.292787
  H     -0.119388    2.563372   -0.479813
  B      2.439584   -0.456820   -0.337227
  O      3.792828   -0.459911   -0.462268
  O      1.754791   -1.272316   -1.169681
  N     -2.964392   -1.787637    0.324092
  H     -3.963452   -1.700019    0.250781
  H     -2.671044   -2.391109    1.073254
  H      4.262138    0.090589    0.167385
  H      0.797810   -1.193748   -1.089863
  P      1.555998    0.602358    1.044547
  H      1.967853    1.860937    0.553657

 Multiplicity           Mult            ....    1
 Number of Electrons    NEL             ....   88
 Basis Dimension        Dim             .... 1298

ORBITAL ENERGIES
----------------

  NO   OCC          E(Eh)            E(eV)
   0   2.0000     -79.928541     -2174.9662
   1   2.0000     -20.567625      -559.6735
   2   2.0000     -20.561579      -559.5090
   3   2.0000     -15.574279      -423.7977
   4   2.0000     -11.290390      -307.2271
   5   2.0000     -11.253865      -306.2332
   6   2.0000     -11.244589      -305.9808
   7   2.0000     -11.234160      -305.6970
   8   2.0000     -11.230938      -305.6094
   9   2.0000     -11.228214      -305.5352
  10   2.0000      -7.648421      -208.1241
  11   2.0000      -7.473916      -203.3756
  12   2.0000      -5.368317      -146.0793
  13   2.0000      -5.367727      -146.0633
  14   2.0000      -5.367210      -146.0492
  15   2.0000      -1.382894       -37.6305
  16   2.0000      -1.347764       -36.6745
  17   2.0000      -1.241393       -33.7800
  18   2.0000      -1.145730       -31.1769
  19   2.0000      -1.034851       -28.1597
  20   2.0000      -1.002645       -27.2834
  21   2.0000      -0.880305       -23.9543
  22   2.0000      -0.835994       -22.7486
  23   2.0000      -0.802338       -21.8327
  24   2.0000      -0.787532       -21.4298
  25   2.0000      -0.709667       -19.3110
  26   2.0000      -0.697068       -18.9682
  27   2.0000      -0.679067       -18.4784
  28   2.0000      -0.666575       -18.1384
  29   2.0000      -0.625832       -17.0298
  30   2.0000      -0.612357       -16.6631
  31   2.0000      -0.602400       -16.3921
  32   2.0000      -0.592576       -16.1248
  33   2.0000      -0.574431       -15.6311
  34   2.0000      -0.556426       -15.1411
  35   2.0000      -0.551258       -15.0005
  36   2.0000      -0.516081       -14.0433
  37   2.0000      -0.500883       -13.6297
  38   2.0000      -0.491008       -13.3610
  39   2.0000      -0.469920       -12.7872
  40   2.0000      -0.442963       -12.0536
  41   2.0000      -0.384906       -10.4738
  42   2.0000      -0.331265        -9.0142
  43   2.0000      -0.303483        -8.2582
  44   0.0000       0.018357         0.4995
  45   0.0000       0.025440         0.6923
  46   0.0000       0.026935         0.7329
  47   0.0000       0.035592         0.9685
  48   0.0000       0.040542         1.1032

MULLIKEN ATOMIC CHARGES
-----------------------
   0 C :   -0.411322
   1 C :   -0.545820
   2 C :   -0.379902
   3 C :    0.649323
   4 C :   -0.159354
   5 C :    0.026897
   6 H :    0.342175
   7 H :    0.321940
   8 H :    0.196610
   9 H :    0.294630
  10 B :    1.393162
  11 O :   -1.156644
  12 O :   -1.151818
  13 N :   -0.842132
  14 H :    0.248136
  15 H :    0.266613
  16 H :    0.357146
  17 H :    0.430514
  18 P :    0.246913
  19 H :   -0.127068
Sum of atomic charges:   -0.0000000

LOEWDIN ATOMIC CHARGES
----------------------
   0 C :    0.338032
   1 C :    0.260750
   2 C :    0.343964
   3 C :   -0.239827
   4 C :    0.229633
   5 C :   -0.332618
   6 H :   -0.332194
   7 H :   -0.320502
   8 H :   -0.314779
   9 H :   -0.349860
  10 B :   -1.394199
  11 O :    1.292062
  12 O :    1.325446
  13 N :    1.280055
  14 H :   -0.501960
  15 H :   -0.500539
  16 H :   -0.827910
  17 H :   -0.873825
  18 P :    1.363936
  19 H :   -0.445666

  Mayer bond orders larger than 0.100000
B(  0-C ,  1-C ) :   1.3428 B(  0-C ,  2-C ) :   1.2587 B(  0-C ,  3-C ) :  -0.2443
B(  0-C ,  4-C ) :   0.1246 B(  0-C ,  5-C ) :  -0.2880 B(  0-C ,  8-H ) :   1.2044
B(  1-C ,  2-C ) :   0.1736 B(  1-C ,  3-C ) :   0.1027 B(  1-C ,  5-C ) :   0.9136
B(  1-C ,  8-H ) :  -0.1340 B(  1-C ,  9-H ) :   0.9565 B(  2-C ,  3-C ) :   1.0744
B(  2-C ,  7-H ) :   0.9197 B(  2-C ,  8-H ) :  -0.1709 B(  3-C ,  4-C ) :   1.4196
B(  3-C ,  5-C ) :  -0.3334 B(  3-C ,  6-H ) :  -0.1069 B(  3-C ,  7-H ) :  -0.1113
B(  3-C , 13-N ) :   0.7069 B(  4-C ,  5-C ) :   0.7999 B(  4-C ,  6-H ) :   0.9282
B(  4-C , 18-P ) :  -0.3827 B(  5-C ,  6-H ) :  -0.1950 B(  5-C , 18-P ) :   0.8480
B(  5-C , 19-H ) :  -0.1680 B( 10-B , 11-O ) :   0.4029 B( 10-B , 12-O ) :   0.3847
B( 10-B , 18-P ) :   1.0159 B( 11-O , 16-H ) :   0.9255 B( 12-O , 17-H ) :   0.8374
B( 13-N , 14-H ) :   0.9720 B( 13-N , 15-H ) :   0.9419 B( 18-P , 19-H ) :   0.9880

MP2 TOTAL ENERGY:     -804.413539377 Eh
FINAL SINGLE POINT ENERGY      -804.413539377234

DIPOLE MOMENT
-------------
                                X             Y             Z
Electronic contribution:      8.43596      -0.05589       1.85552
Nuclear contribution   :     -9.62346       0.43943      -1.27340
                        -----------------------------------------
Total Dipole Moment    :     -1.18750       0.38354       0.58211
                        -----------------------------------------
Magnitude (a.u.)       :      1.37699
Magnitude (Debye)      :      3.50003

Rotational constants in cm-1:     0.059870     0.018504     0.016531
Rotational constants in MHz :  1794.858037   554.733105   495.600925

                             ****ORCA TERMINATED NORMALLY****
TOTAL RUN TIME: 0 days 0 hours 51 minutes 2 seconds 446 msec
