                         Program Version 5.0.4 -  RELEASE  -
|  1> ! ri-mp2 aug-cc-pvdz aug-cc-pvdz/c tightscf
|  2> %pal nprocs 16 end
|  3> %maxcore 3800
|  4> %base "DZ_B-F_43_AB"
|  5>
|  6> *xyz 0 1
|  7> F        -1.618804   -1.436542    0.000002
|  8> F        -2.155367    0.743788   -0.000002
|  9> B        -1.215138   -0.188687    0.000000
| 10> C         0.302544    0.213612    0.000001
| 11> N         1.113085   -0.764692   -0.000001
| 12> C         2.538853   -0.557172   -0.000000
| 13> H         2.955291   -1.061489    0.873705
| 14> H         2.867402    0.484321   -0.000002
| 15> H         2.955293   -1.061494   -0.873703
| 16> C         0.680967    1.677302    0.000001
| 17> H        -0.207912    2.303356    0.000001
| 18> H         1.273692    1.931961   -0.879814
| 19> H         1.273695    1.931962    0.879813
| 20> *
| 21>
| 22> $new_job
| 23> ! ri-mp2 aug-cc-pvtz aug-cc-pvtz/c tightscf
| 24> %pal nprocs 16 end
| 25> %maxcore 3800
| 26> %base "TZ_B-F_43_AB"
| 27>
| 28> *xyz 0 1
| 29> F        -1.618804   -1.436542    0.000002
| 30> F        -2.155367    0.743788   -0.000002
| 31> B        -1.215138   -0.188687    0.000000
| 32> C         0.302544    0.213612    0.000001
| 33> N         1.113085   -0.764692   -0.000001
| 34> C         2.538853   -0.557172   -0.000000
| 35> H         2.955291   -1.061489    0.873705
| 36> H         2.867402    0.484321   -0.000002
| 37> H         2.955293   -1.061494   -0.873703
| 38> C         0.680967    1.677302    0.000001
| 39> H        -0.207912    2.303356    0.000001
| 40> H         1.273692    1.931961   -0.879814
| 41> H         1.273695    1.931962    0.879813
| 42> *
| 43>
| 44> $new_job
| 45> ! ri-mp2 aug-cc-pvqz aug-cc-pvqz/c tightscf
| 46> %pal nprocs 16 end
| 47> %maxcore 3800
| 48> %base "QZ_B-F_43_AB"
| 49>
| 50> *xyz 0 1
| 51> F        -1.618804   -1.436542    0.000002
| 52> F        -2.155367    0.743788   -0.000002
| 53> B        -1.215138   -0.188687    0.000000
| 54> C         0.302544    0.213612    0.000001
| 55> N         1.113085   -0.764692   -0.000001
| 56> C         2.538853   -0.557172   -0.000000
| 57> H         2.955291   -1.061489    0.873705
| 58> H         2.867402    0.484321   -0.000002
| 59> H         2.955293   -1.061494   -0.873703
| 60> C         0.680967    1.677302    0.000001
| 61> H        -0.207912    2.303356    0.000001
| 62> H         1.273692    1.931961   -0.879814
| 63> H         1.273695    1.931962    0.879813
| 64> *
| 65>
| 66>
| 67>
| 68>
| 69>                          ****END OF INPUT****
 Total Charge           Charge          ....    0
 Multiplicity           Mult            ....    1
 Number of Electrons    NEL             ....   54
MP2 TOTAL ENERGY:     -396.340966095 Eh
FINAL SINGLE POINT ENERGY      -396.340966095134
MP2 TOTAL ENERGY:     -396.692900152 Eh
FINAL SINGLE POINT ENERGY      -396.692900152258

CARTESIAN COORDINATES (ANGSTROEM)
---------------------------------
  F     -1.618804   -1.436542    0.000002
  F     -2.155367    0.743788   -0.000002
  B     -1.215138   -0.188687    0.000000
  C      0.302544    0.213612    0.000001
  N      1.113085   -0.764692   -0.000001
  C      2.538853   -0.557172   -0.000000
  H      2.955291   -1.061489    0.873705
  H      2.867402    0.484321   -0.000002
  H      2.955293   -1.061494   -0.873703
  C      0.680967    1.677302    0.000001
  H     -0.207912    2.303356    0.000001
  H      1.273692    1.931961   -0.879814
  H      1.273695    1.931962    0.879813

 Multiplicity           Mult            ....    1
 Number of Electrons    NEL             ....   54
 Basis Dimension        Dim             ....  836

ORBITAL ENERGIES
----------------

  NO   OCC          E(Eh)            E(eV)
   0   2.0000     -26.310045      -715.9327
   1   2.0000     -26.302773      -715.7348
   2   2.0000     -15.576205      -423.8501
   3   2.0000     -11.270631      -306.6894
   4   2.0000     -11.253546      -306.2246
   5   2.0000     -11.235492      -305.7333
   6   2.0000      -7.704023      -209.6371
   7   2.0000      -1.641453       -44.6662
   8   2.0000      -1.608225       -43.7620
   9   2.0000      -1.243907       -33.8484
  10   2.0000      -1.016387       -27.6573
  11   2.0000      -0.951932       -25.9034
  12   2.0000      -0.825525       -22.4637
  13   2.0000      -0.774112       -21.0646
  14   2.0000      -0.756062       -20.5735
  15   2.0000      -0.710218       -19.3260
  16   2.0000      -0.705127       -19.1875
  17   2.0000      -0.654467       -17.8089
  18   2.0000      -0.651471       -17.7274
  19   2.0000      -0.640493       -17.4287
  20   2.0000      -0.619376       -16.8541
  21   2.0000      -0.613165       -16.6851
  22   2.0000      -0.574417       -15.6307
  23   2.0000      -0.554013       -15.0755
  24   2.0000      -0.519335       -14.1318
  25   2.0000      -0.418795       -11.3960
  26   2.0000      -0.405643       -11.0381
  27   0.0000       0.020112         0.5473
  28   0.0000       0.031942         0.8692
  29   0.0000       0.032565         0.8861
  30   0.0000       0.037332         1.0158
  31   0.0000       0.048584         1.3220

MULLIKEN ATOMIC CHARGES
-----------------------
   0 F :   -0.844190
   1 F :   -0.834168
   2 B :    1.845532
   3 C :    0.238139
   4 N :   -0.539159
   5 C :   -0.788659
   6 H :    0.324403
   7 H :    0.258800
   8 H :    0.324403
   9 C :   -0.721895
  10 H :    0.289826
  11 H :    0.223485
  12 H :    0.223485
Sum of atomic charges:   -0.0000000

LOEWDIN ATOMIC CHARGES
----------------------
   0 F :    0.829498
   1 F :    0.827744
   2 B :   -1.763991
   3 C :   -0.197252
   4 N :    0.598394
   5 C :    0.688110
   6 H :   -0.309100
   7 H :   -0.346611
   8 H :   -0.309098
   9 C :    0.876639
  10 H :   -0.322875
  11 H :   -0.285729
  12 H :   -0.285729

  Mayer bond orders larger than 0.100000
B(  0-F ,  2-B ) :   0.2965 B(  1-F ,  2-B ) :   0.2506 B(  1-F ,  3-C ) :  -0.1021
B(  2-B ,  3-C ) :   0.9211 B(  3-C ,  4-N ) :   1.5722 B(  3-C ,  9-C ) :   0.8265
B(  4-N ,  5-C ) :   0.9213 B(  5-C ,  6-H ) :   0.9059 B(  5-C ,  7-H ) :   0.9524
B(  5-C ,  8-H ) :   0.9059 B(  9-C , 10-H ) :   0.9504 B(  9-C , 11-H ) :   0.9639
B(  9-C , 12-H ) :   0.9639

MP2 TOTAL ENERGY:     -396.804017150 Eh
FINAL SINGLE POINT ENERGY      -396.804017149687

DIPOLE MOMENT
-------------
                                X             Y             Z
Electronic contribution:    -14.38216      -4.34267       0.00000
Nuclear contribution   :     15.30558       5.18259      -0.00000
                        -----------------------------------------
Total Dipole Moment    :      0.92343       0.83993       0.00000
                        -----------------------------------------
Magnitude (a.u.)       :      1.24828
Magnitude (Debye)      :      3.17286

Rotational constants in cm-1:     0.147143     0.059067     0.042811
Rotational constants in MHz :  4411.234131  1770.791237  1283.454253

                             ****ORCA TERMINATED NORMALLY****
TOTAL RUN TIME: 0 days 0 hours 13 minutes 1 seconds 535 msec
