                         Program Version 5.0.4 -  RELEASE  -
|  1> ! ri-mp2 aug-cc-pvdz aug-cc-pvdz/c tightscf
|  2> %pal nprocs 16 end
|  3> %maxcore 3800
|  4> %base "DZ_B-F_51_A"
|  5> %scf
|  6> STABPerform true
|  7> STABRestartUHFifUnstable true
|  8> end
|  9>
| 10> *xyz 0 2
| 11> F        -2.486633   -0.271209   -0.615392
| 12> B        -1.361057   -0.868880   -0.346089
| 13> C        -0.124227   -0.045655    0.269548
| 14> O         0.261115    0.776547   -0.814518
| 15> O         0.934730   -0.849342    0.713961
| 16> C         1.257909    1.745656   -0.546222
| 17> H         1.597692    2.112938   -1.511770
| 18> H         2.101381    1.309181   -0.008063
| 19> H         0.858305    2.583374    0.029867
| 20> C         1.495885   -1.705163   -0.259482
| 21> H         2.226208   -2.325951    0.253930
| 22> H         1.990495   -1.140615   -1.052395
| 23> H         0.728915   -2.343676   -0.708618
| 24> C        -0.591769    0.738278    1.485585
| 25> H        -1.337856    1.476613    1.196778
| 26> H         0.254217    1.235673    1.957487
| 27> H        -1.027927    0.061410    2.219644
| 28> *
| 29>
| 30> $new_job
| 31> ! ri-mp2 aug-cc-pvtz aug-cc-pvtz/c tightscf
| 32> %pal nprocs 16 end
| 33> %maxcore 3800
| 34> %base "TZ_B-F_51_A"
| 35>
| 36> *xyz 0 2
| 37> F        -2.486633   -0.271209   -0.615392
| 38> B        -1.361057   -0.868880   -0.346089
| 39> C        -0.124227   -0.045655    0.269548
| 40> O         0.261115    0.776547   -0.814518
| 41> O         0.934730   -0.849342    0.713961
| 42> C         1.257909    1.745656   -0.546222
| 43> H         1.597692    2.112938   -1.511770
| 44> H         2.101381    1.309181   -0.008063
| 45> H         0.858305    2.583374    0.029867
| 46> C         1.495885   -1.705163   -0.259482
| 47> H         2.226208   -2.325951    0.253930
| 48> H         1.990495   -1.140615   -1.052395
| 49> H         0.728915   -2.343676   -0.708618
| 50> C        -0.591769    0.738278    1.485585
| 51> H        -1.337856    1.476613    1.196778
| 52> H         0.254217    1.235673    1.957487
| 53> H        -1.027927    0.061410    2.219644
| 54> *
| 55>
| 56> $new_job
| 57> ! ri-mp2 aug-cc-pvqz aug-cc-pvqz/c tightscf
| 58> %pal nprocs 16 end
| 59> %maxcore 3800
| 60> %base "QZ_B-F_51_A"
| 61>
| 62> *xyz 0 2
| 63> F        -2.486633   -0.271209   -0.615392
| 64> B        -1.361057   -0.868880   -0.346089
| 65> C        -0.124227   -0.045655    0.269548
| 66> O         0.261115    0.776547   -0.814518
| 67> O         0.934730   -0.849342    0.713961
| 68> C         1.257909    1.745656   -0.546222
| 69> H         1.597692    2.112938   -1.511770
| 70> H         2.101381    1.309181   -0.008063
| 71> H         0.858305    2.583374    0.029867
| 72> C         1.495885   -1.705163   -0.259482
| 73> H         2.226208   -2.325951    0.253930
| 74> H         1.990495   -1.140615   -1.052395
| 75> H         0.728915   -2.343676   -0.708618
| 76> C        -0.591769    0.738278    1.485585
| 77> H        -1.337856    1.476613    1.196778
| 78> H         0.254217    1.235673    1.957487
| 79> H        -1.027927    0.061410    2.219644
| 80> *
| 81>
| 82>
| 83>
| 84>
| 85>                          ****END OF INPUT****
 Total Charge           Charge          ....    0
 Multiplicity           Mult            ....    2
 Number of Electrons    NEL             ....   63
MP2 TOTAL ENERGY:     -431.821430761 Eh
FINAL SINGLE POINT ENERGY      -431.821430760834
MP2 TOTAL ENERGY:     -432.205501384 Eh
FINAL SINGLE POINT ENERGY      -432.205501384170

CARTESIAN COORDINATES (ANGSTROEM)
---------------------------------
  F     -2.486633   -0.271209   -0.615392
  B     -1.361057   -0.868880   -0.346089
  C     -0.124227   -0.045655    0.269548
  O      0.261115    0.776547   -0.814518
  O      0.934730   -0.849342    0.713961
  C      1.257909    1.745656   -0.546222
  H      1.597692    2.112938   -1.511770
  H      2.101381    1.309181   -0.008063
  H      0.858305    2.583374    0.029867
  C      1.495885   -1.705163   -0.259482
  H      2.226208   -2.325951    0.253930
  H      1.990495   -1.140615   -1.052395
  H      0.728915   -2.343676   -0.708618
  C     -0.591769    0.738278    1.485585
  H     -1.337856    1.476613    1.196778
  H      0.254217    1.235673    1.957487
  H     -1.027927    0.061410    2.219644

 Multiplicity           Mult            ....    2
 Number of Electrons    NEL             ....   63
 Basis Dimension        Dim             .... 1054

ORBITAL ENERGIES
----------------
                 SPIN UP ORBITALS
  NO   OCC          E(Eh)            E(eV)
   0   1.0000     -26.318130      -716.1527
   1   1.0000     -20.564738      -559.5950
   2   1.0000     -20.561419      -559.5047
   3   1.0000     -11.329274      -308.2852
   4   1.0000     -11.272716      -306.7462
   5   1.0000     -11.269135      -306.6488
   6   1.0000     -11.223041      -305.3945
   7   1.0000      -7.679306      -208.9645
   8   1.0000      -1.637736       -44.5651
   9   1.0000      -1.423269       -38.7291
  10   1.0000      -1.350395       -36.7461
  11   1.0000      -1.038458       -28.2579
  12   1.0000      -0.950049       -25.8522
  13   1.0000      -0.926059       -25.1994
  14   1.0000      -0.827117       -22.5070
  15   1.0000      -0.785268       -21.3682
  16   1.0000      -0.730093       -19.8668
  17   1.0000      -0.702795       -19.1240
  18   1.0000      -0.689208       -18.7543
  19   1.0000      -0.680813       -18.5259
  20   1.0000      -0.666786       -18.1442
  21   1.0000      -0.622293       -16.9335
  22   1.0000      -0.603116       -16.4116
  23   1.0000      -0.591843       -16.1049
  24   1.0000      -0.560998       -15.2655
  25   1.0000      -0.538276       -14.6472
  26   1.0000      -0.525150       -14.2901
  27   1.0000      -0.524390       -14.2694
  28   1.0000      -0.469381       -12.7725
  29   1.0000      -0.450796       -12.2668
  30   1.0000      -0.444621       -12.0988
  31   1.0000      -0.343740        -9.3536
  32   0.0000       0.023421         0.6373
  33   0.0000       0.030424         0.8279
  34   0.0000       0.032516         0.8848
  35   0.0000       0.034361         0.9350
  36   0.0000       0.046178         1.2566

                 SPIN DOWN ORBITALS
  NO   OCC          E(Eh)            E(eV)
   0   1.0000     -26.314866      -716.0639
   1   1.0000     -20.564713      -559.5943
   2   1.0000     -20.561839      -559.5161
   3   1.0000     -11.325422      -308.1804
   4   1.0000     -11.272563      -306.7420
   5   1.0000     -11.268677      -306.6363
   6   1.0000     -11.222958      -305.3922
   7   1.0000      -7.660507      -208.4530
   8   1.0000      -1.628680       -44.3186
   9   1.0000      -1.422302       -38.7028
  10   1.0000      -1.350550       -36.7503
  11   1.0000      -1.033830       -28.1320
  12   1.0000      -0.948077       -25.7985
  13   1.0000      -0.924676       -25.1617
  14   1.0000      -0.813487       -22.1361
  15   1.0000      -0.777618       -21.1601
  16   1.0000      -0.709909       -19.3176
  17   1.0000      -0.697147       -18.9703
  18   1.0000      -0.687929       -18.7195
  19   1.0000      -0.668290       -18.1851
  20   1.0000      -0.663988       -18.0680
  21   1.0000      -0.620347       -16.8805
  22   1.0000      -0.602500       -16.3949
  23   1.0000      -0.589370       -16.0376
  24   1.0000      -0.559701       -15.2302
  25   1.0000      -0.537022       -14.6131
  26   1.0000      -0.523613       -14.2482
  27   1.0000      -0.515317       -14.0225
  28   1.0000      -0.458101       -12.4656
  29   1.0000      -0.446811       -12.1583
  30   1.0000      -0.432474       -11.7682
  31   0.0000       0.022139         0.6024
  32   0.0000       0.030588         0.8323
  33   0.0000       0.031582         0.8594
  34   0.0000       0.033998         0.9251
  35   0.0000       0.046588         1.2677

MULLIKEN ATOMIC CHARGES AND SPIN POPULATIONS
--------------------------------------------
   0 F :   -0.812830   -0.021005
   1 B :    0.863294    1.052794
   2 C :    1.673408   -0.053767
   3 O :   -0.916623    0.011987
   4 O :   -0.894857   -0.013264
   5 C :   -0.773318    0.007524
   6 H :    0.415103   -0.000190
   7 H :    0.282043    0.000569
   8 H :    0.306665   -0.000445
   9 C :   -0.755154    0.004944
  10 H :    0.406801    0.000756
  11 H :    0.293965    0.001288
  12 H :    0.282379   -0.026848
  13 C :   -1.240455    0.028060
  14 H :    0.283245    0.000769
  15 H :    0.276920    0.007311
  16 H :    0.309415   -0.000482
Sum of atomic charges         :    0.0000000

LOEWDIN ATOMIC CHARGES AND SPIN POPULATIONS
-------------------------------------------
   0 F :    0.780455    0.145585
   1 B :   -0.730692    0.541526
   2 C :   -0.970980    0.158871
   3 O :    0.858100    0.016333
   4 O :    0.855526    0.009654
   5 C :    0.574966    0.003236
   6 H :   -0.314653    0.001101
   7 H :   -0.315764    0.000764
   8 H :   -0.309993    0.000641
   9 C :    0.555380    0.034859
  10 H :   -0.313464    0.002697
  11 H :   -0.312005    0.003126
  12 H :   -0.345473    0.047270
  13 C :    0.843860    0.024955
  14 H :   -0.282273    0.002818
  15 H :   -0.296578    0.003381
  16 H :   -0.276413    0.003182

  Mayer bond orders larger than 0.100000
B(  0-F ,  1-B ) :   0.2275 B(  1-B ,  2-C ) :   0.6602 B(  2-C ,  3-O ) :   0.2158
B(  2-C ,  4-O ) :   0.4104 B(  2-C ,  9-C ) :  -0.1387 B(  2-C , 13-C ) :   0.6505
B(  3-O ,  5-C ) :   0.9349 B(  3-O , 13-C ) :   0.1077 B(  4-O ,  9-C ) :   0.9489
B(  4-O , 13-C ) :   0.1291 B(  5-C ,  6-H ) :   0.8449 B(  5-C ,  7-H ) :   0.8961
B(  5-C ,  8-H ) :   0.9166 B(  9-C , 10-H ) :   0.8685 B(  9-C , 11-H ) :   0.9198
B(  9-C , 12-H ) :   0.9137 B( 13-C , 14-H ) :   0.9661 B( 13-C , 15-H ) :   0.9667
B( 13-C , 16-H ) :   0.9455

MP2 TOTAL ENERGY:     -432.326122509 Eh
FINAL SINGLE POINT ENERGY      -432.326122509185

DIPOLE MOMENT
-------------
                                X             Y             Z
Electronic contribution:    -10.37353      -3.71754      -3.08296
Nuclear contribution   :     10.90717       3.91582       3.24536
                        -----------------------------------------
Total Dipole Moment    :      0.53364       0.19827       0.16240
                        -----------------------------------------
Magnitude (a.u.)       :      0.59200
Magnitude (Debye)      :      1.50474

Rotational constants in cm-1:     0.080205     0.057096     0.046757
Rotational constants in MHz :  2404.472979  1711.680219  1401.731775

                             ****ORCA TERMINATED NORMALLY****
TOTAL RUN TIME: 0 days 5 hours 41 minutes 44 seconds 519 msec
