                         Program Version 5.0.4 -  RELEASE  -
|  1> ! ri-mp2 aug-cc-pvdz aug-cc-pvdz/c tightscf
|  2> %pal nprocs 16 end
|  3> %maxcore 3800
|  4> %base "DZ_B-Cl_77_AB"
|  5> %scf
|  6> STABPerform true
|  7> STABRestartUHFifUnstable true
|  8> end
|  9>
| 10> *xyz 0 1
| 11> F        -1.730358   -0.000004   -1.299292
| 12> C        -1.697616    0.000006    1.068660
| 13> C        -2.523961    0.000002   -0.182144
| 14> H        -3.162188    0.888250   -0.200663
| 15> H        -3.162191   -0.888244   -0.200655
| 16> N        -0.456738    0.000004    1.092479
| 17> B         0.683234    0.000001    0.307342
| 18> Cl         1.449496   -1.520818   -0.129604
| 19> Cl         1.449502    1.520815   -0.129609
| 20> H        -2.274921    0.000013    1.998402
| 21> *
| 22>
| 23> $new_job
| 24> ! ri-mp2 aug-cc-pvtz aug-cc-pvtz/c tightscf
| 25> %pal nprocs 16 end
| 26> %maxcore 3800
| 27> %base "TZ_B-Cl_77_AB"
| 28>
| 29> *xyz 0 1
| 30> F        -1.730358   -0.000004   -1.299292
| 31> C        -1.697616    0.000006    1.068660
| 32> C        -2.523961    0.000002   -0.182144
| 33> H        -3.162188    0.888250   -0.200663
| 34> H        -3.162191   -0.888244   -0.200655
| 35> N        -0.456738    0.000004    1.092479
| 36> B         0.683234    0.000001    0.307342
| 37> Cl         1.449496   -1.520818   -0.129604
| 38> Cl         1.449502    1.520815   -0.129609
| 39> H        -2.274921    0.000013    1.998402
| 40> *
| 41>
| 42> $new_job
| 43> ! ri-mp2 aug-cc-pvqz aug-cc-pvqz/c tightscf
| 44> %pal nprocs 16 end
| 45> %maxcore 3800
| 46> %base "QZ_B-Cl_77_AB"
| 47>
| 48> *xyz 0 1
| 49> F        -1.730358   -0.000004   -1.299292
| 50> C        -1.697616    0.000006    1.068660
| 51> C        -2.523961    0.000002   -0.182144
| 52> H        -3.162188    0.888250   -0.200663
| 53> H        -3.162191   -0.888244   -0.200655
| 54> N        -0.456738    0.000004    1.092479
| 55> B         0.683234    0.000001    0.307342
| 56> Cl         1.449496   -1.520818   -0.129604
| 57> Cl         1.449502    1.520815   -0.129609
| 58> H        -2.274921    0.000013    1.998402
| 59> *
| 60>
| 61>
| 62>
| 63>
| 64>                          ****END OF INPUT****
 Total Charge           Charge          ....    0
 Multiplicity           Mult            ....    1
 Number of Electrons    NEL             ....   70
MP2 TOTAL ENERGY:    -1176.209692316 Eh
FINAL SINGLE POINT ENERGY     -1176.209692315787
MP2 TOTAL ENERGY:    -1176.547973344 Eh
FINAL SINGLE POINT ENERGY     -1176.547973344302

CARTESIAN COORDINATES (ANGSTROEM)
---------------------------------
  F     -1.730358   -0.000004   -1.299292
  C     -1.697616    0.000006    1.068660
  C     -2.523961    0.000002   -0.182144
  H     -3.162188    0.888250   -0.200663
  H     -3.162191   -0.888244   -0.200655
  N     -0.456738    0.000004    1.092479
  B      0.683234    0.000001    0.307342
  Cl     1.449496   -1.520818   -0.129604
  Cl     1.449502    1.520815   -0.129609
  H     -2.274921    0.000013    1.998402

 Multiplicity           Mult            ....    1
 Number of Electrons    NEL             ....   70
 Basis Dimension        Dim             ....  706

ORBITAL ENERGIES
----------------

  NO   OCC          E(Eh)            E(eV)
   0   2.0000    -104.828233     -2852.5212
   1   2.0000    -104.828233     -2852.5212
   2   2.0000     -26.309597      -715.9205
   3   2.0000     -15.577240      -423.8782
   4   2.0000     -11.345638      -308.7305
   5   2.0000     -11.333062      -308.3883
   6   2.0000     -10.555958      -287.2422
   7   2.0000     -10.555949      -287.2420
   8   2.0000      -8.022847      -218.3128
   9   2.0000      -8.022846      -218.3127
  10   2.0000      -8.021675      -218.2809
  11   2.0000      -8.021673      -218.2808
  12   2.0000      -8.021518      -218.2766
  13   2.0000      -8.021518      -218.2766
  14   2.0000      -7.713189      -209.8865
  15   2.0000      -1.626297       -44.2538
  16   2.0000      -1.261327       -34.3224
  17   2.0000      -1.127161       -30.6716
  18   2.0000      -1.087900       -29.6033
  19   2.0000      -1.026980       -27.9455
  20   2.0000      -0.871818       -23.7234
  21   2.0000      -0.753959       -20.5163
  22   2.0000      -0.745844       -20.2954
  23   2.0000      -0.738823       -20.1044
  24   2.0000      -0.672606       -18.3026
  25   2.0000      -0.622556       -16.9406
  26   2.0000      -0.596846       -16.2410
  27   2.0000      -0.593815       -16.1585
  28   2.0000      -0.569033       -15.4842
  29   2.0000      -0.514964       -14.0129
  30   2.0000      -0.476873       -12.9764
  31   2.0000      -0.470124       -12.7927
  32   2.0000      -0.457410       -12.4468
  33   2.0000      -0.437406       -11.9024
  34   2.0000      -0.417251       -11.3540
  35   0.0000       0.017359         0.4724
  36   0.0000       0.031089         0.8460
  37   0.0000       0.032394         0.8815
  38   0.0000       0.042200         1.1483
  39   0.0000       0.051456         1.4002

MULLIKEN ATOMIC CHARGES
-----------------------
   0 F :   -0.678361
   1 C :   -0.239593
   2 C :    0.126062
   3 H :    0.322089
   4 H :    0.322089
   5 N :   -0.636010
   6 B :    0.788230
   7 Cl:   -0.271808
   8 Cl:   -0.271808
   9 H :    0.539110
Sum of atomic charges:   -0.0000000

LOEWDIN ATOMIC CHARGES
----------------------
   0 F :    0.806076
   1 C :    0.053834
   2 C :   -0.068232
   3 H :   -0.335197
   4 H :   -0.335197
   5 N :    0.433124
   6 B :   -2.659465
   7 Cl:    1.214809
   8 Cl:    1.214810
   9 H :   -0.324561

  Mayer bond orders larger than 0.100000
B(  0-F ,  1-C ) :   0.1003 B(  0-F ,  2-C ) :   0.4687 B(  1-C ,  2-C ) :   0.9460
B(  1-C ,  5-N ) :   1.8095 B(  1-C ,  9-H ) :   0.6850 B(  2-C ,  3-H ) :   0.8823
B(  2-C ,  4-H ) :   0.8823 B(  5-N ,  6-B ) :   1.0849 B(  6-B ,  7-Cl) :   0.9393
B(  6-B ,  8-Cl) :   0.9393

MP2 TOTAL ENERGY:    -1176.660415669 Eh
FINAL SINGLE POINT ENERGY     -1176.660415669395

DIPOLE MOMENT
-------------
                                X             Y             Z
Electronic contribution:      8.95256      -0.00002      -2.22074
Nuclear contribution   :    -10.74881       0.00002       2.79113
                        -----------------------------------------
Total Dipole Moment    :     -1.79626       0.00001       0.57039
                        -----------------------------------------
Magnitude (a.u.)       :      1.88465
Magnitude (Debye)      :      4.79039

Rotational constants in cm-1:     0.071843     0.040276     0.032728
Rotational constants in MHz :  2153.791708  1207.433666   981.155463

                             ****ORCA TERMINATED NORMALLY****
TOTAL RUN TIME: 0 days 0 hours 29 minutes 23 seconds 312 msec
