                         Program Version 5.0.4 -  RELEASE  -
|  1> ! ri-mp2 aug-cc-pvdz aug-cc-pvdz/c tightscf
|  2> %pal nprocs 16 end
|  3> %maxcore 3800
|  4> %base "DZ_S-F_10_A"
|  5> %scf
|  6> STABPerform true
|  7> STABRestartUHFifUnstable true
|  8> end
|  9>
| 10> *xyz 0 2
| 11> S        -1.771215   -0.057846   -0.000200
| 12> Si         0.321391    0.001622    0.000011
| 13> F         0.760365    1.509997    0.002515
| 14> F         0.944063   -0.706970    1.255999
| 15> F         0.944456   -0.702713   -1.258174
| 16> *
| 17>
| 18> $new_job
| 19> ! ri-mp2 aug-cc-pvtz aug-cc-pvtz/c tightscf
| 20> %pal nprocs 16 end
| 21> %maxcore 3800
| 22> %base "TZ_S-F_10_A"
| 23>
| 24> *xyz 0 2
| 25> S        -1.771215   -0.057846   -0.000200
| 26> Si         0.321391    0.001622    0.000011
| 27> F         0.760365    1.509997    0.002515
| 28> F         0.944063   -0.706970    1.255999
| 29> F         0.944456   -0.702713   -1.258174
| 30> *
| 31>
| 32> $new_job
| 33> ! ri-mp2 aug-cc-pvqz aug-cc-pvqz/c tightscf
| 34> %pal nprocs 16 end
| 35> %maxcore 3800
| 36> %base "QZ_S-F_10_A"
| 37>
| 38> *xyz 0 2
| 39> S        -1.771215   -0.057846   -0.000200
| 40> Si         0.321391    0.001622    0.000011
| 41> F         0.760365    1.509997    0.002515
| 42> F         0.944063   -0.706970    1.255999
| 43> F         0.944456   -0.702713   -1.258174
| 44> *
| 45>
| 46>
| 47>
| 48>
| 49>                          ****END OF INPUT****
 Total Charge           Charge          ....    0
 Multiplicity           Mult            ....    2
 Number of Electrons    NEL             ....   57
MP2 TOTAL ENERGY:     -985.830241579 Eh
FINAL SINGLE POINT ENERGY      -985.830241578815
MP2 TOTAL ENERGY:     -986.180140236 Eh
FINAL SINGLE POINT ENERGY      -986.180140235757

CARTESIAN COORDINATES (ANGSTROEM)
---------------------------------
  S     -1.771215   -0.057846   -0.000200
  Si     0.321391    0.001622    0.000011
  F      0.760365    1.509997    0.002515
  F      0.944063   -0.706970    1.255999
  F      0.944456   -0.702713   -1.258174

 Multiplicity           Mult            ....    2
 Number of Electrons    NEL             ....   57
 Basis Dimension        Dim             ....  408

ORBITAL ENERGIES
----------------
                 SPIN UP ORBITALS
  NO   OCC          E(Eh)            E(eV)
   0   1.0000     -92.011320     -2503.7553
   1   1.0000     -68.917616     -1875.3437
   2   1.0000     -26.328194      -716.4266
   3   1.0000     -26.324276      -716.3200
   4   1.0000     -26.324262      -716.3196
   5   1.0000      -9.014660      -245.3014
   6   1.0000      -6.710265      -182.5956
   7   1.0000      -6.691820      -182.0937
   8   1.0000      -6.690800      -182.0659
   9   1.0000      -6.250031      -170.0720
  10   1.0000      -4.359345      -118.6238
  11   1.0000      -4.358891      -118.6115
  12   1.0000      -4.358235      -118.5936
  13   1.0000      -1.652445       -44.9653
  14   1.0000      -1.625389       -44.2291
  15   1.0000      -1.621575       -44.1253
  16   1.0000      -1.019206       -27.7340
  17   1.0000      -0.830540       -22.6002
  18   1.0000      -0.764672       -20.8078
  19   1.0000      -0.761081       -20.7101
  20   1.0000      -0.731967       -19.9178
  21   1.0000      -0.712496       -19.3880
  22   1.0000      -0.710501       -19.3337
  23   1.0000      -0.687446       -18.7064
  24   1.0000      -0.683599       -18.6017
  25   1.0000      -0.667208       -18.1556
  26   1.0000      -0.528901       -14.3921
  27   1.0000      -0.504870       -13.7382
  28   1.0000      -0.439297       -11.9539
  29   0.0000       0.031732         0.8635
  30   0.0000       0.043051         1.1715
  31   0.0000       0.044898         1.2217
  32   0.0000       0.046769         1.2726
  33   0.0000       0.079486         2.1629

                 SPIN DOWN ORBITALS
  NO   OCC          E(Eh)            E(eV)
   0   1.0000     -92.002569     -2503.5172
   1   1.0000     -68.917832     -1875.3495
   2   1.0000     -26.327594      -716.4103
   3   1.0000     -26.324214      -716.3183
   4   1.0000     -26.324201      -716.3179
   5   1.0000      -9.005055      -245.0400
   6   1.0000      -6.687174      -181.9673
   7   1.0000      -6.685750      -181.9285
   8   1.0000      -6.670260      -181.5070
   9   1.0000      -6.250391      -170.0818
  10   1.0000      -4.359361      -118.6242
  11   1.0000      -4.359082      -118.6166
  12   1.0000      -4.358855      -118.6105
  13   1.0000      -1.651745       -44.9463
  14   1.0000      -1.624253       -44.1982
  15   1.0000      -1.621426       -44.1212
  16   1.0000      -0.930740       -25.3267
  17   1.0000      -0.822980       -22.3944
  18   1.0000      -0.762859       -20.7585
  19   1.0000      -0.761239       -20.7144
  20   1.0000      -0.725932       -19.7536
  21   1.0000      -0.710991       -19.3470
  22   1.0000      -0.709756       -19.3134
  23   1.0000      -0.684610       -18.6292
  24   1.0000      -0.683301       -18.5936
  25   1.0000      -0.666686       -18.1415
  26   1.0000      -0.512826       -13.9547
  27   1.0000      -0.419317       -11.4102
  28   0.0000      -0.039295        -1.0693
  29   0.0000       0.032922         0.8959
  30   0.0000       0.044999         1.2245
  31   0.0000       0.045970         1.2509
  32   0.0000       0.046834         1.2744

MULLIKEN ATOMIC CHARGES AND SPIN POPULATIONS
--------------------------------------------
   0 S :   -0.342256    1.052809
   1 Si:    2.360724   -0.068108
   2 F :   -0.669791    0.009654
   3 F :   -0.674330    0.002830
   4 F :   -0.674348    0.002814
Sum of atomic charges         :    0.0000000

LOEWDIN ATOMIC CHARGES AND SPIN POPULATIONS
-------------------------------------------
   0 S :    0.823342    0.759850
   1 Si:   -2.002082    0.218104
   2 F :    0.394796    0.014410
   3 F :    0.391975    0.003828
   4 F :    0.391968    0.003807

  Mayer bond orders larger than 0.100000
B(  0-S ,  1-Si) :   0.9056 B(  1-Si,  2-F ) :   0.5169 B(  1-Si,  3-F ) :   0.5184
B(  1-Si,  4-F ) :   0.5184

MP2 TOTAL ENERGY:     -986.297454305 Eh
FINAL SINGLE POINT ENERGY      -986.297454305481

DIPOLE MOMENT
-------------
                                X             Y             Z
Electronic contribution:      1.92212       0.04909       0.00021
Nuclear contribution   :     -2.35857      -0.08899      -0.00030
                        -----------------------------------------
Total Dipole Moment    :     -0.43645      -0.03991      -0.00009
                        -----------------------------------------
Magnitude (a.u.)       :      0.43827
Magnitude (Debye)      :      1.11399

Rotational constants in cm-1:     0.137788     0.080918     0.080051
Rotational constants in MHz :  4130.784151  2425.860686  2399.864079

                             ****ORCA TERMINATED NORMALLY****
TOTAL RUN TIME: 0 days 0 hours 9 minutes 55 seconds 945 msec
