                         Program Version 5.0.4 -  RELEASE  -
|  1> ! ri-mp2 aug-cc-pvdz aug-cc-pvdz/c tightscf
|  2> %pal nprocs 16 end
|  3> %maxcore 3800
|  4> %base "DZ_B-S_30_B"
|  5> %scf
|  6> STABPerform true
|  7> STABRestartUHFifUnstable true
|  8> end
|  9>
| 10> *xyz 0 2
| 11> B        -0.000000   -0.000000    0.621503
| 12> S        -0.000000    1.581582   -0.156862
| 13> S        -0.000000   -1.581582   -0.156862
| 14> H         0.000000   -2.330033    0.956032
| 15> H         0.000000    2.330033    0.956032
| 16> *
| 17>
| 18> $new_job
| 19> ! ri-mp2 aug-cc-pvtz aug-cc-pvtz/c tightscf
| 20> %pal nprocs 16 end
| 21> %maxcore 3800
| 22> %base "TZ_B-S_30_B"
| 23>
| 24> *xyz 0 2
| 25> B        -0.000000   -0.000000    0.621503
| 26> S        -0.000000    1.581582   -0.156862
| 27> S        -0.000000   -1.581582   -0.156862
| 28> H         0.000000   -2.330033    0.956032
| 29> H         0.000000    2.330033    0.956032
| 30> *
| 31>
| 32> $new_job
| 33> ! ri-mp2 aug-cc-pvqz aug-cc-pvqz/c tightscf
| 34> %pal nprocs 16 end
| 35> %maxcore 3800
| 36> %base "QZ_B-S_30_B"
| 37>
| 38> *xyz 0 2
| 39> B        -0.000000   -0.000000    0.621503
| 40> S        -0.000000    1.581582   -0.156862
| 41> S        -0.000000   -1.581582   -0.156862
| 42> H         0.000000   -2.330033    0.956032
| 43> H         0.000000    2.330033    0.956032
| 44> *
| 45>
| 46>
| 47>
| 48>
| 49>                          ****END OF INPUT****
 Total Charge           Charge          ....    0
 Multiplicity           Mult            ....    2
 Number of Electrons    NEL             ....   39
MP2 TOTAL ENERGY:     -821.268897749 Eh
FINAL SINGLE POINT ENERGY      -821.268897749140
MP2 TOTAL ENERGY:     -821.390065146 Eh
FINAL SINGLE POINT ENERGY      -821.390065146340

CARTESIAN COORDINATES (ANGSTROEM)
---------------------------------
  B     -0.000000   -0.000000    0.621503
  S     -0.000000    1.581582   -0.156862
  S     -0.000000   -1.581582   -0.156862
  H      0.000000   -2.330033    0.956032
  H      0.000000    2.330033    0.956032

 Multiplicity           Mult            ....    2
 Number of Electrons    NEL             ....   39
 Basis Dimension        Dim             ....  340

ORBITAL ENERGIES
----------------
                 SPIN UP ORBITALS
  NO   OCC          E(Eh)            E(eV)
   0   1.0000     -91.968967     -2502.6028
   1   1.0000     -91.968967     -2502.6028
   2   1.0000      -8.973616      -244.1845
   3   1.0000      -8.973611      -244.1844
   4   1.0000      -7.672095      -208.7683
   5   1.0000      -6.655391      -181.1024
   6   1.0000      -6.655387      -181.1023
   7   1.0000      -6.654536      -181.0791
   8   1.0000      -6.654534      -181.0791
   9   1.0000      -6.653458      -181.0498
  10   1.0000      -6.653456      -181.0497
  11   1.0000      -1.023540       -27.8519
  12   1.0000      -0.979921       -26.6650
  13   1.0000      -0.671387       -18.2694
  14   1.0000      -0.557592       -15.1728
  15   1.0000      -0.555567       -15.1178
  16   1.0000      -0.495481       -13.4827
  17   1.0000      -0.442960       -12.0536
  18   1.0000      -0.376391       -10.2421
  19   1.0000      -0.335596        -9.1320
  20   0.0000       0.024264         0.6603
  21   0.0000       0.035254         0.9593
  22   0.0000       0.039460         1.0738
  23   0.0000       0.041535         1.1302
  24   0.0000       0.064221         1.7476

                 SPIN DOWN ORBITALS
  NO   OCC          E(Eh)            E(eV)
   0   1.0000     -91.969142     -2502.6076
   1   1.0000     -91.969142     -2502.6076
   2   1.0000      -8.973851      -244.1909
   3   1.0000      -8.973844      -244.1907
   4   1.0000      -7.652352      -208.2311
   5   1.0000      -6.655584      -181.1077
   6   1.0000      -6.655584      -181.1077
   7   1.0000      -6.654528      -181.0789
   8   1.0000      -6.654525      -181.0788
   9   1.0000      -6.653799      -181.0591
  10   1.0000      -6.653793      -181.0589
  11   1.0000      -1.012362       -27.5478
  12   1.0000      -0.977759       -26.6062
  13   1.0000      -0.644439       -17.5361
  14   1.0000      -0.546201       -14.8629
  15   1.0000      -0.506816       -13.7912
  16   1.0000      -0.479366       -13.0442
  17   1.0000      -0.440239       -11.9795
  18   1.0000      -0.383071       -10.4239
  19   0.0000       0.021912         0.5963
  20   0.0000       0.035460         0.9649
  21   0.0000       0.039677         1.0797
  22   0.0000       0.041896         1.1401
  23   0.0000       0.055416         1.5079

MULLIKEN ATOMIC CHARGES AND SPIN POPULATIONS
--------------------------------------------
   0 B :   -0.017700    1.024525
   1 S :   -0.103810   -0.035733
   2 S :   -0.103810   -0.035733
   3 H :    0.112660    0.023470
   4 H :    0.112660    0.023470
Sum of atomic charges         :    0.0000000

LOEWDIN ATOMIC CHARGES AND SPIN POPULATIONS
-------------------------------------------
   0 B :   -1.321061    0.556640
   1 S :    1.503545    0.182910
   2 S :    1.503545    0.182910
   3 H :   -0.843015    0.038770
   4 H :   -0.843015    0.038770

  Mayer bond orders larger than 0.100000
B(  0-B ,  1-S ) :   1.3047 B(  0-B ,  2-S ) :   1.3047 B(  1-S ,  4-H ) :   0.9793
B(  2-S ,  3-H ) :   0.9793

MP2 TOTAL ENERGY:     -821.430464639 Eh
FINAL SINGLE POINT ENERGY      -821.430464639351

DIPOLE MOMENT
-------------
                                X             Y             Z
Electronic contribution:     -0.00000      -0.00000      -0.85467
Nuclear contribution   :      0.00000       0.00000       1.35259
                        -----------------------------------------
Total Dipole Moment    :     -0.00000      -0.00000       0.49792
                        -----------------------------------------
Magnitude (a.u.)       :      0.49792
Magnitude (Debye)      :      1.26561

Rotational constants in cm-1:     2.226916     0.098390     0.094227
Rotational constants in MHz : 66761.248233  2949.659663  2824.851475

                             ****ORCA TERMINATED NORMALLY****
TOTAL RUN TIME: 0 days 0 hours 8 minutes 7 seconds 743 msec
