                         Program Version 5.0.4 -  RELEASE  -
|  1> ! ri-mp2 aug-cc-pvdz aug-cc-pvdz/c tightscf
|  2> %pal nprocs 16 end
|  3> %maxcore 3800
|  4> %base "DZ_B-Si_84_AB"
|  5>
|  6> *xyz 0 1
|  7> C        -0.351139    0.013113   -0.002775
|  8> C        -1.078286   -1.178657   -0.008048
|  9> C        -2.461782   -1.178505   -0.037550
| 10> C        -3.153090    0.021608   -0.057295
| 11> C        -2.453303    1.215909   -0.046364
| 12> C        -1.068538    1.208319   -0.016238
| 13> B         1.832709   -0.680145    1.934757
| 14> H        -3.002429   -2.116048   -0.044471
| 15> H        -4.234940    0.025397   -0.080640
| 16> H        -2.987502    2.157103   -0.062155
| 17> H        -0.541023    2.153932   -0.010417
| 18> H        -0.556711   -2.128620    0.007252
| 19> Si         1.532460   -0.023634    0.064807
| 20> C         2.208934    1.695292   -0.245690
| 21> H         1.875680    2.402204    0.514880
| 22> H         1.900363    2.074158   -1.221624
| 23> H         3.300034    1.685310   -0.225284
| 24> C         2.179079   -1.199221   -1.244771
| 25> H         1.912687   -0.850575   -2.243877
| 26> H         1.767867   -2.201152   -1.118106
| 27> H         3.266375   -1.281523   -1.197339
| 28> H         1.981154    0.066472    2.853298
| 29> H         1.769211   -1.842216    2.199777
| 30> *
| 31>
| 32> $new_job
| 33> ! ri-mp2 aug-cc-pvtz aug-cc-pvtz/c tightscf
| 34> %pal nprocs 16 end
| 35> %maxcore 3800
| 36> %base "TZ_B-Si_84_AB"
| 37>
| 38> *xyz 0 1
| 39> C        -0.351139    0.013113   -0.002775
| 40> C        -1.078286   -1.178657   -0.008048
| 41> C        -2.461782   -1.178505   -0.037550
| 42> C        -3.153090    0.021608   -0.057295
| 43> C        -2.453303    1.215909   -0.046364
| 44> C        -1.068538    1.208319   -0.016238
| 45> B         1.832709   -0.680145    1.934757
| 46> H        -3.002429   -2.116048   -0.044471
| 47> H        -4.234940    0.025397   -0.080640
| 48> H        -2.987502    2.157103   -0.062155
| 49> H        -0.541023    2.153932   -0.010417
| 50> H        -0.556711   -2.128620    0.007252
| 51> Si         1.532460   -0.023634    0.064807
| 52> C         2.208934    1.695292   -0.245690
| 53> H         1.875680    2.402204    0.514880
| 54> H         1.900363    2.074158   -1.221624
| 55> H         3.300034    1.685310   -0.225284
| 56> C         2.179079   -1.199221   -1.244771
| 57> H         1.912687   -0.850575   -2.243877
| 58> H         1.767867   -2.201152   -1.118106
| 59> H         3.266375   -1.281523   -1.197339
| 60> H         1.981154    0.066472    2.853298
| 61> H         1.769211   -1.842216    2.199777
| 62> *
| 63>
| 64> $new_job
| 65> ! ri-mp2 aug-cc-pvqz aug-cc-pvqz/c tightscf
| 66> %pal nprocs 16 end
| 67> %maxcore 3800
| 68> %base "QZ_B-Si_84_AB"
| 69>
| 70> *xyz 0 1
| 71> C        -0.351139    0.013113   -0.002775
| 72> C        -1.078286   -1.178657   -0.008048
| 73> C        -2.461782   -1.178505   -0.037550
| 74> C        -3.153090    0.021608   -0.057295
| 75> C        -2.453303    1.215909   -0.046364
| 76> C        -1.068538    1.208319   -0.016238
| 77> B         1.832709   -0.680145    1.934757
| 78> H        -3.002429   -2.116048   -0.044471
| 79> H        -4.234940    0.025397   -0.080640
| 80> H        -2.987502    2.157103   -0.062155
| 81> H        -0.541023    2.153932   -0.010417
| 82> H        -0.556711   -2.128620    0.007252
| 83> Si         1.532460   -0.023634    0.064807
| 84> C         2.208934    1.695292   -0.245690
| 85> H         1.875680    2.402204    0.514880
| 86> H         1.900363    2.074158   -1.221624
| 87> H         3.300034    1.685310   -0.225284
| 88> C         2.179079   -1.199221   -1.244771
| 89> H         1.912687   -0.850575   -2.243877
| 90> H         1.767867   -2.201152   -1.118106
| 91> H         3.266375   -1.281523   -1.197339
| 92> H         1.981154    0.066472    2.853298
| 93> H         1.769211   -1.842216    2.199777
| 94> *
| 95>
| 96>
| 97>
| 98>
| 99>                          ****END OF INPUT****
 Total Charge           Charge          ....    0
 Multiplicity           Mult            ....    1
 Number of Electrons    NEL             ....   80
MP2 TOTAL ENERGY:     -625.456800746 Eh
FINAL SINGLE POINT ENERGY      -625.456800746196
MP2 TOTAL ENERGY:     -625.799927733 Eh
FINAL SINGLE POINT ENERGY      -625.799927733139

CARTESIAN COORDINATES (ANGSTROEM)
---------------------------------
  C     -0.351139    0.013113   -0.002775
  C     -1.078286   -1.178657   -0.008048
  C     -2.461782   -1.178505   -0.037550
  C     -3.153090    0.021608   -0.057295
  C     -2.453303    1.215909   -0.046364
  C     -1.068538    1.208319   -0.016238
  B      1.832709   -0.680145    1.934757
  H     -3.002429   -2.116048   -0.044471
  H     -4.234940    0.025397   -0.080640
  H     -2.987502    2.157103   -0.062155
  H     -0.541023    2.153932   -0.010417
  H     -0.556711   -2.128620    0.007252
  Si     1.532460   -0.023634    0.064807
  C      2.208934    1.695292   -0.245690
  H      1.875680    2.402204    0.514880
  H      1.900363    2.074158   -1.221624
  H      3.300034    1.685310   -0.225284
  C      2.179079   -1.199221   -1.244771
  H      1.912687   -0.850575   -2.243877
  H      1.767867   -2.201152   -1.118106
  H      3.266375   -1.281523   -1.197339
  H      1.981154    0.066472    2.853298
  H      1.769211   -1.842216    2.199777

 Multiplicity           Mult            ....    1
 Number of Electrons    NEL             ....   80
 Basis Dimension        Dim             .... 1402

ORBITAL ENERGIES
----------------

  NO   OCC          E(Eh)            E(eV)
   0   2.0000     -68.739212     -1870.4890
   1   2.0000     -11.233220      -305.6715
   2   2.0000     -11.232925      -305.6634
   3   2.0000     -11.232092      -305.6408
   4   2.0000     -11.230106      -305.5867
   5   2.0000     -11.229690      -305.5754
   6   2.0000     -11.215051      -305.1771
   7   2.0000     -11.197042      -304.6870
   8   2.0000     -11.195935      -304.6569
   9   2.0000      -7.594576      -206.6589
  10   2.0000      -6.090281      -165.7250
  11   2.0000      -4.196831      -114.2016
  12   2.0000      -4.196526      -114.1933
  13   2.0000      -4.196375      -114.1892
  14   2.0000      -1.152271       -31.3549
  15   2.0000      -1.015903       -27.6441
  16   2.0000      -1.015169       -27.6241
  17   2.0000      -0.953362       -25.9423
  18   2.0000      -0.924946       -25.1691
  19   2.0000      -0.823679       -22.4134
  20   2.0000      -0.820080       -22.3155
  21   2.0000      -0.720709       -19.6115
  22   2.0000      -0.691634       -18.8203
  23   2.0000      -0.636586       -17.3224
  24   2.0000      -0.623420       -16.9641
  25   2.0000      -0.604876       -16.4595
  26   2.0000      -0.587243       -15.9797
  27   2.0000      -0.567918       -15.4538
  28   2.0000      -0.561659       -15.2835
  29   2.0000      -0.544535       -14.8176
  30   2.0000      -0.540581       -14.7100
  31   2.0000      -0.529950       -14.4207
  32   2.0000      -0.505770       -13.7627
  33   2.0000      -0.492052       -13.3894
  34   2.0000      -0.488433       -13.2909
  35   2.0000      -0.433598       -11.7988
  36   2.0000      -0.430561       -11.7162
  37   2.0000      -0.396033       -10.7766
  38   2.0000      -0.338102        -9.2002
  39   2.0000      -0.329863        -8.9760
  40   0.0000       0.020276         0.5517
  41   0.0000       0.024701         0.6722
  42   0.0000       0.027397         0.7455
  43   0.0000       0.031623         0.8605
  44   0.0000       0.036308         0.9880

MULLIKEN ATOMIC CHARGES
-----------------------
   0 C :    0.101611
   1 C :   -0.703419
   2 C :   -0.094865
   3 C :   -0.410158
   4 C :   -0.156830
   5 C :   -0.691185
   6 B :    0.257659
   7 H :    0.247229
   8 H :    0.369014
   9 H :    0.250398
  10 H :    0.253745
  11 H :    0.290696
  12 Si:    1.598227
  13 C :   -1.201661
  14 H :    0.280392
  15 H :    0.232275
  16 H :    0.349118
  17 C :   -1.277740
  18 H :    0.249183
  19 H :    0.301146
  20 H :    0.346931
  21 H :   -0.311823
  22 H :   -0.279943
Sum of atomic charges:    0.0000000

LOEWDIN ATOMIC CHARGES
----------------------
   0 C :   -0.038614
   1 C :    0.271142
   2 C :    0.345878
   3 C :    0.336353
   4 C :    0.345136
   5 C :    0.280630
   6 B :    0.440066
   7 H :   -0.318645
   8 H :   -0.320123
   9 H :   -0.319260
  10 H :   -0.348336
  11 H :   -0.332147
  12 Si:    0.217659
  13 C :    0.960345
  14 H :   -0.342754
  15 H :   -0.331684
  16 H :   -0.335981
  17 C :    0.969620
  18 H :   -0.333179
  19 H :   -0.346479
  20 H :   -0.337624
  21 H :   -0.231641
  22 H :   -0.230361

  Mayer bond orders larger than 0.100000
B(  0-C ,  1-C ) :   0.8556 B(  0-C ,  2-C ) :  -0.3545 B(  0-C ,  3-C ) :  -0.1424
B(  0-C ,  4-C ) :  -0.4685 B(  0-C ,  5-C ) :   0.7730 B(  0-C ,  8-H ) :   0.1154
B(  0-C , 11-H ) :  -0.1548 B(  0-C , 12-Si) :   0.7765 B(  1-C ,  2-C ) :   1.3023
B(  1-C ,  3-C ) :   0.2036 B(  1-C ,  4-C ) :   0.1776 B(  1-C ,  7-H ) :  -0.1518
B(  1-C ,  8-H ) :  -0.1172 B(  1-C , 11-H ) :   0.9671 B(  2-C ,  3-C ) :   1.0691
B(  2-C ,  5-C ) :   0.1121 B(  2-C ,  7-H ) :   1.1199 B(  3-C ,  4-C ) :   1.1216
B(  3-C ,  5-C ) :   0.1730 B(  3-C ,  8-H ) :   0.9662 B(  3-C ,  9-H ) :  -0.1039
B(  4-C ,  5-C ) :   1.3672 B(  4-C ,  9-H ) :   1.1140 B(  5-C ,  8-H ) :  -0.1278
B(  5-C ,  9-H ) :  -0.1571 B(  5-C , 10-H ) :   1.0124 B(  5-C , 12-Si) :  -0.1545
B(  6-B , 12-Si) :   0.8093 B(  6-B , 21-H ) :   0.8281 B(  6-B , 22-H ) :   0.8310
B( 12-Si, 13-C ) :   0.8655 B( 12-Si, 17-C ) :   0.7383 B( 13-C , 14-H ) :   0.9582
B( 13-C , 15-H ) :   0.9570 B( 13-C , 16-H ) :   0.9151 B( 17-C , 18-H ) :   0.9606
B( 17-C , 19-H ) :   0.9412 B( 17-C , 20-H ) :   0.9048

MP2 TOTAL ENERGY:     -625.906324300 Eh
FINAL SINGLE POINT ENERGY      -625.906324299528

DIPOLE MOMENT
-------------
                                X             Y             Z
Electronic contribution:     -4.93653      -0.64076       2.04414
Nuclear contribution   :      4.95205       0.70405      -2.22361
                        -----------------------------------------
Total Dipole Moment    :      0.01552       0.06329      -0.17947
                        -----------------------------------------
Magnitude (a.u.)       :      0.19093
Magnitude (Debye)      :      0.48531

Rotational constants in cm-1:     0.067364     0.025022     0.022218
Rotational constants in MHz :  2019.511380   750.153848   666.075553

                             ****ORCA TERMINATED NORMALLY****
TOTAL RUN TIME: 0 days 1 hours 22 minutes 45 seconds 666 msec
