                         Program Version 5.0.4 -  RELEASE  -
|  1> ! ri-mp2 aug-cc-pvdz aug-cc-pvdz/c tightscf
|  2> %pal nprocs 16 end
|  3> %maxcore 3800
|  4> %base "DZ_S-Cl_58_AB"
|  5> %scf
|  6> STABPerform true
|  7> STABRestartUHFifUnstable true
|  8> end
|  9>
| 10> *xyz 0 1
| 11> Cl        -2.124614   -0.555887   -0.000026
| 12> S        -0.670138    0.861069    0.000023
| 13> C         0.760814   -0.167269   -0.000004
| 14> N         1.882887    0.375683    0.000023
| 15> H         0.559550   -1.243936   -0.000043
| 16> C         3.062278   -0.456317    0.000000
| 17> H         3.664787   -0.221543    0.877863
| 18> H         3.664795   -0.221485   -0.877842
| 19> H         2.832738   -1.528325   -0.000037
| 20> *
| 21>
| 22> $new_job
| 23> ! ri-mp2 aug-cc-pvtz aug-cc-pvtz/c tightscf
| 24> %pal nprocs 16 end
| 25> %maxcore 3800
| 26> %base "TZ_S-Cl_58_AB"
| 27>
| 28> *xyz 0 1
| 29> Cl        -2.124614   -0.555887   -0.000026
| 30> S        -0.670138    0.861069    0.000023
| 31> C         0.760814   -0.167269   -0.000004
| 32> N         1.882887    0.375683    0.000023
| 33> H         0.559550   -1.243936   -0.000043
| 34> C         3.062278   -0.456317    0.000000
| 35> H         3.664787   -0.221543    0.877863
| 36> H         3.664795   -0.221485   -0.877842
| 37> H         2.832738   -1.528325   -0.000037
| 38> *
| 39>
| 40> $new_job
| 41> ! ri-mp2 aug-cc-pvqz aug-cc-pvqz/c tightscf
| 42> %pal nprocs 16 end
| 43> %maxcore 3800
| 44> %base "QZ_S-Cl_58_AB"
| 45>
| 46> *xyz 0 1
| 47> Cl        -2.124614   -0.555887   -0.000026
| 48> S        -0.670138    0.861069    0.000023
| 49> C         0.760814   -0.167269   -0.000004
| 50> N         1.882887    0.375683    0.000023
| 51> H         0.559550   -1.243936   -0.000043
| 52> C         3.062278   -0.456317    0.000000
| 53> H         3.664787   -0.221543    0.877863
| 54> H         3.664795   -0.221485   -0.877842
| 55> H         2.832738   -1.528325   -0.000037
| 56> *
| 57>
| 58>
| 59>
| 60>
| 61>                          ****END OF INPUT****
 Total Charge           Charge          ....    0
 Multiplicity           Mult            ....    1
 Number of Electrons    NEL             ....   56
MP2 TOTAL ENERGY:     -990.269713314 Eh
FINAL SINGLE POINT ENERGY      -990.269713314038
MP2 TOTAL ENERGY:     -990.505460457 Eh
FINAL SINGLE POINT ENERGY      -990.505460456683

CARTESIAN COORDINATES (ANGSTROEM)
---------------------------------
  Cl    -2.124614   -0.555887   -0.000026
  S     -0.670138    0.861069    0.000023
  C      0.760814   -0.167269   -0.000004
  N      1.882887    0.375683    0.000023
  H      0.559550   -1.243936   -0.000043
  C      3.062278   -0.456317    0.000000
  H      3.664787   -0.221543    0.877863
  H      3.664795   -0.221485   -0.877842
  H      2.832738   -1.528325   -0.000037

 Multiplicity           Mult            ....    1
 Number of Electrons    NEL             ....   56
 Basis Dimension        Dim             ....  592

ORBITAL ENERGIES
----------------

  NO   OCC          E(Eh)            E(eV)
   0   2.0000    -104.862724     -2853.4598
   1   2.0000     -92.022806     -2504.0679
   2   2.0000     -15.575751      -423.8377
   3   2.0000     -11.322745      -308.1076
   4   2.0000     -11.262806      -306.4765
   5   2.0000     -10.587062      -288.0886
   6   2.0000      -9.021324      -245.4827
   7   2.0000      -8.054096      -219.1631
   8   2.0000      -8.052169      -219.1107
   9   2.0000      -8.051956      -219.1049
  10   2.0000      -6.702469      -182.3835
  11   2.0000      -6.700950      -182.3421
  12   2.0000      -6.699750      -182.3095
  13   2.0000      -1.265624       -34.4394
  14   2.0000      -1.155195       -31.4344
  15   2.0000      -1.008307       -27.4374
  16   2.0000      -0.917787       -24.9743
  17   2.0000      -0.785954       -21.3869
  18   2.0000      -0.673164       -18.3177
  19   2.0000      -0.640036       -17.4163
  20   2.0000      -0.611393       -16.6368
  21   2.0000      -0.554786       -15.0965
  22   2.0000      -0.536077       -14.5874
  23   2.0000      -0.525427       -14.2976
  24   2.0000      -0.467340       -12.7170
  25   2.0000      -0.466651       -12.6982
  26   2.0000      -0.422175       -11.4880
  27   2.0000      -0.355695        -9.6790
  28   0.0000       0.025155         0.6845
  29   0.0000       0.036485         0.9928
  30   0.0000       0.041149         1.1197
  31   0.0000       0.046509         1.2656
  32   0.0000       0.053809         1.4642

MULLIKEN ATOMIC CHARGES
-----------------------
   0 Cl:   -0.306969
   1 S :    0.392363
   2 C :   -0.236928
   3 N :   -0.444618
   4 H :    0.405050
   5 C :   -0.624163
   6 H :    0.282723
   7 H :    0.282723
   8 H :    0.249820
Sum of atomic charges:   -0.0000000

LOEWDIN ATOMIC CHARGES
----------------------
   0 Cl:    0.467190
   1 S :    0.402008
   2 C :   -0.518565
   3 N :    0.446231
   4 H :   -0.467724
   5 C :    0.648468
   6 H :   -0.321670
   7 H :   -0.321670
   8 H :   -0.334267

  Mayer bond orders larger than 0.100000
B(  0-Cl,  1-S ) :   0.9812 B(  1-S ,  2-C ) :   0.8840 B(  2-C ,  3-N ) :   1.8184
B(  2-C ,  4-H ) :   0.7961 B(  3-N ,  5-C ) :   0.8924 B(  5-C ,  6-H ) :   0.9252
B(  5-C ,  7-H ) :   0.9252 B(  5-C ,  8-H ) :   0.9240

MP2 TOTAL ENERGY:     -990.581658642 Eh
FINAL SINGLE POINT ENERGY      -990.581658642010

DIPOLE MOMENT
-------------
                                X             Y             Z
Electronic contribution:    -12.71756       1.67124      -0.00000
Nuclear contribution   :     13.23908      -2.34617      -0.00002
                        -----------------------------------------
Total Dipole Moment    :      0.52151      -0.67493      -0.00002
                        -----------------------------------------
Magnitude (a.u.)       :      0.85294
Magnitude (Debye)      :      2.16801

Rotational constants in cm-1:     0.376010     0.044454     0.040047
Rotational constants in MHz : 11272.494550  1332.697440  1200.593769

                             ****ORCA TERMINATED NORMALLY****
TOTAL RUN TIME: 0 days 0 hours 16 minutes 15 seconds 208 msec
