                         Program Version 5.0.4 -  RELEASE  -
|  1> ! ri-mp2 aug-cc-pvdz aug-cc-pvdz/c tightscf
|  2> %pal nprocs 16 end
|  3> %maxcore 3800
|  4> %base "DZ_Si-Si_115_AB"
|  5> %scf
|  6> STABPerform true
|  7> STABRestartUHFifUnstable true
|  8> end
|  9>
| 10> *xyz 0 1
| 11> Si        -2.189849   -0.709722   -0.193746
| 12> Si        -0.716647    0.981013    0.458071
| 13> S         1.184945    0.822418   -0.541056
| 14> H        -0.497817    0.982385    1.921783
| 15> H        -1.229934    2.308722    0.046509
| 16> H        -3.486618   -0.519047    0.496205
| 17> H        -1.654974   -2.043129    0.148664
| 18> S         1.788785   -1.028053    0.168862
| 19> H        -2.404736   -0.626921   -1.654760
| 20> H         2.385337   -0.609922    1.296164
| 21> *
| 22>
| 23> $new_job
| 24> ! ri-mp2 aug-cc-pvtz aug-cc-pvtz/c tightscf
| 25> %pal nprocs 16 end
| 26> %maxcore 3800
| 27> %base "TZ_Si-Si_115_AB"
| 28>
| 29> *xyz 0 1
| 30> Si        -2.189849   -0.709722   -0.193746
| 31> Si        -0.716647    0.981013    0.458071
| 32> S         1.184945    0.822418   -0.541056
| 33> H        -0.497817    0.982385    1.921783
| 34> H        -1.229934    2.308722    0.046509
| 35> H        -3.486618   -0.519047    0.496205
| 36> H        -1.654974   -2.043129    0.148664
| 37> S         1.788785   -1.028053    0.168862
| 38> H        -2.404736   -0.626921   -1.654760
| 39> H         2.385337   -0.609922    1.296164
| 40> *
| 41>
| 42> $new_job
| 43> ! ri-mp2 aug-cc-pvqz aug-cc-pvqz/c tightscf
| 44> %pal nprocs 16 end
| 45> %maxcore 3800
| 46> %base "QZ_Si-Si_115_AB"
| 47>
| 48> *xyz 0 1
| 49> Si        -2.189849   -0.709722   -0.193746
| 50> Si        -0.716647    0.981013    0.458071
| 51> S         1.184945    0.822418   -0.541056
| 52> H        -0.497817    0.982385    1.921783
| 53> H        -1.229934    2.308722    0.046509
| 54> H        -3.486618   -0.519047    0.496205
| 55> H        -1.654974   -2.043129    0.148664
| 56> S         1.788785   -1.028053    0.168862
| 57> H        -2.404736   -0.626921   -1.654760
| 58> H         2.385337   -0.609922    1.296164
| 59> *
| 60>
| 61>
| 62>
| 63>
| 64>                          ****END OF INPUT****
 Total Charge           Charge          ....    0
 Multiplicity           Mult            ....    1
 Number of Electrons    NEL             ....   66
MP2 TOTAL ENERGY:    -1376.939254451 Eh
FINAL SINGLE POINT ENERGY     -1376.939254450843
MP2 TOTAL ENERGY:    -1377.120720408 Eh
FINAL SINGLE POINT ENERGY     -1377.120720407655

CARTESIAN COORDINATES (ANGSTROEM)
---------------------------------
  Si    -2.189849   -0.709722   -0.193746
  Si    -0.716647    0.981013    0.458071
  S      1.184945    0.822418   -0.541056
  H     -0.497817    0.982385    1.921783
  H     -1.229934    2.308722    0.046509
  H     -3.486618   -0.519047    0.496205
  H     -1.654974   -2.043129    0.148664
  S      1.788785   -1.028053    0.168862
  H     -2.404736   -0.626921   -1.654760
  H      2.385337   -0.609922    1.296164

 Multiplicity           Mult            ....    1
 Number of Electrons    NEL             ....   66
 Basis Dimension        Dim             ....  612

ORBITAL ENERGIES
----------------

  NO   OCC          E(Eh)            E(eV)
   0   2.0000     -91.989998     -2503.1751
   1   2.0000     -91.973533     -2502.7271
   2   2.0000     -68.797790     -1872.0830
   3   2.0000     -68.772899     -1871.4057
   4   2.0000      -8.990520      -244.6445
   5   2.0000      -8.975565      -244.2375
   6   2.0000      -6.671809      -181.5492
   7   2.0000      -6.670844      -181.5229
   8   2.0000      -6.669797      -181.4944
   9   2.0000      -6.656854      -181.1422
  10   2.0000      -6.655670      -181.1100
  11   2.0000      -6.655006      -181.0919
  12   2.0000      -6.145785      -167.2353
  13   2.0000      -6.123860      -166.6387
  14   2.0000      -4.252180      -115.7077
  15   2.0000      -4.251653      -115.6934
  16   2.0000      -4.251334      -115.6847
  17   2.0000      -4.229991      -115.1039
  18   2.0000      -4.229908      -115.1017
  19   2.0000      -4.229835      -115.0997
  20   2.0000      -1.051956       -28.6252
  21   2.0000      -0.881116       -23.9764
  22   2.0000      -0.750728       -20.4284
  23   2.0000      -0.673931       -18.3386
  24   2.0000      -0.574936       -15.6448
  25   2.0000      -0.522254       -14.2113
  26   2.0000      -0.511327       -13.9139
  27   2.0000      -0.488985       -13.3060
  28   2.0000      -0.481942       -13.1143
  29   2.0000      -0.463423       -12.6104
  30   2.0000      -0.429787       -11.6951
  31   2.0000      -0.373096       -10.1525
  32   2.0000      -0.363445        -9.8898
  33   0.0000       0.025476         0.6932
  34   0.0000       0.029675         0.8075
  35   0.0000       0.034647         0.9428
  36   0.0000       0.039254         1.0682
  37   0.0000       0.047298         1.2871

MULLIKEN ATOMIC CHARGES
-----------------------
   0 Si:    0.391696
   1 Si:    0.848983
   2 S :   -0.313478
   3 H :   -0.197813
   4 H :   -0.232712
   5 H :   -0.152878
   6 H :   -0.127428
   7 S :   -0.217734
   8 H :   -0.129721
   9 H :    0.131084
Sum of atomic charges:    0.0000000

LOEWDIN ATOMIC CHARGES
----------------------
   0 Si:    0.956902
   1 Si:    0.085576
   2 S :    0.494277
   3 H :   -0.315081
   4 H :   -0.328841
   5 H :   -0.321287
   6 H :   -0.321559
   7 S :    0.951104
   8 H :   -0.317080
   9 H :   -0.884012

  Mayer bond orders larger than 0.100000
B(  0-Si,  1-Si) :   0.7333 B(  0-Si,  5-H ) :   0.7969 B(  0-Si,  6-H ) :   0.7944
B(  0-Si,  8-H ) :   0.7876 B(  1-Si,  2-S ) :   0.7031 B(  1-Si,  3-H ) :   0.8311
B(  1-Si,  4-H ) :   0.8403 B(  2-S ,  7-S ) :   1.0622 B(  7-S ,  9-H ) :   0.9735

MP2 TOTAL ENERGY:    -1377.180432683 Eh
FINAL SINGLE POINT ENERGY     -1377.180432682899

DIPOLE MOMENT
-------------
                                X             Y             Z
Electronic contribution:      6.42494       0.55496      -1.72906
Nuclear contribution   :     -6.67549      -0.50825       2.20749
                        -----------------------------------------
Total Dipole Moment    :     -0.25055       0.04671       0.47842
                        -----------------------------------------
Magnitude (a.u.)       :      0.54208
Magnitude (Debye)      :      1.37785

Rotational constants in cm-1:     0.125872     0.048118     0.038921
Rotational constants in MHz :  3773.535823  1442.542581  1166.821441

                             ****ORCA TERMINATED NORMALLY****
TOTAL RUN TIME: 0 days 0 hours 21 minutes 15 seconds 297 msec
