                         Program Version 5.0.4 -  RELEASE  -
|  1> ! ri-mp2 aug-cc-pvdz aug-cc-pvdz/c tightscf
|  2> %pal nprocs 16 end
|  3> %maxcore 3800
|  4> %base "DZ_P-C_35_AB"
|  5> %scf
|  6> STABPerform true
|  7> STABRestartUHFifUnstable true
|  8> end
|  9>
| 10> *xyz 0 1
| 11> C        -0.836189    0.000000    0.006674
| 12> P         0.958779    0.000000   -0.606334
| 13> F        -1.465196   -1.083718   -0.468178
| 14> F        -0.950133    0.000000    1.332257
| 15> F        -1.465196    1.083718   -0.468178
| 16> F         1.420009    1.200856    0.305103
| 17> F         1.420009   -1.200856    0.305103
| 18> *
| 19>
| 20> $new_job
| 21> ! ri-mp2 aug-cc-pvtz aug-cc-pvtz/c tightscf
| 22> %pal nprocs 16 end
| 23> %maxcore 3800
| 24> %base "TZ_P-C_35_AB"
| 25>
| 26> *xyz 0 1
| 27> C        -0.836189    0.000000    0.006674
| 28> P         0.958779    0.000000   -0.606334
| 29> F        -1.465196   -1.083718   -0.468178
| 30> F        -0.950133    0.000000    1.332257
| 31> F        -1.465196    1.083718   -0.468178
| 32> F         1.420009    1.200856    0.305103
| 33> F         1.420009   -1.200856    0.305103
| 34> *
| 35>
| 36> $new_job
| 37> ! ri-mp2 aug-cc-pvqz aug-cc-pvqz/c tightscf
| 38> %pal nprocs 16 end
| 39> %maxcore 3800
| 40> %base "QZ_P-C_35_AB"
| 41>
| 42> *xyz 0 1
| 43> C        -0.836189    0.000000    0.006674
| 44> P         0.958779    0.000000   -0.606334
| 45> F        -1.465196   -1.083718   -0.468178
| 46> F        -0.950133    0.000000    1.332257
| 47> F        -1.465196    1.083718   -0.468178
| 48> F         1.420009    1.200856    0.305103
| 49> F         1.420009   -1.200856    0.305103
| 50> *
| 51>
| 52>
| 53>
| 54>
| 55>                          ****END OF INPUT****
 Total Charge           Charge          ....    0
 Multiplicity           Mult            ....    1
 Number of Electrons    NEL             ....   66
MP2 TOTAL ENERGY:     -877.172873250 Eh
FINAL SINGLE POINT ENERGY      -877.172873249628
MP2 TOTAL ENERGY:     -877.672823465 Eh
FINAL SINGLE POINT ENERGY      -877.672823464814

CARTESIAN COORDINATES (ANGSTROEM)
---------------------------------
  C     -0.836189    0.000000    0.006674
  P      0.958779    0.000000   -0.606334
  F     -1.465196   -1.083718   -0.468178
  F     -0.950133    0.000000    1.332257
  F     -1.465196    1.083718   -0.468178
  F      1.420009    1.200856    0.305103
  F      1.420009   -1.200856    0.305103

 Multiplicity           Mult            ....    1
 Number of Electrons    NEL             ....   66
 Basis Dimension        Dim             ....  564

ORBITAL ENERGIES
----------------

  NO   OCC          E(Eh)            E(eV)
   0   2.0000     -80.108024     -2179.8502
   1   2.0000     -26.357569      -717.2259
   2   2.0000     -26.357549      -717.2254
   3   2.0000     -26.355990      -717.1829
   4   2.0000     -26.351100      -717.0499
   5   2.0000     -26.351089      -717.0496
   6   2.0000     -11.517654      -313.4113
   7   2.0000      -7.634739      -207.7518
   8   2.0000      -5.528553      -150.4396
   9   2.0000      -5.527639      -150.4147
  10   2.0000      -5.525822      -150.3653
  11   2.0000      -1.749991       -47.6197
  12   2.0000      -1.681376       -45.7526
  13   2.0000      -1.655853       -45.0581
  14   2.0000      -1.654971       -45.0341
  15   2.0000      -1.646780       -44.8112
  16   2.0000      -1.016126       -27.6502
  17   2.0000      -0.921412       -25.0729
  18   2.0000      -0.843579       -22.9549
  19   2.0000      -0.842867       -22.9356
  20   2.0000      -0.835550       -22.7365
  21   2.0000      -0.784395       -21.3445
  22   2.0000      -0.762125       -20.7385
  23   2.0000      -0.738126       -20.0854
  24   2.0000      -0.729044       -19.8383
  25   2.0000      -0.724695       -19.7200
  26   2.0000      -0.717324       -19.5194
  27   2.0000      -0.690375       -18.7860
  28   2.0000      -0.684038       -18.6136
  29   2.0000      -0.681109       -18.5339
  30   2.0000      -0.668941       -18.2028
  31   2.0000      -0.594889       -16.1877
  32   2.0000      -0.446403       -12.1472
  33   0.0000       0.041000         1.1157
  34   0.0000       0.047837         1.3017
  35   0.0000       0.050008         1.3608
  36   0.0000       0.055165         1.5011
  37   0.0000       0.083354         2.2682

MULLIKEN ATOMIC CHARGES
-----------------------
   0 C :    1.507338
   1 P :    1.540495
   2 F :   -0.573861
   3 F :   -0.579991
   4 F :   -0.573861
   5 F :   -0.660061
   6 F :   -0.660061
Sum of atomic charges:   -0.0000000

LOEWDIN ATOMIC CHARGES
----------------------
   0 C :   -2.377552
   1 P :   -0.215076
   2 F :    0.669442
   3 F :    0.690585
   4 F :    0.669442
   5 F :    0.281580
   6 F :    0.281580

  Mayer bond orders larger than 0.100000
B(  0-C ,  1-P ) :   0.7965 B(  0-C ,  2-F ) :   0.5721 B(  0-C ,  3-F ) :   0.5705
B(  0-C ,  4-F ) :   0.5721 B(  1-P ,  5-F ) :   0.5793 B(  1-P ,  6-F ) :   0.5793

MP2 TOTAL ENERGY:     -877.837817469 Eh
FINAL SINGLE POINT ENERGY      -877.837817469383

DIPOLE MOMENT
-------------
                                X             Y             Z
Electronic contribution:      0.24170       0.00000      -0.11110
Nuclear contribution   :      0.10284       0.00000      -0.37387
                        -----------------------------------------
Total Dipole Moment    :      0.34455       0.00000      -0.48497
                        -----------------------------------------
Magnitude (a.u.)       :      0.59491
Magnitude (Debye)      :      1.51213

Rotational constants in cm-1:     0.107794     0.062626     0.054096
Rotational constants in MHz :  3231.592594  1877.483008  1621.754285

                             ****ORCA TERMINATED NORMALLY****
TOTAL RUN TIME: 0 days 0 hours 14 minutes 23 seconds 828 msec
