                         Program Version 5.0.4 -  RELEASE  -
|  1> ! ri-mp2 aug-cc-pvdz aug-cc-pvdz/c tightscf
|  2> %pal nprocs 16 end
|  3> %maxcore 3800
|  4> %base "DZ_Si-Si_68_AB"
|  5>
|  6> *xyz 0 1
|  7> Si        -2.033290   -0.919339   -0.156122
|  8> Si        -2.255949    1.396725   -0.383914
|  9> C        -0.567502   -1.352140    0.954193
| 10> H        -1.825437   -1.521722   -1.494882
| 11> H        -3.277554   -1.494809    0.412398
| 12> C         0.684056   -0.655912    0.506967
| 13> C         1.452411   -1.167733   -0.533326
| 14> C         1.074380    0.547819    1.083172
| 15> C         2.576409   -0.497914   -0.983122
| 16> C         2.952844    0.701801   -0.402621
| 17> C         2.196929    1.221485    0.633908
| 18> H         1.164542   -2.103916   -0.996187
| 19> H         3.161627   -0.915780   -1.791789
| 20> H         3.830977    1.226338   -0.754269
| 21> H         2.482758    2.156152    1.098273
| 22> H         0.490945    0.962082    1.896590
| 23> H        -2.254544    2.044715    0.949118
| 24> H        -3.538072    1.719020   -1.052682
| 25> H        -0.435713   -2.435620    0.944869
| 26> H        -0.817126   -1.069623    1.978162
| 27> H        -1.150228    1.965325   -1.184122
| 28> *
| 29>
| 30> $new_job
| 31> ! ri-mp2 aug-cc-pvtz aug-cc-pvtz/c tightscf
| 32> %pal nprocs 16 end
| 33> %maxcore 3800
| 34> %base "TZ_Si-Si_68_AB"
| 35>
| 36> *xyz 0 1
| 37> Si        -2.033290   -0.919339   -0.156122
| 38> Si        -2.255949    1.396725   -0.383914
| 39> C        -0.567502   -1.352140    0.954193
| 40> H        -1.825437   -1.521722   -1.494882
| 41> H        -3.277554   -1.494809    0.412398
| 42> C         0.684056   -0.655912    0.506967
| 43> C         1.452411   -1.167733   -0.533326
| 44> C         1.074380    0.547819    1.083172
| 45> C         2.576409   -0.497914   -0.983122
| 46> C         2.952844    0.701801   -0.402621
| 47> C         2.196929    1.221485    0.633908
| 48> H         1.164542   -2.103916   -0.996187
| 49> H         3.161627   -0.915780   -1.791789
| 50> H         3.830977    1.226338   -0.754269
| 51> H         2.482758    2.156152    1.098273
| 52> H         0.490945    0.962082    1.896590
| 53> H        -2.254544    2.044715    0.949118
| 54> H        -3.538072    1.719020   -1.052682
| 55> H        -0.435713   -2.435620    0.944869
| 56> H        -0.817126   -1.069623    1.978162
| 57> H        -1.150228    1.965325   -1.184122
| 58> *
| 59>
| 60> $new_job
| 61> ! ri-mp2 aug-cc-pvqz aug-cc-pvqz/c tightscf
| 62> %pal nprocs 16 end
| 63> %maxcore 3800
| 64> %base "QZ_Si-Si_68_AB"
| 65>
| 66> *xyz 0 1
| 67> Si        -2.033290   -0.919339   -0.156122
| 68> Si        -2.255949    1.396725   -0.383914
| 69> C        -0.567502   -1.352140    0.954193
| 70> H        -1.825437   -1.521722   -1.494882
| 71> H        -3.277554   -1.494809    0.412398
| 72> C         0.684056   -0.655912    0.506967
| 73> C         1.452411   -1.167733   -0.533326
| 74> C         1.074380    0.547819    1.083172
| 75> C         2.576409   -0.497914   -0.983122
| 76> C         2.952844    0.701801   -0.402621
| 77> C         2.196929    1.221485    0.633908
| 78> H         1.164542   -2.103916   -0.996187
| 79> H         3.161627   -0.915780   -1.791789
| 80> H         3.830977    1.226338   -0.754269
| 81> H         2.482758    2.156152    1.098273
| 82> H         0.490945    0.962082    1.896590
| 83> H        -2.254544    2.044715    0.949118
| 84> H        -3.538072    1.719020   -1.052682
| 85> H        -0.435713   -2.435620    0.944869
| 86> H        -0.817126   -1.069623    1.978162
| 87> H        -1.150228    1.965325   -1.184122
| 88> *
| 89>
| 90>
| 91>
| 92>
| 93>                          ****END OF INPUT****
 Total Charge           Charge          ....    0
 Multiplicity           Mult            ....    1
 Number of Electrons    NEL             ....   82
MP2 TOTAL ENERGY:     -851.132298718 Eh
FINAL SINGLE POINT ENERGY      -851.132298718061
MP2 TOTAL ENERGY:     -851.446926823 Eh
FINAL SINGLE POINT ENERGY      -851.446926823316

CARTESIAN COORDINATES (ANGSTROEM)
---------------------------------
  Si    -2.033290   -0.919339   -0.156122
  Si    -2.255949    1.396725   -0.383914
  C     -0.567502   -1.352140    0.954193
  H     -1.825437   -1.521722   -1.494882
  H     -3.277554   -1.494809    0.412398
  C      0.684056   -0.655912    0.506967
  C      1.452411   -1.167733   -0.533326
  C      1.074380    0.547819    1.083172
  C      2.576409   -0.497914   -0.983122
  C      2.952844    0.701801   -0.402621
  C      2.196929    1.221485    0.633908
  H      1.164542   -2.103916   -0.996187
  H      3.161627   -0.915780   -1.791789
  H      3.830977    1.226338   -0.754269
  H      2.482758    2.156152    1.098273
  H      0.490945    0.962082    1.896590
  H     -2.254544    2.044715    0.949118
  H     -3.538072    1.719020   -1.052682
  H     -0.435713   -2.435620    0.944869
  H     -0.817126   -1.069623    1.978162
  H     -1.150228    1.965325   -1.184122

 Multiplicity           Mult            ....    1
 Number of Electrons    NEL             ....   82
 Basis Dimension        Dim             .... 1280

ORBITAL ENERGIES
----------------

  NO   OCC          E(Eh)            E(eV)
   0   2.0000     -68.763274     -1871.1438
   1   2.0000     -68.759972     -1871.0540
   2   2.0000     -11.245799      -306.0137
   3   2.0000     -11.233822      -305.6878
   4   2.0000     -11.233585      -305.6814
   5   2.0000     -11.228611      -305.5461
   6   2.0000     -11.228519      -305.5435
   7   2.0000     -11.227890      -305.5264
   8   2.0000     -11.221592      -305.3551
   9   2.0000      -6.113838      -166.3660
  10   2.0000      -6.111007      -166.2889
  11   2.0000      -4.219992      -114.8318
  12   2.0000      -4.219936      -114.8303
  13   2.0000      -4.219608      -114.8214
  14   2.0000      -4.217112      -114.7535
  15   2.0000      -4.217068      -114.7522
  16   2.0000      -4.216956      -114.7492
  17   2.0000      -1.162137       -31.6233
  18   2.0000      -1.052291       -28.6343
  19   2.0000      -1.018235       -27.7076
  20   2.0000      -0.936949       -25.4957
  21   2.0000      -0.831165       -22.6171
  22   2.0000      -0.804227       -21.8841
  23   2.0000      -0.740822       -20.1588
  24   2.0000      -0.699851       -19.0439
  25   2.0000      -0.661106       -17.9896
  26   2.0000      -0.641925       -17.4677
  27   2.0000      -0.634289       -17.2599
  28   2.0000      -0.588662       -16.0183
  29   2.0000      -0.578338       -15.7374
  30   2.0000      -0.554381       -15.0855
  31   2.0000      -0.530610       -14.4386
  32   2.0000      -0.497651       -13.5418
  33   2.0000      -0.493455       -13.4276
  34   2.0000      -0.484464       -13.1829
  35   2.0000      -0.480062       -13.0631
  36   2.0000      -0.463805       -12.6208
  37   2.0000      -0.455473       -12.3941
  38   2.0000      -0.394395       -10.7320
  39   2.0000      -0.340842        -9.2748
  40   2.0000      -0.322114        -8.7652
  41   0.0000       0.022603         0.6151
  42   0.0000       0.027344         0.7441
  43   0.0000       0.028307         0.7703
  44   0.0000       0.033995         0.9251
  45   0.0000       0.039166         1.0658

MULLIKEN ATOMIC CHARGES
-----------------------
   0 Si:    0.824721
   1 Si:    0.653185
   2 C :   -0.563954
   3 H :   -0.240620
   4 H :   -0.359671
   5 C :    0.558544
   6 C :   -0.587468
   7 C :   -0.480555
   8 C :   -0.317814
   9 C :   -0.332644
  10 C :   -0.202527
  11 H :    0.295588
  12 H :    0.228644
  13 H :    0.340983
  14 H :    0.222301
  15 H :    0.244229
  16 H :   -0.192002
  17 H :   -0.374796
  18 H :    0.277492
  19 H :    0.169552
  20 H :   -0.163190
Sum of atomic charges:    0.0000000

LOEWDIN ATOMIC CHARGES
----------------------
   0 Si:    0.734842
   1 Si:    1.051161
   2 C :    0.449676
   3 H :   -0.245676
   4 H :   -0.257832
   5 C :   -0.186843
   6 C :    0.322241
   7 C :    0.301989
   8 C :    0.344160
   9 C :    0.336631
  10 C :    0.341365
  11 H :   -0.313960
  12 H :   -0.317455
  13 H :   -0.323161
  14 H :   -0.316241
  15 H :   -0.318048
  16 H :   -0.299649
  17 H :   -0.316631
  18 H :   -0.339789
  19 H :   -0.352788
  20 H :   -0.293993

  Mayer bond orders larger than 0.100000
B(  0-Si,  1-Si) :   0.8102 B(  0-Si,  2-C ) :   0.8349 B(  0-Si,  3-H ) :   0.7999
B(  0-Si,  4-H ) :   0.6761 B(  1-Si, 16-H ) :   0.7873 B(  1-Si, 17-H ) :   0.7139
B(  1-Si, 20-H ) :   0.7971 B(  2-C ,  5-C ) :   0.6111 B(  2-C ,  6-C ) :  -0.1354
B(  2-C ,  7-C ) :  -0.1597 B(  2-C , 18-H ) :   1.0027 B(  2-C , 19-H ) :   1.0473
B(  5-C ,  6-C ) :   1.0986 B(  5-C ,  7-C ) :   1.0155 B(  5-C ,  8-C ) :  -0.2937
B(  5-C , 10-C ) :  -0.3719 B(  5-C , 18-H ) :  -0.1258 B(  6-C ,  8-C ) :   1.3518
B(  6-C , 10-C ) :   0.1495 B(  6-C , 11-H ) :   0.9539 B(  6-C , 12-H ) :  -0.1411
B(  7-C ,  8-C ) :   0.1439 B(  7-C , 10-C ) :   1.3178 B(  7-C , 14-H ) :  -0.1364
B(  7-C , 15-H ) :   0.9861 B(  8-C ,  9-C ) :   1.1340 B(  8-C , 12-H ) :   1.1460
B(  9-C , 10-C ) :   1.1162 B(  9-C , 13-H ) :   0.9914 B(  9-C , 14-H ) :  -0.1016
B( 10-C , 14-H ) :   1.1569

MP2 TOTAL ENERGY:     -851.546267265 Eh
FINAL SINGLE POINT ENERGY      -851.546267265446

DIPOLE MOMENT
-------------
                                X             Y             Z
Electronic contribution:      2.08863      -0.66949       0.10706
Nuclear contribution   :     -1.92818       0.50865       0.03868
                        -----------------------------------------
Total Dipole Moment    :      0.16045      -0.16083       0.14574
                        -----------------------------------------
Magnitude (a.u.)       :      0.26991
Magnitude (Debye)      :      0.68606

Rotational constants in cm-1:     0.064156     0.024360     0.020948
Rotational constants in MHz :  1923.346155   730.282056   628.011885

                             ****ORCA TERMINATED NORMALLY****
TOTAL RUN TIME: 0 days 0 hours 59 minutes 47 seconds 902 msec
