                         Program Version 5.0.4 -  RELEASE  -
|  1> ! ri-mp2 aug-cc-pvdz aug-cc-pvdz/c tightscf
|  2> %pal nprocs 16 end
|  3> %maxcore 3800
|  4> %base "DZ_B-Cl_47_AB"
|  5> %scf
|  6> STABPerform true
|  7> STABRestartUHFifUnstable true
|  8> end
|  9>
| 10> *xyz 0 1
| 11> Cl        -1.377141    1.505503   -0.008528
| 12> B        -0.510127   -0.000000   -0.024533
| 13> Cl        -1.377139   -1.505504   -0.008527
| 14> C         1.096874    0.000001   -0.025449
| 15> O         1.657363   -1.088461   -0.681067
| 16> H         1.256137   -1.892379   -0.333663
| 17> O         1.421824   -0.000005    1.340420
| 18> H         2.387494   -0.000001    1.406252
| 19> O         1.657363    1.088467   -0.681058
| 20> H         1.256131    1.892383   -0.333654
| 21> *
| 22>
| 23> $new_job
| 24> ! ri-mp2 aug-cc-pvtz aug-cc-pvtz/c tightscf
| 25> %pal nprocs 16 end
| 26> %maxcore 3800
| 27> %base "TZ_B-Cl_47_AB"
| 28>
| 29> *xyz 0 1
| 30> Cl        -1.377141    1.505503   -0.008528
| 31> B        -0.510127   -0.000000   -0.024533
| 32> Cl        -1.377139   -1.505504   -0.008527
| 33> C         1.096874    0.000001   -0.025449
| 34> O         1.657363   -1.088461   -0.681067
| 35> H         1.256137   -1.892379   -0.333663
| 36> O         1.421824   -0.000005    1.340420
| 37> H         2.387494   -0.000001    1.406252
| 38> O         1.657363    1.088467   -0.681058
| 39> H         1.256131    1.892383   -0.333654
| 40> *
| 41>
| 42> $new_job
| 43> ! ri-mp2 aug-cc-pvqz aug-cc-pvqz/c tightscf
| 44> %pal nprocs 16 end
| 45> %maxcore 3800
| 46> %base "QZ_B-Cl_47_AB"
| 47>
| 48> *xyz 0 1
| 49> Cl        -1.377141    1.505503   -0.008528
| 50> B        -0.510127   -0.000000   -0.024533
| 51> Cl        -1.377139   -1.505504   -0.008527
| 52> C         1.096874    0.000001   -0.025449
| 53> O         1.657363   -1.088461   -0.681067
| 54> H         1.256137   -1.892379   -0.333663
| 55> O         1.421824   -0.000005    1.340420
| 56> H         2.387494   -0.000001    1.406252
| 57> O         1.657363    1.088467   -0.681058
| 58> H         1.256131    1.892383   -0.333654
| 59> *
| 60>
| 61>
| 62>
| 63>
| 64>                          ****END OF INPUT****
 Total Charge           Charge          ....    0
 Multiplicity           Mult            ....    1
 Number of Electrons    NEL             ....   72
MP2 TOTAL ENERGY:    -1209.147518069 Eh
FINAL SINGLE POINT ENERGY     -1209.147518068502
MP2 TOTAL ENERGY:    -1209.511525437 Eh
FINAL SINGLE POINT ENERGY     -1209.511525436658

CARTESIAN COORDINATES (ANGSTROEM)
---------------------------------
  Cl    -1.377141    1.505503   -0.008528
  B     -0.510127   -0.000000   -0.024533
  Cl    -1.377139   -1.505504   -0.008527
  C      1.096874    0.000001   -0.025449
  O      1.657363   -1.088461   -0.681067
  H      1.256137   -1.892379   -0.333663
  O      1.421824   -0.000005    1.340420
  H      2.387494   -0.000001    1.406252
  O      1.657363    1.088467   -0.681058
  H      1.256131    1.892383   -0.333654

 Multiplicity           Mult            ....    1
 Number of Electrons    NEL             ....   72
 Basis Dimension        Dim             ....  706

ORBITAL ENERGIES
----------------

  NO   OCC          E(Eh)            E(eV)
   0   2.0000    -104.862587     -2853.4560
   1   2.0000    -104.862586     -2853.4560
   2   2.0000     -20.585785      -560.1677
   3   2.0000     -20.582710      -560.0840
   4   2.0000     -20.582696      -560.0836
   5   2.0000     -11.398009      -310.1556
   6   2.0000     -10.590485      -288.1817
   7   2.0000     -10.590476      -288.1815
   8   2.0000      -8.057305      -219.2504
   9   2.0000      -8.057304      -219.2504
  10   2.0000      -8.056214      -219.2207
  11   2.0000      -8.056212      -219.2207
  12   2.0000      -8.055968      -219.2140
  13   2.0000      -8.055967      -219.2140
  14   2.0000      -7.729571      -210.3323
  15   2.0000      -1.474212       -40.1154
  16   2.0000      -1.361953       -37.0606
  17   2.0000      -1.361180       -37.0396
  18   2.0000      -1.166664       -31.7465
  19   2.0000      -1.123085       -30.5607
  20   2.0000      -0.914268       -24.8785
  21   2.0000      -0.814790       -22.1716
  22   2.0000      -0.720785       -19.6136
  23   2.0000      -0.692733       -18.8502
  24   2.0000      -0.660193       -17.9648
  25   2.0000      -0.646956       -17.6046
  26   2.0000      -0.630569       -17.1587
  27   2.0000      -0.589779       -16.0487
  28   2.0000      -0.546383       -14.8678
  29   2.0000      -0.540618       -14.7110
  30   2.0000      -0.537042       -14.6137
  31   2.0000      -0.515681       -14.0324
  32   2.0000      -0.494106       -13.4453
  33   2.0000      -0.486289       -13.2326
  34   2.0000      -0.474607       -12.9147
  35   2.0000      -0.451779       -12.2935
  36   0.0000       0.024854         0.6763
  37   0.0000       0.033785         0.9193
  38   0.0000       0.034604         0.9416
  39   0.0000       0.039680         1.0797
  40   0.0000       0.052691         1.4338

MULLIKEN ATOMIC CHARGES
-----------------------
   0 Cl:   -0.210671
   1 B :    0.464799
   2 Cl:   -0.210670
   3 C :    1.559769
   4 O :   -0.854390
   5 H :    0.328071
   6 O :   -0.850029
   7 H :    0.299440
   8 O :   -0.854390
   9 H :    0.328071
Sum of atomic charges:   -0.0000000

LOEWDIN ATOMIC CHARGES
----------------------
   0 Cl:    1.331627
   1 B :   -2.406085
   2 Cl:    1.331627
   3 C :   -1.425316
   4 O :    1.228557
   5 H :   -0.869736
   6 O :    1.232450
   7 H :   -0.781946
   8 O :    1.228556
   9 H :   -0.869735

  Mayer bond orders larger than 0.100000
B(  0-Cl,  1-B ) :   1.0441 B(  1-B ,  2-Cl) :   1.0441 B(  1-B ,  3-C ) :   0.9103
B(  1-B ,  6-O ) :   0.1239 B(  3-C ,  4-O ) :   0.6078 B(  3-C ,  6-O ) :   0.4921
B(  3-C ,  8-O ) :   0.6078 B(  4-O ,  5-H ) :   0.8740 B(  6-O ,  7-H ) :   0.8896
B(  8-O ,  9-H ) :   0.8740

MP2 TOTAL ENERGY:    -1209.634620176 Eh
FINAL SINGLE POINT ENERGY     -1209.634620175779

DIPOLE MOMENT
-------------
                                X             Y             Z
Electronic contribution:     -8.88177      -0.00000      -0.29717
Nuclear contribution   :      8.71212       0.00000       0.73124
                        -----------------------------------------
Total Dipole Moment    :     -0.16965       0.00000       0.43408
                        -----------------------------------------
Magnitude (a.u.)       :      0.46605
Magnitude (Debye)      :      1.18461

Rotational constants in cm-1:     0.066992     0.051690     0.034674
Rotational constants in MHz :  2008.384017  1549.628045  1039.499317

                             ****ORCA TERMINATED NORMALLY****
TOTAL RUN TIME: 0 days 0 hours 47 minutes 26 seconds 201 msec
