                         Program Version 5.0.4 -  RELEASE  -
|  1> ! ri-mp2 aug-cc-pvdz aug-cc-pvdz/c tightscf
|  2> %pal nprocs 16 end
|  3> %maxcore 3800
|  4> %base "DZ_Si-Cl_87_A"
|  5> %scf
|  6> STABPerform true
|  7> STABRestartUHFifUnstable true
|  8> end
|  9>
| 10> *xyz 0 2
| 11> C         0.021304    0.301373    0.003419
| 12> O        -0.307382    1.457598    0.022996
| 13> Si         1.828471   -0.288825   -0.085521
| 14> O        -0.855413   -0.715628   -0.009134
| 15> C        -2.239443   -0.349977    0.005651
| 16> H        -2.791296   -1.284105   -0.018545
| 17> H        -2.478752    0.261219   -0.862659
| 18> H        -2.473640    0.210885    0.908549
| 19> H         2.039360   -1.574547    0.610141
| 20> H         2.716925    0.785970    0.394495
| 21> *
| 22>
| 23> $new_job
| 24> ! ri-mp2 aug-cc-pvtz aug-cc-pvtz/c tightscf
| 25> %pal nprocs 16 end
| 26> %maxcore 3800
| 27> %base "TZ_Si-Cl_87_A"
| 28>
| 29> *xyz 0 2
| 30> C         0.021304    0.301373    0.003419
| 31> O        -0.307382    1.457598    0.022996
| 32> Si         1.828471   -0.288825   -0.085521
| 33> O        -0.855413   -0.715628   -0.009134
| 34> C        -2.239443   -0.349977    0.005651
| 35> H        -2.791296   -1.284105   -0.018545
| 36> H        -2.478752    0.261219   -0.862659
| 37> H        -2.473640    0.210885    0.908549
| 38> H         2.039360   -1.574547    0.610141
| 39> H         2.716925    0.785970    0.394495
| 40> *
| 41>
| 42> $new_job
| 43> ! ri-mp2 aug-cc-pvqz aug-cc-pvqz/c tightscf
| 44> %pal nprocs 16 end
| 45> %maxcore 3800
| 46> %base "QZ_Si-Cl_87_A"
| 47>
| 48> *xyz 0 2
| 49> C         0.021304    0.301373    0.003419
| 50> O        -0.307382    1.457598    0.022996
| 51> Si         1.828471   -0.288825   -0.085521
| 52> O        -0.855413   -0.715628   -0.009134
| 53> C        -2.239443   -0.349977    0.005651
| 54> H        -2.791296   -1.284105   -0.018545
| 55> H        -2.478752    0.261219   -0.862659
| 56> H        -2.473640    0.210885    0.908549
| 57> H         2.039360   -1.574547    0.610141
| 58> H         2.716925    0.785970    0.394495
| 59> *
| 60>
| 61>
| 62>
| 63>
| 64>                          ****END OF INPUT****
 Total Charge           Charge          ....    0
 Multiplicity           Mult            ....    2
 Number of Electrons    NEL             ....   47
MP2 TOTAL ENERGY:     -518.048403669 Eh
FINAL SINGLE POINT ENERGY      -518.048403669496
MP2 TOTAL ENERGY:     -518.277680578 Eh
FINAL SINGLE POINT ENERGY      -518.277680577827

CARTESIAN COORDINATES (ANGSTROEM)
---------------------------------
  C      0.021304    0.301373    0.003419
  O     -0.307382    1.457598    0.022996
  Si     1.828471   -0.288825   -0.085521
  O     -0.855413   -0.715628   -0.009134
  C     -2.239443   -0.349977    0.005651
  H     -2.791296   -1.284105   -0.018545
  H     -2.478752    0.261219   -0.862659
  H     -2.473640    0.210885    0.908549
  H      2.039360   -1.574547    0.610141
  H      2.716925    0.785970    0.394495

 Multiplicity           Mult            ....    2
 Number of Electrons    NEL             ....   47
 Basis Dimension        Dim             ....  634

ORBITAL ENERGIES
----------------
                 SPIN UP ORBITALS
  NO   OCC          E(Eh)            E(eV)
   0   1.0000     -68.800260     -1872.1503
   1   1.0000     -20.606117      -560.7210
   2   1.0000     -20.554232      -559.3091
   3   1.0000     -11.368153      -309.3432
   4   1.0000     -11.286611      -307.1243
   5   1.0000      -6.151257      -167.3842
   6   1.0000      -4.264296      -116.0374
   7   1.0000      -4.254015      -115.7576
   8   1.0000      -4.253892      -115.7543
   9   1.0000      -1.466054       -39.8934
  10   1.0000      -1.368759       -37.2458
  11   1.0000      -0.984984       -26.8028
  12   1.0000      -0.817888       -22.2559
  13   1.0000      -0.754378       -20.5277
  14   1.0000      -0.682903       -18.5827
  15   1.0000      -0.675563       -18.3830
  16   1.0000      -0.655736       -17.8435
  17   1.0000      -0.570850       -15.5336
  18   1.0000      -0.559765       -15.2320
  19   1.0000      -0.528599       -14.3839
  20   1.0000      -0.504386       -13.7250
  21   1.0000      -0.473700       -12.8900
  22   1.0000      -0.437000       -11.8914
  23   1.0000      -0.347266        -9.4496
  24   0.0000       0.024225         0.6592
  25   0.0000       0.031800         0.8653
  26   0.0000       0.037893         1.0311
  27   0.0000       0.038909         1.0588
  28   0.0000       0.049436         1.3452

                 SPIN DOWN ORBITALS
  NO   OCC          E(Eh)            E(eV)
   0   1.0000     -68.794365     -1871.9898
   1   1.0000     -20.606121      -560.7211
   2   1.0000     -20.550869      -559.2176
   3   1.0000     -11.369133      -309.3698
   4   1.0000     -11.286626      -307.1247
   5   1.0000      -6.142284      -167.1400
   6   1.0000      -4.249952      -115.6471
   7   1.0000      -4.249848      -115.6442
   8   1.0000      -4.241134      -115.4071
   9   1.0000      -1.464344       -39.8468
  10   1.0000      -1.363144       -37.0930
  11   1.0000      -0.984144       -26.7799
  12   1.0000      -0.805683       -21.9238
  13   1.0000      -0.740033       -20.1373
  14   1.0000      -0.679570       -18.4921
  15   1.0000      -0.674223       -18.3465
  16   1.0000      -0.637962       -17.3598
  17   1.0000      -0.568222       -15.4621
  18   1.0000      -0.548722       -14.9315
  19   1.0000      -0.527147       -14.3444
  20   1.0000      -0.498118       -13.5545
  21   1.0000      -0.461866       -12.5680
  22   1.0000      -0.429579       -11.6894
  23   0.0000       0.014787         0.4024
  24   0.0000       0.025410         0.6914
  25   0.0000       0.032957         0.8968
  26   0.0000       0.039033         1.0622
  27   0.0000       0.044663         1.2154

MULLIKEN ATOMIC CHARGES AND SPIN POPULATIONS
--------------------------------------------
   0 C :    0.553209   -0.037362
   1 O :   -0.725879    0.073910
   2 Si:    0.840050    0.958776
   3 O :   -0.654920   -0.000249
   4 C :   -0.617456    0.000664
   5 H :    0.423810   -0.000018
   6 H :    0.291307   -0.000253
   7 H :    0.285791    0.000211
   8 H :   -0.188457    0.002785
   9 H :   -0.207456    0.001535
Sum of atomic charges         :    0.0000000

LOEWDIN ATOMIC CHARGES AND SPIN POPULATIONS
-------------------------------------------
   0 C :   -1.238418    0.146427
   1 O :    0.589881    0.055051
   2 Si:    1.060769    0.529538
   3 O :    0.723263    0.007384
   4 C :    0.550504    0.000150
   5 H :   -0.326047    0.000116
   6 H :   -0.321690    0.000143
   7 H :   -0.319963   -0.000208
   8 H :   -0.358899    0.132388
   9 H :   -0.359400    0.129012

  Mayer bond orders larger than 0.100000
B(  0-C ,  1-O ) :   1.5891 B(  0-C ,  2-Si) :   0.7739 B(  0-C ,  3-O ) :   1.0380
B(  2-Si,  8-H ) :   0.8893 B(  2-Si,  9-H ) :   0.9194 B(  3-O ,  4-C ) :   0.8181
B(  4-C ,  5-H ) :   0.8212 B(  4-C ,  6-H ) :   0.9112 B(  4-C ,  7-H ) :   0.9167

MP2 TOTAL ENERGY:     -518.352548825 Eh
FINAL SINGLE POINT ENERGY      -518.352548825095

DIPOLE MOMENT
-------------
                                X             Y             Z
Electronic contribution:      2.97471       0.83305      -1.00892
Nuclear contribution   :     -3.08609      -1.55590       1.02719
                        -----------------------------------------
Total Dipole Moment    :     -0.11138      -0.72284       0.01828
                        -----------------------------------------
Magnitude (a.u.)       :      0.73160
Magnitude (Debye)      :      1.85958

Rotational constants in cm-1:     0.310800     0.083692     0.067137
Rotational constants in MHz :  9317.550622  2509.028046  2012.706394

                             ****ORCA TERMINATED NORMALLY****
TOTAL RUN TIME: 0 days 0 hours 50 minutes 43 seconds 658 msec
