                         Program Version 5.0.4 -  RELEASE  -
|  1> ! ri-mp2 aug-cc-pvdz aug-cc-pvdz/c tightscf
|  2> %pal nprocs 16 end
|  3> %maxcore 3800
|  4> %base "DZ_S-Cl_45_AB"
|  5> %scf
|  6> STABPerform true
|  7> STABRestartUHFifUnstable true
|  8> end
|  9>
| 10> *xyz 0 1
| 11> Cl         2.625647    0.146410   -0.077185
| 12> S         0.869997   -0.895590   -0.069079
| 13> C        -0.375408    0.414751   -0.349909
| 14> O        -0.179262    1.566193    0.406739
| 15> N        -1.592417   -0.307833   -0.139254
| 16> C        -2.675488    0.068962   -1.027668
| 17> H        -2.332222    0.053602   -2.060633
| 18> H        -3.075032    1.066753   -0.802941
| 19> H        -3.485476   -0.653615   -0.932710
| 20> C        -2.017152   -0.424971    1.242715
| 21> H        -1.184451   -0.740162    1.868989
| 22> H        -2.790919   -1.188063    1.313665
| 23> H        -2.423242    0.515418    1.636529
| 24> H        -0.323758    0.731177   -1.388159
| 25> H         0.048437    1.328194    1.312712
| 26> *
| 27>
| 28> $new_job
| 29> ! ri-mp2 aug-cc-pvtz aug-cc-pvtz/c tightscf
| 30> %pal nprocs 16 end
| 31> %maxcore 3800
| 32> %base "TZ_S-Cl_45_AB"
| 33>
| 34> *xyz 0 1
| 35> Cl         2.625647    0.146410   -0.077185
| 36> S         0.869997   -0.895590   -0.069079
| 37> C        -0.375408    0.414751   -0.349909
| 38> O        -0.179262    1.566193    0.406739
| 39> N        -1.592417   -0.307833   -0.139254
| 40> C        -2.675488    0.068962   -1.027668
| 41> H        -2.332222    0.053602   -2.060633
| 42> H        -3.075032    1.066753   -0.802941
| 43> H        -3.485476   -0.653615   -0.932710
| 44> C        -2.017152   -0.424971    1.242715
| 45> H        -1.184451   -0.740162    1.868989
| 46> H        -2.790919   -1.188063    1.313665
| 47> H        -2.423242    0.515418    1.636529
| 48> H        -0.323758    0.731177   -1.388159
| 49> H         0.048437    1.328194    1.312712
| 50> *
| 51>
| 52> $new_job
| 53> ! ri-mp2 aug-cc-pvqz aug-cc-pvqz/c tightscf
| 54> %pal nprocs 16 end
| 55> %maxcore 3800
| 56> %base "QZ_S-Cl_45_AB"
| 57>
| 58> *xyz 0 1
| 59> Cl         2.625647    0.146410   -0.077185
| 60> S         0.869997   -0.895590   -0.069079
| 61> C        -0.375408    0.414751   -0.349909
| 62> O        -0.179262    1.566193    0.406739
| 63> N        -1.592417   -0.307833   -0.139254
| 64> C        -2.675488    0.068962   -1.027668
| 65> H        -2.332222    0.053602   -2.060633
| 66> H        -3.075032    1.066753   -0.802941
| 67> H        -3.485476   -0.653615   -0.932710
| 68> C        -2.017152   -0.424971    1.242715
| 69> H        -1.184451   -0.740162    1.868989
| 70> H        -2.790919   -1.188063    1.313665
| 71> H        -2.423242    0.515418    1.636529
| 72> H        -0.323758    0.731177   -1.388159
| 73> H         0.048437    1.328194    1.312712
| 74> *
| 75>
| 76>
| 77>
| 78>
| 79>                          ****END OF INPUT****
 Total Charge           Charge          ....    0
 Multiplicity           Mult            ....    1
 Number of Electrons    NEL             ....   74
MP2 TOTAL ENERGY:    -1105.729165283 Eh
FINAL SINGLE POINT ENERGY     -1105.729165283245
MP2 TOTAL ENERGY:    -1106.069736436 Eh
FINAL SINGLE POINT ENERGY     -1106.069736435702

CARTESIAN COORDINATES (ANGSTROEM)
---------------------------------
  Cl     2.625647    0.146410   -0.077185
  S      0.869997   -0.895590   -0.069079
  C     -0.375408    0.414751   -0.349909
  O     -0.179262    1.566193    0.406739
  N     -1.592417   -0.307833   -0.139254
  C     -2.675488    0.068962   -1.027668
  H     -2.332222    0.053602   -2.060633
  H     -3.075032    1.066753   -0.802941
  H     -3.485476   -0.653615   -0.932710
  C     -2.017152   -0.424971    1.242715
  H     -1.184451   -0.740162    1.868989
  H     -2.790919   -1.188063    1.313665
  H     -2.423242    0.515418    1.636529
  H     -0.323758    0.731177   -1.388159
  H      0.048437    1.328194    1.312712

 Multiplicity           Mult            ....    1
 Number of Electrons    NEL             ....   74
 Basis Dimension        Dim             ....  936

ORBITAL ENERGIES
----------------

  NO   OCC          E(Eh)            E(eV)
   0   2.0000    -104.843135     -2852.9267
   1   2.0000     -92.001545     -2503.4893
   2   2.0000     -20.582761      -560.0854
   3   2.0000     -15.573441      -423.7749
   4   2.0000     -11.358043      -309.0681
   5   2.0000     -11.260484      -306.4133
   6   2.0000     -11.259813      -306.3951
   7   2.0000     -10.567535      -287.5572
   8   2.0000      -9.000299      -244.9106
   9   2.0000      -8.034542      -218.6310
  10   2.0000      -8.032687      -218.5805
  11   2.0000      -8.032515      -218.5758
  12   2.0000      -6.681471      -181.8121
  13   2.0000      -6.679573      -181.7604
  14   2.0000      -6.678548      -181.7325
  15   2.0000      -1.406772       -38.2802
  16   2.0000      -1.252056       -34.0702
  17   2.0000      -1.132627       -30.8204
  18   2.0000      -1.000203       -27.2169
  19   2.0000      -0.977309       -26.5939
  20   2.0000      -0.884127       -24.0583
  21   2.0000      -0.826338       -22.4858
  22   2.0000      -0.712956       -19.4005
  23   2.0000      -0.686073       -18.6690
  24   2.0000      -0.662033       -18.0148
  25   2.0000      -0.628982       -17.1155
  26   2.0000      -0.596446       -16.2301
  27   2.0000      -0.571378       -15.5480
  28   2.0000      -0.558737       -15.2040
  29   2.0000      -0.544667       -14.8211
  30   2.0000      -0.534496       -14.5444
  31   2.0000      -0.511268       -13.9123
  32   2.0000      -0.501214       -13.6387
  33   2.0000      -0.485022       -13.1981
  34   2.0000      -0.429777       -11.6948
  35   2.0000      -0.383740       -10.4421
  36   2.0000      -0.358251        -9.7485
  37   0.0000       0.023422         0.6374
  38   0.0000       0.030923         0.8415
  39   0.0000       0.034927         0.9504
  40   0.0000       0.040158         1.0927
  41   0.0000       0.049420         1.3448

MULLIKEN ATOMIC CHARGES
-----------------------
   0 Cl:   -0.400771
   1 S :    0.074868
   2 C :    0.745702
   3 O :   -1.005729
   4 N :   -0.368914
   5 C :   -0.868393
   6 H :    0.320518
   7 H :    0.297464
   8 H :    0.308885
   9 C :   -0.883781
  10 H :    0.281221
  11 H :    0.346909
  12 H :    0.319715
  13 H :    0.415967
  14 H :    0.416339
Sum of atomic charges:    0.0000000

LOEWDIN ATOMIC CHARGES
----------------------
   0 Cl:    0.457298
   1 S :    0.469491
   2 C :   -0.904661
   3 O :    1.239189
   4 N :    0.327175
   5 C :    0.748216
   6 H :   -0.296673
   7 H :   -0.263105
   8 H :   -0.291636
   9 C :    0.698224
  10 H :   -0.335914
  11 H :   -0.289266
  12 H :   -0.274543
  13 H :   -0.445959
  14 H :   -0.837836

  Mayer bond orders larger than 0.100000
B(  0-Cl,  1-S ) :   0.9626 B(  0-Cl,  2-C ) :  -0.1661 B(  1-S ,  2-C ) :   0.8228
B(  2-C ,  3-O ) :   0.3800 B(  2-C ,  4-N ) :   0.8276 B(  2-C , 13-H ) :   0.8032
B(  3-O ,  4-N ) :   0.1174 B(  3-O , 14-H ) :   0.7975 B(  4-N ,  5-C ) :   0.8083
B(  4-N ,  9-C ) :   0.9000 B(  5-C ,  6-H ) :   0.9384 B(  5-C ,  7-H ) :   0.9410
B(  5-C ,  8-H ) :   0.9439 B(  9-C , 10-H ) :   0.9577 B(  9-C , 11-H ) :   0.9203
B(  9-C , 12-H ) :   0.8913

MP2 TOTAL ENERGY:    -1106.178966250 Eh
FINAL SINGLE POINT ENERGY     -1106.178966249843

DIPOLE MOMENT
-------------
                                X             Y             Z
Electronic contribution:     17.85072      -0.98146      -0.80209
Nuclear contribution   :    -19.00132       0.93658       1.04575
                        -----------------------------------------
Total Dipole Moment    :     -1.15060      -0.04488       0.24366
                        -----------------------------------------
Magnitude (a.u.)       :      1.17698
Magnitude (Debye)      :      2.99163

Rotational constants in cm-1:     0.128790     0.031539     0.030168
Rotational constants in MHz :  3861.019692   945.511840   904.421164

                             ****ORCA TERMINATED NORMALLY****
TOTAL RUN TIME: 0 days 1 hours 58 minutes 6 seconds 760 msec
