                         Program Version 5.0.4 -  RELEASE  -
|  1> ! ri-mp2 aug-cc-pvdz aug-cc-pvdz/c tightscf
|  2> %pal nprocs 16 end
|  3> %maxcore 3800
|  4> %base "DZ_B-F_52_AB"
|  5> %scf
|  6> STABPerform true
|  7> STABRestartUHFifUnstable true
|  8> end
|  9>
| 10> *xyz 0 1
| 11> F        -2.223193    0.493819    0.339373
| 12> B        -1.283720   -0.391969    0.081325
| 13> F        -1.658628   -1.531367   -0.451392
| 14> C         0.227255   -0.117851    0.496137
| 15> O         0.568036    1.241655    0.561543
| 16> O         1.061109   -0.857854   -0.344372
| 17> C         0.451182    1.934188   -0.665189
| 18> H         0.729023    2.966956   -0.470655
| 19> H        -0.577824    1.912812   -1.039711
| 20> H         1.114759    1.516337   -1.424736
| 21> C         2.398401   -0.944481    0.105340
| 22> H         2.931579   -1.573897   -0.602702
| 23> H         2.441735   -1.401413    1.099737
| 24> H         2.870400    0.038854    0.148767
| 25> H         0.351118   -0.463411    1.535753
| 26> *
| 27>
| 28> $new_job
| 29> ! ri-mp2 aug-cc-pvtz aug-cc-pvtz/c tightscf
| 30> %pal nprocs 16 end
| 31> %maxcore 3800
| 32> %base "TZ_B-F_52_AB"
| 33>
| 34> *xyz 0 1
| 35> F        -2.223193    0.493819    0.339373
| 36> B        -1.283720   -0.391969    0.081325
| 37> F        -1.658628   -1.531367   -0.451392
| 38> C         0.227255   -0.117851    0.496137
| 39> O         0.568036    1.241655    0.561543
| 40> O         1.061109   -0.857854   -0.344372
| 41> C         0.451182    1.934188   -0.665189
| 42> H         0.729023    2.966956   -0.470655
| 43> H        -0.577824    1.912812   -1.039711
| 44> H         1.114759    1.516337   -1.424736
| 45> C         2.398401   -0.944481    0.105340
| 46> H         2.931579   -1.573897   -0.602702
| 47> H         2.441735   -1.401413    1.099737
| 48> H         2.870400    0.038854    0.148767
| 49> H         0.351118   -0.463411    1.535753
| 50> *
| 51>
| 52> $new_job
| 53> ! ri-mp2 aug-cc-pvqz aug-cc-pvqz/c tightscf
| 54> %pal nprocs 16 end
| 55> %maxcore 3800
| 56> %base "QZ_B-F_52_AB"
| 57>
| 58> *xyz 0 1
| 59> F        -2.223193    0.493819    0.339373
| 60> B        -1.283720   -0.391969    0.081325
| 61> F        -1.658628   -1.531367   -0.451392
| 62> C         0.227255   -0.117851    0.496137
| 63> O         0.568036    1.241655    0.561543
| 64> O         1.061109   -0.857854   -0.344372
| 65> C         0.451182    1.934188   -0.665189
| 66> H         0.729023    2.966956   -0.470655
| 67> H        -0.577824    1.912812   -1.039711
| 68> H         1.114759    1.516337   -1.424736
| 69> C         2.398401   -0.944481    0.105340
| 70> H         2.931579   -1.573897   -0.602702
| 71> H         2.441735   -1.401413    1.099737
| 72> H         2.870400    0.038854    0.148767
| 73> H         0.351118   -0.463411    1.535753
| 74> *
| 75>
| 76>
| 77>
| 78>
| 79>                          ****END OF INPUT****
 Total Charge           Charge          ....    0
 Multiplicity           Mult            ....    1
 Number of Electrons    NEL             ....   64
MP2 TOTAL ENERGY:     -492.435888140 Eh
FINAL SINGLE POINT ENERGY      -492.435888139585
MP2 TOTAL ENERGY:     -492.872353168 Eh
FINAL SINGLE POINT ENERGY      -492.872353168079

CARTESIAN COORDINATES (ANGSTROEM)
---------------------------------
  F     -2.223193    0.493819    0.339373
  B     -1.283720   -0.391969    0.081325
  F     -1.658628   -1.531367   -0.451392
  C      0.227255   -0.117851    0.496137
  O      0.568036    1.241655    0.561543
  O      1.061109   -0.857854   -0.344372
  C      0.451182    1.934188   -0.665189
  H      0.729023    2.966956   -0.470655
  H     -0.577824    1.912812   -1.039711
  H      1.114759    1.516337   -1.424736
  C      2.398401   -0.944481    0.105340
  H      2.931579   -1.573897   -0.602702
  H      2.441735   -1.401413    1.099737
  H      2.870400    0.038854    0.148767
  H      0.351118   -0.463411    1.535753

 Multiplicity           Mult            ....    1
 Number of Electrons    NEL             ....   64
 Basis Dimension        Dim             ....  962

ORBITAL ENERGIES
----------------

  NO   OCC          E(Eh)            E(eV)
   0   2.0000     -26.315494      -716.0810
   1   2.0000     -26.313819      -716.0354
   2   2.0000     -20.572095      -559.7952
   3   2.0000     -20.570475      -559.7511
   4   2.0000     -11.329617      -308.2946
   5   2.0000     -11.277166      -306.8673
   6   2.0000     -11.277105      -306.8656
   7   2.0000      -7.710960      -209.8259
   8   2.0000      -1.649829       -44.8941
   9   2.0000      -1.617279       -44.0084
  10   2.0000      -1.429901       -38.9096
  11   2.0000      -1.359447       -36.9924
  12   2.0000      -0.997606       -27.1462
  13   2.0000      -0.944026       -25.6883
  14   2.0000      -0.863300       -23.4916
  15   2.0000      -0.815926       -22.2025
  16   2.0000      -0.767168       -20.8757
  17   2.0000      -0.745595       -20.2887
  18   2.0000      -0.725483       -19.7414
  19   2.0000      -0.699090       -19.0232
  20   2.0000      -0.689265       -18.7559
  21   2.0000      -0.664181       -18.0733
  22   2.0000      -0.661766       -18.0076
  23   2.0000      -0.654371       -17.8063
  24   2.0000      -0.620536       -16.8856
  25   2.0000      -0.608920       -16.5696
  26   2.0000      -0.583457       -15.8767
  27   2.0000      -0.534384       -14.5413
  28   2.0000      -0.531285       -14.4570
  29   2.0000      -0.468064       -12.7367
  30   2.0000      -0.454688       -12.3727
  31   2.0000      -0.444146       -12.0858
  32   0.0000       0.022847         0.6217
  33   0.0000       0.030700         0.8354
  34   0.0000       0.033532         0.9125
  35   0.0000       0.034722         0.9448
  36   0.0000       0.048766         1.3270

MULLIKEN ATOMIC CHARGES
-----------------------
   0 F :   -0.868537
   1 B :    1.772612
   2 F :   -0.894422
   3 C :    0.906220
   4 O :   -0.853466
   5 O :   -0.877664
   6 C :   -0.658196
   7 H :    0.419276
   8 H :    0.259753
   9 H :    0.275027
  10 C :   -0.693425
  11 H :    0.386691
  12 H :    0.268978
  13 H :    0.298594
  14 H :    0.258559
Sum of atomic charges:   -0.0000000

LOEWDIN ATOMIC CHARGES
----------------------
   0 F :    0.851022
   1 B :   -1.763938
   2 F :    0.841850
   3 C :   -0.547613
   4 O :    0.866400
   5 O :    0.853029
   6 C :    0.569411
   7 H :   -0.312838
   8 H :   -0.325328
   9 H :   -0.309325
  10 C :    0.580613
  11 H :   -0.317905
  12 H :   -0.305708
  13 H :   -0.311953
  14 H :   -0.367717

  Mayer bond orders larger than 0.100000
B(  0-F ,  1-B ) :   0.2581 B(  0-F ,  3-C ) :  -0.1734 B(  1-B ,  2-F ) :   0.2446
B(  1-B ,  3-C ) :   0.8856 B(  2-F ,  3-C ) :  -0.1031 B(  3-C ,  4-O ) :   0.5690
B(  3-C ,  5-O ) :   0.5563 B(  3-C , 14-H ) :   0.9011 B(  4-O ,  6-C ) :   0.8650
B(  5-O , 10-C ) :   0.9405 B(  6-C ,  7-H ) :   0.8520 B(  6-C ,  8-H ) :   0.9181
B(  6-C ,  9-H ) :   0.9115 B( 10-C , 11-H ) :   0.8779 B( 10-C , 12-H ) :   0.9235
B( 10-C , 13-H ) :   0.8985

MP2 TOTAL ENERGY:     -493.010639623 Eh
FINAL SINGLE POINT ENERGY      -493.010639622850

DIPOLE MOMENT
-------------
                                X             Y             Z
Electronic contribution:    -13.61518      -4.06758       0.73199
Nuclear contribution   :     14.31434       4.21324      -0.68399
                        -----------------------------------------
Total Dipole Moment    :      0.69917       0.14566       0.04799
                        -----------------------------------------
Magnitude (a.u.)       :      0.71579
Magnitude (Debye)      :      1.81939

Rotational constants in cm-1:     0.088270     0.054110     0.037817
Rotational constants in MHz :  2646.268785  1622.170073  1133.739559

                             ****ORCA TERMINATED NORMALLY****
TOTAL RUN TIME: 0 days 2 hours 44 minutes 37 seconds 338 msec
