                         Program Version 5.0.4 -  RELEASE  -
|  1> ! ri-mp2 aug-cc-pvdz aug-cc-pvdz/c tightscf
|  2> %pal nprocs 16 end
|  3> %maxcore 3800
|  4> %base "DZ_B-F_35_A"
|  5> %scf
|  6> STABPerform true
|  7> STABRestartUHFifUnstable true
|  8> end
|  9>
| 10> *xyz 0 2
| 11> F        -2.583559    0.390802    0.347640
| 12> B        -1.610320    0.231453   -0.501000
| 13> C        -0.243418   -0.474232   -0.155740
| 14> O        -0.367716   -1.692248   -0.098783
| 15> N         0.922975    0.187444   -0.028924
| 16> C         0.989318    1.625508   -0.077247
| 17> H         0.016502    2.036022   -0.349047
| 18> H         1.712314    1.951473   -0.828044
| 19> H         1.281829    2.042696    0.889531
| 20> C         2.151233   -0.535799    0.208280
| 21> H         1.930011   -1.599087    0.206249
| 22> H         2.581532   -0.258699    1.173261
| 23> H         2.879547   -0.313872   -0.574742
| 24> *
| 25>
| 26> $new_job
| 27> ! ri-mp2 aug-cc-pvtz aug-cc-pvtz/c tightscf
| 28> %pal nprocs 16 end
| 29> %maxcore 3800
| 30> %base "TZ_B-F_35_A"
| 31>
| 32> *xyz 0 2
| 33> F        -2.583559    0.390802    0.347640
| 34> B        -1.610320    0.231453   -0.501000
| 35> C        -0.243418   -0.474232   -0.155740
| 36> O        -0.367716   -1.692248   -0.098783
| 37> N         0.922975    0.187444   -0.028924
| 38> C         0.989318    1.625508   -0.077247
| 39> H         0.016502    2.036022   -0.349047
| 40> H         1.712314    1.951473   -0.828044
| 41> H         1.281829    2.042696    0.889531
| 42> C         2.151233   -0.535799    0.208280
| 43> H         1.930011   -1.599087    0.206249
| 44> H         2.581532   -0.258699    1.173261
| 45> H         2.879547   -0.313872   -0.574742
| 46> *
| 47>
| 48> $new_job
| 49> ! ri-mp2 aug-cc-pvqz aug-cc-pvqz/c tightscf
| 50> %pal nprocs 16 end
| 51> %maxcore 3800
| 52> %base "QZ_B-F_35_A"
| 53>
| 54> *xyz 0 2
| 55> F        -2.583559    0.390802    0.347640
| 56> B        -1.610320    0.231453   -0.501000
| 57> C        -0.243418   -0.474232   -0.155740
| 58> O        -0.367716   -1.692248   -0.098783
| 59> N         0.922975    0.187444   -0.028924
| 60> C         0.989318    1.625508   -0.077247
| 61> H         0.016502    2.036022   -0.349047
| 62> H         1.712314    1.951473   -0.828044
| 63> H         1.281829    2.042696    0.889531
| 64> C         2.151233   -0.535799    0.208280
| 65> H         1.930011   -1.599087    0.206249
| 66> H         2.581532   -0.258699    1.173261
| 67> H         2.879547   -0.313872   -0.574742
| 68> *
| 69>
| 70>
| 71>
| 72>
| 73>                          ****END OF INPUT****
 Total Charge           Charge          ....    0
 Multiplicity           Mult            ....    2
 Number of Electrons    NEL             ....   53
MP2 TOTAL ENERGY:     -371.625516061 Eh
FINAL SINGLE POINT ENERGY      -371.625516060900
MP2 TOTAL ENERGY:     -371.950512808 Eh
FINAL SINGLE POINT ENERGY      -371.950512807602

CARTESIAN COORDINATES (ANGSTROEM)
---------------------------------
  F     -2.583559    0.390802    0.347640
  B     -1.610320    0.231453   -0.501000
  C     -0.243418   -0.474232   -0.155740
  O     -0.367716   -1.692248   -0.098783
  N      0.922975    0.187444   -0.028924
  C      0.989318    1.625508   -0.077247
  H      0.016502    2.036022   -0.349047
  H      1.712314    1.951473   -0.828044
  H      1.281829    2.042696    0.889531
  C      2.151233   -0.535799    0.208280
  H      1.930011   -1.599087    0.206249
  H      2.581532   -0.258699    1.173261
  H      2.879547   -0.313872   -0.574742

 Multiplicity           Mult            ....    2
 Number of Electrons    NEL             ....   53
 Basis Dimension        Dim             ....  836

ORBITAL ENERGIES
----------------
                 SPIN UP ORBITALS
  NO   OCC          E(Eh)            E(eV)
   0   1.0000     -26.331126      -716.5064
   1   1.0000     -20.527973      -558.5945
   2   1.0000     -15.601044      -424.5260
   3   1.0000     -11.340787      -308.5985
   4   1.0000     -11.284313      -307.0618
   5   1.0000     -11.263969      -306.5082
   6   1.0000      -7.699743      -209.5207
   7   1.0000      -1.649769       -44.8925
   8   1.0000      -1.390666       -37.8419
   9   1.0000      -1.267594       -34.4930
  10   1.0000      -0.997166       -27.1343
  11   1.0000      -0.960613       -26.1396
  12   1.0000      -0.834940       -22.7199
  13   1.0000      -0.778552       -21.1855
  14   1.0000      -0.737290       -20.0627
  15   1.0000      -0.707975       -19.2650
  16   1.0000      -0.697360       -18.9761
  17   1.0000      -0.670605       -18.2481
  18   1.0000      -0.666210       -18.1285
  19   1.0000      -0.591824       -16.1043
  20   1.0000      -0.578857       -15.7515
  21   1.0000      -0.576552       -15.6888
  22   1.0000      -0.549730       -14.9589
  23   1.0000      -0.548221       -14.9178
  24   1.0000      -0.447160       -12.1678
  25   1.0000      -0.391069       -10.6415
  26   1.0000      -0.356886        -9.7114
  27   0.0000       0.019078         0.5191
  28   0.0000       0.030501         0.8300
  29   0.0000       0.031594         0.8597
  30   0.0000       0.037671         1.0251
  31   0.0000       0.047989         1.3059

                 SPIN DOWN ORBITALS
  NO   OCC          E(Eh)            E(eV)
   0   1.0000     -26.327749      -716.4145
   1   1.0000     -20.526046      -558.5421
   2   1.0000     -15.600959      -424.5237
   3   1.0000     -11.338085      -308.5250
   4   1.0000     -11.284209      -307.0589
   5   1.0000     -11.263877      -306.5057
   6   1.0000      -7.680624      -209.0004
   7   1.0000      -1.640578       -44.6424
   8   1.0000      -1.386252       -37.7218
   9   1.0000      -1.266135       -34.4533
  10   1.0000      -0.996227       -27.1087
  11   1.0000      -0.956939       -26.0396
  12   1.0000      -0.816791       -22.2260
  13   1.0000      -0.768838       -20.9211
  14   1.0000      -0.722087       -19.6490
  15   1.0000      -0.699956       -19.0468
  16   1.0000      -0.683518       -18.5995
  17   1.0000      -0.668257       -18.1842
  18   1.0000      -0.664326       -18.0772
  19   1.0000      -0.581843       -15.8327
  20   1.0000      -0.577539       -15.7156
  21   1.0000      -0.575720       -15.6661
  22   1.0000      -0.548988       -14.9387
  23   1.0000      -0.535888       -14.5823
  24   1.0000      -0.424950       -11.5635
  25   1.0000      -0.384013       -10.4495
  26   0.0000       0.017915         0.4875
  27   0.0000       0.029257         0.7961
  28   0.0000       0.031170         0.8482
  29   0.0000       0.036495         0.9931
  30   0.0000       0.047628         1.2960

MULLIKEN ATOMIC CHARGES AND SPIN POPULATIONS
--------------------------------------------
   0 F :   -0.719571   -0.020107
   1 B :    0.940806    1.013763
   2 C :    0.888081   -0.021291
   3 O :   -0.898421    0.039375
   4 N :   -0.427548   -0.004970
   5 C :   -0.801715    0.002642
   6 H :    0.298547   -0.008258
   7 H :    0.295050   -0.000612
   8 H :    0.310402   -0.001207
   9 C :   -0.780037    0.001920
  10 H :    0.312640   -0.001339
  11 H :    0.286929   -0.000901
  12 H :    0.294837    0.000986
Sum of atomic charges         :    0.0000000

LOEWDIN ATOMIC CHARGES AND SPIN POPULATIONS
-------------------------------------------
   0 F :    0.749275    0.147649
   1 B :   -0.759673    0.559324
   2 C :   -0.795264    0.174313
   3 O :    0.686720    0.050452
   4 N :    0.367104    0.018615
   5 C :    0.756797    0.017079
   6 H :   -0.340710    0.026039
   7 H :   -0.269973    0.001106
   8 H :   -0.264125    0.000721
   9 C :    0.767887    0.002448
  10 H :   -0.350290    0.000651
  11 H :   -0.272254    0.000033
  12 H :   -0.275495    0.001569

  Mayer bond orders larger than 0.100000
B(  0-F ,  1-B ) :   0.3722 B(  1-B ,  2-C ) :   0.8581 B(  2-C ,  3-O ) :   1.1995
B(  2-C ,  4-N ) :   1.2597 B(  3-O ,  4-N ) :   0.2512 B(  4-N ,  5-C ) :   0.7949
B(  4-N ,  9-C ) :   0.8235 B(  5-C ,  6-H ) :   0.9066 B(  5-C ,  7-H ) :   0.9542
B(  5-C ,  8-H ) :   0.9424 B(  9-C , 10-H ) :   0.9015 B(  9-C , 11-H ) :   0.9570
B(  9-C , 12-H ) :   0.9467

MP2 TOTAL ENERGY:     -372.054320379 Eh
FINAL SINGLE POINT ENERGY      -372.054320379206

DIPOLE MOMENT
-------------
                                X             Y             Z
Electronic contribution:    -12.83101      -1.77485      -0.56019
Nuclear contribution   :     13.92080       3.18507       0.56254
                        -----------------------------------------
Total Dipole Moment    :      1.08979       1.41022       0.00235
                        -----------------------------------------
Magnitude (a.u.)       :      1.78224
Magnitude (Debye)      :      4.53009

Rotational constants in cm-1:     0.150651     0.062915     0.046694
Rotational constants in MHz :  4516.417138  1886.132058  1399.854645

                             ****ORCA TERMINATED NORMALLY****
TOTAL RUN TIME: 0 days 2 hours 49 minutes 34 seconds 463 msec
