                         Program Version 5.0.4 -  RELEASE  -
|  1> ! ri-mp2 aug-cc-pvdz aug-cc-pvdz/c tightscf
|  2> %pal nprocs 16 end
|  3> %maxcore 3800
|  4> %base "DZ_B-F_15_AB"
|  5> %scf
|  6> STABPerform true
|  7> STABRestartUHFifUnstable true
|  8> end
|  9>
| 10> *xyz 0 1
| 11> F        -2.204847    0.115274   -0.789005
| 12> F        -1.419532   -0.776312    1.127862
| 13> B        -1.183726   -0.223916   -0.034523
| 14> C         0.283493    0.069118   -0.533760
| 15> Cl         1.404220   -1.237379   -0.126523
| 16> Cl         0.742401    1.615224    0.240002
| 17> H         0.344531    0.230855   -1.603683
| 18> *
| 19>
| 20> $new_job
| 21> ! ri-mp2 aug-cc-pvtz aug-cc-pvtz/c tightscf
| 22> %pal nprocs 16 end
| 23> %maxcore 3800
| 24> %base "TZ_B-F_15_AB"
| 25>
| 26> *xyz 0 1
| 27> F        -2.204847    0.115274   -0.789005
| 28> F        -1.419532   -0.776312    1.127862
| 29> B        -1.183726   -0.223916   -0.034523
| 30> C         0.283493    0.069118   -0.533760
| 31> Cl         1.404220   -1.237379   -0.126523
| 32> Cl         0.742401    1.615224    0.240002
| 33> H         0.344531    0.230855   -1.603683
| 34> *
| 35>
| 36> $new_job
| 37> ! ri-mp2 aug-cc-pvqz aug-cc-pvqz/c tightscf
| 38> %pal nprocs 16 end
| 39> %maxcore 3800
| 40> %base "QZ_B-F_15_AB"
| 41>
| 42> *xyz 0 1
| 43> F        -2.204847    0.115274   -0.789005
| 44> F        -1.419532   -0.776312    1.127862
| 45> B        -1.183726   -0.223916   -0.034523
| 46> C         0.283493    0.069118   -0.533760
| 47> Cl         1.404220   -1.237379   -0.126523
| 48> Cl         0.742401    1.615224    0.240002
| 49> H         0.344531    0.230855   -1.603683
| 50> *
| 51>
| 52>
| 53>
| 54>
| 55>                          ****END OF INPUT****
 Total Charge           Charge          ....    0
 Multiplicity           Mult            ....    1
 Number of Electrons    NEL             ....   64
MP2 TOTAL ENERGY:    -1182.087741566 Eh
FINAL SINGLE POINT ENERGY     -1182.087741565540
MP2 TOTAL ENERGY:    -1182.439374012 Eh
FINAL SINGLE POINT ENERGY     -1182.439374012333

CARTESIAN COORDINATES (ANGSTROEM)
---------------------------------
  F     -2.204847    0.115274   -0.789005
  F     -1.419532   -0.776312    1.127862
  B     -1.183726   -0.223916   -0.034523
  C      0.283493    0.069118   -0.533760
  Cl     1.404220   -1.237379   -0.126523
  Cl     0.742401    1.615224    0.240002
  H      0.344531    0.230855   -1.603683

 Multiplicity           Mult            ....    1
 Number of Electrons    NEL             ....   64
 Basis Dimension        Dim             ....  534

ORBITAL ENERGIES
----------------

  NO   OCC          E(Eh)            E(eV)
   0   2.0000    -104.864275     -2853.5020
   1   2.0000    -104.860621     -2853.4026
   2   2.0000     -26.336636      -716.6563
   3   2.0000     -26.333707      -716.5766
   4   2.0000     -11.365043      -309.2586
   5   2.0000     -10.589656      -288.1592
   6   2.0000     -10.586154      -288.0639
   7   2.0000      -8.056666      -219.2330
   8   2.0000      -8.054829      -219.1830
   9   2.0000      -8.054729      -219.1803
  10   2.0000      -8.053215      -219.1391
  11   2.0000      -8.051368      -219.0889
  12   2.0000      -8.051256      -219.0858
  13   2.0000      -7.742475      -210.6835
  14   2.0000      -1.670337       -45.4522
  15   2.0000      -1.639090       -44.6019
  16   2.0000      -1.205741       -32.8099
  17   2.0000      -1.110641       -30.2221
  18   2.0000      -0.919766       -25.0281
  19   2.0000      -0.837664       -22.7940
  20   2.0000      -0.789680       -21.4883
  21   2.0000      -0.754045       -20.5186
  22   2.0000      -0.738662       -20.1000
  23   2.0000      -0.682687       -18.5769
  24   2.0000      -0.681226       -18.5371
  25   2.0000      -0.648750       -17.6534
  26   2.0000      -0.608297       -16.5526
  27   2.0000      -0.598137       -16.2761
  28   2.0000      -0.488722       -13.2988
  29   2.0000      -0.480239       -13.0680
  30   2.0000      -0.461498       -12.5580
  31   2.0000      -0.450488       -12.2584
  32   0.0000       0.024303         0.6613
  33   0.0000       0.037117         1.0100
  34   0.0000       0.038010         1.0343
  35   0.0000       0.041581         1.1315
  36   0.0000       0.064236         1.7479

MULLIKEN ATOMIC CHARGES
-----------------------
   0 F :   -0.782718
   1 F :   -0.793615
   2 B :    1.740384
   3 C :   -0.088346
   4 Cl:   -0.245326
   5 Cl:   -0.243070
   6 H :    0.412692
Sum of atomic charges:   -0.0000000

LOEWDIN ATOMIC CHARGES
----------------------
   0 F :    0.824816
   1 F :    0.817890
   2 B :   -2.128844
   3 C :   -1.183698
   4 Cl:    1.118637
   5 Cl:    1.122553
   6 H :   -0.571354

  Mayer bond orders larger than 0.100000
B(  0-F ,  2-B ) :   0.3818 B(  1-F ,  2-B ) :   0.3790 B(  2-B ,  3-C ) :   0.8863
B(  3-C ,  4-Cl) :   0.8224 B(  3-C ,  5-Cl) :   0.8547 B(  3-C ,  6-H ) :   0.7653

MP2 TOTAL ENERGY:    -1182.553475415 Eh
FINAL SINGLE POINT ENERGY     -1182.553475414693

DIPOLE MOMENT
-------------
                                X             Y             Z
Electronic contribution:     -1.62416      -0.45950       1.33382
Nuclear contribution   :      1.63609       0.47411      -1.87712
                        -----------------------------------------
Total Dipole Moment    :      0.01193       0.01461      -0.54329
                        -----------------------------------------
Magnitude (a.u.)       :      0.54362
Magnitude (Debye)      :      1.38177

Rotational constants in cm-1:     0.082747     0.060015     0.042631
Rotational constants in MHz :  2480.690189  1799.193260  1278.059643

                             ****ORCA TERMINATED NORMALLY****
TOTAL RUN TIME: 0 days 0 hours 17 minutes 45 seconds 708 msec
