                         Program Version 5.0.4 -  RELEASE  -
|  1> ! ri-mp2 aug-cc-pvdz aug-cc-pvdz/c tightscf
|  2> %pal nprocs 16 end
|  3> %maxcore 3800
|  4> %base "DZ_B-B_19_AB"
|  5> %scf
|  6> STABPerform true
|  7> STABRestartUHFifUnstable true
|  8> end
|  9>
| 10> *xyz 0 1
| 11> B        -0.784131    0.425946    0.323344
| 12> B         0.784131    0.425946   -0.323344
| 13> O         1.734641   -0.370696    0.226102
| 14> H         2.598199   -0.298986   -0.190644
| 15> O        -1.734640   -0.370698   -0.226101
| 16> H        -2.598200   -0.298984    0.190644
| 17> H         1.105818    1.134826   -1.243051
| 18> H        -1.105820    1.134835    1.243044
| 19> *
| 20>
| 21> $new_job
| 22> ! ri-mp2 aug-cc-pvtz aug-cc-pvtz/c tightscf
| 23> %pal nprocs 16 end
| 24> %maxcore 3800
| 25> %base "TZ_B-B_19_AB"
| 26>
| 27> *xyz 0 1
| 28> B        -0.784131    0.425946    0.323344
| 29> B         0.784131    0.425946   -0.323344
| 30> O         1.734641   -0.370696    0.226102
| 31> H         2.598199   -0.298986   -0.190644
| 32> O        -1.734640   -0.370698   -0.226101
| 33> H        -2.598200   -0.298984    0.190644
| 34> H         1.105818    1.134826   -1.243051
| 35> H        -1.105820    1.134835    1.243044
| 36> *
| 37>
| 38> $new_job
| 39> ! ri-mp2 aug-cc-pvqz aug-cc-pvqz/c tightscf
| 40> %pal nprocs 16 end
| 41> %maxcore 3800
| 42> %base "QZ_B-B_19_AB"
| 43>
| 44> *xyz 0 1
| 45> B        -0.784131    0.425946    0.323344
| 46> B         0.784131    0.425946   -0.323344
| 47> O         1.734641   -0.370696    0.226102
| 48> H         2.598199   -0.298986   -0.190644
| 49> O        -1.734640   -0.370698   -0.226101
| 50> H        -2.598200   -0.298984    0.190644
| 51> H         1.105818    1.134826   -1.243051
| 52> H        -1.105820    1.134835    1.243044
| 53> *
| 54>
| 55>
| 56>
| 57>
| 58>                          ****END OF INPUT****
 Total Charge           Charge          ....    0
 Multiplicity           Mult            ....    1
 Number of Electrons    NEL             ....   30
MP2 TOTAL ENERGY:     -202.089577268 Eh
FINAL SINGLE POINT ENERGY      -202.089577268455
MP2 TOTAL ENERGY:     -202.269084913 Eh
FINAL SINGLE POINT ENERGY      -202.269084912719

CARTESIAN COORDINATES (ANGSTROEM)
---------------------------------
  B     -0.784131    0.425946    0.323344
  B      0.784131    0.425946   -0.323344
  O      1.734641   -0.370696    0.226102
  H      2.598199   -0.298986   -0.190644
  O     -1.734640   -0.370698   -0.226101
  H     -2.598200   -0.298984    0.190644
  H      1.105818    1.134826   -1.243051
  H     -1.105820    1.134835    1.243044

 Multiplicity           Mult            ....    1
 Number of Electrons    NEL             ....   30
 Basis Dimension        Dim             ....  504

ORBITAL ENERGIES
----------------

  NO   OCC          E(Eh)            E(eV)
   0   2.0000     -20.573313      -559.8283
   1   2.0000     -20.573312      -559.8283
   2   2.0000      -7.600235      -206.8129
   3   2.0000      -7.599502      -206.7930
   4   2.0000      -1.367784       -37.2193
   5   2.0000      -1.365276       -37.1510
   6   2.0000      -0.783091       -21.3090
   7   2.0000      -0.739891       -20.1334
   8   2.0000      -0.645975       -17.5779
   9   2.0000      -0.640016       -17.4157
  10   2.0000      -0.569764       -15.5041
  11   2.0000      -0.536884       -14.6094
  12   2.0000      -0.536402       -14.5962
  13   2.0000      -0.500834       -13.6284
  14   2.0000      -0.401255       -10.9187
  15   0.0000       0.025060         0.6819
  16   0.0000       0.025904         0.7049
  17   0.0000       0.039664         1.0793
  18   0.0000       0.039972         1.0877
  19   0.0000       0.050647         1.3782

MULLIKEN ATOMIC CHARGES
-----------------------
   0 B :    0.828156
   1 B :    0.828155
   2 O :   -0.918197
   3 H :    0.354043
   4 O :   -0.918198
   5 H :    0.354044
   6 H :   -0.264002
   7 H :   -0.264002
Sum of atomic charges:    0.0000000

LOEWDIN ATOMIC CHARGES
----------------------
   0 B :   -0.298252
   1 B :   -0.298251
   2 O :    1.295798
   3 H :   -0.798949
   4 O :    1.295796
   5 H :   -0.798946
   6 H :   -0.198598
   7 H :   -0.198598

  Mayer bond orders larger than 0.100000
B(  0-B ,  1-B ) :   1.0069 B(  0-B ,  2-O ) :  -0.1531 B(  0-B ,  4-O ) :   0.6819
B(  0-B ,  7-H ) :   0.9169 B(  1-B ,  2-O ) :   0.6819 B(  1-B ,  4-O ) :  -0.1531
B(  1-B ,  6-H ) :   0.9169 B(  2-O ,  3-H ) :   0.8998 B(  4-O ,  5-H ) :   0.8998

MP2 TOTAL ENERGY:     -202.327648196 Eh
FINAL SINGLE POINT ENERGY      -202.327648195784

DIPOLE MOMENT
-------------
                                X             Y             Z
Electronic contribution:      0.00000      -0.67081       0.00001
Nuclear contribution   :     -0.00000       0.95146      -0.00001
                        -----------------------------------------
Total Dipole Moment    :     -0.00000       0.28065       0.00000
                        -----------------------------------------
Magnitude (a.u.)       :      0.28065
Magnitude (Debye)      :      0.71336

Rotational constants in cm-1:     0.932770     0.127004     0.123210
Rotational constants in MHz : 27963.753641  3807.471350  3693.737896

                             ****ORCA TERMINATED NORMALLY****
TOTAL RUN TIME: 0 days 0 hours 11 minutes 15 seconds 65 msec
