                         Program Version 5.0.4 -  RELEASE  -
|  1> ! ri-mp2 aug-cc-pvdz aug-cc-pvdz/c tightscf
|  2> %pal nprocs 16 end
|  3> %maxcore 3800
|  4> %base "DZ_B-Si_12_A"
|  5> %scf
|  6> STABPerform true
|  7> STABRestartUHFifUnstable true
|  8> end
|  9>
| 10> *xyz 0 2
| 11> Si         0.676959   -0.707243    0.116104
| 12> C        -1.093000   -0.455861   -0.471592
| 13> C        -1.828704    0.673067    0.256723
| 14> H        -1.632946   -1.396948   -0.344302
| 15> H        -1.078231   -0.260728   -1.546914
| 16> H        -1.336352    1.634587    0.105383
| 17> H        -1.869989    0.491969    1.331819
| 18> C         1.722211    0.830887   -0.132327
| 19> H         1.318057    1.671019    0.437951
| 20> H         1.751563    1.120552   -1.183244
| 21> H         2.746966    0.665998    0.200079
| 22> H        -2.855457    0.772515   -0.100011
| 23> H         0.675921   -1.086120    1.556958
| 24> *
| 25>
| 26> $new_job
| 27> ! ri-mp2 aug-cc-pvtz aug-cc-pvtz/c tightscf
| 28> %pal nprocs 16 end
| 29> %maxcore 3800
| 30> %base "TZ_B-Si_12_A"
| 31>
| 32> *xyz 0 2
| 33> Si         0.676959   -0.707243    0.116104
| 34> C        -1.093000   -0.455861   -0.471592
| 35> C        -1.828704    0.673067    0.256723
| 36> H        -1.632946   -1.396948   -0.344302
| 37> H        -1.078231   -0.260728   -1.546914
| 38> H        -1.336352    1.634587    0.105383
| 39> H        -1.869989    0.491969    1.331819
| 40> C         1.722211    0.830887   -0.132327
| 41> H         1.318057    1.671019    0.437951
| 42> H         1.751563    1.120552   -1.183244
| 43> H         2.746966    0.665998    0.200079
| 44> H        -2.855457    0.772515   -0.100011
| 45> H         0.675921   -1.086120    1.556958
| 46> *
| 47>
| 48> $new_job
| 49> ! ri-mp2 aug-cc-pvqz aug-cc-pvqz/c tightscf
| 50> %pal nprocs 16 end
| 51> %maxcore 3800
| 52> %base "QZ_B-Si_12_A"
| 53>
| 54> *xyz 0 2
| 55> Si         0.676959   -0.707243    0.116104
| 56> C        -1.093000   -0.455861   -0.471592
| 57> C        -1.828704    0.673067    0.256723
| 58> H        -1.632946   -1.396948   -0.344302
| 59> H        -1.078231   -0.260728   -1.546914
| 60> H        -1.336352    1.634587    0.105383
| 61> H        -1.869989    0.491969    1.331819
| 62> C         1.722211    0.830887   -0.132327
| 63> H         1.318057    1.671019    0.437951
| 64> H         1.751563    1.120552   -1.183244
| 65> H         2.746966    0.665998    0.200079
| 66> H        -2.855457    0.772515   -0.100011
| 67> H         0.675921   -1.086120    1.556958
| 68> *
| 69>
| 70>
| 71>
| 72>
| 73>                          ****END OF INPUT****
 Total Charge           Charge          ....    0
 Multiplicity           Mult            ....    2
 Number of Electrons    NEL             ....   41
MP2 TOTAL ENERGY:     -408.303414083 Eh
FINAL SINGLE POINT ENERGY      -408.303414083316
MP2 TOTAL ENERGY:     -408.458369126 Eh
FINAL SINGLE POINT ENERGY      -408.458369125667

CARTESIAN COORDINATES (ANGSTROEM)
---------------------------------
  Si     0.676959   -0.707243    0.116104
  C     -1.093000   -0.455861   -0.471592
  C     -1.828704    0.673067    0.256723
  H     -1.632946   -1.396948   -0.344302
  H     -1.078231   -0.260728   -1.546914
  H     -1.336352    1.634587    0.105383
  H     -1.869989    0.491969    1.331819
  C      1.722211    0.830887   -0.132327
  H      1.318057    1.671019    0.437951
  H      1.751563    1.120552   -1.183244
  H      2.746966    0.665998    0.200079
  H     -2.855457    0.772515   -0.100011
  H      0.675921   -1.086120    1.556958

 Multiplicity           Mult            ....    2
 Number of Electrons    NEL             ....   41
 Basis Dimension        Dim             ....  738

ORBITAL ENERGIES
----------------
                 SPIN UP ORBITALS
  NO   OCC          E(Eh)            E(eV)
   0   1.0000     -68.760399     -1871.0656
   1   1.0000     -11.218850      -305.2804
   2   1.0000     -11.208757      -305.0058
   3   1.0000     -11.204274      -304.8838
   4   1.0000      -6.110853      -166.2848
   5   1.0000      -4.223574      -114.9293
   6   1.0000      -4.213841      -114.6644
   7   1.0000      -4.213521      -114.6557
   8   1.0000      -1.024527       -27.8788
   9   1.0000      -0.945428       -25.7264
  10   1.0000      -0.845683       -23.0122
  11   1.0000      -0.665631       -18.1127
  12   1.0000      -0.608632       -16.5617
  13   1.0000      -0.576821       -15.6961
  14   1.0000      -0.560499       -15.2520
  15   1.0000      -0.548077       -14.9139
  16   1.0000      -0.517751       -14.0887
  17   1.0000      -0.497426       -13.5357
  18   1.0000      -0.450791       -12.2667
  19   1.0000      -0.424258       -11.5446
  20   1.0000      -0.307056        -8.3554
  21   0.0000       0.023611         0.6425
  22   0.0000       0.033554         0.9131
  23   0.0000       0.034971         0.9516
  24   0.0000       0.035575         0.9681
  25   0.0000       0.048388         1.3167

                 SPIN DOWN ORBITALS
  NO   OCC          E(Eh)            E(eV)
   0   1.0000     -68.754891     -1870.9157
   1   1.0000     -11.217962      -305.2563
   2   1.0000     -11.208066      -304.9870
   3   1.0000     -11.203641      -304.8666
   4   1.0000      -6.102378      -166.0542
   5   1.0000      -4.210230      -114.5662
   6   1.0000      -4.209868      -114.5563
   7   1.0000      -4.201739      -114.3351
   8   1.0000      -1.020210       -27.7613
   9   1.0000      -0.940125       -25.5821
  10   1.0000      -0.841552       -22.8998
  11   1.0000      -0.636041       -17.3075
  12   1.0000      -0.607302       -16.5255
  13   1.0000      -0.565099       -15.3771
  14   1.0000      -0.552829       -15.0432
  15   1.0000      -0.544443       -14.8151
  16   1.0000      -0.512316       -13.9408
  17   1.0000      -0.496173       -13.5016
  18   1.0000      -0.442903       -12.0520
  19   1.0000      -0.416476       -11.3329
  20   0.0000       0.022954         0.6246
  21   0.0000       0.031926         0.8688
  22   0.0000       0.033907         0.9227
  23   0.0000       0.035427         0.9640
  24   0.0000       0.048475         1.3191

MULLIKEN ATOMIC CHARGES AND SPIN POPULATIONS
--------------------------------------------
   0 Si:    0.738916    0.987556
   1 C :   -0.573179   -0.025728
   2 C :   -0.905084    0.023336
   3 H :    0.244418   -0.002225
   4 H :    0.195307   -0.004344
   5 H :    0.252210   -0.001162
   6 H :    0.239226   -0.001491
   7 C :   -1.069327   -0.002877
   8 H :    0.247026    0.022780
   9 H :    0.231668   -0.001227
  10 H :    0.310427   -0.008880
  11 H :    0.340108    0.006846
  12 H :   -0.251716    0.007416
Sum of atomic charges         :   -0.0000000

LOEWDIN ATOMIC CHARGES AND SPIN POPULATIONS
-------------------------------------------
   0 Si:    0.831747    0.517597
   1 C :    0.456213    0.125057
   2 C :    0.839391    0.019456
   3 H :   -0.364037    0.015266
   4 H :   -0.357411    0.013835
   5 H :   -0.304732    0.003530
   6 H :   -0.298927    0.005473
   7 C :    0.868384    0.131298
   8 H :   -0.364543    0.016825
   9 H :   -0.368982    0.012933
  10 H :   -0.378204    0.014454
  11 H :   -0.285469    0.004952
  12 H :   -0.273432    0.119325

  Mayer bond orders larger than 0.100000
B(  0-Si,  1-C ) :   0.7278 B(  0-Si,  7-C ) :   0.8097 B(  0-Si, 12-H ) :   0.8879
B(  1-C ,  2-C ) :   0.9822 B(  1-C ,  3-H ) :   0.9292 B(  1-C ,  4-H ) :   0.9584
B(  2-C ,  5-H ) :   0.9210 B(  2-C ,  6-H ) :   0.9382 B(  2-C , 11-H ) :   0.9021
B(  7-C ,  8-H ) :   0.9324 B(  7-C ,  9-H ) :   0.9617 B(  7-C , 10-H ) :   0.9436

MP2 TOTAL ENERGY:     -408.504313712 Eh
FINAL SINGLE POINT ENERGY      -408.504313711811

DIPOLE MOMENT
-------------
                                X             Y             Z
Electronic contribution:      2.29374      -3.57244      -0.60248
Nuclear contribution   :     -2.44241       3.84608       0.47413
                        -----------------------------------------
Total Dipole Moment    :     -0.14868       0.27364      -0.12834
                        -----------------------------------------
Magnitude (a.u.)       :      0.33684
Magnitude (Debye)      :      0.85617

Rotational constants in cm-1:     0.313320     0.115633     0.096523
Rotational constants in MHz :  9393.104009  3466.585695  2893.684564

                             ****ORCA TERMINATED NORMALLY****
TOTAL RUN TIME: 0 days 1 hours 9 minutes 15 seconds 855 msec
