                         Program Version 5.0.4 -  RELEASE  -
|  1> ! ri-mp2 aug-cc-pvdz aug-cc-pvdz/c tightscf
|  2> %pal nprocs 16 end
|  3> %maxcore 3800
|  4> %base "DZ_Si-Si_13_AB"
|  5> %scf
|  6> STABPerform true
|  7> STABRestartUHFifUnstable true
|  8> end
|  9>
| 10> *xyz 0 1
| 11> Si         1.302901   -0.513625   -0.244913
| 12> Si        -0.882994    0.085190    0.361833
| 13> F        -1.847629   -1.104182   -0.077118
| 14> F         2.300636    0.620147    0.294899
| 15> F        -1.329174    1.377907   -0.450744
| 16> H         1.445219   -0.604985   -1.711132
| 17> H        -1.122443    0.354211    1.789850
| 18> H         1.684038   -1.795976    0.381070
| 19> *
| 20>
| 21> $new_job
| 22> ! ri-mp2 aug-cc-pvtz aug-cc-pvtz/c tightscf
| 23> %pal nprocs 16 end
| 24> %maxcore 3800
| 25> %base "TZ_Si-Si_13_AB"
| 26>
| 27> *xyz 0 1
| 28> Si         1.302901   -0.513625   -0.244913
| 29> Si        -0.882994    0.085190    0.361833
| 30> F        -1.847629   -1.104182   -0.077118
| 31> F         2.300636    0.620147    0.294899
| 32> F        -1.329174    1.377907   -0.450744
| 33> H         1.445219   -0.604985   -1.711132
| 34> H        -1.122443    0.354211    1.789850
| 35> H         1.684038   -1.795976    0.381070
| 36> *
| 37>
| 38> $new_job
| 39> ! ri-mp2 aug-cc-pvqz aug-cc-pvqz/c tightscf
| 40> %pal nprocs 16 end
| 41> %maxcore 3800
| 42> %base "QZ_Si-Si_13_AB"
| 43>
| 44> *xyz 0 1
| 45> Si         1.302901   -0.513625   -0.244913
| 46> Si        -0.882994    0.085190    0.361833
| 47> F        -1.847629   -1.104182   -0.077118
| 48> F         2.300636    0.620147    0.294899
| 49> F        -1.329174    1.377907   -0.450744
| 50> H         1.445219   -0.604985   -1.711132
| 51> H        -1.122443    0.354211    1.789850
| 52> H         1.684038   -1.795976    0.381070
| 53> *
| 54>
| 55>
| 56>
| 57>
| 58>                          ****END OF INPUT****
 Total Charge           Charge          ....    0
 Multiplicity           Mult            ....    1
 Number of Electrons    NEL             ....   58
MP2 TOTAL ENERGY:     -878.949328515 Eh
FINAL SINGLE POINT ENERGY      -878.949328515016
MP2 TOTAL ENERGY:     -879.285900123 Eh
FINAL SINGLE POINT ENERGY      -879.285900123466

CARTESIAN COORDINATES (ANGSTROEM)
---------------------------------
  Si     1.302901   -0.513625   -0.244913
  Si    -0.882994    0.085190    0.361833
  F     -1.847629   -1.104182   -0.077118
  F      2.300636    0.620147    0.294899
  F     -1.329174    1.377907   -0.450744
  H      1.445219   -0.604985   -1.711132
  H     -1.122443    0.354211    1.789850
  H      1.684038   -1.795976    0.381070

 Multiplicity           Mult            ....    1
 Number of Electrons    NEL             ....   58
 Basis Dimension        Dim             ....  546

ORBITAL ENERGIES
----------------

  NO   OCC          E(Eh)            E(eV)
   0   2.0000     -68.857120     -1873.6975
   1   2.0000     -68.827732     -1872.8978
   2   2.0000     -26.303568      -715.7565
   3   2.0000     -26.302276      -715.7213
   4   2.0000     -26.295378      -715.5336
   5   2.0000      -6.196524      -168.6160
   6   2.0000      -6.172364      -167.9586
   7   2.0000      -4.304389      -117.1284
   8   2.0000      -4.303637      -117.1079
   9   2.0000      -4.302681      -117.0819
  10   2.0000      -4.279417      -116.4489
  11   2.0000      -4.278622      -116.4272
  12   2.0000      -4.278584      -116.4262
  13   2.0000      -1.616210       -43.9793
  14   2.0000      -1.597989       -43.4835
  15   2.0000      -1.597352       -43.4662
  16   2.0000      -0.816197       -22.2098
  17   2.0000      -0.777373       -21.1534
  18   2.0000      -0.727224       -19.7888
  19   2.0000      -0.706918       -19.2362
  20   2.0000      -0.704047       -19.1581
  21   2.0000      -0.680466       -18.5164
  22   2.0000      -0.680025       -18.5044
  23   2.0000      -0.672398       -18.2969
  24   2.0000      -0.655114       -17.8265
  25   2.0000      -0.640523       -17.4295
  26   2.0000      -0.570311       -15.5190
  27   2.0000      -0.504464       -13.7272
  28   2.0000      -0.433685       -11.8012
  29   0.0000       0.027226         0.7409
  30   0.0000       0.030502         0.8300
  31   0.0000       0.035089         0.9548
  32   0.0000       0.039730         1.0811
  33   0.0000       0.052437         1.4269

MULLIKEN ATOMIC CHARGES
-----------------------
   0 Si:    0.982024
   1 Si:    1.604446
   2 F :   -0.695885
   3 F :   -0.677967
   4 F :   -0.692606
   5 H :   -0.162484
   6 H :   -0.185681
   7 H :   -0.171847
Sum of atomic charges:   -0.0000000

LOEWDIN ATOMIC CHARGES
----------------------
   0 Si:    0.315781
   1 Si:   -0.498389
   2 F :    0.371742
   3 F :    0.348413
   4 F :    0.374683
   5 H :   -0.304901
   6 H :   -0.297724
   7 H :   -0.309604

  Mayer bond orders larger than 0.100000
B(  0-Si,  1-Si) :   0.9382 B(  0-Si,  3-F ) :   0.3314 B(  0-Si,  5-H ) :   0.8859
B(  0-Si,  7-H ) :   0.8900 B(  1-Si,  2-F ) :   0.3858 B(  1-Si,  4-F ) :   0.3875
B(  1-Si,  6-H ) :   0.9332

MP2 TOTAL ENERGY:     -879.399310327 Eh
FINAL SINGLE POINT ENERGY      -879.399310326756

DIPOLE MOMENT
-------------
                                X             Y             Z
Electronic contribution:     -2.43791       2.28613      -0.42679
Nuclear contribution   :      2.66871      -2.72205       0.64009
                        -----------------------------------------
Total Dipole Moment    :      0.23079      -0.43592       0.21330
                        -----------------------------------------
Magnitude (a.u.)       :      0.53739
Magnitude (Debye)      :      1.36595

Rotational constants in cm-1:     0.177713     0.057699     0.047799
Rotational constants in MHz :  5327.691477  1729.773816  1432.979871

                             ****ORCA TERMINATED NORMALLY****
TOTAL RUN TIME: 0 days 0 hours 15 minutes 55 seconds 530 msec
