                         Program Version 5.0.4 -  RELEASE  -
|  1> ! ri-mp2 aug-cc-pvdz aug-cc-pvdz/c tightscf
|  2> %pal nprocs 16 end
|  3> %maxcore 3800
|  4> %base "DZ_P-S_20_AB"
|  5> %scf
|  6> STABPerform true
|  7> STABRestartUHFifUnstable true
|  8> end
|  9>
| 10> *xyz 0 1
| 11> C        -3.135813   -0.325609    0.172683
| 12> C        -1.745774    0.192828   -0.030066
| 13> H        -3.849333    0.416710   -0.176405
| 14> H        -3.286444   -0.486308    1.241793
| 15> H        -3.287671   -1.276544   -0.334189
| 16> S        -0.523725   -1.093057   -0.154639
| 17> O        -1.502080    1.375295   -0.097884
| 18> P         1.304302   -0.006988   -0.055455
| 19> O         2.380021   -0.853578   -0.539479
| 20> O         1.010146    1.330194   -0.790556
| 21> H         0.095791    1.656063   -0.584946
| 22> O         1.424093    0.432524    1.466873
| 23> H         1.934818   -0.194984    1.992453
| 24> *
| 25>
| 26> $new_job
| 27> ! ri-mp2 aug-cc-pvtz aug-cc-pvtz/c tightscf
| 28> %pal nprocs 16 end
| 29> %maxcore 3800
| 30> %base "TZ_P-S_20_AB"
| 31>
| 32> *xyz 0 1
| 33> C        -3.135813   -0.325609    0.172683
| 34> C        -1.745774    0.192828   -0.030066
| 35> H        -3.849333    0.416710   -0.176405
| 36> H        -3.286444   -0.486308    1.241793
| 37> H        -3.287671   -1.276544   -0.334189
| 38> S        -0.523725   -1.093057   -0.154639
| 39> O        -1.502080    1.375295   -0.097884
| 40> P         1.304302   -0.006988   -0.055455
| 41> O         2.380021   -0.853578   -0.539479
| 42> O         1.010146    1.330194   -0.790556
| 43> H         0.095791    1.656063   -0.584946
| 44> O         1.424093    0.432524    1.466873
| 45> H         1.934818   -0.194984    1.992453
| 46> *
| 47>
| 48> $new_job
| 49> ! ri-mp2 aug-cc-pvqz aug-cc-pvqz/c tightscf
| 50> %pal nprocs 16 end
| 51> %maxcore 3800
| 52> %base "QZ_P-S_20_AB"
| 53>
| 54> *xyz 0 1
| 55> C        -3.135813   -0.325609    0.172683
| 56> C        -1.745774    0.192828   -0.030066
| 57> H        -3.849333    0.416710   -0.176405
| 58> H        -3.286444   -0.486308    1.241793
| 59> H        -3.287671   -1.276544   -0.334189
| 60> S        -0.523725   -1.093057   -0.154639
| 61> O        -1.502080    1.375295   -0.097884
| 62> P         1.304302   -0.006988   -0.055455
| 63> O         2.380021   -0.853578   -0.539479
| 64> O         1.010146    1.330194   -0.790556
| 65> H         0.095791    1.656063   -0.584946
| 66> O         1.424093    0.432524    1.466873
| 67> H         1.934818   -0.194984    1.992453
| 68> *
| 69>
| 70>
| 71>
| 72>
| 73>                          ****END OF INPUT****
 Total Charge           Charge          ....    0
 Multiplicity           Mult            ....    1
 Number of Electrons    NEL             ....   80
MP2 TOTAL ENERGY:    -1117.853467117 Eh
FINAL SINGLE POINT ENERGY     -1117.853467116976
MP2 TOTAL ENERGY:    -1118.307762348 Eh
FINAL SINGLE POINT ENERGY     -1118.307762348318

CARTESIAN COORDINATES (ANGSTROEM)
---------------------------------
  C     -3.135813   -0.325609    0.172683
  C     -1.745774    0.192828   -0.030066
  H     -3.849333    0.416710   -0.176405
  H     -3.286444   -0.486308    1.241793
  H     -3.287671   -1.276544   -0.334189
  S     -0.523725   -1.093057   -0.154639
  O     -1.502080    1.375295   -0.097884
  P      1.304302   -0.006988   -0.055455
  O      2.380021   -0.853578   -0.539479
  O      1.010146    1.330194   -0.790556
  H      0.095791    1.656063   -0.584946
  O      1.424093    0.432524    1.466873
  H      1.934818   -0.194984    1.992453

 Multiplicity           Mult            ....    1
 Number of Electrons    NEL             ....   80
 Basis Dimension        Dim             ....  878

ORBITAL ENERGIES
----------------

  NO   OCC          E(Eh)            E(eV)
   0   2.0000     -91.996244     -2503.3451
   1   2.0000     -80.099506     -2179.6184
   2   2.0000     -20.613800      -560.9300
   3   2.0000     -20.598647      -560.5177
   4   2.0000     -20.598451      -560.5123
   5   2.0000     -20.521525      -558.4191
   6   2.0000     -11.406871      -310.3967
   7   2.0000     -11.269842      -306.6680
   8   2.0000      -9.000895      -244.9268
   9   2.0000      -7.619736      -207.3436
  10   2.0000      -6.682143      -181.8304
  11   2.0000      -6.681098      -181.8019
  12   2.0000      -6.680497      -181.7856
  13   2.0000      -5.518230      -150.1587
  14   2.0000      -5.517718      -150.1447
  15   2.0000      -5.516702      -150.1171
  16   2.0000      -1.460536       -39.7432
  17   2.0000      -1.444642       -39.3107
  18   2.0000      -1.394166       -37.9372
  19   2.0000      -1.317323       -35.8462
  20   2.0000      -1.089117       -29.6364
  21   2.0000      -1.011684       -27.5293
  22   2.0000      -0.852533       -23.1986
  23   2.0000      -0.803810       -21.8728
  24   2.0000      -0.760969       -20.7070
  25   2.0000      -0.704166       -19.1613
  26   2.0000      -0.682523       -18.5724
  27   2.0000      -0.665471       -18.1084
  28   2.0000      -0.651573       -17.7302
  29   2.0000      -0.646273       -17.5860
  30   2.0000      -0.607694       -16.5362
  31   2.0000      -0.592186       -16.1142
  32   2.0000      -0.583454       -15.8766
  33   2.0000      -0.567102       -15.4316
  34   2.0000      -0.550651       -14.9840
  35   2.0000      -0.512349       -13.9417
  36   2.0000      -0.486862       -13.2482
  37   2.0000      -0.460129       -12.5208
  38   2.0000      -0.453727       -12.3466
  39   2.0000      -0.418223       -11.3804
  40   0.0000       0.017191         0.4678
  41   0.0000       0.027981         0.7614
  42   0.0000       0.036332         0.9886
  43   0.0000       0.036653         0.9974
  44   0.0000       0.049880         1.3573

MULLIKEN ATOMIC CHARGES
-----------------------
   0 C :   -0.773407
   1 C :    0.422228
   2 H :    0.306024
   3 H :    0.319154
   4 H :    0.287780
   5 S :    0.036292
   6 O :   -0.718444
   7 P :    2.304826
   8 O :   -1.165583
   9 O :   -0.926959
  10 H :    0.380445
  11 O :   -0.850222
  12 H :    0.377867
Sum of atomic charges:    0.0000000

LOEWDIN ATOMIC CHARGES
----------------------
   0 C :    0.790273
   1 C :   -1.058230
   2 H :   -0.312672
   3 H :   -0.299956
   4 H :   -0.334719
   5 S :    1.204397
   6 O :    0.791224
   7 P :   -1.039474
   8 O :    0.235516
   9 O :    1.052128
  10 H :   -1.218824
  11 O :    1.061127
  12 H :   -0.870790

  Mayer bond orders larger than 0.100000
B(  0-C ,  1-C ) :   0.7969 B(  0-C ,  2-H ) :   0.9704 B(  0-C ,  3-H ) :   0.8811
B(  0-C ,  4-H ) :   0.9632 B(  1-C ,  5-S ) :   0.9748 B(  1-C ,  6-O ) :   1.4868
B(  5-S ,  7-P ) :   0.8649 B(  6-O , 10-H ) :   0.1136 B(  7-P ,  8-O ) :   1.4127
B(  7-P ,  9-O ) :   0.7183 B(  7-P , 11-O ) :   0.7045 B(  8-O ,  9-O ) :  -0.1306
B(  9-O , 10-H ) :   0.8004 B( 11-O , 12-H ) :   0.9053

MP2 TOTAL ENERGY:    -1118.456112165 Eh
FINAL SINGLE POINT ENERGY     -1118.456112164570

DIPOLE MOMENT
-------------
                                X             Y             Z
Electronic contribution:      7.32696      -0.54992      -1.09140
Nuclear contribution   :     -9.20834       0.18417       2.11462
                        -----------------------------------------
Total Dipole Moment    :     -1.88139      -0.36575       1.02322
                        -----------------------------------------
Magnitude (a.u.)       :      2.17264
Magnitude (Debye)      :      5.52242

Rotational constants in cm-1:     0.096589     0.034537     0.030663
Rotational constants in MHz :  2895.664681  1035.389570   919.257008

                             ****ORCA TERMINATED NORMALLY****
TOTAL RUN TIME: 0 days 1 hours 25 minutes 10 seconds 144 msec
