                         Program Version 5.0.4 -  RELEASE  -
|  1> ! ri-mp2 aug-cc-pvdz aug-cc-pvdz/c tightscf
|  2> %pal nprocs 16 end
|  3> %maxcore 3800
|  4> %base "DZ_P-C_22_AB"
|  5>
|  6> *xyz 0 1
|  7> C        -0.411113    0.072063    0.440549
|  8> N        -0.862800    1.369577   -0.203593
|  9> P         1.350572   -0.355325   -0.025323
| 10> N        -1.310956   -1.010120   -0.145122
| 11> C        -0.587022    0.188231    1.934954
| 12> O        -1.084410   -1.316986   -1.297297
| 13> O         1.635009   -1.682917    0.482746
| 14> O        -1.954326    1.415874   -0.697306
| 15> O         2.205600    0.804955    0.585727
| 16> O        -0.076864    2.291969   -0.123297
| 17> O        -2.157712   -1.482569    0.556911
| 18> H         0.038913    0.996034    2.305934
| 19> H        -0.271808   -0.743096    2.398937
| 20> H        -1.628359    0.378338    2.182814
| 21> O         1.434465   -0.079384   -1.573192
| 22> H         0.866798   -0.673528   -2.087034
| 23> H         1.926872    1.686624    0.292845
| 24> *
| 25>
| 26> $new_job
| 27> ! ri-mp2 aug-cc-pvtz aug-cc-pvtz/c tightscf
| 28> %pal nprocs 16 end
| 29> %maxcore 3800
| 30> %base "TZ_P-C_22_AB"
| 31>
| 32> *xyz 0 1
| 33> C        -0.411113    0.072063    0.440549
| 34> N        -0.862800    1.369577   -0.203593
| 35> P         1.350572   -0.355325   -0.025323
| 36> N        -1.310956   -1.010120   -0.145122
| 37> C        -0.587022    0.188231    1.934954
| 38> O        -1.084410   -1.316986   -1.297297
| 39> O         1.635009   -1.682917    0.482746
| 40> O        -1.954326    1.415874   -0.697306
| 41> O         2.205600    0.804955    0.585727
| 42> O        -0.076864    2.291969   -0.123297
| 43> O        -2.157712   -1.482569    0.556911
| 44> H         0.038913    0.996034    2.305934
| 45> H        -0.271808   -0.743096    2.398937
| 46> H        -1.628359    0.378338    2.182814
| 47> O         1.434465   -0.079384   -1.573192
| 48> H         0.866798   -0.673528   -2.087034
| 49> H         1.926872    1.686624    0.292845
| 50> *
| 51>
| 52> $new_job
| 53> ! ri-mp2 aug-cc-pvqz aug-cc-pvqz/c tightscf
| 54> %pal nprocs 16 end
| 55> %maxcore 3800
| 56> %base "QZ_P-C_22_AB"
| 57>
| 58> *xyz 0 1
| 59> C        -0.411113    0.072063    0.440549
| 60> N        -0.862800    1.369577   -0.203593
| 61> P         1.350572   -0.355325   -0.025323
| 62> N        -1.310956   -1.010120   -0.145122
| 63> C        -0.587022    0.188231    1.934954
| 64> O        -1.084410   -1.316986   -1.297297
| 65> O         1.635009   -1.682917    0.482746
| 66> O        -1.954326    1.415874   -0.697306
| 67> O         2.205600    0.804955    0.585727
| 68> O        -0.076864    2.291969   -0.123297
| 69> O        -2.157712   -1.482569    0.556911
| 70> H         0.038913    0.996034    2.305934
| 71> H        -0.271808   -0.743096    2.398937
| 72> H        -1.628359    0.378338    2.182814
| 73> O         1.434465   -0.079384   -1.573192
| 74> H         0.866798   -0.673528   -2.087034
| 75> H         1.926872    1.686624    0.292845
| 76> *
| 77>
| 78>
| 79>
| 80>
| 81>                          ****END OF INPUT****
 Total Charge           Charge          ....    0
 Multiplicity           Mult            ....    1
 Number of Electrons    NEL             ....  102
MP2 TOTAL ENERGY:    -1054.429568266 Eh
FINAL SINGLE POINT ENERGY     -1054.429568265560
MP2 TOTAL ENERGY:    -1055.094766125 Eh
FINAL SINGLE POINT ENERGY     -1055.094766125222

CARTESIAN COORDINATES (ANGSTROEM)
---------------------------------
  C     -0.411113    0.072063    0.440549
  N     -0.862800    1.369577   -0.203593
  P      1.350572   -0.355325   -0.025323
  N     -1.310956   -1.010120   -0.145122
  C     -0.587022    0.188231    1.934954
  O     -1.084410   -1.316986   -1.297297
  O      1.635009   -1.682917    0.482746
  O     -1.954326    1.415874   -0.697306
  O      2.205600    0.804955    0.585727
  O     -0.076864    2.291969   -0.123297
  O     -2.157712   -1.482569    0.556911
  H      0.038913    0.996034    2.305934
  H     -0.271808   -0.743096    2.398937
  H     -1.628359    0.378338    2.182814
  O      1.434465   -0.079384   -1.573192
  H      0.866798   -0.673528   -2.087034
  H      1.926872    1.686624    0.292845

 Multiplicity           Mult            ....    1
 Number of Electrons    NEL             ....  102
 Basis Dimension        Dim             .... 1194

ORBITAL ENERGIES
----------------

  NO   OCC          E(Eh)            E(eV)
   0   2.0000     -80.118030     -2180.1224
   1   2.0000     -20.663456      -562.2812
   2   2.0000     -20.654897      -562.0483
   3   2.0000     -20.652193      -561.9748
   4   2.0000     -20.642103      -561.7002
   5   2.0000     -20.635593      -561.5230
   6   2.0000     -20.634938      -561.5052
   7   2.0000     -20.543191      -559.0086
   8   2.0000     -15.907262      -432.8586
   9   2.0000     -15.897089      -432.5818
  10   2.0000     -11.412928      -310.5616
  11   2.0000     -11.287990      -307.1618
  12   2.0000      -7.640055      -207.8965
  13   2.0000      -5.538552      -150.7117
  14   2.0000      -5.538230      -150.7029
  15   2.0000      -5.536897      -150.6666
  16   2.0000      -1.682903       -45.7941
  17   2.0000      -1.663550       -45.2675
  18   2.0000      -1.483901       -40.3790
  19   2.0000      -1.469367       -39.9835
  20   2.0000      -1.460211       -39.7344
  21   2.0000      -1.424048       -38.7503
  22   2.0000      -1.342788       -36.5391
  23   2.0000      -1.211835       -32.9757
  24   2.0000      -1.021050       -27.7842
  25   2.0000      -1.005669       -27.3656
  26   2.0000      -0.902446       -24.5568
  27   2.0000      -0.872272       -23.7357
  28   2.0000      -0.847719       -23.0676
  29   2.0000      -0.810791       -22.0627
  30   2.0000      -0.800429       -21.7808
  31   2.0000      -0.785782       -21.3822
  32   2.0000      -0.777231       -21.1495
  33   2.0000      -0.774566       -21.0770
  34   2.0000      -0.737285       -20.0625
  35   2.0000      -0.695626       -18.9290
  36   2.0000      -0.669856       -18.2277
  37   2.0000      -0.638227       -17.3670
  38   2.0000      -0.629730       -17.1358
  39   2.0000      -0.625709       -17.0264
  40   2.0000      -0.610581       -16.6148
  41   2.0000      -0.599069       -16.3015
  42   2.0000      -0.568929       -15.4813
  43   2.0000      -0.558576       -15.1996
  44   2.0000      -0.542859       -14.7719
  45   2.0000      -0.539608       -14.6835
  46   2.0000      -0.525439       -14.2979
  47   2.0000      -0.515378       -14.0242
  48   2.0000      -0.508466       -13.8361
  49   2.0000      -0.496160       -13.5012
  50   2.0000      -0.492306       -13.3963
  51   0.0000       0.020334         0.5533
  52   0.0000       0.028443         0.7740
  53   0.0000       0.034485         0.9384
  54   0.0000       0.036780         1.0008
  55   0.0000       0.038538         1.0487

MULLIKEN ATOMIC CHARGES
-----------------------
   0 C :    0.281055
   1 N :    1.105592
   2 P :    2.708886
   3 N :    1.141382
   4 C :   -1.076516
   5 O :   -0.695230
   6 O :   -1.260263
   7 O :   -0.660201
   8 O :   -1.133651
   9 O :   -0.702740
  10 O :   -0.644744
  11 H :    0.326811
  12 H :    0.371819
  13 H :    0.369246
  14 O :   -1.019557
  15 H :    0.428791
  16 H :    0.459320
Sum of atomic charges:    0.0000000

LOEWDIN ATOMIC CHARGES
----------------------
   0 C :   -0.697305
   1 N :   -0.849198
   2 P :   -0.701447
   3 N :   -0.880601
   4 C :    0.837852
   5 O :    0.598521
   6 O :    0.345242
   7 O :    0.598956
   8 O :    1.128660
   9 O :    0.614175
  10 O :    0.618096
  11 H :   -0.291079
  12 H :   -0.286349
  13 H :   -0.288880
  14 O :    1.132040
  15 H :   -0.928478
  16 H :   -0.950205

  Mayer bond orders larger than 0.100000
B(  0-C ,  1-N ) :   0.8488 B(  0-C ,  2-P ) :   0.6518 B(  0-C ,  3-N ) :   0.7354
B(  0-C ,  4-C ) :   0.6083 B(  0-C ,  5-O ) :   0.1110 B(  0-C ,  6-O ) :  -0.2302
B(  0-C ,  7-O ) :   0.1249 B(  0-C ,  8-O ) :  -0.1199 B(  0-C ,  9-O ) :   0.1248
B(  0-C , 10-O ) :   0.1862 B(  0-C , 11-H ) :  -0.1043 B(  0-C , 14-O ) :  -0.1414
B(  1-N ,  7-O ) :   1.1862 B(  1-N ,  9-O ) :   1.0634 B(  2-P ,  6-O ) :   1.3291
B(  2-P ,  8-O ) :   0.4647 B(  2-P , 14-O ) :   0.5852 B(  3-N ,  5-O ) :   1.0607
B(  3-N , 10-O ) :   1.1060 B(  4-C , 11-H ) :   0.9549 B(  4-C , 12-H ) :   0.8973
B(  4-C , 13-H ) :   0.9228 B(  5-O , 10-O ) :   0.1451 B(  7-O ,  9-O ) :   0.1180
B(  8-O , 16-H ) :   0.7710 B( 14-O , 15-H ) :   0.8061

MP2 TOTAL ENERGY:    -1055.316587294 Eh
FINAL SINGLE POINT ENERGY     -1055.316587293544

DIPOLE MOMENT
-------------
                                X             Y             Z
Electronic contribution:      0.35620      -0.85598      -4.39140
Nuclear contribution   :     -0.35102       1.90001       4.86754
                        -----------------------------------------
Total Dipole Moment    :      0.00518       1.04403       0.47614
                        -----------------------------------------
Magnitude (a.u.)       :      1.14749
Magnitude (Debye)      :      2.91668

Rotational constants in cm-1:     0.038153     0.029593     0.024172
Rotational constants in MHz :  1143.789729   887.172302   724.652732

                             ****ORCA TERMINATED NORMALLY****
TOTAL RUN TIME: 0 days 0 hours 57 minutes 41 seconds 249 msec
