                         Program Version 5.0.4 -  RELEASE  -
|  1> ! ri-mp2 aug-cc-pvdz aug-cc-pvdz/c tightscf
|  2> %pal nprocs 16 end
|  3> %maxcore 3800
|  4> %base "DZ_Si-Si_129_B"
|  5> %scf
|  6> STABPerform true
|  7> STABRestartUHFifUnstable true
|  8> end
|  9>
| 10> *xyz 0 2
| 11> Si        -1.621870   -0.443121   -0.088691
| 12> C         0.038528    0.488682    0.003128
| 13> H        -1.541673   -1.778960    0.542890
| 14> H        -2.699000    0.398126    0.467294
| 15> O         0.080366    1.687820    0.019988
| 16> S         1.566909   -0.449138    0.001973
| 17> H         1.002207   -1.663925    0.021248
| 18> *
| 19>
| 20> $new_job
| 21> ! ri-mp2 aug-cc-pvtz aug-cc-pvtz/c tightscf
| 22> %pal nprocs 16 end
| 23> %maxcore 3800
| 24> %base "TZ_Si-Si_129_B"
| 25>
| 26> *xyz 0 2
| 27> Si        -1.621870   -0.443121   -0.088691
| 28> C         0.038528    0.488682    0.003128
| 29> H        -1.541673   -1.778960    0.542890
| 30> H        -2.699000    0.398126    0.467294
| 31> O         0.080366    1.687820    0.019988
| 32> S         1.566909   -0.449138    0.001973
| 33> H         1.002207   -1.663925    0.021248
| 34> *
| 35>
| 36> $new_job
| 37> ! ri-mp2 aug-cc-pvqz aug-cc-pvqz/c tightscf
| 38> %pal nprocs 16 end
| 39> %maxcore 3800
| 40> %base "QZ_Si-Si_129_B"
| 41>
| 42> *xyz 0 2
| 43> Si        -1.621870   -0.443121   -0.088691
| 44> C         0.038528    0.488682    0.003128
| 45> H        -1.541673   -1.778960    0.542890
| 46> H        -2.699000    0.398126    0.467294
| 47> O         0.080366    1.687820    0.019988
| 48> S         1.566909   -0.449138    0.001973
| 49> H         1.002207   -1.663925    0.021248
| 50> *
| 51>
| 52>
| 53>
| 54>
| 55>                          ****END OF INPUT****
 Total Charge           Charge          ....    0
 Multiplicity           Mult            ....    2
 Number of Electrons    NEL             ....   47
MP2 TOTAL ENERGY:     -801.463182899 Eh
FINAL SINGLE POINT ENERGY      -801.463182899264
MP2 TOTAL ENERGY:     -801.639651519 Eh
FINAL SINGLE POINT ENERGY      -801.639651518642

CARTESIAN COORDINATES (ANGSTROEM)
---------------------------------
  Si    -1.621870   -0.443121   -0.088691
  C      0.038528    0.488682    0.003128
  H     -1.541673   -1.778960    0.542890
  H     -2.699000    0.398126    0.467294
  O      0.080366    1.687820    0.019988
  S      1.566909   -0.449138    0.001973
  H      1.002207   -1.663925    0.021248

 Multiplicity           Mult            ....    2
 Number of Electrons    NEL             ....   47
 Basis Dimension        Dim             ....  466

ORBITAL ENERGIES
----------------
                 SPIN UP ORBITALS
  NO   OCC          E(Eh)            E(eV)
   0   1.0000     -91.983980     -2503.0114
   1   1.0000     -68.812810     -1872.4917
   2   1.0000     -20.579484      -559.9962
   3   1.0000     -11.363048      -309.2043
   4   1.0000      -8.987317      -244.5573
   5   1.0000      -6.668652      -181.4632
   6   1.0000      -6.667858      -181.4416
   7   1.0000      -6.666592      -181.4072
   8   1.0000      -6.163765      -167.7246
   9   1.0000      -4.276617      -116.3727
  10   1.0000      -4.266436      -116.0956
  11   1.0000      -4.266294      -116.0917
  12   1.0000      -1.427923       -38.8558
  13   1.0000      -1.031714       -28.0744
  14   1.0000      -0.822574       -22.3834
  15   1.0000      -0.728449       -19.8221
  16   1.0000      -0.648619       -17.6498
  17   1.0000      -0.610380       -16.6093
  18   1.0000      -0.588387       -16.0108
  19   1.0000      -0.545580       -14.8460
  20   1.0000      -0.505585       -13.7577
  21   1.0000      -0.409952       -11.1554
  22   1.0000      -0.402843       -10.9619
  23   1.0000      -0.353286        -9.6134
  24   0.0000       0.021763         0.5922
  25   0.0000       0.034176         0.9300
  26   0.0000       0.039150         1.0653
  27   0.0000       0.040383         1.0989
  28   0.0000       0.053867         1.4658

                 SPIN DOWN ORBITALS
  NO   OCC          E(Eh)            E(eV)
   0   1.0000     -91.983983     -2503.0114
   1   1.0000     -68.806918     -1872.3314
   2   1.0000     -20.573099      -559.8225
   3   1.0000     -11.365566      -309.2728
   4   1.0000      -8.987327      -244.5576
   5   1.0000      -6.668518      -181.4596
   6   1.0000      -6.667814      -181.4404
   7   1.0000      -6.666752      -181.4115
   8   1.0000      -6.154785      -167.4802
   9   1.0000      -4.262327      -115.9838
  10   1.0000      -4.262253      -115.9818
  11   1.0000      -4.253548      -115.7449
  12   1.0000      -1.414587       -38.4929
  13   1.0000      -1.030764       -28.0485
  14   1.0000      -0.804197       -21.8833
  15   1.0000      -0.711105       -19.3501
  16   1.0000      -0.642027       -17.4704
  17   1.0000      -0.601325       -16.3629
  18   1.0000      -0.559304       -15.2194
  19   1.0000      -0.541381       -14.7317
  20   1.0000      -0.500677       -13.6241
  21   1.0000      -0.398374       -10.8403
  22   1.0000      -0.391910       -10.6644
  23   0.0000       0.005338         0.1452
  24   0.0000       0.023382         0.6362
  25   0.0000       0.034754         0.9457
  26   0.0000       0.040950         1.1143
  27   0.0000       0.046799         1.2735

MULLIKEN ATOMIC CHARGES AND SPIN POPULATIONS
--------------------------------------------
   0 Si:    0.808827    0.958553
   1 C :    0.147561   -0.115014
   2 H :   -0.213447    0.004686
   3 H :   -0.195265    0.004646
   4 O :   -0.659129    0.143918
   5 S :    0.064709    0.002939
   6 H :    0.046744    0.000271
Sum of atomic charges         :    0.0000000

LOEWDIN ATOMIC CHARGES AND SPIN POPULATIONS
-------------------------------------------
   0 Si:    0.938307    0.516785
   1 C :   -1.311981    0.123912
   2 H :   -0.356735    0.132175
   3 H :   -0.351383    0.126398
   4 O :    0.472315    0.095925
   5 S :    1.472393    0.002611
   6 H :   -0.862917    0.002195

  Mayer bond orders larger than 0.100000
B(  0-Si,  1-C ) :   0.7822 B(  0-Si,  2-H ) :   0.8831 B(  0-Si,  3-H ) :   0.9170
B(  1-C ,  4-O ) :   1.6156 B(  1-C ,  5-S ) :   1.0200 B(  5-S ,  6-H ) :   1.0250

MP2 TOTAL ENERGY:     -801.698889498 Eh
FINAL SINGLE POINT ENERGY      -801.698889498337

DIPOLE MOMENT
-------------
                                X             Y             Z
Electronic contribution:      2.52441       1.68833      -0.99080
Nuclear contribution   :     -3.08535      -2.88235       1.00397
                        -----------------------------------------
Total Dipole Moment    :     -0.56095      -1.19402       0.01316
                        -----------------------------------------
Magnitude (a.u.)       :      1.31929
Magnitude (Debye)      :      3.35336

Rotational constants in cm-1:     0.250939     0.102742     0.073337
Rotational constants in MHz :  7522.971393  3080.118012  2198.588184

                             ****ORCA TERMINATED NORMALLY****
TOTAL RUN TIME: 0 days 0 hours 23 minutes 24 seconds 953 msec
