                         Program Version 5.0.4 -  RELEASE  -
|  1> ! ri-mp2 aug-cc-pvdz aug-cc-pvdz/c tightscf
|  2> %pal nprocs 16 end
|  3> %maxcore 3800
|  4> %base "DZ_B-P_51_AB"
|  5> %scf
|  6> STABPerform true
|  7> STABRestartUHFifUnstable true
|  8> end
|  9>
| 10> *xyz 0 1
| 11> P         1.174202   -0.079294   -0.116034
| 12> B        -0.620582    0.583499    0.015506
| 13> N        -1.730779   -0.246309    0.011037
| 14> H        -1.680499   -1.251151    0.023055
| 15> H        -2.671830    0.108607   -0.002434
| 16> H        -0.793860    1.763682    0.006991
| 17> H         1.031834   -1.287567    0.604946
| 18> H         1.719681    0.662501    0.953158
| 19> *
| 20>
| 21> $new_job
| 22> ! ri-mp2 aug-cc-pvtz aug-cc-pvtz/c tightscf
| 23> %pal nprocs 16 end
| 24> %maxcore 3800
| 25> %base "TZ_B-P_51_AB"
| 26>
| 27> *xyz 0 1
| 28> P         1.174202   -0.079294   -0.116034
| 29> B        -0.620582    0.583499    0.015506
| 30> N        -1.730779   -0.246309    0.011037
| 31> H        -1.680499   -1.251151    0.023055
| 32> H        -2.671830    0.108607   -0.002434
| 33> H        -0.793860    1.763682    0.006991
| 34> H         1.031834   -1.287567    0.604946
| 35> H         1.719681    0.662501    0.953158
| 36> *
| 37>
| 38> $new_job
| 39> ! ri-mp2 aug-cc-pvqz aug-cc-pvqz/c tightscf
| 40> %pal nprocs 16 end
| 41> %maxcore 3800
| 42> %base "QZ_B-P_51_AB"
| 43>
| 44> *xyz 0 1
| 45> P         1.174202   -0.079294   -0.116034
| 46> B        -0.620582    0.583499    0.015506
| 47> N        -1.730779   -0.246309    0.011037
| 48> H        -1.680499   -1.251151    0.023055
| 49> H        -2.671830    0.108607   -0.002434
| 50> H        -0.793860    1.763682    0.006991
| 51> H         1.031834   -1.287567    0.604946
| 52> H         1.719681    0.662501    0.953158
| 53> *
| 54>
| 55>
| 56>
| 57>
| 58>                          ****END OF INPUT****
 Total Charge           Charge          ....    0
 Multiplicity           Mult            ....    1
 Number of Electrons    NEL             ....   32
MP2 TOTAL ENERGY:     -423.236593729 Eh
FINAL SINGLE POINT ENERGY      -423.236593728726
MP2 TOTAL ENERGY:     -423.355396237 Eh
FINAL SINGLE POINT ENERGY      -423.355396237418

CARTESIAN COORDINATES (ANGSTROEM)
---------------------------------
  P      1.174202   -0.079294   -0.116034
  B     -0.620582    0.583499    0.015506
  N     -1.730779   -0.246309    0.011037
  H     -1.680499   -1.251151    0.023055
  H     -2.671830    0.108607   -0.002434
  H     -0.793860    1.763682    0.006991
  H      1.031834   -1.287567    0.604946
  H      1.719681    0.662501    0.953158

 Multiplicity           Mult            ....    1
 Number of Electrons    NEL             ....   32
 Basis Dimension        Dim             ....  474

ORBITAL ENERGIES
----------------

  NO   OCC          E(Eh)            E(eV)
   0   2.0000     -79.914652     -2174.5882
   1   2.0000     -15.562411      -423.4747
   2   2.0000      -7.601187      -206.8388
   3   2.0000      -7.460460      -203.0094
   4   2.0000      -5.354721      -145.7094
   5   2.0000      -5.354273      -145.6972
   6   2.0000      -5.353762      -145.6833
   7   2.0000      -1.170806       -31.8592
   8   2.0000      -0.845808       -23.0156
   9   2.0000      -0.711004       -19.3474
  10   2.0000      -0.686463       -18.6796
  11   2.0000      -0.559878       -15.2351
  12   2.0000      -0.504956       -13.7405
  13   2.0000      -0.463922       -12.6240
  14   2.0000      -0.434798       -11.8314
  15   2.0000      -0.352923        -9.6035
  16   0.0000       0.021667         0.5896
  17   0.0000       0.032233         0.8771
  18   0.0000       0.036373         0.9898
  19   0.0000       0.039744         1.0815
  20   0.0000       0.054415         1.4807

MULLIKEN ATOMIC CHARGES
-----------------------
   0 P :    0.155071
   1 B :    0.461664
   2 N :   -0.658755
   3 H :    0.250698
   4 H :    0.227117
   5 H :   -0.285811
   6 H :   -0.079084
   7 H :   -0.070900
Sum of atomic charges:   -0.0000000

LOEWDIN ATOMIC CHARGES
----------------------
   0 P :    1.565621
   1 B :   -0.533108
   2 N :    1.272644
   3 H :   -0.524297
   4 H :   -0.511785
   5 H :   -0.236290
   6 H :   -0.512650
   7 H :   -0.520135

  Mayer bond orders larger than 0.100000
B(  0-P ,  1-B ) :   1.0318 B(  0-P ,  6-H ) :   0.9063 B(  0-P ,  7-H ) :   0.9074
B(  1-B ,  2-N ) :   1.2341 B(  1-B ,  5-H ) :   0.8804 B(  2-N ,  3-H ) :   0.9669
B(  2-N ,  4-H ) :   0.9795

MP2 TOTAL ENERGY:     -423.393463418 Eh
FINAL SINGLE POINT ENERGY      -423.393463418430

DIPOLE MOMENT
-------------
                                X             Y             Z
Electronic contribution:      2.16186       0.08623      -1.39243
Nuclear contribution   :     -2.98663      -0.39522       1.66351
                        -----------------------------------------
Total Dipole Moment    :     -0.82477      -0.30900       0.27109
                        -----------------------------------------
Magnitude (a.u.)       :      0.92153
Magnitude (Debye)      :      2.34234

Rotational constants in cm-1:     1.280290     0.160437     0.146555
Rotational constants in MHz : 38382.130535  4809.790282  4393.606567

                             ****ORCA TERMINATED NORMALLY****
TOTAL RUN TIME: 0 days 0 hours 9 minutes 11 seconds 498 msec
