                         Program Version 5.0.4 -  RELEASE  -
|  1> ! ri-mp2 aug-cc-pvdz aug-cc-pvdz/c tightscf
|  2> %pal nprocs 16 end
|  3> %maxcore 3800
|  4> %base "DZ_Si-Cl_79_AB"
|  5> %scf
|  6> STABPerform true
|  7> STABRestartUHFifUnstable true
|  8> end
|  9>
| 10> *xyz 0 1
| 11> Si         0.000000    0.386171    0.404784
| 12> F        -0.000003    1.756943   -0.380770
| 13> Cl         1.661360   -0.643408   -0.119966
| 14> Cl        -1.661359   -0.643410   -0.119966
| 15> H        -0.000001    0.657033    1.838797
| 16> *
| 17>
| 18> $new_job
| 19> ! ri-mp2 aug-cc-pvtz aug-cc-pvtz/c tightscf
| 20> %pal nprocs 16 end
| 21> %maxcore 3800
| 22> %base "TZ_Si-Cl_79_AB"
| 23>
| 24> *xyz 0 1
| 25> Si         0.000000    0.386171    0.404784
| 26> F        -0.000003    1.756943   -0.380770
| 27> Cl         1.661360   -0.643408   -0.119966
| 28> Cl        -1.661359   -0.643410   -0.119966
| 29> H        -0.000001    0.657033    1.838797
| 30> *
| 31>
| 32> $new_job
| 33> ! ri-mp2 aug-cc-pvqz aug-cc-pvqz/c tightscf
| 34> %pal nprocs 16 end
| 35> %maxcore 3800
| 36> %base "QZ_Si-Cl_79_AB"
| 37>
| 38> *xyz 0 1
| 39> Si         0.000000    0.386171    0.404784
| 40> F        -0.000003    1.756943   -0.380770
| 41> Cl         1.661360   -0.643408   -0.119966
| 42> Cl        -1.661359   -0.643410   -0.119966
| 43> H        -0.000001    0.657033    1.838797
| 44> *
| 45>
| 46>
| 47>
| 48>
| 49>                          ****END OF INPUT****
 Total Charge           Charge          ....    0
 Multiplicity           Mult            ....    1
 Number of Electrons    NEL             ....   58
MP2 TOTAL ENERGY:    -1308.734288300 Eh
FINAL SINGLE POINT ENERGY     -1308.734288299794
MP2 TOTAL ENERGY:    -1308.986685148 Eh
FINAL SINGLE POINT ENERGY     -1308.986685148257

CARTESIAN COORDINATES (ANGSTROEM)
---------------------------------
  Si     0.000000    0.386171    0.404784
  F     -0.000003    1.756943   -0.380770
  Cl     1.661360   -0.643408   -0.119966
  Cl    -1.661359   -0.643410   -0.119966
  H     -0.000001    0.657033    1.838797

 Multiplicity           Mult            ....    1
 Number of Electrons    NEL             ....   58
 Basis Dimension        Dim             ....  378

ORBITAL ENERGIES
----------------

  NO   OCC          E(Eh)            E(eV)
   0   2.0000    -104.853849     -2853.2183
   1   2.0000    -104.853849     -2853.2183
   2   2.0000     -68.900487     -1874.8776
   3   2.0000     -26.314390      -716.0510
   4   2.0000     -10.581550      -287.9386
   5   2.0000     -10.581544      -287.9385
   6   2.0000      -8.048332      -219.0062
   7   2.0000      -8.048330      -219.0062
   8   2.0000      -8.047150      -218.9741
   9   2.0000      -8.047149      -218.9741
  10   2.0000      -8.047137      -218.9737
  11   2.0000      -8.047137      -218.9737
  12   2.0000      -6.236078      -169.6923
  13   2.0000      -4.343961      -118.2052
  14   2.0000      -4.343868      -118.2027
  15   2.0000      -4.342589      -118.1679
  16   2.0000      -1.620923       -44.1076
  17   2.0000      -1.140711       -31.0403
  18   2.0000      -1.113149       -30.2903
  19   2.0000      -0.790804       -21.5189
  20   2.0000      -0.702706       -19.1216
  21   2.0000      -0.699728       -19.0406
  22   2.0000      -0.663743       -18.0614
  23   2.0000      -0.564023       -15.3478
  24   2.0000      -0.562454       -15.3051
  25   2.0000      -0.512286       -13.9400
  26   2.0000      -0.492006       -13.3882
  27   2.0000      -0.485636       -13.2148
  28   2.0000      -0.478452       -13.0194
  29   0.0000       0.032247         0.8775
  30   0.0000       0.040519         1.1026
  31   0.0000       0.042163         1.1473
  32   0.0000       0.042306         1.1512
  33   0.0000       0.069287         1.8854

MULLIKEN ATOMIC CHARGES
-----------------------
   0 Si:    1.888602
   1 F :   -0.698418
   2 Cl:   -0.497417
   3 Cl:   -0.497417
   4 H :   -0.195350
Sum of atomic charges:    0.0000000

LOEWDIN ATOMIC CHARGES
----------------------
   0 Si:   -1.696070
   1 F :    0.340745
   2 Cl:    0.861415
   3 Cl:    0.861415
   4 H :   -0.367505

  Mayer bond orders larger than 0.100000
B(  0-Si,  1-F ) :   0.4804 B(  0-Si,  2-Cl) :   0.6952 B(  0-Si,  3-Cl) :   0.6952
B(  0-Si,  4-H ) :   0.9724

MP2 TOTAL ENERGY:    -1309.072337746 Eh
FINAL SINGLE POINT ENERGY     -1309.072337745675

DIPOLE MOMENT
-------------
                                X             Y             Z
Electronic contribution:      0.00000      -0.74788      -1.85738
Nuclear contribution   :     -0.00000       0.67687       2.31914
                        -----------------------------------------
Total Dipole Moment    :      0.00000      -0.07101       0.46175
                        -----------------------------------------
Magnitude (a.u.)       :      0.46718
Magnitude (Debye)      :      1.18748

Rotational constants in cm-1:     0.161552     0.081278     0.058461
Rotational constants in MHz :  4843.210116  2436.654757  1752.608654

                             ****ORCA TERMINATED NORMALLY****
TOTAL RUN TIME: 0 days 0 hours 6 minutes 14 seconds 308 msec
