                         Program Version 5.0.4 -  RELEASE  -
|  1> ! ri-mp2 aug-cc-pvdz aug-cc-pvdz/c tightscf
|  2> %pal nprocs 16 end
|  3> %maxcore 3800
|  4> %base "DZ_B-Cl_68_AB"
|  5>
|  6> *xyz 0 1
|  7> Cl        -3.153491    1.495030   -0.000017
|  8> Cl        -3.153491   -1.495030   -0.000012
|  9> B        -2.247126   -0.000000    0.000015
| 10> C        -0.697132   -0.000000    0.000015
| 11> C         0.019090   -1.199504    0.000017
| 12> C         1.399555   -1.209697    0.000016
| 13> C         2.063507   -0.000000    0.000012
| 14> C         0.019089    1.199504    0.000012
| 15> H        -0.514062    2.139432    0.000011
| 16> C         1.399555    1.209697    0.000011
| 17> H         1.962881    2.129838    0.000008
| 18> N         3.538533   -0.000000    0.000010
| 19> O         4.097812   -1.074276   -0.000012
| 20> O         4.097811    1.074276   -0.000014
| 21> H        -0.514062   -2.139432    0.000019
| 22> H         1.962881   -2.129838    0.000017
| 23> *
| 24>
| 25> $new_job
| 26> ! ri-mp2 aug-cc-pvtz aug-cc-pvtz/c tightscf
| 27> %pal nprocs 16 end
| 28> %maxcore 3800
| 29> %base "TZ_B-Cl_68_AB"
| 30>
| 31> *xyz 0 1
| 32> Cl        -3.153491    1.495030   -0.000017
| 33> Cl        -3.153491   -1.495030   -0.000012
| 34> B        -2.247126   -0.000000    0.000015
| 35> C        -0.697132   -0.000000    0.000015
| 36> C         0.019090   -1.199504    0.000017
| 37> C         1.399555   -1.209697    0.000016
| 38> C         2.063507   -0.000000    0.000012
| 39> C         0.019089    1.199504    0.000012
| 40> H        -0.514062    2.139432    0.000011
| 41> C         1.399555    1.209697    0.000011
| 42> H         1.962881    2.129838    0.000008
| 43> N         3.538533   -0.000000    0.000010
| 44> O         4.097812   -1.074276   -0.000012
| 45> O         4.097811    1.074276   -0.000014
| 46> H        -0.514062   -2.139432    0.000019
| 47> H         1.962881   -2.129838    0.000017
| 48> *
| 49>
| 50> $new_job
| 51> ! ri-mp2 aug-cc-pvqz aug-cc-pvqz/c tightscf
| 52> %pal nprocs 16 end
| 53> %maxcore 3800
| 54> %base "QZ_B-Cl_68_AB"
| 55>
| 56> *xyz 0 1
| 57> Cl        -3.153491    1.495030   -0.000017
| 58> Cl        -3.153491   -1.495030   -0.000012
| 59> B        -2.247126   -0.000000    0.000015
| 60> C        -0.697132   -0.000000    0.000015
| 61> C         0.019090   -1.199504    0.000017
| 62> C         1.399555   -1.209697    0.000016
| 63> C         2.063507   -0.000000    0.000012
| 64> C         0.019089    1.199504    0.000012
| 65> H        -0.514062    2.139432    0.000011
| 66> C         1.399555    1.209697    0.000011
| 67> H         1.962881    2.129838    0.000008
| 68> N         3.538533   -0.000000    0.000010
| 69> O         4.097812   -1.074276   -0.000012
| 70> O         4.097811    1.074276   -0.000014
| 71> H        -0.514062   -2.139432    0.000019
| 72> H         1.962881   -2.129838    0.000017
| 73> *
| 74>
| 75>
| 76>
| 77>
| 78>                          ****END OF INPUT****
 Total Charge           Charge          ....    0
 Multiplicity           Mult            ....    1
 Number of Electrons    NEL             ....  102
MP2 TOTAL ENERGY:    -1379.198714503 Eh
FINAL SINGLE POINT ENERGY     -1379.198714503490
MP2 TOTAL ENERGY:    -1379.699227971 Eh
FINAL SINGLE POINT ENERGY     -1379.699227970988

CARTESIAN COORDINATES (ANGSTROEM)
---------------------------------
  Cl    -3.153491    1.495030   -0.000017
  Cl    -3.153491   -1.495030   -0.000012
  B     -2.247126   -0.000000    0.000015
  C     -0.697132   -0.000000    0.000015
  C      0.019090   -1.199504    0.000017
  C      1.399555   -1.209697    0.000016
  C      2.063507   -0.000000    0.000012
  C      0.019089    1.199504    0.000012
  H     -0.514062    2.139432    0.000011
  C      1.399555    1.209697    0.000011
  H      1.962881    2.129838    0.000008
  N      3.538533   -0.000000    0.000010
  O      4.097812   -1.074276   -0.000012
  O      4.097811    1.074276   -0.000014
  H     -0.514062   -2.139432    0.000019
  H      1.962881   -2.129838    0.000017

 Multiplicity           Mult            ....    1
 Number of Electrons    NEL             ....  102
 Basis Dimension        Dim             .... 1152

ORBITAL ENERGIES
----------------

  NO   OCC          E(Eh)            E(eV)
   0   2.0000    -104.855058     -2853.2512
   1   2.0000    -104.855058     -2853.2512
   2   2.0000     -20.610058      -560.8282
   3   2.0000     -20.610005      -560.8267
   4   2.0000     -15.862640      -431.6444
   5   2.0000     -11.325686      -308.1876
   6   2.0000     -11.278969      -306.9164
   7   2.0000     -11.278943      -306.9157
   8   2.0000     -11.277610      -306.8794
   9   2.0000     -11.277574      -306.8784
  10   2.0000     -11.265065      -306.5380
  11   2.0000     -10.583011      -287.9784
  12   2.0000     -10.583002      -287.9781
  13   2.0000      -8.049829      -219.0470
  14   2.0000      -8.049827      -219.0469
  15   2.0000      -8.048763      -219.0180
  16   2.0000      -8.048761      -219.0179
  17   2.0000      -8.048522      -219.0114
  18   2.0000      -8.048522      -219.0114
  19   2.0000      -7.726945      -210.2609
  20   2.0000      -1.628542       -44.3149
  21   2.0000      -1.419097       -38.6156
  22   2.0000      -1.216832       -33.1117
  23   2.0000      -1.162290       -31.6275
  24   2.0000      -1.115715       -30.3601
  25   2.0000      -1.103014       -30.0145
  26   2.0000      -1.066007       -29.0075
  27   2.0000      -0.973841       -26.4996
  28   2.0000      -0.878706       -23.9108
  29   2.0000      -0.844320       -22.9751
  30   2.0000      -0.797117       -21.6906
  31   2.0000      -0.743041       -20.2192
  32   2.0000      -0.740566       -20.1518
  33   2.0000      -0.738039       -20.0831
  34   2.0000      -0.677486       -18.4353
  35   2.0000      -0.663422       -18.0526
  36   2.0000      -0.658431       -17.9168
  37   2.0000      -0.636871       -17.3301
  38   2.0000      -0.579708       -15.7747
  39   2.0000      -0.564200       -15.3527
  40   2.0000      -0.561127       -15.2690
  41   2.0000      -0.538093       -14.6423
  42   2.0000      -0.527181       -14.3453
  43   2.0000      -0.506482       -13.7821
  44   2.0000      -0.505724       -13.7614
  45   2.0000      -0.482724       -13.1356
  46   2.0000      -0.481855       -13.1119
  47   2.0000      -0.467189       -12.7129
  48   2.0000      -0.467056       -12.7092
  49   2.0000      -0.393773       -10.7151
  50   2.0000      -0.380303       -10.3486
  51   0.0000       0.003311         0.0901
  52   0.0000       0.018715         0.5093
  53   0.0000       0.025532         0.6948
  54   0.0000       0.032891         0.8950
  55   0.0000       0.033274         0.9054

MULLIKEN ATOMIC CHARGES
-----------------------
   0 Cl:   -0.233520
   1 Cl:   -0.233520
   2 B :    0.878310
   3 C :   -0.255155
   4 C :   -0.228909
   5 C :   -0.192854
   6 C :   -0.130513
   7 C :   -0.228898
   8 H :    0.289019
   9 C :   -0.192799
  10 H :    0.326453
  11 N :    0.811407
  12 O :   -0.612250
  13 O :   -0.612250
  14 H :    0.289024
  15 H :    0.326454
Sum of atomic charges:    0.0000000

LOEWDIN ATOMIC CHARGES
----------------------
   0 Cl:    1.319594
   1 Cl:    1.319594
   2 B :   -2.306666
   3 C :   -0.141671
   4 C :    0.288996
   5 C :    0.341659
   6 C :   -0.291212
   7 C :    0.288996
   8 H :   -0.373260
   9 C :    0.341659
  10 H :   -0.346103
  11 N :   -0.838616
  12 O :    0.558198
  13 O :    0.558198
  14 H :   -0.373260
  15 H :   -0.346103

  Mayer bond orders larger than 0.100000
B(  0-Cl,  2-B ) :   0.9263 B(  0-Cl,  3-C ) :   0.1816 B(  0-Cl,  8-H ) :  -0.1318
B(  1-Cl,  2-B ) :   0.9263 B(  1-Cl,  3-C ) :   0.1816 B(  1-Cl, 14-H ) :  -0.1318
B(  2-B ,  3-C ) :   1.2022 B(  3-C ,  4-C ) :   1.1286 B(  3-C ,  5-C ) :  -0.2975
B(  3-C ,  6-C ) :  -0.1016 B(  3-C ,  7-C ) :   1.1285 B(  3-C ,  9-C ) :  -0.2975
B(  4-C ,  5-C ) :   1.2077 B(  4-C ,  6-C ) :  -0.1974 B(  4-C ,  9-C ) :   0.1619
B(  4-C , 14-H ) :   1.0714 B(  4-C , 15-H ) :  -0.1449 B(  5-C ,  6-C ) :   1.2458
B(  5-C ,  7-C ) :   0.1619 B(  5-C , 11-N ) :  -0.1059 B(  5-C , 14-H ) :  -0.1320
B(  5-C , 15-H ) :   0.9189 B(  6-C ,  7-C ) :  -0.1974 B(  6-C ,  9-C ) :   1.2458
B(  6-C , 11-N ) :   0.7759 B(  6-C , 12-O ) :   0.3101 B(  6-C , 13-O ) :   0.3101
B(  7-C ,  8-H ) :   1.0714 B(  7-C ,  9-C ) :   1.2077 B(  7-C , 10-H ) :  -0.1449
B(  8-H ,  9-C ) :  -0.1320 B(  9-C , 10-H ) :   0.9189 B(  9-C , 11-N ) :  -0.1060
B( 11-N , 12-O ) :   1.1402 B( 11-N , 13-O ) :   1.1402

MP2 TOTAL ENERGY:    -1379.866195797 Eh
FINAL SINGLE POINT ENERGY     -1379.866195796906

DIPOLE MOMENT
-------------
                                X             Y             Z
Electronic contribution:    -14.15649       0.00000      -0.00004
Nuclear contribution   :     13.04677       0.00000       0.00008
                        -----------------------------------------
Total Dipole Moment    :     -1.10972       0.00000       0.00004
                        -----------------------------------------
Magnitude (a.u.)       :      1.10972
Magnitude (Debye)      :      2.82068

Rotational constants in cm-1:     0.059463     0.010644     0.009028
Rotational constants in MHz :  1782.646176   319.089531   270.644749

                             ****ORCA TERMINATED NORMALLY****
TOTAL RUN TIME: 0 days 0 hours 45 minutes 40 seconds 475 msec
