                         Program Version 5.0.4 -  RELEASE  -
|  1> ! ri-mp2 aug-cc-pvdz aug-cc-pvdz/c tightscf
|  2> %pal nprocs 16 end
|  3> %maxcore 3800
|  4> %base "DZ_Si-S_55_A"
|  5> %scf
|  6> STABPerform true
|  7> STABRestartUHFifUnstable true
|  8> end
|  9>
| 10> *xyz 0 2
| 11> S        -0.841397   -0.284444   -0.234138
| 12> C         0.905928    0.276935   -0.420321
| 13> O        -1.687456    0.867314   -0.474396
| 14> O        -0.931575   -1.017017    1.014002
| 15> C         1.186628    1.311003    0.656381
| 16> H         0.490095    2.144974    0.600279
| 17> H         2.197773    1.695856    0.517688
| 18> H         1.124017    0.863448    1.647495
| 19> C         1.824593   -0.925438   -0.375756
| 20> H         0.899945    0.737906   -1.408303
| 21> H         2.852730   -0.595350   -0.527381
| 22> H         1.584820   -1.650197   -1.153223
| 23> H         1.762323   -1.422916    0.590978
| 24> *
| 25>
| 26> $new_job
| 27> ! ri-mp2 aug-cc-pvtz aug-cc-pvtz/c tightscf
| 28> %pal nprocs 16 end
| 29> %maxcore 3800
| 30> %base "TZ_Si-S_55_A"
| 31>
| 32> *xyz 0 2
| 33> S        -0.841397   -0.284444   -0.234138
| 34> C         0.905928    0.276935   -0.420321
| 35> O        -1.687456    0.867314   -0.474396
| 36> O        -0.931575   -1.017017    1.014002
| 37> C         1.186628    1.311003    0.656381
| 38> H         0.490095    2.144974    0.600279
| 39> H         2.197773    1.695856    0.517688
| 40> H         1.124017    0.863448    1.647495
| 41> C         1.824593   -0.925438   -0.375756
| 42> H         0.899945    0.737906   -1.408303
| 43> H         2.852730   -0.595350   -0.527381
| 44> H         1.584820   -1.650197   -1.153223
| 45> H         1.762323   -1.422916    0.590978
| 46> *
| 47>
| 48> $new_job
| 49> ! ri-mp2 aug-cc-pvqz aug-cc-pvqz/c tightscf
| 50> %pal nprocs 16 end
| 51> %maxcore 3800
| 52> %base "QZ_Si-S_55_A"
| 53>
| 54> *xyz 0 2
| 55> S        -0.841397   -0.284444   -0.234138
| 56> C         0.905928    0.276935   -0.420321
| 57> O        -1.687456    0.867314   -0.474396
| 58> O        -0.931575   -1.017017    1.014002
| 59> C         1.186628    1.311003    0.656381
| 60> H         0.490095    2.144974    0.600279
| 61> H         2.197773    1.695856    0.517688
| 62> H         1.124017    0.863448    1.647495
| 63> C         1.824593   -0.925438   -0.375756
| 64> H         0.899945    0.737906   -1.408303
| 65> H         2.852730   -0.595350   -0.527381
| 66> H         1.584820   -1.650197   -1.153223
| 67> H         1.762323   -1.422916    0.590978
| 68> *
| 69>
| 70>
| 71>
| 72>
| 73>                          ****END OF INPUT****
 Total Charge           Charge          ....    0
 Multiplicity           Mult            ....    2
 Number of Electrons    NEL             ....   57
MP2 TOTAL ENERGY:     -665.864240277 Eh
FINAL SINGLE POINT ENERGY      -665.864240276977
MP2 TOTAL ENERGY:     -666.187238057 Eh
FINAL SINGLE POINT ENERGY      -666.187238057010

CARTESIAN COORDINATES (ANGSTROEM)
---------------------------------
  S     -0.841397   -0.284444   -0.234138
  C      0.905928    0.276935   -0.420321
  O     -1.687456    0.867314   -0.474396
  O     -0.931575   -1.017017    1.014002
  C      1.186628    1.311003    0.656381
  H      0.490095    2.144974    0.600279
  H      2.197773    1.695856    0.517688
  H      1.124017    0.863448    1.647495
  C      1.824593   -0.925438   -0.375756
  H      0.899945    0.737906   -1.408303
  H      2.852730   -0.595350   -0.527381
  H      1.584820   -1.650197   -1.153223
  H      1.762323   -1.422916    0.590978

 Multiplicity           Mult            ....    2
 Number of Electrons    NEL             ....   57
 Basis Dimension        Dim             ....  806

ORBITAL ENERGIES
----------------
                 SPIN UP ORBITALS
  NO   OCC          E(Eh)            E(eV)
   0   1.0000     -92.146012     -2507.4205
   1   1.0000     -20.578206      -559.9615
   2   1.0000     -20.577447      -559.9408
   3   1.0000     -11.301908      -307.5405
   4   1.0000     -11.247860      -306.0698
   5   1.0000     -11.245539      -306.0067
   6   1.0000      -9.124748      -248.2970
   7   1.0000      -6.815180      -185.4505
   8   1.0000      -6.805334      -185.1826
   9   1.0000      -6.804675      -185.1646
  10   1.0000      -1.470062       -40.0024
  11   1.0000      -1.371042       -37.3080
  12   1.0000      -1.125365       -30.6227
  13   1.0000      -0.971960       -26.4484
  14   1.0000      -0.923087       -25.1185
  15   1.0000      -0.807360       -21.9694
  16   1.0000      -0.711088       -19.3497
  17   1.0000      -0.677878       -18.4460
  18   1.0000      -0.671118       -18.2620
  19   1.0000      -0.650860       -17.7108
  20   1.0000      -0.599428       -16.3113
  21   1.0000      -0.584731       -15.9113
  22   1.0000      -0.570080       -15.5127
  23   1.0000      -0.550940       -14.9918
  24   1.0000      -0.529628       -14.4119
  25   1.0000      -0.528518       -14.3817
  26   1.0000      -0.502548       -13.6750
  27   1.0000      -0.498196       -13.5566
  28   1.0000      -0.400856       -10.9079
  29   0.0000       0.019366         0.5270
  30   0.0000       0.030105         0.8192
  31   0.0000       0.031921         0.8686
  32   0.0000       0.040724         1.1081
  33   0.0000       0.052491         1.4283

                 SPIN DOWN ORBITALS
  NO   OCC          E(Eh)            E(eV)
   0   1.0000     -92.142051     -2507.3127
   1   1.0000     -20.564907      -559.5996
   2   1.0000     -20.564355      -559.5846
   3   1.0000     -11.296763      -307.4006
   4   1.0000     -11.248276      -306.0812
   5   1.0000     -11.245328      -306.0009
   6   1.0000      -9.119609      -248.1572
   7   1.0000      -6.805020      -185.1740
   8   1.0000      -6.804553      -185.1613
   9   1.0000      -6.796170      -184.9332
  10   1.0000      -1.441198       -39.2170
  11   1.0000      -1.334058       -36.3016
  12   1.0000      -1.112498       -30.2726
  13   1.0000      -0.970817       -26.4173
  14   1.0000      -0.889402       -24.2018
  15   1.0000      -0.777149       -21.1473
  16   1.0000      -0.683693       -18.6042
  17   1.0000      -0.659221       -17.9383
  18   1.0000      -0.637172       -17.3383
  19   1.0000      -0.619050       -16.8452
  20   1.0000      -0.591957       -16.1080
  21   1.0000      -0.574367       -15.6293
  22   1.0000      -0.559380       -15.2215
  23   1.0000      -0.527511       -14.3543
  24   1.0000      -0.523169       -14.2362
  25   1.0000      -0.490568       -13.3490
  26   1.0000      -0.467664       -12.7258
  27   1.0000      -0.446313       -12.1448
  28   0.0000       0.009948         0.2707
  29   0.0000       0.021045         0.5727
  30   0.0000       0.031126         0.8470
  31   0.0000       0.032131         0.8743
  32   0.0000       0.043616         1.1869

MULLIKEN ATOMIC CHARGES AND SPIN POPULATIONS
--------------------------------------------
   0 S :    1.839133    0.319552
   1 C :    0.178550    0.136346
   2 O :   -1.079745    0.270136
   3 O :   -1.063475    0.269144
   4 C :   -0.948793    0.011842
   5 H :    0.299543    0.002430
   6 H :    0.279230    0.012786
   7 H :    0.254139    0.001918
   8 C :   -0.892279   -0.002178
   9 H :    0.333755   -0.029076
  10 H :    0.298302    0.003797
  11 H :    0.259811    0.003636
  12 H :    0.241828   -0.000331
Sum of atomic charges         :    0.0000000

LOEWDIN ATOMIC CHARGES AND SPIN POPULATIONS
-------------------------------------------
   0 S :    0.073774    0.342019
   1 C :   -0.077424    0.098991
   2 O :    0.169780    0.242335
   3 O :    0.179600    0.246536
   4 C :    0.866478    0.025295
   5 H :   -0.296432    0.001563
   6 H :   -0.274803    0.007080
   7 H :   -0.291005    0.001478
   8 C :    0.857398    0.014557
   9 H :   -0.342984    0.016254
  10 H :   -0.277193    0.001293
  11 H :   -0.286026    0.002449
  12 H :   -0.301164    0.000151

  Mayer bond orders larger than 0.100000
B(  0-S ,  1-C ) :   0.7929 B(  0-S ,  2-O ) :   1.3069 B(  0-S ,  3-O ) :   1.3773
B(  1-C ,  2-O ) :  -0.1448 B(  1-C ,  3-O ) :  -0.2010 B(  1-C ,  4-C ) :   0.8432
B(  1-C ,  8-C ) :   0.8076 B(  1-C ,  9-H ) :   0.8176 B(  4-C ,  5-H ) :   0.9486
B(  4-C ,  6-H ) :   0.9374 B(  4-C ,  7-H ) :   0.9439 B(  8-C , 10-H ) :   0.9373
B(  8-C , 11-H ) :   0.9818 B(  8-C , 12-H ) :   0.9469

MP2 TOTAL ENERGY:     -666.290183642 Eh
FINAL SINGLE POINT ENERGY      -666.290183641559

DIPOLE MOMENT
-------------
                                X             Y             Z
Electronic contribution:     -9.20310      -1.73013      -0.92825
Nuclear contribution   :     10.88653       1.77853       0.28301
                        -----------------------------------------
Total Dipole Moment    :      1.68343       0.04840      -0.64524
                        -----------------------------------------
Magnitude (a.u.)       :      1.80350
Magnitude (Debye)      :      4.58413

Rotational constants in cm-1:     0.146435     0.081586     0.068463
Rotational constants in MHz :  4390.023384  2445.877726  2052.462734

                             ****ORCA TERMINATED NORMALLY****
TOTAL RUN TIME: 0 days 2 hours 54 minutes 29 seconds 727 msec
