                         Program Version 5.0.4 -  RELEASE  -
|  1> ! ri-mp2 aug-cc-pvdz aug-cc-pvdz/c tightscf
|  2> %pal nprocs 16 end
|  3> %maxcore 3800
|  4> %base "DZ_B-B_4_AB"
|  5> %scf
|  6> STABPerform true
|  7> STABRestartUHFifUnstable true
|  8> end
|  9>
| 10> *xyz 0 1
| 11> B        -0.696236    0.869920   -0.450821
| 12> B         0.696237    0.869921    0.450820
| 13> C         1.862544   -0.019779    0.124663
| 14> C        -1.862544   -0.019780   -0.124663
| 15> C        -2.781300   -0.743775    0.157421
| 16> C         2.781300   -0.743776   -0.157420
| 17> H         3.597676   -1.381414   -0.400306
| 18> H        -3.597676   -1.381413    0.400305
| 19> H         0.800292    1.613141    1.380294
| 20> H        -0.800292    1.613142   -1.380293
| 21> *
| 22>
| 23> $new_job
| 24> ! ri-mp2 aug-cc-pvtz aug-cc-pvtz/c tightscf
| 25> %pal nprocs 16 end
| 26> %maxcore 3800
| 27> %base "TZ_B-B_4_AB"
| 28>
| 29> *xyz 0 1
| 30> B        -0.696236    0.869920   -0.450821
| 31> B         0.696237    0.869921    0.450820
| 32> C         1.862544   -0.019779    0.124663
| 33> C        -1.862544   -0.019780   -0.124663
| 34> C        -2.781300   -0.743775    0.157421
| 35> C         2.781300   -0.743776   -0.157420
| 36> H         3.597676   -1.381414   -0.400306
| 37> H        -3.597676   -1.381413    0.400305
| 38> H         0.800292    1.613141    1.380294
| 39> H        -0.800292    1.613142   -1.380293
| 40> *
| 41>
| 42> $new_job
| 43> ! ri-mp2 aug-cc-pvqz aug-cc-pvqz/c tightscf
| 44> %pal nprocs 16 end
| 45> %maxcore 3800
| 46> %base "QZ_B-B_4_AB"
| 47>
| 48> *xyz 0 1
| 49> B        -0.696236    0.869920   -0.450821
| 50> B         0.696237    0.869921    0.450820
| 51> C         1.862544   -0.019779    0.124663
| 52> C        -1.862544   -0.019780   -0.124663
| 53> C        -2.781300   -0.743775    0.157421
| 54> C         2.781300   -0.743776   -0.157420
| 55> H         3.597676   -1.381414   -0.400306
| 56> H        -3.597676   -1.381413    0.400305
| 57> H         0.800292    1.613141    1.380294
| 58> H        -0.800292    1.613142   -1.380293
| 59> *
| 60>
| 61>
| 62>
| 63>
| 64>                          ****END OF INPUT****
 Total Charge           Charge          ....    0
 Multiplicity           Mult            ....    1
 Number of Electrons    NEL             ....   38
MP2 TOTAL ENERGY:     -203.707383112 Eh
FINAL SINGLE POINT ENERGY      -203.707383111737
MP2 TOTAL ENERGY:     -203.886719423 Eh
FINAL SINGLE POINT ENERGY      -203.886719423380

CARTESIAN COORDINATES (ANGSTROEM)
---------------------------------
  B     -0.696236    0.869920   -0.450821
  B      0.696237    0.869921    0.450820
  C      1.862544   -0.019779    0.124663
  C     -1.862544   -0.019780   -0.124663
  C     -2.781300   -0.743775    0.157421
  C      2.781300   -0.743776   -0.157420
  H      3.597676   -1.381414   -0.400306
  H     -3.597676   -1.381413    0.400305
  H      0.800292    1.613141    1.380294
  H     -0.800292    1.613142   -1.380293

 Multiplicity           Mult            ....    1
 Number of Electrons    NEL             ....   38
 Basis Dimension        Dim             ....  664

ORBITAL ENERGIES
----------------

  NO   OCC          E(Eh)            E(eV)
   0   2.0000     -11.246372      -306.0293
   1   2.0000     -11.246371      -306.0293
   2   2.0000     -11.221334      -305.3480
   3   2.0000     -11.221333      -305.3480
   4   2.0000      -7.606816      -206.9920
   5   2.0000      -7.605924      -206.9677
   6   2.0000      -1.036312       -28.1995
   7   2.0000      -1.033718       -28.1289
   8   2.0000      -0.809928       -22.0393
   9   2.0000      -0.767745       -20.8914
  10   2.0000      -0.717023       -19.5112
  11   2.0000      -0.683256       -18.5923
  12   2.0000      -0.560757       -15.2590
  13   2.0000      -0.546266       -14.8647
  14   2.0000      -0.497509       -13.5379
  15   2.0000      -0.417837       -11.3699
  16   2.0000      -0.415951       -11.3186
  17   2.0000      -0.408752       -11.1227
  18   2.0000      -0.373365       -10.1598
  19   0.0000       0.021648         0.5891
  20   0.0000       0.026102         0.7103
  21   0.0000       0.032599         0.8871
  22   0.0000       0.033298         0.9061
  23   0.0000       0.041444         1.1277

MULLIKEN ATOMIC CHARGES
-----------------------
   0 B :    0.599712
   1 B :    0.599712
   2 C :   -0.188628
   3 C :   -0.188629
   4 C :   -0.510711
   5 C :   -0.510713
   6 H :    0.366148
   7 H :    0.366147
   8 H :   -0.266519
   9 H :   -0.266519
Sum of atomic charges:    0.0000000

LOEWDIN ATOMIC CHARGES
----------------------
   0 B :   -0.111326
   1 B :   -0.111326
   2 C :    0.172504
   3 C :    0.172505
   4 C :    0.569319
   5 C :    0.569319
   6 H :   -0.438204
   7 H :   -0.438205
   8 H :   -0.192293
   9 H :   -0.192293

  Mayer bond orders larger than 0.100000
B(  0-B ,  1-B ) :   1.1017 B(  0-B ,  3-C ) :   0.8587 B(  0-B ,  9-H ) :   0.8649
B(  1-B ,  2-C ) :   0.8587 B(  1-B ,  8-H ) :   0.8649 B(  2-C ,  5-C ) :   2.1198
B(  2-C ,  6-H ) :  -0.1104 B(  3-C ,  4-C ) :   2.1198 B(  3-C ,  7-H ) :  -0.1104
B(  4-C ,  7-H ) :   0.9936 B(  5-C ,  6-H ) :   0.9936

MP2 TOTAL ENERGY:     -203.942016807 Eh
FINAL SINGLE POINT ENERGY      -203.942016807038

DIPOLE MOMENT
-------------
                                X             Y             Z
Electronic contribution:      0.00000       0.57168      -0.00000
Nuclear contribution   :     -0.00000      -0.90885       0.00000
                        -----------------------------------------
Total Dipole Moment    :      0.00000      -0.33717      -0.00000
                        -----------------------------------------
Magnitude (a.u.)       :      0.33717
Magnitude (Debye)      :      0.85702

Rotational constants in cm-1:     0.349287     0.053254     0.048754
Rotational constants in MHz : 10471.358361  1596.518776  1461.606196

                             ****ORCA TERMINATED NORMALLY****
TOTAL RUN TIME: 0 days 0 hours 25 minutes 4 seconds 821 msec
