                         Program Version 5.0.4 -  RELEASE  -
|  1> ! ri-mp2 aug-cc-pvdz aug-cc-pvdz/c tightscf
|  2> %pal nprocs 16 end
|  3> %maxcore 3800
|  4> %base "DZ_P-C_82_AB"
|  5> %scf
|  6> STABPerform true
|  7> STABRestartUHFifUnstable true
|  8> end
|  9>
| 10> *xyz 0 1
| 11> P        -0.000047   -0.000035   -0.595106
| 12> C         0.005553    1.619665    0.275058
| 13> H         0.005099    1.506524    1.361273
| 14> H        -0.872129    2.195969   -0.018032
| 15> H         0.887225    2.189889   -0.017961
| 16> C        -1.405504   -0.805015    0.275166
| 17> H        -2.340201   -0.326912   -0.018283
| 18> H        -1.307629   -0.748411    1.361395
| 19> H        -1.465486   -1.853376   -0.017575
| 20> C         1.400019   -0.814592    0.274947
| 21> H         2.337903   -0.342780   -0.018528
| 22> H         1.452900   -1.863301   -0.017917
| 23> H         1.302623   -0.757434    1.361188
| 24> *
| 25>
| 26> $new_job
| 27> ! ri-mp2 aug-cc-pvtz aug-cc-pvtz/c tightscf
| 28> %pal nprocs 16 end
| 29> %maxcore 3800
| 30> %base "TZ_P-C_82_AB"
| 31>
| 32> *xyz 0 1
| 33> P        -0.000047   -0.000035   -0.595106
| 34> C         0.005553    1.619665    0.275058
| 35> H         0.005099    1.506524    1.361273
| 36> H        -0.872129    2.195969   -0.018032
| 37> H         0.887225    2.189889   -0.017961
| 38> C        -1.405504   -0.805015    0.275166
| 39> H        -2.340201   -0.326912   -0.018283
| 40> H        -1.307629   -0.748411    1.361395
| 41> H        -1.465486   -1.853376   -0.017575
| 42> C         1.400019   -0.814592    0.274947
| 43> H         2.337903   -0.342780   -0.018528
| 44> H         1.452900   -1.863301   -0.017917
| 45> H         1.302623   -0.757434    1.361188
| 46> *
| 47>
| 48> $new_job
| 49> ! ri-mp2 aug-cc-pvqz aug-cc-pvqz/c tightscf
| 50> %pal nprocs 16 end
| 51> %maxcore 3800
| 52> %base "QZ_P-C_82_AB"
| 53>
| 54> *xyz 0 1
| 55> P        -0.000047   -0.000035   -0.595106
| 56> C         0.005553    1.619665    0.275058
| 57> H         0.005099    1.506524    1.361273
| 58> H        -0.872129    2.195969   -0.018032
| 59> H         0.887225    2.189889   -0.017961
| 60> C        -1.405504   -0.805015    0.275166
| 61> H        -2.340201   -0.326912   -0.018283
| 62> H        -1.307629   -0.748411    1.361395
| 63> H        -1.465486   -1.853376   -0.017575
| 64> C         1.400019   -0.814592    0.274947
| 65> H         2.337903   -0.342780   -0.018528
| 66> H         1.452900   -1.863301   -0.017917
| 67> H         1.302623   -0.757434    1.361188
| 68> *
| 69>
| 70>
| 71>
| 72>
| 73>                          ****END OF INPUT****
 Total Charge           Charge          ....    0
 Multiplicity           Mult            ....    1
 Number of Electrons    NEL             ....   42
MP2 TOTAL ENERGY:     -460.188113701 Eh
FINAL SINGLE POINT ENERGY      -460.188113701162
MP2 TOTAL ENERGY:     -460.357737409 Eh
FINAL SINGLE POINT ENERGY      -460.357737409421

CARTESIAN COORDINATES (ANGSTROEM)
---------------------------------
  P     -0.000047   -0.000035   -0.595106
  C      0.005553    1.619665    0.275058
  H      0.005099    1.506524    1.361273
  H     -0.872129    2.195969   -0.018032
  H      0.887225    2.189889   -0.017961
  C     -1.405504   -0.805015    0.275166
  H     -2.340201   -0.326912   -0.018283
  H     -1.307629   -0.748411    1.361395
  H     -1.465486   -1.853376   -0.017575
  C      1.400019   -0.814592    0.274947
  H      2.337903   -0.342780   -0.018528
  H      1.452900   -1.863301   -0.017917
  H      1.302623   -0.757434    1.361188

 Multiplicity           Mult            ....    1
 Number of Electrons    NEL             ....   42
 Basis Dimension        Dim             ....  738

ORBITAL ENERGIES
----------------

  NO   OCC          E(Eh)            E(eV)
   0   2.0000     -79.924720     -2174.8622
   1   2.0000     -11.215488      -305.1890
   2   2.0000     -11.215487      -305.1889
   3   2.0000     -11.215474      -305.1886
   4   2.0000      -7.466037      -203.1612
   5   2.0000      -5.360237      -145.8595
   6   2.0000      -5.360237      -145.8595
   7   2.0000      -5.359068      -145.8277
   8   2.0000      -1.021204       -27.7884
   9   2.0000      -0.934085       -25.4177
  10   2.0000      -0.934077       -25.4175
  11   2.0000      -0.712042       -19.3757
  12   2.0000      -0.598471       -16.2852
  13   2.0000      -0.580659       -15.8005
  14   2.0000      -0.580656       -15.8005
  15   2.0000      -0.549925       -14.9642
  16   2.0000      -0.549903       -14.9636
  17   2.0000      -0.534852       -14.5541
  18   2.0000      -0.453223       -12.3328
  19   2.0000      -0.453213       -12.3326
  20   2.0000      -0.327685        -8.9168
  21   0.0000       0.028065         0.7637
  22   0.0000       0.032969         0.8971
  23   0.0000       0.032969         0.8971
  24   0.0000       0.040079         1.0906
  25   0.0000       0.052364         1.4249

MULLIKEN ATOMIC CHARGES
-----------------------
   0 P :    0.681722
   1 C :   -1.169826
   2 H :    0.268898
   3 H :    0.336833
   4 H :    0.336847
   5 C :   -1.169761
   6 H :    0.336800
   7 H :    0.268898
   8 H :    0.336820
   9 C :   -1.169733
  10 H :    0.336784
  11 H :    0.336818
  12 H :    0.268898
Sum of atomic charges:   -0.0000000

LOEWDIN ATOMIC CHARGES
----------------------
   0 P :    0.933150
   1 C :    0.762715
   2 H :   -0.352010
   3 H :   -0.360889
   4 H :   -0.360877
   5 C :    0.762731
   6 H :   -0.360906
   7 H :   -0.351965
   8 H :   -0.360903
   9 C :    0.762729
  10 H :   -0.360904
  11 H :   -0.360904
  12 H :   -0.351966

  Mayer bond orders larger than 0.100000
B(  0-P ,  1-C ) :   0.8710 B(  0-P ,  5-C ) :   0.8710 B(  0-P ,  9-C ) :   0.8710
B(  1-C ,  2-H ) :   0.9094 B(  1-C ,  3-H ) :   0.8979 B(  1-C ,  4-H ) :   0.8979
B(  5-C ,  6-H ) :   0.8980 B(  5-C ,  7-H ) :   0.9094 B(  5-C ,  8-H ) :   0.8979
B(  9-C , 10-H ) :   0.8980 B(  9-C , 11-H ) :   0.8979 B(  9-C , 12-H ) :   0.9094

MP2 TOTAL ENERGY:     -460.407890285 Eh
FINAL SINGLE POINT ENERGY      -460.407890285022

DIPOLE MOMENT
-------------
                                X             Y             Z
Electronic contribution:     -0.00033      -0.00021      -4.16151
Nuclear contribution   :      0.00036       0.00021       4.70950
                        -----------------------------------------
Total Dipole Moment    :      0.00003      -0.00000       0.54799
                        -----------------------------------------
Magnitude (a.u.)       :      0.54799
Magnitude (Debye)      :      1.39289

Rotational constants in cm-1:     0.194639     0.194617     0.124721
Rotational constants in MHz :  5835.139636  5834.461004  3739.052310

                             ****ORCA TERMINATED NORMALLY****
TOTAL RUN TIME: 0 days 0 hours 36 minutes 53 seconds 853 msec
