                         Program Version 5.0.4 -  RELEASE  -
|  1> ! ri-mp2 aug-cc-pvdz aug-cc-pvdz/c tightscf
|  2> %pal nprocs 16 end
|  3> %maxcore 3800
|  4> %base "DZ_B-Si_9_AB"
|  5> %scf
|  6> STABPerform true
|  7> STABRestartUHFifUnstable true
|  8> end
|  9>
| 10> *xyz 0 1
| 11> Si         0.652725   -0.008651    0.000004
| 12> B        -1.379803   -0.007741    0.000005
| 13> O        -2.036042   -1.199877   -0.000001
| 14> O        -2.158134    1.119936   -0.000019
| 15> C         1.291861   -0.886319   -1.529590
| 16> H         0.972342   -0.382298   -2.443114
| 17> H         0.920215   -1.911114   -1.570444
| 18> C         1.291860   -0.886288    1.529617
| 19> H         2.383036   -0.923911    1.533309
| 20> H         0.920216   -1.911083    1.570491
| 21> H         0.972338   -0.382249    2.443130
| 22> C         1.278122    1.766903   -0.000014
| 23> H         0.940755    2.313623   -0.883462
| 24> H         2.369308    1.797028   -0.000014
| 25> H         0.940755    2.313641    0.883424
| 26> H         2.383038   -0.923946   -1.533280
| 27> H        -2.996008   -1.097915   -0.000010
| 28> H        -1.662775    1.941797   -0.000029
| 29> *
| 30>
| 31> $new_job
| 32> ! ri-mp2 aug-cc-pvtz aug-cc-pvtz/c tightscf
| 33> %pal nprocs 16 end
| 34> %maxcore 3800
| 35> %base "TZ_B-Si_9_AB"
| 36>
| 37> *xyz 0 1
| 38> Si         0.652725   -0.008651    0.000004
| 39> B        -1.379803   -0.007741    0.000005
| 40> O        -2.036042   -1.199877   -0.000001
| 41> O        -2.158134    1.119936   -0.000019
| 42> C         1.291861   -0.886319   -1.529590
| 43> H         0.972342   -0.382298   -2.443114
| 44> H         0.920215   -1.911114   -1.570444
| 45> C         1.291860   -0.886288    1.529617
| 46> H         2.383036   -0.923911    1.533309
| 47> H         0.920216   -1.911083    1.570491
| 48> H         0.972338   -0.382249    2.443130
| 49> C         1.278122    1.766903   -0.000014
| 50> H         0.940755    2.313623   -0.883462
| 51> H         2.369308    1.797028   -0.000014
| 52> H         0.940755    2.313641    0.883424
| 53> H         2.383038   -0.923946   -1.533280
| 54> H        -2.996008   -1.097915   -0.000010
| 55> H        -1.662775    1.941797   -0.000029
| 56> *
| 57>
| 58> $new_job
| 59> ! ri-mp2 aug-cc-pvqz aug-cc-pvqz/c tightscf
| 60> %pal nprocs 16 end
| 61> %maxcore 3800
| 62> %base "QZ_B-Si_9_AB"
| 63>
| 64> *xyz 0 1
| 65> Si         0.652725   -0.008651    0.000004
| 66> B        -1.379803   -0.007741    0.000005
| 67> O        -2.036042   -1.199877   -0.000001
| 68> O        -2.158134    1.119936   -0.000019
| 69> C         1.291861   -0.886319   -1.529590
| 70> H         0.972342   -0.382298   -2.443114
| 71> H         0.920215   -1.911114   -1.570444
| 72> C         1.291860   -0.886288    1.529617
| 73> H         2.383036   -0.923911    1.533309
| 74> H         0.920216   -1.911083    1.570491
| 75> H         0.972338   -0.382249    2.443130
| 76> C         1.278122    1.766903   -0.000014
| 77> H         0.940755    2.313623   -0.883462
| 78> H         2.369308    1.797028   -0.000014
| 79> H         0.940755    2.313641    0.883424
| 80> H         2.383038   -0.923946   -1.533280
| 81> H        -2.996008   -1.097915   -0.000010
| 82> H        -1.662775    1.941797   -0.000029
| 83> *
| 84>
| 85>
| 86>
| 87>
| 88>                          ****END OF INPUT****
 Total Charge           Charge          ....    0
 Multiplicity           Mult            ....    1
 Number of Electrons    NEL             ....   64
MP2 TOTAL ENERGY:     -584.570299442 Eh
FINAL SINGLE POINT ENERGY      -584.570299442300
MP2 TOTAL ENERGY:     -584.883254191 Eh
FINAL SINGLE POINT ENERGY      -584.883254191429

CARTESIAN COORDINATES (ANGSTROEM)
---------------------------------
  Si     0.652725   -0.008651    0.000004
  B     -1.379803   -0.007741    0.000005
  O     -2.036042   -1.199877   -0.000001
  O     -2.158134    1.119936   -0.000019
  C      1.291861   -0.886319   -1.529590
  H      0.972342   -0.382298   -2.443114
  H      0.920215   -1.911114   -1.570444
  C      1.291860   -0.886288    1.529617
  H      2.383036   -0.923911    1.533309
  H      0.920216   -1.911083    1.570491
  H      0.972338   -0.382249    2.443130
  C      1.278122    1.766903   -0.000014
  H      0.940755    2.313623   -0.883462
  H      2.369308    1.797028   -0.000014
  H      0.940755    2.313641    0.883424
  H      2.383038   -0.923946   -1.533280
  H     -2.996008   -1.097915   -0.000010
  H     -1.662775    1.941797   -0.000029

 Multiplicity           Mult            ....    1
 Number of Electrons    NEL             ....   64
 Basis Dimension        Dim             .... 1070

ORBITAL ENERGIES
----------------

  NO   OCC          E(Eh)            E(eV)
   0   2.0000     -68.734673     -1870.3655
   1   2.0000     -20.568248      -559.6905
   2   2.0000     -20.559869      -559.4625
   3   2.0000     -11.198541      -304.7278
   4   2.0000     -11.191948      -304.5484
   5   2.0000     -11.191940      -304.5482
   6   2.0000      -7.624758      -207.4802
   7   2.0000      -6.085726      -165.6010
   8   2.0000      -4.192106      -114.0730
   9   2.0000      -4.191977      -114.0695
  10   2.0000      -4.191977      -114.0695
  11   2.0000      -1.382525       -37.6204
  12   2.0000      -1.340258       -36.4703
  13   2.0000      -0.965307       -26.2673
  14   2.0000      -0.924220       -25.1493
  15   2.0000      -0.919591       -25.0233
  16   2.0000      -0.768319       -20.9070
  17   2.0000      -0.731098       -19.8942
  18   2.0000      -0.646544       -17.5934
  19   2.0000      -0.594519       -16.1777
  20   2.0000      -0.572193       -15.5702
  21   2.0000      -0.564232       -15.3535
  22   2.0000      -0.561508       -15.2794
  23   2.0000      -0.561157       -15.2699
  24   2.0000      -0.555615       -15.1190
  25   2.0000      -0.540199       -14.6996
  26   2.0000      -0.537000       -14.6125
  27   2.0000      -0.528939       -14.3932
  28   2.0000      -0.498315       -13.5598
  29   2.0000      -0.429698       -11.6927
  30   2.0000      -0.427237       -11.6257
  31   2.0000      -0.389693       -10.6041
  32   0.0000       0.020610         0.5608
  33   0.0000       0.028887         0.7861
  34   0.0000       0.032217         0.8767
  35   0.0000       0.032586         0.8867
  36   0.0000       0.045154         1.2287

MULLIKEN ATOMIC CHARGES
-----------------------
   0 Si:    1.489133
   1 B :    1.215708
   2 O :   -1.072067
   3 O :   -1.229913
   4 C :   -1.210125
   5 H :    0.280093
   6 H :    0.298998
   7 C :   -1.210125
   8 H :    0.283931
   9 H :    0.298998
  10 H :    0.280093
  11 C :   -1.164239
  12 H :    0.234967
  13 H :    0.338984
  14 H :    0.234965
  15 H :    0.283931
  16 H :    0.321461
  17 H :    0.325209
Sum of atomic charges:   -0.0000000

LOEWDIN ATOMIC CHARGES
----------------------
   0 Si:    0.294458
   1 B :   -1.117067
   2 O :    1.290944
   3 O :    1.321667
   4 C :    0.968144
   5 H :   -0.340440
   6 H :   -0.340045
   7 C :    0.968144
   8 H :   -0.339223
   9 H :   -0.340044
  10 H :   -0.340440
  11 C :    0.962472
  12 H :   -0.341144
  13 H :   -0.337569
  14 H :   -0.341143
  15 H :   -0.339222
  16 H :   -0.804846
  17 H :   -0.824645

  Mayer bond orders larger than 0.100000
B(  0-Si,  1-B ) :   0.7471 B(  0-Si,  2-O ) :  -0.1302 B(  0-Si,  3-O ) :  -0.1220
B(  0-Si,  4-C ) :   0.7961 B(  0-Si,  7-C ) :   0.7961 B(  0-Si, 11-C ) :   0.7389
B(  1-B ,  2-O ) :   0.4071 B(  1-B ,  3-O ) :   0.3828 B(  2-O ,  3-O ) :  -0.1197
B(  2-O , 16-H ) :   0.9650 B(  3-O , 17-H ) :   0.9549 B(  4-C ,  5-H ) :   0.9593
B(  4-C ,  6-H ) :   0.9398 B(  4-C , 15-H ) :   0.9312 B(  7-C ,  8-H ) :   0.9312
B(  7-C ,  9-H ) :   0.9398 B(  7-C , 10-H ) :   0.9593 B( 11-C , 12-H ) :   0.9934
B( 11-C , 13-H ) :   0.8980 B( 11-C , 14-H ) :   0.9934

MP2 TOTAL ENERGY:     -584.981321034 Eh
FINAL SINGLE POINT ENERGY      -584.981321034250

DIPOLE MOMENT
-------------
                                X             Y             Z
Electronic contribution:     -9.20950      -0.34806       0.00000
Nuclear contribution   :      9.31846       0.85459      -0.00000
                        -----------------------------------------
Total Dipole Moment    :      0.10896       0.50653      -0.00000
                        -----------------------------------------
Magnitude (a.u.)       :      0.51811
Magnitude (Debye)      :      1.31694

Rotational constants in cm-1:     0.081270     0.048685     0.042716
Rotational constants in MHz :  2436.401570  1459.543058  1280.600460

                             ****ORCA TERMINATED NORMALLY****
TOTAL RUN TIME: 0 days 2 hours 14 minutes 1 seconds 257 msec
