                         Program Version 5.0.4 -  RELEASE  -
|  1> ! ri-mp2 aug-cc-pvdz aug-cc-pvdz/c tightscf
|  2> %pal nprocs 16 end
|  3> %maxcore 3800
|  4> %base "DZ_P-O_17_AB"
|  5>
|  6> *xyz 0 1
|  7> C        -4.140122   -0.540630    0.045314
|  8> C        -3.161194   -1.516351   -0.049871
|  9> C        -1.827489   -1.156377   -0.090661
| 10> C        -3.790214    0.800043    0.098374
| 11> C        -2.459981    1.166039    0.055857
| 12> C        -1.476486    0.187535   -0.037863
| 13> H        -5.183208   -0.826318    0.077597
| 14> H        -3.438212   -2.560664   -0.093133
| 15> H        -1.056447   -1.908438   -0.167861
| 16> H        -4.557091    1.558780    0.172220
| 17> H        -2.163678    2.204631    0.094479
| 18> C        -0.069211    0.620163   -0.080941
| 19> O         0.801720   -0.409594   -0.161679
| 20> P         2.428710   -0.285732   -0.054874
| 21> O         3.071241   -1.470334   -0.581384
| 22> O         0.291834    1.772109   -0.058709
| 23> O         2.752107    1.079906   -0.729585
| 24> H         2.043079    1.734790   -0.548019
| 25> O         2.643474   -0.031038    1.493734
| 26> H         2.990084   -0.807717    1.947577
| 27> *
| 28>
| 29> $new_job
| 30> ! ri-mp2 aug-cc-pvtz aug-cc-pvtz/c tightscf
| 31> %pal nprocs 16 end
| 32> %maxcore 3800
| 33> %base "TZ_P-O_17_AB"
| 34>
| 35> *xyz 0 1
| 36> C        -4.140122   -0.540630    0.045314
| 37> C        -3.161194   -1.516351   -0.049871
| 38> C        -1.827489   -1.156377   -0.090661
| 39> C        -3.790214    0.800043    0.098374
| 40> C        -2.459981    1.166039    0.055857
| 41> C        -1.476486    0.187535   -0.037863
| 42> H        -5.183208   -0.826318    0.077597
| 43> H        -3.438212   -2.560664   -0.093133
| 44> H        -1.056447   -1.908438   -0.167861
| 45> H        -4.557091    1.558780    0.172220
| 46> H        -2.163678    2.204631    0.094479
| 47> C        -0.069211    0.620163   -0.080941
| 48> O         0.801720   -0.409594   -0.161679
| 49> P         2.428710   -0.285732   -0.054874
| 50> O         3.071241   -1.470334   -0.581384
| 51> O         0.291834    1.772109   -0.058709
| 52> O         2.752107    1.079906   -0.729585
| 53> H         2.043079    1.734790   -0.548019
| 54> O         2.643474   -0.031038    1.493734
| 55> H         2.990084   -0.807717    1.947577
| 56> *
| 57>
| 58> $new_job
| 59> ! ri-mp2 aug-cc-pvqz aug-cc-pvqz/c tightscf
| 60> %pal nprocs 16 end
| 61> %maxcore 3800
| 62> %base "QZ_P-O_17_AB"
| 63>
| 64> *xyz 0 1
| 65> C        -4.140122   -0.540630    0.045314
| 66> C        -3.161194   -1.516351   -0.049871
| 67> C        -1.827489   -1.156377   -0.090661
| 68> C        -3.790214    0.800043    0.098374
| 69> C        -2.459981    1.166039    0.055857
| 70> C        -1.476486    0.187535   -0.037863
| 71> H        -5.183208   -0.826318    0.077597
| 72> H        -3.438212   -2.560664   -0.093133
| 73> H        -1.056447   -1.908438   -0.167861
| 74> H        -4.557091    1.558780    0.172220
| 75> H        -2.163678    2.204631    0.094479
| 76> C        -0.069211    0.620163   -0.080941
| 77> O         0.801720   -0.409594   -0.161679
| 78> P         2.428710   -0.285732   -0.054874
| 79> O         3.071241   -1.470334   -0.581384
| 80> O         0.291834    1.772109   -0.058709
| 81> O         2.752107    1.079906   -0.729585
| 82> H         2.043079    1.734790   -0.548019
| 83> O         2.643474   -0.031038    1.493734
| 84> H         2.990084   -0.807717    1.947577
| 85> *
| 86>
| 87>
| 88>
| 89>
| 90>                          ****END OF INPUT****
 Total Charge           Charge          ....    0
 Multiplicity           Mult            ....    1
 Number of Electrons    NEL             ....  104
MP2 TOTAL ENERGY:     -986.449334345 Eh
FINAL SINGLE POINT ENERGY      -986.449334345353
MP2 TOTAL ENERGY:     -987.082190297 Eh
FINAL SINGLE POINT ENERGY      -987.082190297019

CARTESIAN COORDINATES (ANGSTROEM)
---------------------------------
  C     -4.140122   -0.540630    0.045314
  C     -3.161194   -1.516351   -0.049871
  C     -1.827489   -1.156377   -0.090661
  C     -3.790214    0.800043    0.098374
  C     -2.459981    1.166039    0.055857
  C     -1.476486    0.187535   -0.037863
  H     -5.183208   -0.826318    0.077597
  H     -3.438212   -2.560664   -0.093133
  H     -1.056447   -1.908438   -0.167861
  H     -4.557091    1.558780    0.172220
  H     -2.163678    2.204631    0.094479
  C     -0.069211    0.620163   -0.080941
  O      0.801720   -0.409594   -0.161679
  P      2.428710   -0.285732   -0.054874
  O      3.071241   -1.470334   -0.581384
  O      0.291834    1.772109   -0.058709
  O      2.752107    1.079906   -0.729585
  H      2.043079    1.734790   -0.548019
  O      2.643474   -0.031038    1.493734
  H      2.990084   -0.807717    1.947577

 Multiplicity           Mult            ....    1
 Number of Electrons    NEL             ....  104
 Basis Dimension        Dim             .... 1366

ORBITAL ENERGIES
----------------

  NO   OCC          E(Eh)            E(eV)
   0   2.0000     -80.107787     -2179.8437
   1   2.0000     -20.632680      -561.4438
   2   2.0000     -20.611523      -560.8681
   3   2.0000     -20.599165      -560.5318
   4   2.0000     -20.581665      -560.0556
   5   2.0000     -20.516822      -558.2911
   6   2.0000     -11.427256      -310.9514
   7   2.0000     -11.269851      -306.6682
   8   2.0000     -11.267678      -306.6091
   9   2.0000     -11.267098      -306.5933
  10   2.0000     -11.266383      -306.5739
  11   2.0000     -11.256340      -306.3006
  12   2.0000     -11.256244      -306.2980
  13   2.0000      -7.625842      -207.5097
  14   2.0000      -5.525059      -150.3445
  15   2.0000      -5.524239      -150.3222
  16   2.0000      -5.523188      -150.2936
  17   2.0000      -1.513367       -41.1808
  18   2.0000      -1.444773       -39.3143
  19   2.0000      -1.399345       -38.0781
  20   2.0000      -1.394907       -37.9573
  21   2.0000      -1.314086       -35.7581
  22   2.0000      -1.192152       -32.4401
  23   2.0000      -1.072404       -29.1816
  24   2.0000      -1.049326       -28.5536
  25   2.0000      -0.942549       -25.6481
  26   2.0000      -0.873120       -23.7588
  27   2.0000      -0.852650       -23.2018
  28   2.0000      -0.823096       -22.3976
  29   2.0000      -0.777315       -21.1518
  30   2.0000      -0.761893       -20.7322
  31   2.0000      -0.733460       -19.9585
  32   2.0000      -0.703636       -19.1469
  33   2.0000      -0.683305       -18.5937
  34   2.0000      -0.668944       -18.2029
  35   2.0000      -0.663894       -18.0655
  36   2.0000      -0.652188       -17.7469
  37   2.0000      -0.631388       -17.1809
  38   2.0000      -0.620053       -16.8725
  39   2.0000      -0.606172       -16.4948
  40   2.0000      -0.585845       -15.9417
  41   2.0000      -0.563506       -15.3338
  42   2.0000      -0.556383       -15.1399
  43   2.0000      -0.544809       -14.8250
  44   2.0000      -0.536351       -14.5948
  45   2.0000      -0.523345       -14.2409
  46   2.0000      -0.521973       -14.2036
  47   2.0000      -0.499735       -13.5985
  48   2.0000      -0.486136       -13.2284
  49   2.0000      -0.478597       -13.0233
  50   2.0000      -0.374017       -10.1775
  51   2.0000      -0.366682        -9.9779
  52   0.0000       0.017446         0.4747
  53   0.0000       0.025277         0.6878
  54   0.0000       0.027038         0.7357
  55   0.0000       0.036066         0.9814
  56   0.0000       0.041408         1.1268

MULLIKEN ATOMIC CHARGES
-----------------------
   0 C :   -0.310265
   1 C :   -0.349616
   2 C :   -0.180277
   3 C :   -0.319956
   4 C :   -0.184207
   5 C :   -0.485257
   6 H :    0.303063
   7 H :    0.252881
   8 H :    0.310466
   9 H :    0.249931
  10 H :    0.304647
  11 C :    1.646615
  12 O :   -0.716707
  13 P :    2.575529
  14 O :   -1.200653
  15 O :   -0.792492
  16 O :   -0.988147
  17 H :    0.379349
  18 O :   -0.873604
  19 H :    0.378699
Sum of atomic charges:    0.0000000

LOEWDIN ATOMIC CHARGES
----------------------
   0 C :    0.352331
   1 C :    0.362620
   2 C :    0.330783
   3 C :    0.363054
   4 C :    0.323554
   5 C :   -0.152019
   6 H :   -0.311106
   7 H :   -0.317031
   8 H :   -0.336068
   9 H :   -0.317104
  10 H :   -0.330205
  11 C :   -1.067543
  12 O :    0.684105
  13 P :   -0.931571
  14 O :    0.287993
  15 O :    0.822274
  16 O :    1.100933
  17 H :   -1.109730
  18 O :    1.104725
  19 H :   -0.859994

  Mayer bond orders larger than 0.100000
B(  0-C ,  1-C ) :   1.2144 B(  0-C ,  3-C ) :   1.1496 B(  0-C ,  5-C ) :   0.1220
B(  0-C ,  6-H ) :   1.0286 B(  1-C ,  2-C ) :   1.1291 B(  1-C ,  4-C ) :   0.1462
B(  1-C ,  5-C ) :  -0.3387 B(  1-C ,  7-H ) :   1.1409 B(  2-C ,  5-C ) :   1.1175
B(  2-C ,  7-H ) :  -0.1486 B(  2-C ,  8-H ) :   0.8991 B(  2-C , 11-C ) :  -0.4180
B(  2-C , 12-O ) :  -0.1062 B(  3-C ,  4-C ) :   1.2665 B(  3-C ,  5-C ) :  -0.3506
B(  3-C ,  9-H ) :   1.1291 B(  4-C ,  5-C ) :   1.1571 B(  4-C ,  9-H ) :  -0.1365
B(  4-C , 10-H ) :   0.8887 B(  4-C , 11-C ) :  -0.4505 B(  4-C , 15-O ) :  -0.1084
B(  5-C ,  8-H ) :  -0.1072 B(  5-C , 11-C ) :   1.0525 B(  5-C , 12-O ) :   0.2085
B(  5-C , 15-O ) :   0.4172 B( 11-C , 12-O ) :   0.9376 B( 11-C , 15-O ) :   0.9346
B( 12-O , 13-P ) :   0.6034 B( 12-O , 14-O ) :  -0.1804 B( 13-P , 14-O ) :   1.3648
B( 13-P , 16-O ) :   0.7304 B( 13-P , 18-O ) :   0.6749 B( 14-O , 16-O ) :  -0.1066
B( 15-O , 17-H ) :   0.1048 B( 16-O , 17-H ) :   0.8058 B( 18-O , 19-H ) :   0.9078

MP2 TOTAL ENERGY:     -987.287250020 Eh
FINAL SINGLE POINT ENERGY      -987.287250019590

DIPOLE MOMENT
-------------
                                X             Y             Z
Electronic contribution:     11.01780       0.33127      -0.58867
Nuclear contribution   :    -13.07382      -0.30731       1.48303
                        -----------------------------------------
Total Dipole Moment    :     -2.05602       0.02397       0.89436
                        -----------------------------------------
Magnitude (a.u.)       :      2.24225
Magnitude (Debye)      :      5.69934

Rotational constants in cm-1:     0.064409     0.012500     0.011232
Rotational constants in MHz :  1930.935333   374.737329   336.733272

                             ****ORCA TERMINATED NORMALLY****
TOTAL RUN TIME: 0 days 1 hours 14 minutes 23 seconds 648 msec
