                         Program Version 5.0.4 -  RELEASE  -
|  1> ! ri-mp2 aug-cc-pvdz aug-cc-pvdz/c tightscf
|  2> %pal nprocs 16 end
|  3> %maxcore 3800
|  4> %base "DZ_B-Cl_27_AB"
|  5> %scf
|  6> STABPerform true
|  7> STABRestartUHFifUnstable true
|  8> end
|  9>
| 10> *xyz 0 1
| 11> Cl        -1.131149    1.513081    0.002290
| 12> Cl        -1.131128   -1.513092    0.002217
| 13> B        -0.302126    0.000001   -0.032702
| 14> C         1.281688    0.000019   -0.134535
| 15> O         1.934293    0.000110   -1.113536
| 16> F         1.867206   -0.000090    1.089155
| 17> *
| 18>
| 19> $new_job
| 20> ! ri-mp2 aug-cc-pvtz aug-cc-pvtz/c tightscf
| 21> %pal nprocs 16 end
| 22> %maxcore 3800
| 23> %base "TZ_B-Cl_27_AB"
| 24>
| 25> *xyz 0 1
| 26> Cl        -1.131149    1.513081    0.002290
| 27> Cl        -1.131128   -1.513092    0.002217
| 28> B        -0.302126    0.000001   -0.032702
| 29> C         1.281688    0.000019   -0.134535
| 30> O         1.934293    0.000110   -1.113536
| 31> F         1.867206   -0.000090    1.089155
| 32> *
| 33>
| 34> $new_job
| 35> ! ri-mp2 aug-cc-pvqz aug-cc-pvqz/c tightscf
| 36> %pal nprocs 16 end
| 37> %maxcore 3800
| 38> %base "QZ_B-Cl_27_AB"
| 39>
| 40> *xyz 0 1
| 41> Cl        -1.131149    1.513081    0.002290
| 42> Cl        -1.131128   -1.513092    0.002217
| 43> B        -0.302126    0.000001   -0.032702
| 44> C         1.281688    0.000019   -0.134535
| 45> O         1.934293    0.000110   -1.113536
| 46> F         1.867206   -0.000090    1.089155
| 47> *
| 48>
| 49>
| 50>
| 51>
| 52>                          ****END OF INPUT****
 Total Charge           Charge          ....    0
 Multiplicity           Mult            ....    1
 Number of Electrons    NEL             ....   62
MP2 TOTAL ENERGY:    -1156.874868569 Eh
FINAL SINGLE POINT ENERGY     -1156.874868569198
MP2 TOTAL ENERGY:    -1157.187882181 Eh
FINAL SINGLE POINT ENERGY     -1157.187882180739

CARTESIAN COORDINATES (ANGSTROEM)
---------------------------------
  Cl    -1.131149    1.513081    0.002290
  Cl    -1.131128   -1.513092    0.002217
  B     -0.302126    0.000001   -0.032702
  C      1.281688    0.000019   -0.134535
  O      1.934293    0.000110   -1.113536
  F      1.867206   -0.000090    1.089155

 Multiplicity           Mult            ....    1
 Number of Electrons    NEL             ....   62
 Basis Dimension        Dim             ....  488

ORBITAL ENERGIES
----------------

  NO   OCC          E(Eh)            E(eV)
   0   2.0000    -104.879560     -2853.9179
   1   2.0000    -104.879559     -2853.9179
   2   2.0000     -26.341512      -716.7890
   3   2.0000     -20.603962      -560.6623
   4   2.0000     -11.426882      -310.9413
   5   2.0000     -10.607185      -288.6362
   6   2.0000     -10.607177      -288.6360
   7   2.0000      -8.073998      -219.7047
   8   2.0000      -8.073997      -219.7046
   9   2.0000      -8.072848      -219.6734
  10   2.0000      -8.072847      -219.6733
  11   2.0000      -8.072549      -219.6652
  12   2.0000      -8.072549      -219.6652
  13   2.0000      -7.760551      -211.1753
  14   2.0000      -1.666400       -45.3451
  15   2.0000      -1.454379       -39.5757
  16   2.0000      -1.184647       -32.2359
  17   2.0000      -1.140843       -31.0439
  18   2.0000      -0.914927       -24.8964
  19   2.0000      -0.803356       -21.8604
  20   2.0000      -0.735097       -20.0030
  21   2.0000      -0.732675       -19.9371
  22   2.0000      -0.691052       -18.8045
  23   2.0000      -0.634962       -17.2782
  24   2.0000      -0.619437       -16.8557
  25   2.0000      -0.559938       -15.2367
  26   2.0000      -0.556502       -15.1432
  27   2.0000      -0.541084       -14.7236
  28   2.0000      -0.501061       -13.6346
  29   2.0000      -0.492317       -13.3966
  30   2.0000      -0.476211       -12.9584
  31   0.0000       0.030092         0.8188
  32   0.0000       0.037222         1.0129
  33   0.0000       0.037260         1.0139
  34   0.0000       0.039910         1.0860
  35   0.0000       0.049881         1.3573

MULLIKEN ATOMIC CHARGES
-----------------------
   0 Cl:   -0.139193
   1 Cl:   -0.139194
   2 B :    0.537215
   3 C :    0.989668
   4 O :   -0.646482
   5 F :   -0.602014
Sum of atomic charges:   -0.0000000

LOEWDIN ATOMIC CHARGES
----------------------
   0 Cl:    1.283061
   1 Cl:    1.283061
   2 B :   -2.486515
   3 C :   -1.380182
   4 O :    0.615058
   5 F :    0.685516

  Mayer bond orders larger than 0.100000
B(  0-Cl,  2-B ) :   1.1468 B(  1-Cl,  2-B ) :   1.1468 B(  2-B ,  3-C ) :   0.9294
B(  3-C ,  4-O ) :   1.7194 B(  3-C ,  5-F ) :   0.6114

MP2 TOTAL ENERGY:    -1157.294287503 Eh
FINAL SINGLE POINT ENERGY     -1157.294287503492

DIPOLE MOMENT
-------------
                                X             Y             Z
Electronic contribution:     -2.36945      -0.00012       1.22452
Nuclear contribution   :      1.50743       0.00010      -0.97087
                        -----------------------------------------
Total Dipole Moment    :     -0.86202      -0.00003       0.25365
                        -----------------------------------------
Magnitude (a.u.)       :      0.89856
Magnitude (Debye)      :      2.28397

Rotational constants in cm-1:     0.082269     0.060182     0.042158
Rotational constants in MHz :  2466.371187  1804.220535  1263.858728

                             ****ORCA TERMINATED NORMALLY****
TOTAL RUN TIME: 0 days 0 hours 9 minutes 27 seconds 936 msec
