                         Program Version 5.0.4 -  RELEASE  -
|  1> ! ri-mp2 aug-cc-pvdz aug-cc-pvdz/c tightscf
|  2> %pal nprocs 16 end
|  3> %maxcore 3800
|  4> %base "DZ_Si-Cl_64_AB"
|  5>
|  6> *xyz 0 1
|  7> C         2.924421   -0.721971    0.632709
|  8> C         1.570804   -0.833713    0.902983
|  9> N         3.420149    0.123918   -0.259418
| 10> C         2.564959    0.896572   -0.917527
| 11> C         1.196268    0.860081   -0.717815
| 12> C         0.672597   -0.027508    0.213947
| 13> H         3.641286   -1.340734    1.160741
| 14> H         1.233713   -1.544255    1.647526
| 15> H         2.994279    1.581686   -1.639807
| 16> H         0.554305    1.524045   -1.281347
| 17> Si        -1.144330   -0.192261    0.538693
| 18> Cl        -1.966210   -1.540568   -0.760253
| 19> Cl        -2.064290    1.613052    0.277815
| 20> H        -1.399785   -0.669507    1.902773
| 21> *
| 22>
| 23> $new_job
| 24> ! ri-mp2 aug-cc-pvtz aug-cc-pvtz/c tightscf
| 25> %pal nprocs 16 end
| 26> %maxcore 3800
| 27> %base "TZ_Si-Cl_64_AB"
| 28>
| 29> *xyz 0 1
| 30> C         2.924421   -0.721971    0.632709
| 31> C         1.570804   -0.833713    0.902983
| 32> N         3.420149    0.123918   -0.259418
| 33> C         2.564959    0.896572   -0.917527
| 34> C         1.196268    0.860081   -0.717815
| 35> C         0.672597   -0.027508    0.213947
| 36> H         3.641286   -1.340734    1.160741
| 37> H         1.233713   -1.544255    1.647526
| 38> H         2.994279    1.581686   -1.639807
| 39> H         0.554305    1.524045   -1.281347
| 40> Si        -1.144330   -0.192261    0.538693
| 41> Cl        -1.966210   -1.540568   -0.760253
| 42> Cl        -2.064290    1.613052    0.277815
| 43> H        -1.399785   -0.669507    1.902773
| 44> *
| 45>
| 46> $new_job
| 47> ! ri-mp2 aug-cc-pvqz aug-cc-pvqz/c tightscf
| 48> %pal nprocs 16 end
| 49> %maxcore 3800
| 50> %base "QZ_Si-Cl_64_AB"
| 51>
| 52> *xyz 0 1
| 53> C         2.924421   -0.721971    0.632709
| 54> C         1.570804   -0.833713    0.902983
| 55> N         3.420149    0.123918   -0.259418
| 56> C         2.564959    0.896572   -0.917527
| 57> C         1.196268    0.860081   -0.717815
| 58> C         0.672597   -0.027508    0.213947
| 59> H         3.641286   -1.340734    1.160741
| 60> H         1.233713   -1.544255    1.647526
| 61> H         2.994279    1.581686   -1.639807
| 62> H         0.554305    1.524045   -1.281347
| 63> Si        -1.144330   -0.192261    0.538693
| 64> Cl        -1.966210   -1.540568   -0.760253
| 65> Cl        -2.064290    1.613052    0.277815
| 66> H        -1.399785   -0.669507    1.902773
| 67> *
| 68>
| 69>
| 70>
| 71>
| 72>                          ****END OF INPUT****
 Total Charge           Charge          ....    0
 Multiplicity           Mult            ....    1
 Number of Electrons    NEL             ....   90
MP2 TOTAL ENERGY:    -1456.004367041 Eh
FINAL SINGLE POINT ENERGY     -1456.004367041479
MP2 TOTAL ENERGY:    -1456.376892838 Eh
FINAL SINGLE POINT ENERGY     -1456.376892838128

CARTESIAN COORDINATES (ANGSTROEM)
---------------------------------
  C      2.924421   -0.721971    0.632709
  C      1.570804   -0.833713    0.902983
  N      3.420149    0.123918   -0.259418
  C      2.564959    0.896572   -0.917527
  C      1.196268    0.860081   -0.717815
  C      0.672597   -0.027508    0.213947
  H      3.641286   -1.340734    1.160741
  H      1.233713   -1.544255    1.647526
  H      2.994279    1.581686   -1.639807
  H      0.554305    1.524045   -1.281347
  Si    -1.144330   -0.192261    0.538693
  Cl    -1.966210   -1.540568   -0.760253
  Cl    -2.064290    1.613052    0.277815
  H     -1.399785   -0.669507    1.902773

 Multiplicity           Mult            ....    1
 Number of Electrons    NEL             ....   90
 Basis Dimension        Dim             ....  962

ORBITAL ENERGIES
----------------

  NO   OCC          E(Eh)            E(eV)
   0   2.0000    -104.844290     -2852.9582
   1   2.0000    -104.841230     -2852.8749
   2   2.0000     -68.864740     -1873.9048
   3   2.0000     -15.577429      -423.8834
   4   2.0000     -11.283659      -307.0440
   5   2.0000     -11.282705      -307.0180
   6   2.0000     -11.260259      -306.4072
   7   2.0000     -11.258332      -306.3548
   8   2.0000     -11.255833      -306.2868
   9   2.0000     -10.571930      -287.6768
  10   2.0000     -10.568832      -287.5925
  11   2.0000      -8.038714      -218.7445
  12   2.0000      -8.037569      -218.7134
  13   2.0000      -8.037555      -218.7130
  14   2.0000      -8.035600      -218.6598
  15   2.0000      -8.034461      -218.6288
  16   2.0000      -8.034432      -218.6280
  17   2.0000      -6.205924      -168.8718
  18   2.0000      -4.313276      -117.3702
  19   2.0000      -4.312512      -117.3494
  20   2.0000      -4.311655      -117.3261
  21   2.0000      -1.278302       -34.7844
  22   2.0000      -1.133591       -30.8466
  23   2.0000      -1.101409       -29.9709
  24   2.0000      -1.100241       -29.9391
  25   2.0000      -1.050512       -28.5859
  26   2.0000      -0.874429       -23.7944
  27   2.0000      -0.872262       -23.7354
  28   2.0000      -0.752035       -20.4639
  29   2.0000      -0.687741       -18.7144
  30   2.0000      -0.681861       -18.5544
  31   2.0000      -0.661974       -18.0132
  32   2.0000      -0.613083       -16.6828
  33   2.0000      -0.571272       -15.5451
  34   2.0000      -0.561182       -15.2705
  35   2.0000      -0.551376       -15.0037
  36   2.0000      -0.550211       -14.9720
  37   2.0000      -0.532974       -14.5030
  38   2.0000      -0.489090       -13.3088
  39   2.0000      -0.485591       -13.2136
  40   2.0000      -0.468799       -12.7567
  41   2.0000      -0.465378       -12.6636
  42   2.0000      -0.423801       -11.5322
  43   2.0000      -0.400503       -10.8982
  44   2.0000      -0.362003        -9.8506
  45   0.0000       0.021267         0.5787
  46   0.0000       0.027349         0.7442
  47   0.0000       0.032987         0.8976
  48   0.0000       0.037703         1.0259
  49   0.0000       0.042173         1.1476

MULLIKEN ATOMIC CHARGES
-----------------------
   0 C :   -0.155832
   1 C :   -0.540747
   2 N :   -0.628317
   3 C :   -0.215611
   4 C :   -0.488862
   5 C :    0.062736
   6 H :    0.488142
   7 H :    0.276857
   8 H :    0.481922
   9 H :    0.357742
  10 Si:    1.927316
  11 Cl:   -0.606515
  12 Cl:   -0.669999
  13 H :   -0.288833
Sum of atomic charges:   -0.0000000

LOEWDIN ATOMIC CHARGES
----------------------
   0 C :    0.081039
   1 C :    0.233467
   2 N :    0.600777
   3 C :    0.082313
   4 C :    0.221995
   5 C :   -0.212722
   6 H :   -0.345876
   7 H :   -0.341011
   8 H :   -0.345827
   9 H :   -0.359489
  10 Si:   -1.168570
  11 Cl:    0.917018
  12 Cl:    0.938905
  13 H :   -0.302018

  Mayer bond orders larger than 0.100000
B(  0-C ,  1-C ) :   1.3411 B(  0-C ,  2-N ) :   1.1765 B(  0-C ,  5-C ) :  -0.2854
B(  0-C ,  6-H ) :   0.8715 B(  1-C ,  3-C ) :   0.1103 B(  1-C ,  5-C ) :   0.9269
B(  1-C ,  6-H ) :  -0.1299 B(  1-C ,  7-H ) :   0.9963 B(  1-C , 10-Si) :  -0.1010
B(  2-N ,  3-C ) :   1.1612 B(  2-N ,  6-H ) :  -0.1195 B(  2-N ,  8-H ) :  -0.1185
B(  3-C ,  4-C ) :   1.3006 B(  3-C ,  5-C ) :  -0.2868 B(  3-C ,  8-H ) :   0.8866
B(  4-C ,  5-C ) :   0.9531 B(  4-C ,  8-H ) :  -0.1216 B(  4-C ,  9-H ) :   0.9411
B(  5-C ,  9-H ) :  -0.1090 B(  5-C , 10-Si) :   1.0893 B( 10-Si, 11-Cl) :   0.3895
B( 10-Si, 12-Cl) :   0.3382 B( 10-Si, 13-H ) :   0.8307

MP2 TOTAL ENERGY:    -1456.499664823 Eh
FINAL SINGLE POINT ENERGY     -1456.499664823436

DIPOLE MOMENT
-------------
                                X             Y             Z
Electronic contribution:    -12.28876       0.41562      -1.91103
Nuclear contribution   :     12.22385      -0.51257       2.32134
                        -----------------------------------------
Total Dipole Moment    :     -0.06491      -0.09694       0.41031
                        -----------------------------------------
Magnitude (a.u.)       :      0.42657
Magnitude (Debye)      :      1.08426

Rotational constants in cm-1:     0.056920     0.020486     0.017389
Rotational constants in MHz :  1706.422230   614.149566   521.320284

                             ****ORCA TERMINATED NORMALLY****
TOTAL RUN TIME: 0 days 0 hours 23 minutes 31 seconds 947 msec
