                         Program Version 5.0.4 -  RELEASE  -
|  1> ! ri-mp2 aug-cc-pvdz aug-cc-pvdz/c tightscf
|  2> %pal nprocs 16 end
|  3> %maxcore 3800
|  4> %base "DZ_S-F_17_AB"
|  5> %scf
|  6> STABPerform true
|  7> STABRestartUHFifUnstable true
|  8> end
|  9>
| 10> *xyz 0 1
| 11> F        -2.338916   -0.046159   -0.000007
| 12> S        -1.165035    1.054601   -0.000002
| 13> C         0.253294   -0.034192    0.000001
| 14> Cl         1.567455    1.161031    0.000003
| 15> Cl         0.338953   -1.058547   -1.437892
| 16> Cl         0.338947   -1.058545    1.437895
| 17> *
| 18>
| 19> $new_job
| 20> ! ri-mp2 aug-cc-pvtz aug-cc-pvtz/c tightscf
| 21> %pal nprocs 16 end
| 22> %maxcore 3800
| 23> %base "TZ_S-F_17_AB"
| 24>
| 25> *xyz 0 1
| 26> F        -2.338916   -0.046159   -0.000007
| 27> S        -1.165035    1.054601   -0.000002
| 28> C         0.253294   -0.034192    0.000001
| 29> Cl         1.567455    1.161031    0.000003
| 30> Cl         0.338953   -1.058547   -1.437892
| 31> Cl         0.338947   -1.058545    1.437895
| 32> *
| 33>
| 34> $new_job
| 35> ! ri-mp2 aug-cc-pvqz aug-cc-pvqz/c tightscf
| 36> %pal nprocs 16 end
| 37> %maxcore 3800
| 38> %base "QZ_S-F_17_AB"
| 39>
| 40> *xyz 0 1
| 41> F        -2.338916   -0.046159   -0.000007
| 42> S        -1.165035    1.054601   -0.000002
| 43> C         0.253294   -0.034192    0.000001
| 44> Cl         1.567455    1.161031    0.000003
| 45> Cl         0.338953   -1.058547   -1.437892
| 46> Cl         0.338947   -1.058545    1.437895
| 47> *
| 48>
| 49>
| 50>
| 51>
| 52>                          ****END OF INPUT****
 Total Charge           Charge          ....    0
 Multiplicity           Mult            ....    1
 Number of Electrons    NEL             ....   82
MP2 TOTAL ENERGY:    -1914.235456904 Eh
FINAL SINGLE POINT ENERGY     -1914.235456904426
MP2 TOTAL ENERGY:    -1914.585120527 Eh
FINAL SINGLE POINT ENERGY     -1914.585120527317

CARTESIAN COORDINATES (ANGSTROEM)
---------------------------------
  F     -2.338916   -0.046159   -0.000007
  S     -1.165035    1.054601   -0.000002
  C      0.253294   -0.034192    0.000001
  Cl     1.567455    1.161031    0.000003
  Cl     0.338953   -1.058547   -1.437892
  Cl     0.338947   -1.058545    1.437895

 Multiplicity           Mult            ....    1
 Number of Electrons    NEL             ....   82
 Basis Dimension        Dim             ....  496

ORBITAL ENERGIES
----------------

  NO   OCC          E(Eh)            E(eV)
   0   2.0000    -104.886653     -2854.1109
   1   2.0000    -104.874925     -2853.7918
   2   2.0000    -104.874925     -2853.7918
   3   2.0000     -92.070795     -2505.3737
   4   2.0000     -26.335383      -716.6222
   5   2.0000     -11.471875      -312.1656
   6   2.0000     -10.612211      -288.7729
   7   2.0000     -10.600577      -288.4564
   8   2.0000     -10.600566      -288.4561
   9   2.0000      -9.064956      -246.6700
  10   2.0000      -8.079167      -219.8453
  11   2.0000      -8.077162      -219.7908
  12   2.0000      -8.077083      -219.7886
  13   2.0000      -8.067558      -219.5294
  14   2.0000      -8.067556      -219.5294
  15   2.0000      -8.065480      -219.4729
  16   2.0000      -8.065479      -219.4728
  17   2.0000      -8.065466      -219.4725
  18   2.0000      -8.065465      -219.4725
  19   2.0000      -6.746159      -183.5723
  20   2.0000      -6.744255      -183.5205
  21   2.0000      -6.742697      -183.4781
  22   2.0000      -1.638012       -44.5726
  23   2.0000      -1.268892       -34.5283
  24   2.0000      -1.135401       -30.8958
  25   2.0000      -1.125278       -30.6204
  26   2.0000      -1.023458       -27.8497
  27   2.0000      -0.834798       -22.7160
  28   2.0000      -0.726229       -19.7617
  29   2.0000      -0.719774       -19.5860
  30   2.0000      -0.710780       -19.3413
  31   2.0000      -0.648959       -17.6591
  32   2.0000      -0.637737       -17.3537
  33   2.0000      -0.581055       -15.8113
  34   2.0000      -0.521104       -14.1800
  35   2.0000      -0.519093       -14.1253
  36   2.0000      -0.483305       -13.1514
  37   2.0000      -0.480999       -13.0886
  38   2.0000      -0.468831       -12.7575
  39   2.0000      -0.462612       -12.5883
  40   2.0000      -0.402379       -10.9493
  41   0.0000       0.038598         1.0503
  42   0.0000       0.048695         1.3251
  43   0.0000       0.052876         1.4388
  44   0.0000       0.057891         1.5753
  45   0.0000       0.080120         2.1802

MULLIKEN ATOMIC CHARGES
-----------------------
   0 F :   -0.594765
   1 S :    0.677816
   2 C :    0.252288
   3 Cl:   -0.108133
   4 Cl:   -0.113603
   5 Cl:   -0.113602
Sum of atomic charges:    0.0000000

LOEWDIN ATOMIC CHARGES
----------------------
   0 F :    0.070997
   1 S :    0.281143
   2 C :   -3.095399
   3 Cl:    0.908085
   4 Cl:    0.917587
   5 Cl:    0.917588

  Mayer bond orders larger than 0.100000
B(  0-F ,  1-S ) :   0.6244 B(  1-S ,  2-C ) :   0.9059 B(  2-C ,  3-Cl) :   0.8314
B(  2-C ,  4-Cl) :   0.8522 B(  2-C ,  5-Cl) :   0.8522

MP2 TOTAL ENERGY:    -1914.702947239 Eh
FINAL SINGLE POINT ENERGY     -1914.702947238750

DIPOLE MOMENT
-------------
                                X             Y             Z
Electronic contribution:      1.05322      -0.95962       0.00000
Nuclear contribution   :     -0.78760       1.25512      -0.00000
                        -----------------------------------------
Total Dipole Moment    :      0.26562       0.29550       0.00000
                        -----------------------------------------
Magnitude (a.u.)       :      0.39733
Magnitude (Debye)      :      1.00994

Rotational constants in cm-1:     0.054466     0.043214     0.041480
Rotational constants in MHz :  1632.841034  1295.525640  1243.540479

                             ****ORCA TERMINATED NORMALLY****
TOTAL RUN TIME: 0 days 0 hours 15 minutes 18 seconds 551 msec
