                         Program Version 5.0.4 -  RELEASE  -
|  1> ! ri-mp2 aug-cc-pvdz aug-cc-pvdz/c tightscf
|  2> %pal nprocs 16 end
|  3> %maxcore 3800
|  4> %base "DZ_B-P_26_AB"
|  5> %scf
|  6> STABPerform true
|  7> STABRestartUHFifUnstable true
|  8> end
|  9>
| 10> *xyz 0 1
| 11> C         1.061707    0.095695    0.040361
| 12> B        -1.897101    0.386720   -0.274229
| 13> O        -3.095772    0.046661    0.253156
| 14> C         0.918686    1.044677    1.227856
| 15> H         0.654665    0.505110    2.137897
| 16> H         0.151350    1.798478    1.048053
| 17> C         1.390391    0.889724   -1.223552
| 18> H         0.610346    1.613289   -1.461304
| 19> H         1.515962    0.232349   -2.084585
| 20> H         2.322980    1.441111   -1.081679
| 21> H         1.861984    1.567903    1.409937
| 22> C         2.187647   -0.899915    0.319730
| 23> H         3.127267   -0.365322    0.480372
| 24> H         2.327578   -1.587643   -0.514650
| 25> H         1.984272   -1.491415    1.213803
| 26> P        -0.493833   -0.900852   -0.287697
| 27> H        -3.778323    0.714393    0.142454
| 28> H        -1.765486    1.451056   -0.809609
| 29> H        -0.704001   -1.454509    0.994293
| 30> *
| 31>
| 32> $new_job
| 33> ! ri-mp2 aug-cc-pvtz aug-cc-pvtz/c tightscf
| 34> %pal nprocs 16 end
| 35> %maxcore 3800
| 36> %base "TZ_B-P_26_AB"
| 37>
| 38> *xyz 0 1
| 39> C         1.061707    0.095695    0.040361
| 40> B        -1.897101    0.386720   -0.274229
| 41> O        -3.095772    0.046661    0.253156
| 42> C         0.918686    1.044677    1.227856
| 43> H         0.654665    0.505110    2.137897
| 44> H         0.151350    1.798478    1.048053
| 45> C         1.390391    0.889724   -1.223552
| 46> H         0.610346    1.613289   -1.461304
| 47> H         1.515962    0.232349   -2.084585
| 48> H         2.322980    1.441111   -1.081679
| 49> H         1.861984    1.567903    1.409937
| 50> C         2.187647   -0.899915    0.319730
| 51> H         3.127267   -0.365322    0.480372
| 52> H         2.327578   -1.587643   -0.514650
| 53> H         1.984272   -1.491415    1.213803
| 54> P        -0.493833   -0.900852   -0.287697
| 55> H        -3.778323    0.714393    0.142454
| 56> H        -1.765486    1.451056   -0.809609
| 57> H        -0.704001   -1.454509    0.994293
| 58> *
| 59>
| 60> $new_job
| 61> ! ri-mp2 aug-cc-pvqz aug-cc-pvqz/c tightscf
| 62> %pal nprocs 16 end
| 63> %maxcore 3800
| 64> %base "QZ_B-P_26_AB"
| 65>
| 66> *xyz 0 1
| 67> C         1.061707    0.095695    0.040361
| 68> B        -1.897101    0.386720   -0.274229
| 69> O        -3.095772    0.046661    0.253156
| 70> C         0.918686    1.044677    1.227856
| 71> H         0.654665    0.505110    2.137897
| 72> H         0.151350    1.798478    1.048053
| 73> C         1.390391    0.889724   -1.223552
| 74> H         0.610346    1.613289   -1.461304
| 75> H         1.515962    0.232349   -2.084585
| 76> H         2.322980    1.441111   -1.081679
| 77> H         1.861984    1.567903    1.409937
| 78> C         2.187647   -0.899915    0.319730
| 79> H         3.127267   -0.365322    0.480372
| 80> H         2.327578   -1.587643   -0.514650
| 81> H         1.984272   -1.491415    1.213803
| 82> P        -0.493833   -0.900852   -0.287697
| 83> H        -3.778323    0.714393    0.142454
| 84> H        -1.765486    1.451056   -0.809609
| 85> H        -0.704001   -1.454509    0.994293
| 86> *
| 87>
| 88>
| 89>
| 90>
| 91>                          ****END OF INPUT****
 Total Charge           Charge          ....    0
 Multiplicity           Mult            ....    1
 Number of Electrons    NEL             ....   64
MP2 TOTAL ENERGY:     -599.847063680 Eh
FINAL SINGLE POINT ENERGY      -599.847063679888
MP2 TOTAL ENERGY:     -600.131951425 Eh
FINAL SINGLE POINT ENERGY      -600.131951424580

CARTESIAN COORDINATES (ANGSTROEM)
---------------------------------
  C      1.061707    0.095695    0.040361
  B     -1.897101    0.386720   -0.274229
  O     -3.095772    0.046661    0.253156
  C      0.918686    1.044677    1.227856
  H      0.654665    0.505110    2.137897
  H      0.151350    1.798478    1.048053
  C      1.390391    0.889724   -1.223552
  H      0.610346    1.613289   -1.461304
  H      1.515962    0.232349   -2.084585
  H      2.322980    1.441111   -1.081679
  H      1.861984    1.567903    1.409937
  C      2.187647   -0.899915    0.319730
  H      3.127267   -0.365322    0.480372
  H      2.327578   -1.587643   -0.514650
  H      1.984272   -1.491415    1.213803
  P     -0.493833   -0.900852   -0.287697
  H     -3.778323    0.714393    0.142454
  H     -1.765486    1.451056   -0.809609
  H     -0.704001   -1.454509    0.994293

 Multiplicity           Mult            ....    1
 Number of Electrons    NEL             ....   64
 Basis Dimension        Dim             .... 1116

ORBITAL ENERGIES
----------------

  NO   OCC          E(Eh)            E(eV)
   0   2.0000     -79.905512     -2174.3395
   1   2.0000     -20.580621      -560.0272
   2   2.0000     -11.241958      -305.9092
   3   2.0000     -11.215808      -305.1977
   4   2.0000     -11.214602      -305.1648
   5   2.0000     -11.213561      -305.1365
   6   2.0000      -7.627450      -207.5535
   7   2.0000      -7.451762      -202.7728
   8   2.0000      -5.346079      -145.4742
   9   2.0000      -5.345673      -145.4631
  10   2.0000      -5.345118      -145.4481
  11   2.0000      -1.376322       -37.4516
  12   2.0000      -1.097547       -29.8658
  13   2.0000      -0.937030       -25.4979
  14   2.0000      -0.935547       -25.4575
  15   2.0000      -0.853448       -23.2235
  16   2.0000      -0.765761       -20.8374
  17   2.0000      -0.712332       -19.3835
  18   2.0000      -0.656006       -17.8508
  19   2.0000      -0.611978       -16.6528
  20   2.0000      -0.605540       -16.4776
  21   2.0000      -0.601570       -16.3695
  22   2.0000      -0.557250       -15.1635
  23   2.0000      -0.550154       -14.9705
  24   2.0000      -0.542643       -14.7661
  25   2.0000      -0.531318       -14.4579
  26   2.0000      -0.517750       -14.0887
  27   2.0000      -0.478039       -13.0081
  28   2.0000      -0.474423       -12.9097
  29   2.0000      -0.448381       -12.2011
  30   2.0000      -0.411690       -11.2026
  31   2.0000      -0.333187        -9.0665
  32   0.0000       0.018889         0.5140
  33   0.0000       0.028549         0.7769
  34   0.0000       0.032107         0.8737
  35   0.0000       0.034005         0.9253
  36   0.0000       0.044073         1.1993

MULLIKEN ATOMIC CHARGES
-----------------------
   0 C :    1.036361
   1 B :    0.724399
   2 O :   -1.119399
   3 C :   -1.183411
   4 H :    0.265908
   5 H :    0.268058
   6 C :   -1.111727
   7 H :    0.280426
   8 H :    0.276806
   9 H :    0.245305
  10 H :    0.274350
  11 C :   -1.105672
  12 H :    0.248764
  13 H :    0.271473
  14 H :    0.251958
  15 P :    0.343851
  16 H :    0.355806
  17 H :   -0.207292
  18 H :   -0.115965
Sum of atomic charges:    0.0000000

LOEWDIN ATOMIC CHARGES
----------------------
   0 C :   -0.493608
   1 B :   -0.661679
   2 O :    1.280571
   3 C :    0.841517
   4 H :   -0.281138
   5 H :   -0.297229
   6 C :    0.823109
   7 H :   -0.303465
   8 H :   -0.283167
   9 H :   -0.271128
  10 H :   -0.268853
  11 C :    0.820955
  12 H :   -0.274922
  13 H :   -0.288312
  14 H :   -0.285713
  15 P :    1.348793
  16 H :   -0.795729
  17 H :   -0.198378
  18 H :   -0.411623

  Mayer bond orders larger than 0.100000
B(  0-C ,  1-B ) :  -0.1666 B(  0-C ,  3-C ) :   0.4871 B(  0-C ,  5-H ) :  -0.1016
B(  0-C ,  6-C ) :   0.4615 B(  0-C , 11-C ) :   0.3387 B(  0-C , 12-H ) :  -0.1104
B(  0-C , 13-H ) :  -0.1374 B(  0-C , 14-H ) :  -0.1166 B(  0-C , 15-P ) :   0.6935
B(  1-B ,  2-O ) :   0.5829 B(  1-B , 15-P ) :   1.1652 B(  1-B , 17-H ) :   0.8383
B(  2-O , 15-P ) :  -0.1500 B(  2-O , 16-H ) :   0.9025 B(  3-C ,  4-H ) :   1.0217
B(  3-C ,  5-H ) :   1.0162 B(  3-C ,  6-C ) :   0.1104 B(  3-C , 10-H ) :   0.9569
B(  3-C , 11-C ) :   0.1219 B(  6-C ,  7-H ) :   0.9984 B(  6-C ,  8-H ) :   1.0000
B(  6-C ,  9-H ) :   1.0032 B(  6-C , 11-C ) :   0.1285 B( 11-C , 12-H ) :   1.0157
B( 11-C , 13-H ) :   1.0344 B( 11-C , 14-H ) :   1.0302 B( 15-P , 18-H ) :   0.9366

MP2 TOTAL ENERGY:     -600.220345686 Eh
FINAL SINGLE POINT ENERGY      -600.220345685634

DIPOLE MOMENT
-------------
                                X             Y             Z
Electronic contribution:    -10.52550      -4.22803      -1.84919
Nuclear contribution   :     10.45659       5.06773       2.01200
                        -----------------------------------------
Total Dipole Moment    :     -0.06891       0.83970       0.16281
                        -----------------------------------------
Magnitude (a.u.)       :      0.85811
Magnitude (Debye)      :      2.18114

Rotational constants in cm-1:     0.120198     0.040812     0.038965
Rotational constants in MHz :  3603.440498  1223.498780  1168.135455

                             ****ORCA TERMINATED NORMALLY****
TOTAL RUN TIME: 0 days 3 hours 12 minutes 18 seconds 993 msec
