                         Program Version 5.0.4 -  RELEASE  -
|  1> ! ri-mp2 aug-cc-pvdz aug-cc-pvdz/c tightscf
|  2> %pal nprocs 16 end
|  3> %maxcore 3800
|  4> %base "DZ_B-S_7_AB"
|  5>
|  6> *xyz 0 1
|  7> B         1.868481    0.122516   -0.000003
|  8> Cl        -3.370138   -0.723179    0.000014
|  9> Cl        -0.440842   -1.924762    0.000030
| 10> S         2.628620   -0.098770    1.602884
| 11> S         2.628618   -0.098820   -1.602885
| 12> N        -2.223732    1.604074   -0.000023
| 13> C        -1.989944    0.316432   -0.000004
| 14> C        -0.701791   -0.219211    0.000004
| 15> C         0.385391    0.641600   -0.000010
| 16> C         0.116911    2.007032   -0.000031
| 17> H         0.925122    2.725625   -0.000043
| 18> C        -1.192448    2.438981   -0.000037
| 19> H        -1.431895    3.495290   -0.000053
| 20> H         3.846323   -0.497306   -1.210185
| 21> H         3.846324   -0.497269    1.210195
| 22> *
| 23>
| 24> $new_job
| 25> ! ri-mp2 aug-cc-pvtz aug-cc-pvtz/c tightscf
| 26> %pal nprocs 16 end
| 27> %maxcore 3800
| 28> %base "TZ_B-S_7_AB"
| 29>
| 30> *xyz 0 1
| 31> B         1.868481    0.122516   -0.000003
| 32> Cl        -3.370138   -0.723179    0.000014
| 33> Cl        -0.440842   -1.924762    0.000030
| 34> S         2.628620   -0.098770    1.602884
| 35> S         2.628618   -0.098820   -1.602885
| 36> N        -2.223732    1.604074   -0.000023
| 37> C        -1.989944    0.316432   -0.000004
| 38> C        -0.701791   -0.219211    0.000004
| 39> C         0.385391    0.641600   -0.000010
| 40> C         0.116911    2.007032   -0.000031
| 41> H         0.925122    2.725625   -0.000043
| 42> C        -1.192448    2.438981   -0.000037
| 43> H        -1.431895    3.495290   -0.000053
| 44> H         3.846323   -0.497306   -1.210185
| 45> H         3.846324   -0.497269    1.210195
| 46> *
| 47>
| 48> $new_job
| 49> ! ri-mp2 aug-cc-pvqz aug-cc-pvqz/c tightscf
| 50> %pal nprocs 16 end
| 51> %maxcore 3800
| 52> %base "QZ_B-S_7_AB"
| 53>
| 54> *xyz 0 1
| 55> B         1.868481    0.122516   -0.000003
| 56> Cl        -3.370138   -0.723179    0.000014
| 57> Cl        -0.440842   -1.924762    0.000030
| 58> S         2.628620   -0.098770    1.602884
| 59> S         2.628618   -0.098820   -1.602885
| 60> N        -2.223732    1.604074   -0.000023
| 61> C        -1.989944    0.316432   -0.000004
| 62> C        -0.701791   -0.219211    0.000004
| 63> C         0.385391    0.641600   -0.000010
| 64> C         0.116911    2.007032   -0.000031
| 65> H         0.925122    2.725625   -0.000043
| 66> C        -1.192448    2.438981   -0.000037
| 67> H        -1.431895    3.495290   -0.000053
| 68> H         3.846323   -0.497306   -1.210185
| 69> H         3.846324   -0.497269    1.210195
| 70> *
| 71>
| 72>
| 73>
| 74>
| 75>                          ****END OF INPUT****
 Total Charge           Charge          ....    0
 Multiplicity           Mult            ....    1
 Number of Electrons    NEL             ....  112
MP2 TOTAL ENERGY:    -1986.470130810 Eh
FINAL SINGLE POINT ENERGY     -1986.470130809623
MP2 TOTAL ENERGY:    -1986.917741662 Eh
FINAL SINGLE POINT ENERGY     -1986.917741662118

CARTESIAN COORDINATES (ANGSTROEM)
---------------------------------
  B      1.868481    0.122516   -0.000003
  Cl    -3.370138   -0.723179    0.000014
  Cl    -0.440842   -1.924762    0.000030
  S      2.628620   -0.098770    1.602884
  S      2.628618   -0.098820   -1.602885
  N     -2.223732    1.604074   -0.000023
  C     -1.989944    0.316432   -0.000004
  C     -0.701791   -0.219211    0.000004
  C      0.385391    0.641600   -0.000010
  C      0.116911    2.007032   -0.000031
  H      0.925122    2.725625   -0.000043
  C     -1.192448    2.438981   -0.000037
  H     -1.431895    3.495290   -0.000053
  H      3.846323   -0.497306   -1.210185
  H      3.846324   -0.497269    1.210195

 Multiplicity           Mult            ....    1
 Number of Electrons    NEL             ....  112
 Basis Dimension        Dim             .... 1080

ORBITAL ENERGIES
----------------

  NO   OCC          E(Eh)            E(eV)
   0   2.0000    -104.854271     -2853.2298
   1   2.0000    -104.846547     -2853.0196
   2   2.0000     -91.975950     -2502.7928
   3   2.0000     -91.975950     -2502.7928
   4   2.0000     -15.587666      -424.1620
   5   2.0000     -11.354750      -308.9785
   6   2.0000     -11.323163      -308.1189
   7   2.0000     -11.294734      -307.3453
   8   2.0000     -11.272345      -306.7361
   9   2.0000     -11.261580      -306.4432
  10   2.0000     -10.580001      -287.8965
  11   2.0000     -10.572383      -287.6892
  12   2.0000      -8.980931      -244.3835
  13   2.0000      -8.980923      -244.3833
  14   2.0000      -8.047138      -218.9738
  15   2.0000      -8.045321      -218.9243
  16   2.0000      -8.045235      -218.9220
  17   2.0000      -8.039492      -218.7657
  18   2.0000      -8.037627      -218.7150
  19   2.0000      -8.037617      -218.7147
  20   2.0000      -7.676509      -208.8884
  21   2.0000      -6.662448      -181.2944
  22   2.0000      -6.662445      -181.2943
  23   2.0000      -6.661410      -181.2662
  24   2.0000      -6.661407      -181.2661
  25   2.0000      -6.660974      -181.2543
  26   2.0000      -6.660974      -181.2543
  27   2.0000      -1.310460       -35.6594
  28   2.0000      -1.186328       -32.2816
  29   2.0000      -1.148470       -31.2515
  30   2.0000      -1.090210       -29.6661
  31   2.0000      -1.031142       -28.0588
  32   2.0000      -1.013722       -27.5848
  33   2.0000      -0.982108       -26.7245
  34   2.0000      -0.884850       -24.0780
  35   2.0000      -0.863200       -23.4889
  36   2.0000      -0.734220       -19.9791
  37   2.0000      -0.717563       -19.5259
  38   2.0000      -0.664072       -18.0703
  39   2.0000      -0.643113       -17.5000
  40   2.0000      -0.620519       -16.8852
  41   2.0000      -0.606345       -16.4995
  42   2.0000      -0.591414       -16.0932
  43   2.0000      -0.553091       -15.0504
  44   2.0000      -0.546284       -14.8651
  45   2.0000      -0.529891       -14.4191
  46   2.0000      -0.508005       -13.8235
  47   2.0000      -0.490764       -13.3544
  48   2.0000      -0.486840       -13.2476
  49   2.0000      -0.459017       -12.4905
  50   2.0000      -0.454512       -12.3679
  51   2.0000      -0.448013       -12.1910
  52   2.0000      -0.431781       -11.7493
  53   2.0000      -0.396513       -10.7897
  54   2.0000      -0.386965       -10.5299
  55   2.0000      -0.351840        -9.5741
  56   0.0000       0.017354         0.4722
  57   0.0000       0.025803         0.7021
  58   0.0000       0.035435         0.9642
  59   0.0000       0.035589         0.9684
  60   0.0000       0.044041         1.1984

MULLIKEN ATOMIC CHARGES
-----------------------
   0 B :    0.488399
   1 Cl:   -0.272707
   2 Cl:   -0.344152
   3 S :   -0.050799
   4 S :   -0.050799
   5 N :   -0.513537
   6 C :    0.448987
   7 C :   -0.038682
   8 C :    0.535155
   9 C :   -0.746913
  10 H :    0.197349
  11 C :   -0.111943
  12 H :    0.508585
  13 H :   -0.024471
  14 H :   -0.024471
Sum of atomic charges:   -0.0000000

LOEWDIN ATOMIC CHARGES
----------------------
   0 B :   -1.818642
   1 Cl:    1.159244
   2 Cl:    1.247302
   3 S :    1.742417
   4 S :    1.742416
   5 N :    0.450015
   6 C :   -1.272507
   7 C :   -1.035388
   8 C :   -0.336849
   9 C :    0.280505
  10 H :   -0.317097
  11 C :    0.081448
  12 H :   -0.340644
  13 H :   -0.791111
  14 H :   -0.791111

  Mayer bond orders larger than 0.100000
B(  0-B ,  3-S ) :   1.0824 B(  0-B ,  4-S ) :   1.0824 B(  0-B ,  8-C ) :   0.8535
B(  1-Cl,  5-N ) :  -0.1334 B(  1-Cl,  6-C ) :   0.9061 B(  1-Cl,  7-C ) :  -0.1400
B(  2-Cl,  7-C ) :   0.5391 B(  3-S , 14-H ) :   1.0963 B(  4-S , 13-H ) :   1.0963
B(  5-N ,  6-C ) :   0.8672 B(  5-N ,  7-C ) :   0.2581 B(  5-N , 11-C ) :   1.0916
B(  5-N , 12-H ) :  -0.1355 B(  6-C ,  7-C ) :   1.0326 B(  7-C ,  8-C ) :   1.1159
B(  7-C , 11-C ) :   0.2190 B(  8-C ,  9-C ) :   0.8829 B(  8-C , 11-C ) :  -0.4234
B(  9-C , 10-H ) :   1.0519 B(  9-C , 11-C ) :   1.3911 B(  9-C , 12-H ) :  -0.1306
B( 11-C , 12-H ) :   0.8633

MP2 TOTAL ENERGY:    -1987.065746439 Eh
FINAL SINGLE POINT ENERGY     -1987.065746438515

DIPOLE MOMENT
-------------
                                X             Y             Z
Electronic contribution:     -8.66075      -7.94638       0.00013
Nuclear contribution   :     10.29240       8.38955      -0.00014
                        -----------------------------------------
Total Dipole Moment    :      1.63166       0.44317      -0.00001
                        -----------------------------------------
Magnitude (a.u.)       :      1.69077
Magnitude (Debye)      :      4.29759

Rotational constants in cm-1:     0.033664     0.013681     0.012062
Rotational constants in MHz :  1009.235944   410.148086   361.616081

                             ****ORCA TERMINATED NORMALLY****
TOTAL RUN TIME: 0 days 0 hours 38 minutes 30 seconds 126 msec
