                         Program Version 5.0.4 -  RELEASE  -
|  1> ! ri-mp2 aug-cc-pvdz aug-cc-pvdz/c tightscf
|  2> %pal nprocs 16 end
|  3> %maxcore 3800
|  4> %base "DZ_S-Cl_41_AB"
|  5> %scf
|  6> STABPerform true
|  7> STABRestartUHFifUnstable true
|  8> end
|  9>
| 10> *xyz 0 1
| 11> Cl         1.913338    0.724913   -0.268430
| 12> S         0.728368   -0.649512    0.657133
| 13> C        -1.906297    0.424222    0.017053
| 14> N        -2.621978    1.259135    0.346276
| 15> S        -0.899314   -0.830663   -0.529817
| 16> *
| 17>
| 18> $new_job
| 19> ! ri-mp2 aug-cc-pvtz aug-cc-pvtz/c tightscf
| 20> %pal nprocs 16 end
| 21> %maxcore 3800
| 22> %base "TZ_S-Cl_41_AB"
| 23>
| 24> *xyz 0 1
| 25> Cl         1.913338    0.724913   -0.268430
| 26> S         0.728368   -0.649512    0.657133
| 27> C        -1.906297    0.424222    0.017053
| 28> N        -2.621978    1.259135    0.346276
| 29> S        -0.899314   -0.830663   -0.529817
| 30> *
| 31>
| 32> $new_job
| 33> ! ri-mp2 aug-cc-pvqz aug-cc-pvqz/c tightscf
| 34> %pal nprocs 16 end
| 35> %maxcore 3800
| 36> %base "QZ_S-Cl_41_AB"
| 37>
| 38> *xyz 0 1
| 39> Cl         1.913338    0.724913   -0.268430
| 40> S         0.728368   -0.649512    0.657133
| 41> C        -1.906297    0.424222    0.017053
| 42> N        -2.621978    1.259135    0.346276
| 43> S        -0.899314   -0.830663   -0.529817
| 44> *
| 45>
| 46>
| 47>
| 48>
| 49>                          ****END OF INPUT****
 Total Charge           Charge          ....    0
 Multiplicity           Mult            ....    1
 Number of Electrons    NEL             ....   62
MP2 TOTAL ENERGY:    -1347.569700868 Eh
FINAL SINGLE POINT ENERGY     -1347.569700868234
MP2 TOTAL ENERGY:    -1347.814417000 Eh
FINAL SINGLE POINT ENERGY     -1347.814417000466

CARTESIAN COORDINATES (ANGSTROEM)
---------------------------------
  Cl     1.913338    0.724913   -0.268430
  S      0.728368   -0.649512    0.657133
  C     -1.906297    0.424222    0.017053
  N     -2.621978    1.259135    0.346276
  S     -0.899314   -0.830663   -0.529817

 Multiplicity           Mult            ....    1
 Number of Electrons    NEL             ....   62
 Basis Dimension        Dim             ....  412

ORBITAL ENERGIES
----------------

  NO   OCC          E(Eh)            E(eV)
   0   2.0000    -104.882347     -2853.9937
   1   2.0000     -92.072333     -2505.4155
   2   2.0000     -92.065327     -2505.2249
   3   2.0000     -15.600931      -424.5229
   4   2.0000     -11.310455      -307.7731
   5   2.0000     -10.606554      -288.6190
   6   2.0000      -9.068217      -246.7587
   7   2.0000      -9.064346      -246.6534
   8   2.0000      -8.073495      -219.6910
   9   2.0000      -8.071480      -219.6361
  10   2.0000      -8.071252      -219.6299
  11   2.0000      -6.748865      -183.6459
  12   2.0000      -6.747629      -183.6123
  13   2.0000      -6.746144      -183.5719
  14   2.0000      -6.745610      -183.5574
  15   2.0000      -6.744319      -183.5223
  16   2.0000      -6.743411      -183.4975
  17   2.0000      -1.254077       -34.1252
  18   2.0000      -1.186465       -32.2853
  19   2.0000      -1.095636       -29.8138
  20   2.0000      -0.921517       -25.0757
  21   2.0000      -0.705304       -19.1923
  22   2.0000      -0.607364       -16.5272
  23   2.0000      -0.587278       -15.9806
  24   2.0000      -0.583810       -15.8863
  25   2.0000      -0.537576       -14.6282
  26   2.0000      -0.534397       -14.5417
  27   2.0000      -0.508462       -13.8359
  28   2.0000      -0.462018       -12.5721
  29   2.0000      -0.421138       -11.4598
  30   2.0000      -0.407685       -11.0937
  31   0.0000       0.024548         0.6680
  32   0.0000       0.035876         0.9762
  33   0.0000       0.039162         1.0657
  34   0.0000       0.056217         1.5297
  35   0.0000       0.062095         1.6897

MULLIKEN ATOMIC CHARGES
-----------------------
   0 Cl:   -0.203741
   1 S :    0.221822
   2 C :   -0.003089
   3 N :   -0.451346
   4 S :    0.436354
Sum of atomic charges:   -0.0000000

LOEWDIN ATOMIC CHARGES
----------------------
   0 Cl:    0.397662
   1 S :   -0.174655
   2 C :   -0.994699
   3 N :    0.255893
   4 S :    0.515799

  Mayer bond orders larger than 0.100000
B(  0-Cl,  1-S ) :   0.9672 B(  1-S ,  4-S ) :   1.1543 B(  2-C ,  3-N ) :   2.6876
B(  2-C ,  4-S ) :   0.8819

MP2 TOTAL ENERGY:    -1347.895463710 Eh
FINAL SINGLE POINT ENERGY     -1347.895463710377

DIPOLE MOMENT
-------------
                                X             Y             Z
Electronic contribution:      3.23882      -0.02662      -0.56658
Nuclear contribution   :     -2.54727      -0.91234       0.35429
                        -----------------------------------------
Total Dipole Moment    :      0.69155      -0.93896      -0.21228
                        -----------------------------------------
Magnitude (a.u.)       :      1.18531
Magnitude (Debye)      :      3.01281

Rotational constants in cm-1:     0.159486     0.049624     0.043087
Rotational constants in MHz :  4781.279233  1487.702696  1291.704304

                             ****ORCA TERMINATED NORMALLY****
TOTAL RUN TIME: 0 days 0 hours 8 minutes 34 seconds 691 msec
