                         Program Version 5.0.4 -  RELEASE  -
|  1> ! ri-mp2 aug-cc-pvdz aug-cc-pvdz/c tightscf
|  2> %pal nprocs 16 end
|  3> %maxcore 3800
|  4> %base "DZ_B-Cl_71_A"
|  5> %scf
|  6> STABPerform true
|  7> STABRestartUHFifUnstable true
|  8> end
|  9>
| 10> *xyz 0 2
| 11> B         0.144504    0.952304    0.000002
| 12> Cl         1.456511   -0.224085   -0.000003
| 13> O        -1.141254    0.681193    0.000003
| 14> C        -1.761621   -0.607142    0.000002
| 15> H        -2.384509   -0.680206    0.888415
| 16> H        -1.014421   -1.398359   -0.000006
| 17> H        -2.384519   -0.680199   -0.888406
| 18> *
| 19>
| 20> $new_job
| 21> ! ri-mp2 aug-cc-pvtz aug-cc-pvtz/c tightscf
| 22> %pal nprocs 16 end
| 23> %maxcore 3800
| 24> %base "TZ_B-Cl_71_A"
| 25>
| 26> *xyz 0 2
| 27> B         0.144504    0.952304    0.000002
| 28> Cl         1.456511   -0.224085   -0.000003
| 29> O        -1.141254    0.681193    0.000003
| 30> C        -1.761621   -0.607142    0.000002
| 31> H        -2.384509   -0.680206    0.888415
| 32> H        -1.014421   -1.398359   -0.000006
| 33> H        -2.384519   -0.680199   -0.888406
| 34> *
| 35>
| 36> $new_job
| 37> ! ri-mp2 aug-cc-pvqz aug-cc-pvqz/c tightscf
| 38> %pal nprocs 16 end
| 39> %maxcore 3800
| 40> %base "QZ_B-Cl_71_A"
| 41>
| 42> *xyz 0 2
| 43> B         0.144504    0.952304    0.000002
| 44> Cl         1.456511   -0.224085   -0.000003
| 45> O        -1.141254    0.681193    0.000003
| 46> C        -1.761621   -0.607142    0.000002
| 47> H        -2.384509   -0.680206    0.888415
| 48> H        -1.014421   -1.398359   -0.000006
| 49> H        -2.384519   -0.680199   -0.888406
| 50> *
| 51>
| 52>
| 53>
| 54>
| 55>                          ****END OF INPUT****
 Total Charge           Charge          ....    0
 Multiplicity           Mult            ....    2
 Number of Electrons    NEL             ....   39
MP2 TOTAL ENERGY:     -599.255945739 Eh
FINAL SINGLE POINT ENERGY      -599.255945738810
MP2 TOTAL ENERGY:     -599.440319935 Eh
FINAL SINGLE POINT ENERGY      -599.440319935489

CARTESIAN COORDINATES (ANGSTROEM)
---------------------------------
  B      0.144504    0.952304    0.000002
  Cl     1.456511   -0.224085   -0.000003
  O     -1.141254    0.681193    0.000003
  C     -1.761621   -0.607142    0.000002
  H     -2.384509   -0.680206    0.888415
  H     -1.014421   -1.398359   -0.000006
  H     -2.384519   -0.680199   -0.888406

 Multiplicity           Mult            ....    2
 Number of Electrons    NEL             ....   39
 Basis Dimension        Dim             ....  462

ORBITAL ENERGIES
----------------
                 SPIN UP ORBITALS
  NO   OCC          E(Eh)            E(eV)
   0   1.0000    -104.835212     -2852.7112
   1   1.0000     -20.596029      -560.4464
   2   1.0000     -11.299668      -307.4796
   3   1.0000     -10.562935      -287.4321
   4   1.0000      -8.031381      -218.5450
   5   1.0000      -8.028242      -218.4596
   6   1.0000      -8.028095      -218.4556
   7   1.0000      -7.695429      -209.4033
   8   1.0000      -1.409481       -38.3539
   9   1.0000      -1.115396       -30.3515
  10   1.0000      -0.975583       -26.5470
  11   1.0000      -0.741969       -20.1900
  12   1.0000      -0.665473       -18.1084
  13   1.0000      -0.658719       -17.9247
  14   1.0000      -0.616076       -16.7643
  15   1.0000      -0.531997       -14.4764
  16   1.0000      -0.518833       -14.1182
  17   1.0000      -0.483545       -13.1579
  18   1.0000      -0.467750       -12.7281
  19   1.0000      -0.347888        -9.4665
  20   0.0000       0.024257         0.6601
  21   0.0000       0.035028         0.9532
  22   0.0000       0.039322         1.0700
  23   0.0000       0.040567         1.1039
  24   0.0000       0.056437         1.5357

                 SPIN DOWN ORBITALS
  NO   OCC          E(Eh)            E(eV)
   0   1.0000    -104.833821     -2852.6733
   1   1.0000     -20.595399      -560.4293
   2   1.0000     -11.298308      -307.4426
   3   1.0000     -10.561299      -287.3876
   4   1.0000      -8.027838      -218.4486
   5   1.0000      -8.027578      -218.4415
   6   1.0000      -8.025653      -218.3891
   7   1.0000      -7.672684      -208.7843
   8   1.0000      -1.406564       -38.2746
   9   1.0000      -1.103251       -30.0210
  10   1.0000      -0.967770       -26.3344
  11   1.0000      -0.733354       -19.9556
  12   1.0000      -0.660784       -17.9808
  13   1.0000      -0.654258       -17.8033
  14   1.0000      -0.588496       -16.0138
  15   1.0000      -0.517508       -14.0821
  16   1.0000      -0.517025       -14.0690
  17   1.0000      -0.471098       -12.8192
  18   1.0000      -0.470226       -12.7955
  19   0.0000       0.023435         0.6377
  20   0.0000       0.035322         0.9612
  21   0.0000       0.035525         0.9667
  22   0.0000       0.040264         1.0956
  23   0.0000       0.056828         1.5464

MULLIKEN ATOMIC CHARGES AND SPIN POPULATIONS
--------------------------------------------
   0 B :    0.608956    1.033422
   1 Cl:   -0.265264    0.044242
   2 O :   -0.770828   -0.117535
   3 C :   -0.514280    0.045783
   4 H :    0.300658   -0.002891
   5 H :    0.340102   -0.000129
   6 H :    0.300657   -0.002891
Sum of atomic charges         :   -0.0000000

LOEWDIN ATOMIC CHARGES AND SPIN POPULATIONS
-------------------------------------------
   0 B :   -1.407339    0.609255
   1 Cl:    1.142392    0.183196
   2 O :    0.734766    0.159281
   3 C :    0.537008    0.032206
   4 H :   -0.311588    0.004178
   5 H :   -0.383652    0.007706
   6 H :   -0.311586    0.004178

  Mayer bond orders larger than 0.100000
B(  0-B ,  1-Cl) :   1.0501 B(  0-B ,  2-O ) :   0.7027 B(  2-O ,  3-C ) :   0.7767
B(  3-C ,  4-H ) :   0.9077 B(  3-C ,  5-H ) :   0.8775 B(  3-C ,  6-H ) :   0.9077

MP2 TOTAL ENERGY:     -599.500171900 Eh
FINAL SINGLE POINT ENERGY      -599.500171899566

DIPOLE MOMENT
-------------
                                X             Y             Z
Electronic contribution:      6.90275       2.45061      -0.00000
Nuclear contribution   :     -7.58217      -3.02732       0.00001
                        -----------------------------------------
Total Dipole Moment    :     -0.67943      -0.57671       0.00000
                        -----------------------------------------
Magnitude (a.u.)       :      0.89119
Magnitude (Debye)      :      2.26522

Rotational constants in cm-1:     0.611584     0.114633     0.098330
Rotational constants in MHz : 18334.824313  3436.615504  2947.869593

                             ****ORCA TERMINATED NORMALLY****
TOTAL RUN TIME: 0 days 0 hours 21 minutes 40 seconds 751 msec
