                         Program Version 5.0.4 -  RELEASE  -
|  1> ! ri-mp2 aug-cc-pvdz aug-cc-pvdz/c tightscf
|  2> %pal nprocs 16 end
|  3> %maxcore 3800
|  4> %base "DZ_S-S_6_AB"
|  5> %scf
|  6> STABPerform true
|  7> STABRestartUHFifUnstable true
|  8> end
|  9>
| 10> *xyz 0 1
| 11> C         2.057184    1.087903   -0.056196
| 12> O         1.041561    1.615508   -0.387812
| 13> S         2.337643   -0.691700   -0.170213
| 14> S         0.557909   -1.334928   -0.899974
| 15> C        -0.512612   -1.154183    0.541090
| 16> O        -0.128414   -0.750408    1.594454
| 17> C         3.231748    1.801098    0.549259
| 18> H         3.046061    1.904079    1.619444
| 19> H         3.306264    2.794333    0.112037
| 20> H         4.163056    1.254553    0.411627
| 21> C        -1.941886   -1.525516    0.238939
| 22> C        -2.873727   -0.335805    0.466086
| 23> H        -2.198748   -2.343539    0.915030
| 24> H        -2.030692   -1.896600   -0.783920
| 25> C        -2.632666    0.812617   -0.503554
| 26> H        -2.745195    0.012788    1.492782
| 27> H        -3.905520   -0.684131    0.376818
| 28> C        -3.572711    1.981626   -0.259181
| 29> H        -2.755278    0.449274   -1.528331
| 30> H        -1.597983    1.153882   -0.424034
| 31> H        -4.616993    1.679583   -0.362981
| 32> H        -3.388259    2.791669   -0.964735
| 33> H        -3.442692    2.382920    0.747463
| 34> *
| 35>
| 36> $new_job
| 37> ! ri-mp2 aug-cc-pvtz aug-cc-pvtz/c tightscf
| 38> %pal nprocs 16 end
| 39> %maxcore 3800
| 40> %base "TZ_S-S_6_AB"
| 41>
| 42> *xyz 0 1
| 43> C         2.057184    1.087903   -0.056196
| 44> O         1.041561    1.615508   -0.387812
| 45> S         2.337643   -0.691700   -0.170213
| 46> S         0.557909   -1.334928   -0.899974
| 47> C        -0.512612   -1.154183    0.541090
| 48> O        -0.128414   -0.750408    1.594454
| 49> C         3.231748    1.801098    0.549259
| 50> H         3.046061    1.904079    1.619444
| 51> H         3.306264    2.794333    0.112037
| 52> H         4.163056    1.254553    0.411627
| 53> C        -1.941886   -1.525516    0.238939
| 54> C        -2.873727   -0.335805    0.466086
| 55> H        -2.198748   -2.343539    0.915030
| 56> H        -2.030692   -1.896600   -0.783920
| 57> C        -2.632666    0.812617   -0.503554
| 58> H        -2.745195    0.012788    1.492782
| 59> H        -3.905520   -0.684131    0.376818
| 60> C        -3.572711    1.981626   -0.259181
| 61> H        -2.755278    0.449274   -1.528331
| 62> H        -1.597983    1.153882   -0.424034
| 63> H        -4.616993    1.679583   -0.362981
| 64> H        -3.388259    2.791669   -0.964735
| 65> H        -3.442692    2.382920    0.747463
| 66> *
| 67>
| 68> $new_job
| 69> ! ri-mp2 aug-cc-pvqz aug-cc-pvqz/c tightscf
| 70> %pal nprocs 16 end
| 71> %maxcore 3800
| 72> %base "QZ_S-S_6_AB"
| 73>
| 74> *xyz 0 1
| 75> C         2.057184    1.087903   -0.056196
| 76> O         1.041561    1.615508   -0.387812
| 77> S         2.337643   -0.691700   -0.170213
| 78> S         0.557909   -1.334928   -0.899974
| 79> C        -0.512612   -1.154183    0.541090
| 80> O        -0.128414   -0.750408    1.594454
| 81> C         3.231748    1.801098    0.549259
| 82> H         3.046061    1.904079    1.619444
| 83> H         3.306264    2.794333    0.112037
| 84> H         4.163056    1.254553    0.411627
| 85> C        -1.941886   -1.525516    0.238939
| 86> C        -2.873727   -0.335805    0.466086
| 87> H        -2.198748   -2.343539    0.915030
| 88> H        -2.030692   -1.896600   -0.783920
| 89> C        -2.632666    0.812617   -0.503554
| 90> H        -2.745195    0.012788    1.492782
| 91> H        -3.905520   -0.684131    0.376818
| 92> C        -3.572711    1.981626   -0.259181
| 93> H        -2.755278    0.449274   -1.528331
| 94> H        -1.597983    1.153882   -0.424034
| 95> H        -4.616993    1.679583   -0.362981
| 96> H        -3.388259    2.791669   -0.964735
| 97> H        -3.442692    2.382920    0.747463
| 98> *
| 99>
|100>
|101>
|102>
|103>                          ****END OF INPUT****
 Total Charge           Charge          ....    0
 Multiplicity           Mult            ....    1
 Number of Electrons    NEL             ....  102
MP2 TOTAL ENERGY:    -1218.607265405 Eh
FINAL SINGLE POINT ENERGY     -1218.607265404648
MP2 TOTAL ENERGY:    -1219.087971677 Eh
FINAL SINGLE POINT ENERGY     -1219.087971677168

CARTESIAN COORDINATES (ANGSTROEM)
---------------------------------
  C      2.057184    1.087903   -0.056196
  O      1.041561    1.615508   -0.387812
  S      2.337643   -0.691700   -0.170213
  S      0.557909   -1.334928   -0.899974
  C     -0.512612   -1.154183    0.541090
  O     -0.128414   -0.750408    1.594454
  C      3.231748    1.801098    0.549259
  H      3.046061    1.904079    1.619444
  H      3.306264    2.794333    0.112037
  H      4.163056    1.254553    0.411627
  C     -1.941886   -1.525516    0.238939
  C     -2.873727   -0.335805    0.466086
  H     -2.198748   -2.343539    0.915030
  H     -2.030692   -1.896600   -0.783920
  C     -2.632666    0.812617   -0.503554
  H     -2.745195    0.012788    1.492782
  H     -3.905520   -0.684131    0.376818
  C     -3.572711    1.981626   -0.259181
  H     -2.755278    0.449274   -1.528331
  H     -1.597983    1.153882   -0.424034
  H     -4.616993    1.679583   -0.362981
  H     -3.388259    2.791669   -0.964735
  H     -3.442692    2.382920    0.747463

 Multiplicity           Mult            ....    1
 Number of Electrons    NEL             ....  102
 Basis Dimension        Dim             .... 1440

ORBITAL ENERGIES
----------------

  NO   OCC          E(Eh)            E(eV)
   0   2.0000     -91.995165     -2503.3157
   1   2.0000     -91.994442     -2503.2960
   2   2.0000     -20.565414      -559.6134
   3   2.0000     -20.562185      -559.5255
   4   2.0000     -11.371376      -309.4309
   5   2.0000     -11.365248      -309.2641
   6   2.0000     -11.251138      -306.1590
   7   2.0000     -11.247882      -306.0704
   8   2.0000     -11.228446      -305.5415
   9   2.0000     -11.213789      -305.1427
  10   2.0000     -11.207371      -304.9681
  11   2.0000      -8.996842      -244.8165
  12   2.0000      -8.996111      -244.7966
  13   2.0000      -6.678136      -181.7213
  14   2.0000      -6.677335      -181.6995
  15   2.0000      -6.676719      -181.6827
  16   2.0000      -6.676070      -181.6651
  17   2.0000      -6.675952      -181.6619
  18   2.0000      -6.675326      -181.6449
  19   2.0000      -1.422565       -38.7100
  20   2.0000      -1.417692       -38.5774
  21   2.0000      -1.105178       -30.0734
  22   2.0000      -1.087448       -29.5910
  23   2.0000      -1.038459       -28.2579
  24   2.0000      -1.013217       -27.5710
  25   2.0000      -0.935347       -25.4521
  26   2.0000      -0.882230       -24.0067
  27   2.0000      -0.806027       -21.9331
  28   2.0000      -0.758948       -20.6520
  29   2.0000      -0.729062       -19.8388
  30   2.0000      -0.678470       -18.4621
  31   2.0000      -0.664031       -18.0692
  32   2.0000      -0.651074       -17.7166
  33   2.0000      -0.629920       -17.1410
  34   2.0000      -0.625318       -17.0158
  35   2.0000      -0.617594       -16.8056
  36   2.0000      -0.613192       -16.6858
  37   2.0000      -0.583859       -15.8876
  38   2.0000      -0.571885       -15.5618
  39   2.0000      -0.549930       -14.9644
  40   2.0000      -0.536917       -14.6102
  41   2.0000      -0.528703       -14.3867
  42   2.0000      -0.517618       -14.0851
  43   2.0000      -0.489083       -13.3086
  44   2.0000      -0.473823       -12.8934
  45   2.0000      -0.469796       -12.7838
  46   2.0000      -0.465766       -12.6741
  47   2.0000      -0.433310       -11.7910
  48   2.0000      -0.426421       -11.6035
  49   2.0000      -0.391224       -10.6457
  50   2.0000      -0.372077       -10.1247
  51   0.0000       0.024678         0.6715
  52   0.0000       0.025730         0.7001
  53   0.0000       0.032300         0.8789
  54   0.0000       0.035562         0.9677
  55   0.0000       0.042070         1.1448

MULLIKEN ATOMIC CHARGES
-----------------------
   0 C :    0.639960
   1 O :   -0.868912
   2 S :    0.034477
   3 S :   -0.013113
   4 C :    0.755702
   5 O :   -0.930423
   6 C :   -0.808622
   7 H :    0.312759
   8 H :    0.306725
   9 H :    0.288988
  10 C :   -0.466029
  11 C :   -0.416894
  12 H :    0.325395
  13 H :    0.243895
  14 C :   -0.416327
  15 H :    0.266997
  16 H :    0.291895
  17 C :   -0.888421
  18 H :    0.220478
  19 H :    0.401706
  20 H :    0.231850
  21 H :    0.254750
  22 H :    0.233163
Sum of atomic charges:   -0.0000000

LOEWDIN ATOMIC CHARGES
----------------------
   0 C :   -1.165131
   1 O :    0.640560
   2 S :    0.754256
   3 S :    0.777445
   4 C :   -1.169603
   5 O :    0.659544
   6 C :    0.777274
   7 H :   -0.301889
   8 H :   -0.313858
   9 H :   -0.345885
  10 C :    0.374366
  11 C :    0.490726
  12 H :   -0.284591
  13 H :   -0.341609
  14 C :    0.489115
  15 H :   -0.280006
  16 H :   -0.263917
  17 C :    0.933448
  18 H :   -0.267295
  19 H :   -0.319245
  20 H :   -0.282834
  21 H :   -0.280141
  22 H :   -0.280732

  Mayer bond orders larger than 0.100000
B(  0-C ,  1-O ) :   1.4136 B(  0-C ,  2-S ) :   0.9170 B(  0-C ,  6-C ) :   0.7974
B(  2-S ,  3-S ) :   1.1094 B(  3-S ,  4-C ) :   0.9045 B(  4-C ,  5-O ) :   1.2584
B(  4-C , 10-C ) :   0.9256 B(  6-C ,  7-H ) :   0.8636 B(  6-C ,  8-H ) :   0.9592
B(  6-C ,  9-H ) :   0.9738 B( 10-C , 11-C ) :   0.9643 B( 10-C , 12-H ) :   0.8995
B( 10-C , 13-H ) :   0.9593 B( 11-C , 14-C ) :   0.8594 B( 11-C , 15-H ) :   0.8685
B( 11-C , 16-H ) :   0.8728 B( 14-C , 17-C ) :   0.9559 B( 14-C , 18-H ) :   0.9197
B( 14-C , 19-H ) :   0.7353 B( 14-C , 21-H ) :  -0.1030 B( 17-C , 20-H ) :   0.9822
B( 17-C , 21-H ) :   1.0261 B( 17-C , 22-H ) :   0.9533

MP2 TOTAL ENERGY:    -1219.241881125 Eh
FINAL SINGLE POINT ENERGY     -1219.241881124618

DIPOLE MOMENT
-------------
                                X             Y             Z
Electronic contribution:     16.33283      -9.64911      -1.81541
Nuclear contribution   :    -16.17948       9.53875       1.65695
                        -----------------------------------------
Total Dipole Moment    :      0.15335      -0.11036      -0.15846
                        -----------------------------------------
Magnitude (a.u.)       :      0.24659
Magnitude (Debye)      :      0.62678

Rotational constants in cm-1:     0.040906     0.017164     0.014000
Rotational constants in MHz :  1226.345059   514.571248   419.704170

                             ****ORCA TERMINATED NORMALLY****
TOTAL RUN TIME: 0 days 6 hours 43 minutes 39 seconds 69 msec
