                         Program Version 5.0.4 -  RELEASE  -
|  1> ! ri-mp2 aug-cc-pvdz aug-cc-pvdz/c tightscf
|  2> %pal nprocs 16 end
|  3> %maxcore 3800
|  4> %base "DZ_Si-S_7_AB"
|  5> %scf
|  6> STABPerform true
|  7> STABRestartUHFifUnstable true
|  8> end
|  9>
| 10> *xyz 0 1
| 11> Si         0.271911   -0.382181   -0.009461
| 12> C        -1.429246   -0.440237   -0.786204
| 13> C        -2.528808    0.295783   -0.021447
| 14> H        -1.694386   -1.496662   -0.898036
| 15> H        -1.349757   -0.046946   -1.803499
| 16> H        -2.296989    1.355507    0.089195
| 17> H        -2.660003   -0.113506    0.981162
| 18> S         0.819743    1.706021   -0.027009
| 19> H         1.992559    1.538504    0.598852
| 20> C         1.484515   -1.373667   -1.023043
| 21> H         2.493637   -1.300208   -0.615170
| 22> H         1.514758   -1.018354   -2.053221
| 23> H         1.205614   -2.429647   -1.033711
| 24> C         0.245622   -1.015411    1.746231
| 25> H        -0.072748   -2.059942    1.773526
| 26> H        -0.435779   -0.434197    2.367030
| 27> H         1.237105   -0.959306    2.198029
| 28> H        -3.489161    0.220151   -0.532786
| 29> *
| 30>
| 31> $new_job
| 32> ! ri-mp2 aug-cc-pvtz aug-cc-pvtz/c tightscf
| 33> %pal nprocs 16 end
| 34> %maxcore 3800
| 35> %base "TZ_Si-S_7_AB"
| 36>
| 37> *xyz 0 1
| 38> Si         0.271911   -0.382181   -0.009461
| 39> C        -1.429246   -0.440237   -0.786204
| 40> C        -2.528808    0.295783   -0.021447
| 41> H        -1.694386   -1.496662   -0.898036
| 42> H        -1.349757   -0.046946   -1.803499
| 43> H        -2.296989    1.355507    0.089195
| 44> H        -2.660003   -0.113506    0.981162
| 45> S         0.819743    1.706021   -0.027009
| 46> H         1.992559    1.538504    0.598852
| 47> C         1.484515   -1.373667   -1.023043
| 48> H         2.493637   -1.300208   -0.615170
| 49> H         1.514758   -1.018354   -2.053221
| 50> H         1.205614   -2.429647   -1.033711
| 51> C         0.245622   -1.015411    1.746231
| 52> H        -0.072748   -2.059942    1.773526
| 53> H        -0.435779   -0.434197    2.367030
| 54> H         1.237105   -0.959306    2.198029
| 55> H        -3.489161    0.220151   -0.532786
| 56> *
| 57>
| 58> $new_job
| 59> ! ri-mp2 aug-cc-pvqz aug-cc-pvqz/c tightscf
| 60> %pal nprocs 16 end
| 61> %maxcore 3800
| 62> %base "QZ_Si-S_7_AB"
| 63>
| 64> *xyz 0 1
| 65> Si         0.271911   -0.382181   -0.009461
| 66> C        -1.429246   -0.440237   -0.786204
| 67> C        -2.528808    0.295783   -0.021447
| 68> H        -1.694386   -1.496662   -0.898036
| 69> H        -1.349757   -0.046946   -1.803499
| 70> H        -2.296989    1.355507    0.089195
| 71> H        -2.660003   -0.113506    0.981162
| 72> S         0.819743    1.706021   -0.027009
| 73> H         1.992559    1.538504    0.598852
| 74> C         1.484515   -1.373667   -1.023043
| 75> H         2.493637   -1.300208   -0.615170
| 76> H         1.514758   -1.018354   -2.053221
| 77> H         1.205614   -2.429647   -1.033711
| 78> C         0.245622   -1.015411    1.746231
| 79> H        -0.072748   -2.059942    1.773526
| 80> H        -0.435779   -0.434197    2.367030
| 81> H         1.237105   -0.959306    2.198029
| 82> H        -3.489161    0.220151   -0.532786
| 83> *
| 84>
| 85>
| 86>
| 87>
| 88>                          ****END OF INPUT****
 Total Charge           Charge          ....    0
 Multiplicity           Mult            ....    1
 Number of Electrons    NEL             ....   66
MP2 TOTAL ENERGY:     -845.865091309 Eh
FINAL SINGLE POINT ENERGY      -845.865091308731
MP2 TOTAL ENERGY:     -846.116487538 Eh
FINAL SINGLE POINT ENERGY      -846.116487537683

CARTESIAN COORDINATES (ANGSTROEM)
---------------------------------
  Si     0.271911   -0.382181   -0.009461
  C     -1.429246   -0.440237   -0.786204
  C     -2.528808    0.295783   -0.021447
  H     -1.694386   -1.496662   -0.898036
  H     -1.349757   -0.046946   -1.803499
  H     -2.296989    1.355507    0.089195
  H     -2.660003   -0.113506    0.981162
  S      0.819743    1.706021   -0.027009
  H      1.992559    1.538504    0.598852
  C      1.484515   -1.373667   -1.023043
  H      2.493637   -1.300208   -0.615170
  H      1.514758   -1.018354   -2.053221
  H      1.205614   -2.429647   -1.033711
  C      0.245622   -1.015411    1.746231
  H     -0.072748   -2.059942    1.773526
  H     -0.435779   -0.434197    2.367030
  H      1.237105   -0.959306    2.198029
  H     -3.489161    0.220151   -0.532786

 Multiplicity           Mult            ....    1
 Number of Electrons    NEL             ....   66
 Basis Dimension        Dim             .... 1040

ORBITAL ENERGIES
----------------

  NO   OCC          E(Eh)            E(eV)
   0   2.0000     -91.930853     -2501.5657
   1   2.0000     -68.771454     -1871.3664
   2   2.0000     -11.216073      -305.2049
   3   2.0000     -11.206557      -304.9459
   4   2.0000     -11.201997      -304.8218
   5   2.0000     -11.201550      -304.8097
   6   2.0000      -8.935806      -243.1556
   7   2.0000      -6.617421      -180.0692
   8   2.0000      -6.616538      -180.0451
   9   2.0000      -6.615803      -180.0251
  10   2.0000      -6.119079      -166.5086
  11   2.0000      -4.226100      -114.9980
  12   2.0000      -4.225030      -114.9689
  13   2.0000      -4.224937      -114.9664
  14   2.0000      -1.027402       -27.9570
  15   2.0000      -0.972441       -26.4615
  16   2.0000      -0.935644       -25.4602
  17   2.0000      -0.931413       -25.3450
  18   2.0000      -0.843210       -22.9449
  19   2.0000      -0.642967       -17.4960
  20   2.0000      -0.610338       -16.6081
  21   2.0000      -0.579953       -15.7813
  22   2.0000      -0.568002       -15.4561
  23   2.0000      -0.561872       -15.2893
  24   2.0000      -0.549957       -14.9651
  25   2.0000      -0.543769       -14.7967
  26   2.0000      -0.525917       -14.3109
  27   2.0000      -0.512609       -13.9488
  28   2.0000      -0.493787       -13.4366
  29   2.0000      -0.446920       -12.1613
  30   2.0000      -0.421081       -11.4582
  31   2.0000      -0.416866       -11.3435
  32   2.0000      -0.362450        -9.8628
  33   0.0000       0.020076         0.5463
  34   0.0000       0.030815         0.8385
  35   0.0000       0.034037         0.9262
  36   0.0000       0.035973         0.9789
  37   0.0000       0.046989         1.2786

MULLIKEN ATOMIC CHARGES
-----------------------
   0 Si:    1.770193
   1 C :   -0.723566
   2 C :   -0.898232
   3 H :    0.225986
   4 H :    0.219934
   5 H :    0.230063
   6 H :    0.247316
   7 S :   -0.554198
   8 H :   -0.006520
   9 C :   -1.235958
  10 H :    0.267341
  11 H :    0.266403
  12 H :    0.265215
  13 C :   -1.229949
  14 H :    0.272340
  15 H :    0.268855
  16 H :    0.307258
  17 H :    0.307518
Sum of atomic charges:    0.0000000

LOEWDIN ATOMIC CHARGES
----------------------
   0 Si:   -0.330024
   1 C :    0.515152
   2 C :    0.855641
   3 H :   -0.326625
   4 H :   -0.334449
   5 H :   -0.308422
   6 H :   -0.298177
   7 S :    1.550013
   8 H :   -0.860583
   9 C :    0.943406
  10 H :   -0.349344
  11 H :   -0.349021
  12 H :   -0.339362
  13 C :    0.946563
  14 H :   -0.335137
  15 H :   -0.351353
  16 H :   -0.346961
  17 H :   -0.281318

  Mayer bond orders larger than 0.100000
B(  0-Si,  1-C ) :   0.7008 B(  0-Si,  7-S ) :   0.3056 B(  0-Si,  9-C ) :   0.8345
B(  0-Si, 13-C ) :   0.7960 B(  1-C ,  2-C ) :   0.9235 B(  1-C ,  3-H ) :   0.9341
B(  1-C ,  4-H ) :   0.9543 B(  2-C ,  5-H ) :   0.9553 B(  2-C ,  6-H ) :   0.9402
B(  2-C , 17-H ) :   0.9616 B(  7-S ,  8-H ) :   1.1160 B(  9-C , 10-H ) :   0.9642
B(  9-C , 11-H ) :   0.9519 B(  9-C , 12-H ) :   0.9426 B( 13-C , 14-H ) :   0.9367
B( 13-C , 15-H ) :   0.9491 B( 13-C , 16-H ) :   0.9516

MP2 TOTAL ENERGY:     -846.192791414 Eh
FINAL SINGLE POINT ENERGY      -846.192791414300

DIPOLE MOMENT
-------------
                                X             Y             Z
Electronic contribution:      3.72994       6.23943      -0.98316
Nuclear contribution   :     -3.70660      -6.98055       1.10548
                        -----------------------------------------
Total Dipole Moment    :      0.02334      -0.74111       0.12232
                        -----------------------------------------
Magnitude (a.u.)       :      0.75150
Magnitude (Debye)      :      1.91017

Rotational constants in cm-1:     0.071147     0.060211     0.047699
Rotational constants in MHz :  2132.944079  1805.091782  1429.970630

                             ****ORCA TERMINATED NORMALLY****
TOTAL RUN TIME: 0 days 2 hours 31 minutes 52 seconds 75 msec
