                         Program Version 5.0.4 -  RELEASE  -
|  1> ! ri-mp2 aug-cc-pvdz aug-cc-pvdz/c tightscf
|  2> %pal nprocs 16 end
|  3> %maxcore 3800
|  4> %base "DZ_P-Si_11_AB"
|  5> %scf
|  6> STABPerform true
|  7> STABRestartUHFifUnstable true
|  8> end
|  9>
| 10> *xyz 0 1
| 11> P         0.526997    0.067767   -0.596882
| 12> N         1.011250    1.413366    0.332013
| 13> Si        -1.612242   -0.033241    0.089826
| 14> C         1.184763   -1.404007    0.309304
| 15> H         2.267337   -1.442600    0.186779
| 16> H         0.766374   -2.311824   -0.128778
| 17> H         0.953240   -1.393187    1.375644
| 18> H         1.817647    1.917459    0.003672
| 19> H         0.958073    1.388961    1.339160
| 20> H        -2.383148    1.079191   -0.503227
| 21> H        -1.689441    0.063777    1.570274
| 22> H        -2.210984   -1.322438   -0.327767
| 23> *
| 24>
| 25> $new_job
| 26> ! ri-mp2 aug-cc-pvtz aug-cc-pvtz/c tightscf
| 27> %pal nprocs 16 end
| 28> %maxcore 3800
| 29> %base "TZ_P-Si_11_AB"
| 30>
| 31> *xyz 0 1
| 32> P         0.526997    0.067767   -0.596882
| 33> N         1.011250    1.413366    0.332013
| 34> Si        -1.612242   -0.033241    0.089826
| 35> C         1.184763   -1.404007    0.309304
| 36> H         2.267337   -1.442600    0.186779
| 37> H         0.766374   -2.311824   -0.128778
| 38> H         0.953240   -1.393187    1.375644
| 39> H         1.817647    1.917459    0.003672
| 40> H         0.958073    1.388961    1.339160
| 41> H        -2.383148    1.079191   -0.503227
| 42> H        -1.689441    0.063777    1.570274
| 43> H        -2.210984   -1.322438   -0.327767
| 44> *
| 45>
| 46> $new_job
| 47> ! ri-mp2 aug-cc-pvqz aug-cc-pvqz/c tightscf
| 48> %pal nprocs 16 end
| 49> %maxcore 3800
| 50> %base "QZ_P-Si_11_AB"
| 51>
| 52> *xyz 0 1
| 53> P         0.526997    0.067767   -0.596882
| 54> N         1.011250    1.413366    0.332013
| 55> Si        -1.612242   -0.033241    0.089826
| 56> C         1.184763   -1.404007    0.309304
| 57> H         2.267337   -1.442600    0.186779
| 58> H         0.766374   -2.311824   -0.128778
| 59> H         0.953240   -1.393187    1.375644
| 60> H         1.817647    1.917459    0.003672
| 61> H         0.958073    1.388961    1.339160
| 62> H        -2.383148    1.079191   -0.503227
| 63> H        -1.689441    0.063777    1.570274
| 64> H        -2.210984   -1.322438   -0.327767
| 65> *
| 66>
| 67>
| 68>
| 69>
| 70>                          ****END OF INPUT****
 Total Charge           Charge          ....    0
 Multiplicity           Mult            ....    1
 Number of Electrons    NEL             ....   50
MP2 TOTAL ENERGY:     -727.233648467 Eh
FINAL SINGLE POINT ENERGY      -727.233648467015
MP2 TOTAL ENERGY:     -727.411291501 Eh
FINAL SINGLE POINT ENERGY      -727.411291500969

CARTESIAN COORDINATES (ANGSTROEM)
---------------------------------
  P      0.526997    0.067767   -0.596882
  N      1.011250    1.413366    0.332013
  Si    -1.612242   -0.033241    0.089826
  C      1.184763   -1.404007    0.309304
  H      2.267337   -1.442600    0.186779
  H      0.766374   -2.311824   -0.128778
  H      0.953240   -1.393187    1.375644
  H      1.817647    1.917459    0.003672
  H      0.958073    1.388961    1.339160
  H     -2.383148    1.079191   -0.503227
  H     -1.689441    0.063777    1.570274
  H     -2.210984   -1.322438   -0.327767

 Multiplicity           Mult            ....    1
 Number of Electrons    NEL             ....   50
 Basis Dimension        Dim             ....  696

ORBITAL ENERGIES
----------------

  NO   OCC          E(Eh)            E(eV)
   0   2.0000     -79.943458     -2175.3721
   1   2.0000     -68.766446     -1871.2301
   2   2.0000     -15.550068      -423.1389
   3   2.0000     -11.223332      -305.4024
   4   2.0000      -7.482842      -203.6185
   5   2.0000      -6.116731      -166.4447
   6   2.0000      -5.377215      -146.3215
   7   2.0000      -5.376720      -146.3080
   8   2.0000      -5.376163      -146.2928
   9   2.0000      -4.222811      -114.9085
  10   2.0000      -4.222666      -114.9046
  11   2.0000      -4.222627      -114.9035
  12   2.0000      -1.161064       -31.5942
  13   2.0000      -0.971203       -26.4278
  14   2.0000      -0.788441       -21.4546
  15   2.0000      -0.697600       -18.9827
  16   2.0000      -0.667640       -18.1674
  17   2.0000      -0.581490       -15.8232
  18   2.0000      -0.572180       -15.5698
  19   2.0000      -0.549079       -14.9412
  20   2.0000      -0.487832       -13.2746
  21   2.0000      -0.481342       -13.0980
  22   2.0000      -0.463412       -12.6101
  23   2.0000      -0.384595       -10.4654
  24   2.0000      -0.333259        -9.0684
  25   0.0000       0.022930         0.6240
  26   0.0000       0.032004         0.8709
  27   0.0000       0.035353         0.9620
  28   0.0000       0.038407         1.0451
  29   0.0000       0.048600         1.3225

MULLIKEN ATOMIC CHARGES
-----------------------
   0 P :    0.585021
   1 N :   -0.927942
   2 Si:    0.554671
   3 C :   -1.126853
   4 H :    0.361659
   5 H :    0.307273
   6 H :    0.292371
   7 H :    0.227493
   8 H :    0.278380
   9 H :   -0.196554
  10 H :   -0.165671
  11 H :   -0.189848
Sum of atomic charges:    0.0000000

LOEWDIN ATOMIC CHARGES
----------------------
   0 P :    0.678861
   1 N :    0.967348
   2 Si:    0.879413
   3 C :    0.698365
   4 H :   -0.370455
   5 H :   -0.377791
   6 H :   -0.365650
   7 H :   -0.610060
   8 H :   -0.599743
   9 H :   -0.309559
  10 H :   -0.286669
  11 H :   -0.304062

  Mayer bond orders larger than 0.100000
B(  0-P ,  1-N ) :   0.7166 B(  0-P ,  2-Si) :   0.8191 B(  0-P ,  3-C ) :   0.8301
B(  1-N ,  7-H ) :   1.0153 B(  1-N ,  8-H ) :   0.9332 B(  2-Si,  9-H ) :   0.7419
B(  2-Si, 10-H ) :   0.7555 B(  2-Si, 11-H ) :   0.7691 B(  3-C ,  4-H ) :   0.8670
B(  3-C ,  5-H ) :   0.9168 B(  3-C ,  6-H ) :   0.9081

MP2 TOTAL ENERGY:     -727.466822355 Eh
FINAL SINGLE POINT ENERGY      -727.466822354967

DIPOLE MOMENT
-------------
                                X             Y             Z
Electronic contribution:      0.37498       1.97552      -3.53454
Nuclear contribution   :      0.08167      -2.09185       4.11407
                        -----------------------------------------
Total Dipole Moment    :      0.45665      -0.11634       0.57953
                        -----------------------------------------
Magnitude (a.u.)       :      0.74695
Magnitude (Debye)      :      1.89858

Rotational constants in cm-1:     0.187032     0.106907     0.081384
Rotational constants in MHz :  5607.067020  3204.986438  2439.841258

                             ****ORCA TERMINATED NORMALLY****
TOTAL RUN TIME: 0 days 0 hours 32 minutes 24 seconds 979 msec
