                         Program Version 5.0.4 -  RELEASE  -
|  1> ! ri-mp2 aug-cc-pvdz aug-cc-pvdz/c tightscf
|  2> %pal nprocs 16 end
|  3> %maxcore 3800
|  4> %base "DZ_P-N_25_B"
|  5> %scf
|  6> STABPerform true
|  7> STABRestartUHFifUnstable true
|  8> end
|  9>
| 10> *xyz 0 2
| 11> N         0.000000    0.000000    0.597779
| 12> F         0.000000    1.051875   -0.232470
| 13> F         0.000000   -1.051875   -0.232470
| 14> *
| 15>
| 16> $new_job
| 17> ! ri-mp2 aug-cc-pvtz aug-cc-pvtz/c tightscf
| 18> %pal nprocs 16 end
| 19> %maxcore 3800
| 20> %base "TZ_P-N_25_B"
| 21>
| 22> *xyz 0 2
| 23> N         0.000000    0.000000    0.597779
| 24> F         0.000000    1.051875   -0.232470
| 25> F         0.000000   -1.051875   -0.232470
| 26> *
| 27>
| 28> $new_job
| 29> ! ri-mp2 aug-cc-pvqz aug-cc-pvqz/c tightscf
| 30> %pal nprocs 16 end
| 31> %maxcore 3800
| 32> %base "QZ_P-N_25_B"
| 33>
| 34> *xyz 0 2
| 35> N         0.000000    0.000000    0.597779
| 36> F         0.000000    1.051875   -0.232470
| 37> F         0.000000   -1.051875   -0.232470
| 38> *
| 39>
| 40>
| 41>
| 42>
| 43>                          ****END OF INPUT****
 Total Charge           Charge          ....    0
 Multiplicity           Mult            ....    2
 Number of Electrons    NEL             ....   25
MP2 TOTAL ENERGY:     -253.752939560 Eh
FINAL SINGLE POINT ENERGY      -253.752939560381
MP2 TOTAL ENERGY:     -253.957441410 Eh
FINAL SINGLE POINT ENERGY      -253.957441409679

CARTESIAN COORDINATES (ANGSTROEM)
---------------------------------
  N      0.000000    0.000000    0.597779
  F      0.000000    1.051875   -0.232470
  F      0.000000   -1.051875   -0.232470

 Multiplicity           Mult            ....    2
 Number of Electrons    NEL             ....   25
 Basis Dimension        Dim             ....  240

ORBITAL ENERGIES
----------------
                 SPIN UP ORBITALS
  NO   OCC          E(Eh)            E(eV)
   0   1.0000     -26.380006      -717.8365
   1   1.0000     -26.379984      -717.8359
   2   1.0000     -15.825438      -430.6321
   3   1.0000      -1.764093       -48.0034
   4   1.0000      -1.654905       -45.0323
   5   1.0000      -1.130089       -30.7513
   6   1.0000      -0.851310       -23.1653
   7   1.0000      -0.817493       -22.2451
   8   1.0000      -0.808204       -21.9923
   9   1.0000      -0.732998       -19.9459
  10   1.0000      -0.675754       -18.3882
  11   1.0000      -0.608340       -16.5538
  12   1.0000      -0.542382       -14.7590
  13   0.0000       0.076843         2.0910
  14   0.0000       0.083497         2.2721
  15   0.0000       0.094712         2.5773
  16   0.0000       0.100311         2.7296
  17   0.0000       0.171492         4.6665

                 SPIN DOWN ORBITALS
  NO   OCC          E(Eh)            E(eV)
   0   1.0000     -26.376137      -717.7312
   1   1.0000     -26.376108      -717.7304
   2   1.0000     -15.787194      -429.5914
   3   1.0000      -1.739131       -47.3242
   4   1.0000      -1.645613       -44.7794
   5   1.0000      -1.040589       -28.3159
   6   1.0000      -0.812243       -22.1023
   7   1.0000      -0.798734       -21.7347
   8   1.0000      -0.748082       -20.3563
   9   1.0000      -0.682325       -18.5670
  10   1.0000      -0.676467       -18.4076
  11   1.0000      -0.576557       -15.6889
  12   0.0000       0.073047         1.9877
  13   0.0000       0.077360         2.1051
  14   0.0000       0.083999         2.2857
  15   0.0000       0.096930         2.6376
  16   0.0000       0.136126         3.7042

MULLIKEN ATOMIC CHARGES AND SPIN POPULATIONS
--------------------------------------------
   0 N :    0.586513    0.990729
   1 F :   -0.293257    0.004635
   2 F :   -0.293257    0.004635
Sum of atomic charges         :    0.0000000

LOEWDIN ATOMIC CHARGES AND SPIN POPULATIONS
-------------------------------------------
   0 N :   -0.631502    0.734449
   1 F :    0.315751    0.132776
   2 F :    0.315751    0.132776

  Mayer bond orders larger than 0.100000
B(  0-N ,  1-F ) :   0.9123 B(  0-N ,  2-F ) :   0.9123

MP2 TOTAL ENERGY:     -254.025850543 Eh
FINAL SINGLE POINT ENERGY      -254.025850543353

DIPOLE MOMENT
-------------
                                X             Y             Z
Electronic contribution:      0.00000       0.00000      -0.27004
Nuclear contribution   :      0.00000       0.00000       0.41774
                        -----------------------------------------
Total Dipole Moment    :      0.00000       0.00000       0.14770
                        -----------------------------------------
Magnitude (a.u.)       :      0.14770
Magnitude (Debye)      :      0.37542

Rotational constants in cm-1:     2.389602     0.400987     0.343368
Rotational constants in MHz : 71638.465110 12021.300634 10293.927055

                             ****ORCA TERMINATED NORMALLY****
TOTAL RUN TIME: 0 days 0 hours 4 minutes 4 seconds 406 msec
