                         Program Version 5.0.4 -  RELEASE  -
|  1> ! ri-mp2 aug-cc-pvdz aug-cc-pvdz/c tightscf
|  2> %pal nprocs 16 end
|  3> %maxcore 3800
|  4> %base "DZ_Si-F_22_AB"
|  5> %scf
|  6> STABPerform true
|  7> STABRestartUHFifUnstable true
|  8> end
|  9>
| 10> *xyz 0 1
| 11> Si         0.076651    0.321344    0.000007
| 12> F        -1.345325   -0.352588   -0.000009
| 13> O         1.399839   -0.386190   -0.000007
| 14> H        -0.163898    1.764002    0.000034
| 15> *
| 16>
| 17> $new_job
| 18> ! ri-mp2 aug-cc-pvtz aug-cc-pvtz/c tightscf
| 19> %pal nprocs 16 end
| 20> %maxcore 3800
| 21> %base "TZ_Si-F_22_AB"
| 22>
| 23> *xyz 0 1
| 24> Si         0.076651    0.321344    0.000007
| 25> F        -1.345325   -0.352588   -0.000009
| 26> O         1.399839   -0.386190   -0.000007
| 27> H        -0.163898    1.764002    0.000034
| 28> *
| 29>
| 30> $new_job
| 31> ! ri-mp2 aug-cc-pvqz aug-cc-pvqz/c tightscf
| 32> %pal nprocs 16 end
| 33> %maxcore 3800
| 34> %base "QZ_Si-F_22_AB"
| 35>
| 36> *xyz 0 1
| 37> Si         0.076651    0.321344    0.000007
| 38> F        -1.345325   -0.352588   -0.000009
| 39> O         1.399839   -0.386190   -0.000007
| 40> H        -0.163898    1.764002    0.000034
| 41> *
| 42>
| 43>
| 44>
| 45>
| 46>                          ****END OF INPUT****
 Total Charge           Charge          ....    0
 Multiplicity           Mult            ....    1
 Number of Electrons    NEL             ....   32
MP2 TOTAL ENERGY:     -464.382440823 Eh
FINAL SINGLE POINT ENERGY      -464.382440823161
MP2 TOTAL ENERGY:     -464.577878627 Eh
FINAL SINGLE POINT ENERGY      -464.577878627386

CARTESIAN COORDINATES (ANGSTROEM)
---------------------------------
  Si     0.076651    0.321344    0.000007
  F     -1.345325   -0.352588   -0.000009
  O      1.399839   -0.386190   -0.000007
  H     -0.163898    1.764002    0.000034

 Multiplicity           Mult            ....    1
 Number of Electrons    NEL             ....   32
 Basis Dimension        Dim             ....  290

ORBITAL ENERGIES
----------------

  NO   OCC          E(Eh)            E(eV)
   0   2.0000     -68.859479     -1873.7617
   1   2.0000     -26.339886      -716.7447
   2   2.0000     -20.522667      -558.4502
   3   2.0000      -6.204709      -168.8387
   4   2.0000      -4.314086      -117.3923
   5   2.0000      -4.310576      -117.2967
   6   2.0000      -4.309077      -117.2560
   7   2.0000      -1.643530       -44.7227
   8   2.0000      -1.264824       -34.4176
   9   2.0000      -0.803108       -21.8537
  10   2.0000      -0.723383       -19.6843
  11   2.0000      -0.714371       -19.4390
  12   2.0000      -0.632761       -17.2183
  13   2.0000      -0.537713       -14.6319
  14   2.0000      -0.476170       -12.9572
  15   2.0000      -0.475626       -12.9424
  16   0.0000       0.024181         0.6580
  17   0.0000       0.025784         0.7016
  18   0.0000       0.038492         1.0474
  19   0.0000       0.043122         1.1734
  20   0.0000       0.068000         1.8504

MULLIKEN ATOMIC CHARGES
-----------------------
   0 Si:    1.854398
   1 F :   -0.649802
   2 O :   -1.030329
   3 H :   -0.174267
Sum of atomic charges:   -0.0000000

LOEWDIN ATOMIC CHARGES
----------------------
   0 Si:   -0.143224
   1 F :    0.366719
   2 O :    0.077520
   3 H :   -0.301015

  Mayer bond orders larger than 0.100000
B(  0-Si,  1-F ) :   0.5189 B(  0-Si,  2-O ) :   1.5823 B(  0-Si,  3-H ) :   0.9377

MP2 TOTAL ENERGY:     -464.642538061 Eh
FINAL SINGLE POINT ENERGY      -464.642538061224

DIPOLE MOMENT
-------------
                                X             Y             Z
Electronic contribution:     -2.15261      -0.87873      -0.00002
Nuclear contribution   :      1.10850       1.95663       0.00004
                        -----------------------------------------
Total Dipole Moment    :     -1.04411       1.07790       0.00002
                        -----------------------------------------
Magnitude (a.u.)       :      1.50068
Magnitude (Debye)      :      3.81442

Rotational constants in cm-1:     1.574285     0.255747     0.220006
Rotational constants in MHz : 47195.872356  7667.095950  6595.619832

                             ****ORCA TERMINATED NORMALLY****
TOTAL RUN TIME: 0 days 0 hours 2 minutes 2 seconds 419 msec
