                         Program Version 5.0.4 -  RELEASE  -
|  1> ! ri-mp2 aug-cc-pvdz aug-cc-pvdz/c tightscf
|  2> %pal nprocs 16 end
|  3> %maxcore 3800
|  4> %base "DZ_B-B_68_AB"
|  5> %scf
|  6> STABPerform true
|  7> STABRestartUHFifUnstable true
|  8> end
|  9>
| 10> *xyz 0 1
| 11> B        -2.248449   -1.227554   -0.338083
| 12> B        -1.193074   -0.477931    0.627138
| 13> B         0.039146    0.554851    0.116177
| 14> O         1.305735    0.156077   -0.145328
| 15> C        -0.279421    2.080824   -0.091230
| 16> H        -1.058533    2.461347    0.571062
| 17> H        -0.646430    2.222480   -1.113356
| 18> H         0.614264    2.696222    0.023008
| 19> C         1.732031   -1.185779   -0.026683
| 20> H         2.385428   -1.284242    0.840519
| 21> H         2.291568   -1.456339   -0.921313
| 22> H         0.888097   -1.872269    0.081332
| 23> H        -1.317071   -0.594212    1.815924
| 24> H        -3.245461   -0.695473   -0.726796
| 25> H        -2.061512   -2.343235   -0.726441
| 26> *
| 27>
| 28> $new_job
| 29> ! ri-mp2 aug-cc-pvtz aug-cc-pvtz/c tightscf
| 30> %pal nprocs 16 end
| 31> %maxcore 3800
| 32> %base "TZ_B-B_68_AB"
| 33>
| 34> *xyz 0 1
| 35> B        -2.248449   -1.227554   -0.338083
| 36> B        -1.193074   -0.477931    0.627138
| 37> B         0.039146    0.554851    0.116177
| 38> O         1.305735    0.156077   -0.145328
| 39> C        -0.279421    2.080824   -0.091230
| 40> H        -1.058533    2.461347    0.571062
| 41> H        -0.646430    2.222480   -1.113356
| 42> H         0.614264    2.696222    0.023008
| 43> C         1.732031   -1.185779   -0.026683
| 44> H         2.385428   -1.284242    0.840519
| 45> H         2.291568   -1.456339   -0.921313
| 46> H         0.888097   -1.872269    0.081332
| 47> H        -1.317071   -0.594212    1.815924
| 48> H        -3.245461   -0.695473   -0.726796
| 49> H        -2.061512   -2.343235   -0.726441
| 50> *
| 51>
| 52> $new_job
| 53> ! ri-mp2 aug-cc-pvqz aug-cc-pvqz/c tightscf
| 54> %pal nprocs 16 end
| 55> %maxcore 3800
| 56> %base "QZ_B-B_68_AB"
| 57>
| 58> *xyz 0 1
| 59> B        -2.248449   -1.227554   -0.338083
| 60> B        -1.193074   -0.477931    0.627138
| 61> B         0.039146    0.554851    0.116177
| 62> O         1.305735    0.156077   -0.145328
| 63> C        -0.279421    2.080824   -0.091230
| 64> H        -1.058533    2.461347    0.571062
| 65> H        -0.646430    2.222480   -1.113356
| 66> H         0.614264    2.696222    0.023008
| 67> C         1.732031   -1.185779   -0.026683
| 68> H         2.385428   -1.284242    0.840519
| 69> H         2.291568   -1.456339   -0.921313
| 70> H         0.888097   -1.872269    0.081332
| 71> H        -1.317071   -0.594212    1.815924
| 72> H        -3.245461   -0.695473   -0.726796
| 73> H        -2.061512   -2.343235   -0.726441
| 74> *
| 75>
| 76>
| 77>
| 78>
| 79>                          ****END OF INPUT****
 Total Charge           Charge          ....    0
 Multiplicity           Mult            ....    1
 Number of Electrons    NEL             ....   44
MP2 TOTAL ENERGY:     -230.642985016 Eh
FINAL SINGLE POINT ENERGY      -230.642985016150
MP2 TOTAL ENERGY:     -230.857722588 Eh
FINAL SINGLE POINT ENERGY      -230.857722587653

CARTESIAN COORDINATES (ANGSTROEM)
---------------------------------
  B     -2.248449   -1.227554   -0.338083
  B     -1.193074   -0.477931    0.627138
  B      0.039146    0.554851    0.116177
  O      1.305735    0.156077   -0.145328
  C     -0.279421    2.080824   -0.091230
  H     -1.058533    2.461347    0.571062
  H     -0.646430    2.222480   -1.113356
  H      0.614264    2.696222    0.023008
  C      1.732031   -1.185779   -0.026683
  H      2.385428   -1.284242    0.840519
  H      2.291568   -1.456339   -0.921313
  H      0.888097   -1.872269    0.081332
  H     -1.317071   -0.594212    1.815924
  H     -3.245461   -0.695473   -0.726796
  H     -2.061512   -2.343235   -0.726441

 Multiplicity           Mult            ....    1
 Number of Electrons    NEL             ....   44
 Basis Dimension        Dim             ....  894

ORBITAL ENERGIES
----------------

  NO   OCC          E(Eh)            E(eV)
   0   2.0000     -20.561329      -559.5022
   1   2.0000     -11.281403      -306.9826
   2   2.0000     -11.185226      -304.3655
   3   2.0000      -7.593493      -206.6294
   4   2.0000      -7.582970      -206.3431
   5   2.0000      -7.563206      -205.8053
   6   2.0000      -1.372668       -37.3522
   7   2.0000      -0.961447       -26.1623
   8   2.0000      -0.923820       -25.1384
   9   2.0000      -0.753831       -20.5128
  10   2.0000      -0.703076       -19.1317
  11   2.0000      -0.644065       -17.5259
  12   2.0000      -0.638011       -17.3612
  13   2.0000      -0.615510       -16.7489
  14   2.0000      -0.550498       -14.9798
  15   2.0000      -0.540760       -14.7148
  16   2.0000      -0.513415       -13.9707
  17   2.0000      -0.505127       -13.7452
  18   2.0000      -0.489119       -13.3096
  19   2.0000      -0.471685       -12.8352
  20   2.0000      -0.442285       -12.0352
  21   2.0000      -0.387315       -10.5394
  22   0.0000       0.022049         0.6000
  23   0.0000       0.028883         0.7859
  24   0.0000       0.029358         0.7989
  25   0.0000       0.030314         0.8249
  26   0.0000       0.043043         1.1712

MULLIKEN ATOMIC CHARGES
-----------------------
   0 B :    0.256137
   1 B :    0.504199
   2 B :    0.960931
   3 O :   -1.187123
   4 C :   -1.056266
   5 H :    0.292660
   6 H :    0.280812
   7 H :    0.361128
   8 C :   -0.768942
   9 H :    0.386298
  10 H :    0.415280
  11 H :    0.277194
  12 H :   -0.286504
  13 H :   -0.228297
  14 H :   -0.207508
Sum of atomic charges:    0.0000000

LOEWDIN ATOMIC CHARGES
----------------------
   0 B :    0.483205
   1 B :    0.124760
   2 B :   -0.813566
   3 O :    0.970827
   4 C :    1.029559
   5 H :   -0.304755
   6 H :   -0.297530
   7 H :   -0.307732
   8 C :    0.602174
   9 H :   -0.290918
  10 H :   -0.296937
  11 H :   -0.332970
  12 H :   -0.167546
  13 H :   -0.199272
  14 H :   -0.199300

  Mayer bond orders larger than 0.100000
B(  0-B ,  1-B ) :   0.9897 B(  0-B , 13-H ) :   0.9508 B(  0-B , 14-H ) :   0.9661
B(  1-B ,  2-B ) :   0.8818 B(  1-B , 12-H ) :   0.8815 B(  2-B ,  3-O ) :   0.3854
B(  2-B ,  4-C ) :   0.9035 B(  3-O ,  8-C ) :   0.9143 B(  4-C ,  5-H ) :   0.9382
B(  4-C ,  6-H ) :   0.9027 B(  4-C ,  7-H ) :   0.8611 B(  8-C ,  9-H ) :   0.8404
B(  8-C , 10-H ) :   0.8347 B(  8-C , 11-H ) :   0.8941

MP2 TOTAL ENERGY:     -230.923433319 Eh
FINAL SINGLE POINT ENERGY      -230.923433318677

DIPOLE MOMENT
-------------
                                X             Y             Z
Electronic contribution:     -0.49372      -0.45466       0.58715
Nuclear contribution   :      0.62093       0.06480      -0.49150
                        -----------------------------------------
Total Dipole Moment    :      0.12722      -0.38987       0.09565
                        -----------------------------------------
Magnitude (a.u.)       :      0.42111
Magnitude (Debye)      :      1.07036

Rotational constants in cm-1:     0.123552     0.094189     0.058490
Rotational constants in MHz :  3704.003618  2823.719815  1753.495160

                             ****ORCA TERMINATED NORMALLY****
TOTAL RUN TIME: 0 days 1 hours 35 minutes 1 seconds 48 msec
