                         Program Version 5.0.4 -  RELEASE  -
|  1> ! ri-mp2 aug-cc-pvdz aug-cc-pvdz/c tightscf
|  2> %pal nprocs 16 end
|  3> %maxcore 3800
|  4> %base "DZ_Si-Si_143_AB"
|  5> %scf
|  6> STABPerform true
|  7> STABRestartUHFifUnstable true
|  8> end
|  9>
| 10> *xyz 0 1
| 11> Si        -1.179633    1.753439    0.028228
| 12> Si         1.179624    1.753438   -0.028224
| 13> P         1.792728   -0.416770    0.057469
| 14> H         1.730590    2.425299    1.165034
| 15> H         1.688446    2.385381   -1.261189
| 16> O         1.448333   -1.091189   -1.317338
| 17> O         3.377511   -0.410304    0.090917
| 18> H         0.458695   -1.222134   -1.414963
| 19> H         3.775187   -1.270631    0.278826
| 20> O         1.162181   -1.075314    1.230170
| 21> P        -1.792727   -0.416771   -0.057472
| 22> H        -1.730598    2.425303   -1.165028
| 23> H        -1.688454    2.385378    1.261195
| 24> O        -1.448327   -1.091196    1.317331
| 25> H        -0.458689   -1.222146    1.414953
| 26> O        -3.377510   -0.410314   -0.090915
| 27> H        -3.775186   -1.270655   -0.278757
| 28> O        -1.162175   -1.075304   -1.230176
| 29> *
| 30>
| 31> $new_job
| 32> ! ri-mp2 aug-cc-pvtz aug-cc-pvtz/c tightscf
| 33> %pal nprocs 16 end
| 34> %maxcore 3800
| 35> %base "TZ_Si-Si_143_AB"
| 36>
| 37> *xyz 0 1
| 38> Si        -1.179633    1.753439    0.028228
| 39> Si         1.179624    1.753438   -0.028224
| 40> P         1.792728   -0.416770    0.057469
| 41> H         1.730590    2.425299    1.165034
| 42> H         1.688446    2.385381   -1.261189
| 43> O         1.448333   -1.091189   -1.317338
| 44> O         3.377511   -0.410304    0.090917
| 45> H         0.458695   -1.222134   -1.414963
| 46> H         3.775187   -1.270631    0.278826
| 47> O         1.162181   -1.075314    1.230170
| 48> P        -1.792727   -0.416771   -0.057472
| 49> H        -1.730598    2.425303   -1.165028
| 50> H        -1.688454    2.385378    1.261195
| 51> O        -1.448327   -1.091196    1.317331
| 52> H        -0.458689   -1.222146    1.414953
| 53> O        -3.377510   -0.410314   -0.090915
| 54> H        -3.775186   -1.270655   -0.278757
| 55> O        -1.162175   -1.075304   -1.230176
| 56> *
| 57>
| 58> $new_job
| 59> ! ri-mp2 aug-cc-pvqz aug-cc-pvqz/c tightscf
| 60> %pal nprocs 16 end
| 61> %maxcore 3800
| 62> %base "QZ_Si-Si_143_AB"
| 63>
| 64> *xyz 0 1
| 65> Si        -1.179633    1.753439    0.028228
| 66> Si         1.179624    1.753438   -0.028224
| 67> P         1.792728   -0.416770    0.057469
| 68> H         1.730590    2.425299    1.165034
| 69> H         1.688446    2.385381   -1.261189
| 70> O         1.448333   -1.091189   -1.317338
| 71> O         3.377511   -0.410304    0.090917
| 72> H         0.458695   -1.222134   -1.414963
| 73> H         3.775187   -1.270631    0.278826
| 74> O         1.162181   -1.075314    1.230170
| 75> P        -1.792727   -0.416771   -0.057472
| 76> H        -1.730598    2.425303   -1.165028
| 77> H        -1.688454    2.385378    1.261195
| 78> O        -1.448327   -1.091196    1.317331
| 79> H        -0.458689   -1.222146    1.414953
| 80> O        -3.377510   -0.410314   -0.090915
| 81> H        -3.775186   -1.270655   -0.278757
| 82> O        -1.162175   -1.075304   -1.230176
| 83> *
| 84>
| 85>
| 86>
| 87>
| 88>                          ****END OF INPUT****
 Total Charge           Charge          ....    0
 Multiplicity           Mult            ....    1
 Number of Electrons    NEL             ....  114
MP2 TOTAL ENERGY:    -1715.072468047 Eh
FINAL SINGLE POINT ENERGY     -1715.072468047446
MP2 TOTAL ENERGY:    -1715.677409373 Eh
FINAL SINGLE POINT ENERGY     -1715.677409373078

CARTESIAN COORDINATES (ANGSTROEM)
---------------------------------
  Si    -1.179633    1.753439    0.028228
  Si     1.179624    1.753438   -0.028224
  P      1.792728   -0.416770    0.057469
  H      1.730590    2.425299    1.165034
  H      1.688446    2.385381   -1.261189
  O      1.448333   -1.091189   -1.317338
  O      3.377511   -0.410304    0.090917
  H      0.458695   -1.222134   -1.414963
  H      3.775187   -1.270631    0.278826
  O      1.162181   -1.075314    1.230170
  P     -1.792727   -0.416771   -0.057472
  H     -1.730598    2.425303   -1.165028
  H     -1.688454    2.385378    1.261195
  O     -1.448327   -1.091196    1.317331
  H     -0.458689   -1.222146    1.414953
  O     -3.377510   -0.410314   -0.090915
  H     -3.775186   -1.270655   -0.278757
  O     -1.162175   -1.075304   -1.230176

 Multiplicity           Mult            ....    1
 Number of Electrons    NEL             ....  114
 Basis Dimension        Dim             .... 1184

ORBITAL ENERGIES
----------------

  NO   OCC          E(Eh)            E(eV)
   0   2.0000     -80.072778     -2178.8911
   1   2.0000     -80.072778     -2178.8911
   2   2.0000     -68.800623     -1872.1601
   3   2.0000     -68.800622     -1872.1601
   4   2.0000     -20.608377      -560.7825
   5   2.0000     -20.608377      -560.7824
   6   2.0000     -20.577212      -559.9344
   7   2.0000     -20.577212      -559.9344
   8   2.0000     -20.523740      -558.4794
   9   2.0000     -20.523739      -558.4793
  10   2.0000      -7.595942      -206.6961
  11   2.0000      -7.595941      -206.6961
  12   2.0000      -6.151720      -167.3968
  13   2.0000      -6.151581      -167.3930
  14   2.0000      -5.494107      -149.5023
  15   2.0000      -5.494107      -149.5023
  16   2.0000      -5.493133      -149.4757
  17   2.0000      -5.493132      -149.4757
  18   2.0000      -5.492559      -149.4601
  19   2.0000      -5.492559      -149.4601
  20   2.0000      -4.257974      -115.8654
  21   2.0000      -4.257730      -115.8587
  22   2.0000      -4.257703      -115.8580
  23   2.0000      -4.257472      -115.8517
  24   2.0000      -4.257398      -115.8497
  25   2.0000      -4.257258      -115.8459
  26   2.0000      -1.441171       -39.2163
  27   2.0000      -1.436115       -39.0787
  28   2.0000      -1.381957       -37.6050
  29   2.0000      -1.376213       -37.4487
  30   2.0000      -1.318863       -35.8881
  31   2.0000      -1.308353       -35.6021
  32   2.0000      -0.876662       -23.8552
  33   2.0000      -0.854351       -23.2481
  34   2.0000      -0.785466       -21.3736
  35   2.0000      -0.751950       -20.4616
  36   2.0000      -0.747861       -20.3503
  37   2.0000      -0.711372       -19.3574
  38   2.0000      -0.690146       -18.7798
  39   2.0000      -0.668332       -18.1862
  40   2.0000      -0.650718       -17.7069
  41   2.0000      -0.633389       -17.2354
  42   2.0000      -0.613231       -16.6869
  43   2.0000      -0.593106       -16.1392
  44   2.0000      -0.585042       -15.9198
  45   2.0000      -0.573131       -15.5957
  46   2.0000      -0.569134       -15.4869
  47   2.0000      -0.564622       -15.3641
  48   2.0000      -0.532319       -14.4851
  49   2.0000      -0.513111       -13.9625
  50   2.0000      -0.507381       -13.8065
  51   2.0000      -0.494639       -13.4598
  52   2.0000      -0.484533       -13.1848
  53   2.0000      -0.476833       -12.9753
  54   2.0000      -0.456232       -12.4147
  55   2.0000      -0.426625       -11.6091
  56   2.0000      -0.420089       -11.4312
  57   0.0000       0.020893         0.5685
  58   0.0000       0.025068         0.6821
  59   0.0000       0.030667         0.8345
  60   0.0000       0.038182         1.0390
  61   0.0000       0.042667         1.1610

MULLIKEN ATOMIC CHARGES
-----------------------
   0 Si:    0.604267
   1 Si:    0.604264
   2 P :    2.341540
   3 H :   -0.232658
   4 H :   -0.212584
   5 O :   -0.988900
   6 O :   -1.099929
   7 H :    0.384637
   8 H :    0.394486
   9 O :   -1.190857
  10 P :    2.341535
  11 H :   -0.232657
  12 H :   -0.212585
  13 O :   -0.988901
  14 H :    0.384640
  15 O :   -1.099930
  16 H :    0.394487
  17 O :   -1.190855
Sum of atomic charges:    0.0000000

LOEWDIN ATOMIC CHARGES
----------------------
   0 Si:    0.736439
   1 Si:    0.736438
   2 P :   -0.629888
   3 H :   -0.289605
   4 H :   -0.287811
   5 O :    1.042719
   6 O :    1.052918
   7 H :   -1.273247
   8 H :   -0.845891
   9 O :    0.494368
  10 P :   -0.629889
  11 H :   -0.289606
  12 H :   -0.287812
  13 O :    1.042719
  14 H :   -1.273246
  15 O :    1.052918
  16 H :   -0.845891
  17 O :    0.494367

  Mayer bond orders larger than 0.100000
B(  0-Si,  1-Si) :   0.7525 B(  0-Si, 10-P ) :   0.8368 B(  0-Si, 11-H ) :   0.7475
B(  0-Si, 12-H ) :   0.7505 B(  1-Si,  2-P ) :   0.8368 B(  1-Si,  3-H ) :   0.7475
B(  1-Si,  4-H ) :   0.7505 B(  2-P ,  5-O ) :   0.7309 B(  2-P ,  6-O ) :   0.3773
B(  2-P ,  9-O ) :   1.1993 B(  5-O ,  7-H ) :   0.7864 B(  6-O ,  8-H ) :   0.8825
B(  6-O ,  9-O ) :  -0.1091 B(  7-H , 17-O ) :   0.1793 B(  9-O , 14-H ) :   0.1793
B( 10-P , 13-O ) :   0.7309 B( 10-P , 15-O ) :   0.3773 B( 10-P , 17-O ) :   1.1993
B( 13-O , 14-H ) :   0.7864 B( 15-O , 16-H ) :   0.8825 B( 15-O , 17-O ) :  -0.1091

MP2 TOTAL ENERGY:    -1715.874669538 Eh
FINAL SINGLE POINT ENERGY     -1715.874669538424

DIPOLE MOMENT
-------------
                                X             Y             Z
Electronic contribution:     -0.00000      -4.10969      -0.00003
Nuclear contribution   :     -0.00001       4.94879       0.00007
                        -----------------------------------------
Total Dipole Moment    :     -0.00001       0.83910       0.00004
                        -----------------------------------------
Magnitude (a.u.)       :      0.83910
Magnitude (Debye)      :      2.13283

Rotational constants in cm-1:     0.041315     0.018562     0.015509
Rotational constants in MHz :  1238.586738   556.487600   464.936521

                             ****ORCA TERMINATED NORMALLY****
TOTAL RUN TIME: 0 days 4 hours 42 minutes 48 seconds 253 msec
