                         Program Version 5.0.4 -  RELEASE  -
|  1> ! ri-mp2 aug-cc-pvdz aug-cc-pvdz/c tightscf
|  2> %pal nprocs 16 end
|  3> %maxcore 3800
|  4> %base "DZ_P-Si_43_AB"
|  5>
|  6> *xyz 0 1
|  7> C        -0.974635   -0.392019    0.335038
|  8> P         2.188199    0.100984   -0.740988
|  9> F         1.968061    1.578576   -0.153923
| 10> F         3.552202   -0.250806    0.022364
| 11> C        -1.391449    0.902622    0.646695
| 12> C        -1.870581   -1.236204   -0.318542
| 13> C        -2.663428    1.336504    0.319877
| 14> C        -3.541751    0.482561   -0.327284
| 15> C        -3.144428   -0.804321   -0.646777
| 16> H        -3.828233   -1.474115   -1.151191
| 17> H        -1.574136   -2.246888   -0.571315
| 18> H        -2.970932    2.343145    0.570182
| 19> H        -4.537257    0.821258   -0.582218
| 20> H        -0.714688    1.583374    1.148895
| 21> Si         0.755631   -0.946694    0.729320
| 22> H         0.886121   -2.406305    0.523821
| 23> H         1.172581   -0.566306    2.096142
| 24> *
| 25>
| 26> $new_job
| 27> ! ri-mp2 aug-cc-pvtz aug-cc-pvtz/c tightscf
| 28> %pal nprocs 16 end
| 29> %maxcore 3800
| 30> %base "TZ_P-Si_43_AB"
| 31>
| 32> *xyz 0 1
| 33> C        -0.974635   -0.392019    0.335038
| 34> P         2.188199    0.100984   -0.740988
| 35> F         1.968061    1.578576   -0.153923
| 36> F         3.552202   -0.250806    0.022364
| 37> C        -1.391449    0.902622    0.646695
| 38> C        -1.870581   -1.236204   -0.318542
| 39> C        -2.663428    1.336504    0.319877
| 40> C        -3.541751    0.482561   -0.327284
| 41> C        -3.144428   -0.804321   -0.646777
| 42> H        -3.828233   -1.474115   -1.151191
| 43> H        -1.574136   -2.246888   -0.571315
| 44> H        -2.970932    2.343145    0.570182
| 45> H        -4.537257    0.821258   -0.582218
| 46> H        -0.714688    1.583374    1.148895
| 47> Si         0.755631   -0.946694    0.729320
| 48> H         0.886121   -2.406305    0.523821
| 49> H         1.172581   -0.566306    2.096142
| 50> *
| 51>
| 52> $new_job
| 53> ! ri-mp2 aug-cc-pvqz aug-cc-pvqz/c tightscf
| 54> %pal nprocs 16 end
| 55> %maxcore 3800
| 56> %base "QZ_P-Si_43_AB"
| 57>
| 58> *xyz 0 1
| 59> C        -0.974635   -0.392019    0.335038
| 60> P         2.188199    0.100984   -0.740988
| 61> F         1.968061    1.578576   -0.153923
| 62> F         3.552202   -0.250806    0.022364
| 63> C        -1.391449    0.902622    0.646695
| 64> C        -1.870581   -1.236204   -0.318542
| 65> C        -2.663428    1.336504    0.319877
| 66> C        -3.541751    0.482561   -0.327284
| 67> C        -3.144428   -0.804321   -0.646777
| 68> H        -3.828233   -1.474115   -1.151191
| 69> H        -1.574136   -2.246888   -0.571315
| 70> H        -2.970932    2.343145    0.570182
| 71> H        -4.537257    0.821258   -0.582218
| 72> H        -0.714688    1.583374    1.148895
| 73> Si         0.755631   -0.946694    0.729320
| 74> H         0.886121   -2.406305    0.523821
| 75> H         1.172581   -0.566306    2.096142
| 76> *
| 77>
| 78>
| 79>
| 80>
| 81>                          ****END OF INPUT****
 Total Charge           Charge          ....    0
 Multiplicity           Mult            ....    1
 Number of Electrons    NEL             ....   90
MP2 TOTAL ENERGY:    -1061.366802980 Eh
FINAL SINGLE POINT ENERGY     -1061.366802980298
MP2 TOTAL ENERGY:    -1061.820898545 Eh
FINAL SINGLE POINT ENERGY     -1061.820898544580

CARTESIAN COORDINATES (ANGSTROEM)
---------------------------------
  C     -0.974635   -0.392019    0.335038
  P      2.188199    0.100984   -0.740988
  F      1.968061    1.578576   -0.153923
  F      3.552202   -0.250806    0.022364
  C     -1.391449    0.902622    0.646695
  C     -1.870581   -1.236204   -0.318542
  C     -2.663428    1.336504    0.319877
  C     -3.541751    0.482561   -0.327284
  C     -3.144428   -0.804321   -0.646777
  H     -3.828233   -1.474115   -1.151191
  H     -1.574136   -2.246888   -0.571315
  H     -2.970932    2.343145    0.570182
  H     -4.537257    0.821258   -0.582218
  H     -0.714688    1.583374    1.148895
  Si     0.755631   -0.946694    0.729320
  H      0.886121   -2.406305    0.523821
  H      1.172581   -0.566306    2.096142

 Multiplicity           Mult            ....    1
 Number of Electrons    NEL             ....   90
 Basis Dimension        Dim             .... 1130

ORBITAL ENERGIES
----------------

  NO   OCC          E(Eh)            E(eV)
   0   2.0000     -80.047466     -2178.2023
   1   2.0000     -68.784761     -1871.7285
   2   2.0000     -26.307457      -715.8623
   3   2.0000     -26.306881      -715.8466
   4   2.0000     -11.250180      -306.1330
   5   2.0000     -11.249030      -306.1017
   6   2.0000     -11.247894      -306.0708
   7   2.0000     -11.243080      -305.9397
   8   2.0000     -11.242723      -305.9300
   9   2.0000     -11.235908      -305.7446
  10   2.0000      -7.575870      -206.1499
  11   2.0000      -6.135304      -166.9501
  12   2.0000      -5.469911      -148.8438
  13   2.0000      -5.468737      -148.8119
  14   2.0000      -5.467013      -148.7650
  15   2.0000      -4.241545      -115.4183
  16   2.0000      -4.241336      -115.4126
  17   2.0000      -4.241036      -115.4045
  18   2.0000      -1.630262       -44.3617
  19   2.0000      -1.599103       -43.5138
  20   2.0000      -1.167955       -31.7817
  21   2.0000      -1.030955       -28.0537
  22   2.0000      -1.030217       -28.0336
  23   2.0000      -0.878554       -23.9067
  24   2.0000      -0.839525       -22.8446
  25   2.0000      -0.837845       -22.7989
  26   2.0000      -0.752862       -20.4864
  27   2.0000      -0.736028       -20.0283
  28   2.0000      -0.714852       -19.4521
  29   2.0000      -0.712327       -19.3834
  30   2.0000      -0.680223       -18.5098
  31   2.0000      -0.674556       -18.3556
  32   2.0000      -0.645903       -17.5759
  33   2.0000      -0.639707       -17.4073
  34   2.0000      -0.636833       -17.3291
  35   2.0000      -0.601171       -16.3587
  36   2.0000      -0.564126       -15.3506
  37   2.0000      -0.545279       -14.8378
  38   2.0000      -0.514968       -14.0130
  39   2.0000      -0.507399       -13.8070
  40   2.0000      -0.496040       -13.4979
  41   2.0000      -0.465121       -12.6566
  42   2.0000      -0.373932       -10.1752
  43   2.0000      -0.351877        -9.5751
  44   2.0000      -0.340419        -9.2633
  45   0.0000       0.020299         0.5524
  46   0.0000       0.026851         0.7307
  47   0.0000       0.029864         0.8126
  48   0.0000       0.037164         1.0113
  49   0.0000       0.040416         1.0998

MULLIKEN ATOMIC CHARGES
-----------------------
   0 C :   -0.011542
   1 P :    1.204233
   2 F :   -0.705526
   3 F :   -0.699838
   4 C :   -0.386061
   5 C :   -0.495616
   6 C :   -0.239016
   7 C :   -0.362447
   8 C :   -0.345046
   9 H :    0.258055
  10 H :    0.316157
  11 H :    0.257801
  12 H :    0.356999
  13 H :    0.347944
  14 Si:    1.091315
  15 H :   -0.344396
  16 H :   -0.243017
Sum of atomic charges:   -0.0000000

LOEWDIN ATOMIC CHARGES
----------------------
   0 C :   -0.165385
   1 P :   -0.196245
   2 F :    0.209793
   3 F :    0.196989
   4 C :    0.240657
   5 C :    0.243629
   6 C :    0.343564
   7 C :    0.339448
   8 C :    0.340653
   9 H :   -0.319166
  10 H :   -0.344223
  11 H :   -0.317953
  12 H :   -0.316941
  13 H :   -0.338379
  14 Si:    0.584572
  15 H :   -0.255651
  16 H :   -0.245359

  Mayer bond orders larger than 0.100000
B(  0-C ,  4-C ) :   1.0532 B(  0-C ,  5-C ) :   0.8684 B(  0-C ,  6-C ) :  -0.2954
B(  0-C ,  8-C ) :  -0.2993 B(  0-C , 10-H ) :  -0.1391 B(  0-C , 13-H ) :  -0.1233
B(  0-C , 14-Si) :   1.0072 B(  0-C , 15-H ) :  -0.1324 B(  1-P ,  2-F ) :   0.4863
B(  1-P ,  3-F ) :   0.4986 B(  1-P , 14-Si) :   0.8170 B(  3-F , 14-Si) :  -0.1129
B(  4-C ,  6-C ) :   1.2560 B(  4-C ,  8-C ) :   0.1314 B(  4-C , 11-H ) :  -0.1357
B(  4-C , 13-H ) :   0.8989 B(  4-C , 14-Si) :  -0.1204 B(  5-C ,  6-C ) :   0.1399
B(  5-C ,  7-C ) :   0.1263 B(  5-C ,  8-C ) :   1.3730 B(  5-C ,  9-H ) :  -0.1400
B(  5-C , 10-H ) :   0.9401 B(  5-C , 14-Si) :  -0.1618 B(  6-C ,  7-C ) :   1.1616
B(  6-C , 11-H ) :   1.0962 B(  7-C ,  8-C ) :   1.1665 B(  7-C , 12-H ) :   0.9671
B(  8-C ,  9-H ) :   1.1021 B( 14-Si, 15-H ) :   0.6471 B( 14-Si, 16-H ) :   0.7296

MP2 TOTAL ENERGY:    -1061.968638878 Eh
FINAL SINGLE POINT ENERGY     -1061.968638878055

DIPOLE MOMENT
-------------
                                X             Y             Z
Electronic contribution:     17.24690       2.80346      -2.72349
Nuclear contribution   :    -18.37089      -3.16205       2.71096
                        -----------------------------------------
Total Dipole Moment    :     -1.12399      -0.35859      -0.01253
                        -----------------------------------------
Magnitude (a.u.)       :      1.17987
Magnitude (Debye)      :      2.99899

Rotational constants in cm-1:     0.078833     0.016652     0.015120
Rotational constants in MHz :  2363.366372   499.218135   453.297436

                             ****ORCA TERMINATED NORMALLY****
TOTAL RUN TIME: 0 days 0 hours 34 minutes 3 seconds 293 msec
