                         Program Version 5.0.4 -  RELEASE  -
|  1> ! ri-mp2 aug-cc-pvdz aug-cc-pvdz/c tightscf
|  2> %pal nprocs 16 end
|  3> %maxcore 3800
|  4> %base "DZ_B-Cl_40_AB"
|  5>
|  6> *xyz 0 1
|  7> Cl        -0.915581    1.644364    0.000008
|  8> Cl        -1.857442   -1.215605   -0.000013
|  9> B        -0.554035   -0.050735   -0.000003
| 10> C         0.910939   -0.584405   -0.000003
| 11> N         1.893486    0.210969    0.000008
| 12> H         1.070990   -1.672417   -0.000010
| 13> C         3.225898   -0.332553    0.000008
| 14> H         3.756538    0.045381   -0.875246
| 15> H         3.252081   -1.428606   -0.000001
| 16> H         3.756532    0.045366    0.875273
| 17> *
| 18>
| 19> $new_job
| 20> ! ri-mp2 aug-cc-pvtz aug-cc-pvtz/c tightscf
| 21> %pal nprocs 16 end
| 22> %maxcore 3800
| 23> %base "TZ_B-Cl_40_AB"
| 24>
| 25> *xyz 0 1
| 26> Cl        -0.915581    1.644364    0.000008
| 27> Cl        -1.857442   -1.215605   -0.000013
| 28> B        -0.554035   -0.050735   -0.000003
| 29> C         0.910939   -0.584405   -0.000003
| 30> N         1.893486    0.210969    0.000008
| 31> H         1.070990   -1.672417   -0.000010
| 32> C         3.225898   -0.332553    0.000008
| 33> H         3.756538    0.045381   -0.875246
| 34> H         3.252081   -1.428606   -0.000001
| 35> H         3.756532    0.045366    0.875273
| 36> *
| 37>
| 38> $new_job
| 39> ! ri-mp2 aug-cc-pvqz aug-cc-pvqz/c tightscf
| 40> %pal nprocs 16 end
| 41> %maxcore 3800
| 42> %base "QZ_B-Cl_40_AB"
| 43>
| 44> *xyz 0 1
| 45> Cl        -0.915581    1.644364    0.000008
| 46> Cl        -1.857442   -1.215605   -0.000013
| 47> B        -0.554035   -0.050735   -0.000003
| 48> C         0.910939   -0.584405   -0.000003
| 49> N         1.893486    0.210969    0.000008
| 50> H         1.070990   -1.672417   -0.000010
| 51> C         3.225898   -0.332553    0.000008
| 52> H         3.756538    0.045381   -0.875246
| 53> H         3.252081   -1.428606   -0.000001
| 54> H         3.756532    0.045366    0.875273
| 55> *
| 56>
| 57>
| 58>
| 59>
| 60>                          ****END OF INPUT****
 Total Charge           Charge          ....    0
 Multiplicity           Mult            ....    1
 Number of Electrons    NEL             ....   62
MP2 TOTAL ENERGY:    -1077.117606334 Eh
FINAL SINGLE POINT ENERGY     -1077.117606333921
MP2 TOTAL ENERGY:    -1077.375391058 Eh
FINAL SINGLE POINT ENERGY     -1077.375391058063

CARTESIAN COORDINATES (ANGSTROEM)
---------------------------------
  Cl    -0.915581    1.644364    0.000008
  Cl    -1.857442   -1.215605   -0.000013
  B     -0.554035   -0.050735   -0.000003
  C      0.910939   -0.584405   -0.000003
  N      1.893486    0.210969    0.000008
  H      1.070990   -1.672417   -0.000010
  C      3.225898   -0.332553    0.000008
  H      3.756538    0.045381   -0.875246
  H      3.252081   -1.428606   -0.000001
  H      3.756532    0.045366    0.875273

 Multiplicity           Mult            ....    1
 Number of Electrons    NEL             ....   62
 Basis Dimension        Dim             ....  672

ORBITAL ENERGIES
----------------

  NO   OCC          E(Eh)            E(eV)
   0   2.0000    -104.845288     -2852.9853
   1   2.0000    -104.839111     -2852.8172
   2   2.0000     -15.591343      -424.2620
   3   2.0000     -11.269856      -306.6684
   4   2.0000     -11.260708      -306.4194
   5   2.0000     -10.573143      -287.7099
   6   2.0000     -10.566952      -287.5414
   7   2.0000      -8.039951      -218.7782
   8   2.0000      -8.038930      -218.7504
   9   2.0000      -8.038644      -218.7426
  10   2.0000      -8.033805      -218.6110
  11   2.0000      -8.032721      -218.5815
  12   2.0000      -8.032418      -218.5732
  13   2.0000      -7.711796      -209.8487
  14   2.0000      -1.252590       -34.0847
  15   2.0000      -1.145902       -31.1816
  16   2.0000      -1.102002       -29.9870
  17   2.0000      -0.978902       -26.6373
  18   2.0000      -0.815920       -22.2023
  19   2.0000      -0.700330       -19.0570
  20   2.0000      -0.659411       -17.9435
  21   2.0000      -0.628645       -17.1063
  22   2.0000      -0.607045       -16.5185
  23   2.0000      -0.565178       -15.3793
  24   2.0000      -0.550531       -14.9807
  25   2.0000      -0.524110       -14.2618
  26   2.0000      -0.471983       -12.8433
  27   2.0000      -0.468054       -12.7364
  28   2.0000      -0.454131       -12.3575
  29   2.0000      -0.433815       -11.8047
  30   2.0000      -0.421749       -11.4764
  31   0.0000       0.023331         0.6349
  32   0.0000       0.032828         0.8933
  33   0.0000       0.035044         0.9536
  34   0.0000       0.037823         1.0292
  35   0.0000       0.046637         1.2691

MULLIKEN ATOMIC CHARGES
-----------------------
   0 Cl:   -0.182451
   1 Cl:   -0.205947
   2 B :    0.627798
   3 C :   -0.431008
   4 N :   -0.477350
   5 H :    0.504087
   6 C :   -0.664481
   7 H :    0.281883
   8 H :    0.265586
   9 H :    0.281883
Sum of atomic charges:    0.0000000

LOEWDIN ATOMIC CHARGES
----------------------
   0 Cl:    1.272249
   1 Cl:    1.248649
   2 B :   -2.380411
   3 C :   -0.013491
   4 N :    0.547976
   5 H :   -0.397949
   6 C :    0.680599
   7 H :   -0.314404
   8 H :   -0.328817
   9 H :   -0.314403

  Mayer bond orders larger than 0.100000
B(  0-Cl,  2-B ) :   1.0947 B(  1-Cl,  2-B ) :   1.0459 B(  1-Cl,  3-C ) :   0.1541
B(  2-B ,  3-C ) :   1.0659 B(  3-C ,  4-N ) :   1.7463 B(  3-C ,  5-H ) :   0.6803
B(  4-N ,  6-C ) :   0.8955 B(  6-C ,  7-H ) :   0.9287 B(  6-C ,  8-H ) :   0.9333
B(  6-C ,  9-H ) :   0.9287

MP2 TOTAL ENERGY:    -1077.460576649 Eh
FINAL SINGLE POINT ENERGY     -1077.460576648675

DIPOLE MOMENT
-------------
                                X             Y             Z
Electronic contribution:    -14.56376       2.72212      -0.00003
Nuclear contribution   :     15.29712      -3.36928       0.00002
                        -----------------------------------------
Total Dipole Moment    :      0.73337      -0.64716      -0.00000
                        -----------------------------------------
Magnitude (a.u.)       :      0.97808
Magnitude (Debye)      :      2.48608

Rotational constants in cm-1:     0.105103     0.044304     0.031346
Rotational constants in MHz :  3150.900272  1328.214443   939.718751

                             ****ORCA TERMINATED NORMALLY****
TOTAL RUN TIME: 0 days 0 hours 7 minutes 40 seconds 915 msec
