                         Program Version 5.0.4 -  RELEASE  -
|  1> ! ri-mp2 aug-cc-pvdz aug-cc-pvdz/c tightscf
|  2> %pal nprocs 16 end
|  3> %maxcore 3800
|  4> %base "DZ_S-F_40_AB"
|  5> %scf
|  6> STABPerform true
|  7> STABRestartUHFifUnstable true
|  8> end
|  9>
| 10> *xyz 0 1
| 11> F         1.354178    0.804982   -0.000003
| 12> S         0.552451   -0.586621    0.000003
| 13> C        -1.023344   -0.010891    0.000000
| 14> N        -2.126680    0.315207   -0.000003
| 15> *
| 16>
| 17> $new_job
| 18> ! ri-mp2 aug-cc-pvtz aug-cc-pvtz/c tightscf
| 19> %pal nprocs 16 end
| 20> %maxcore 3800
| 21> %base "TZ_S-F_40_AB"
| 22>
| 23> *xyz 0 1
| 24> F         1.354178    0.804982   -0.000003
| 25> S         0.552451   -0.586621    0.000003
| 26> C        -1.023344   -0.010891    0.000000
| 27> N        -2.126680    0.315207   -0.000003
| 28> *
| 29>
| 30> $new_job
| 31> ! ri-mp2 aug-cc-pvqz aug-cc-pvqz/c tightscf
| 32> %pal nprocs 16 end
| 33> %maxcore 3800
| 34> %base "QZ_S-F_40_AB"
| 35>
| 36> *xyz 0 1
| 37> F         1.354178    0.804982   -0.000003
| 38> S         0.552451   -0.586621    0.000003
| 39> C        -1.023344   -0.010891    0.000000
| 40> N        -2.126680    0.315207   -0.000003
| 41> *
| 42>
| 43>
| 44>
| 45>
| 46>                          ****END OF INPUT****
 Total Charge           Charge          ....    0
 Multiplicity           Mult            ....    1
 Number of Electrons    NEL             ....   38
MP2 TOTAL ENERGY:     -589.872335677 Eh
FINAL SINGLE POINT ENERGY      -589.872335677244
MP2 TOTAL ENERGY:     -590.083492731 Eh
FINAL SINGLE POINT ENERGY      -590.083492731132

CARTESIAN COORDINATES (ANGSTROEM)
---------------------------------
  F      1.354178    0.804982   -0.000003
  S      0.552451   -0.586621    0.000003
  C     -1.023344   -0.010891    0.000000
  N     -2.126680    0.315207   -0.000003

 Multiplicity           Mult            ....    1
 Number of Electrons    NEL             ....   38
 Basis Dimension        Dim             ....  324

ORBITAL ENERGIES
----------------

  NO   OCC          E(Eh)            E(eV)
   0   2.0000     -92.109456     -2506.4257
   1   2.0000     -26.359700      -717.2839
   2   2.0000     -15.615935      -424.9312
   3   2.0000     -11.319248      -308.0124
   4   2.0000      -9.102079      -247.6802
   5   2.0000      -6.783512      -184.5888
   6   2.0000      -6.782025      -184.5483
   7   2.0000      -6.780329      -184.5021
   8   2.0000      -1.661936       -45.2236
   9   2.0000      -1.262771       -34.3617
  10   2.0000      -1.071055       -29.1449
  11   2.0000      -0.798971       -21.7411
  12   2.0000      -0.741868       -20.1873
  13   2.0000      -0.731706       -19.9107
  14   2.0000      -0.627242       -17.0681
  15   2.0000      -0.577345       -15.7104
  16   2.0000      -0.556065       -15.1313
  17   2.0000      -0.513451       -13.9717
  18   2.0000      -0.417915       -11.3720
  19   0.0000       0.023997         0.6530
  20   0.0000       0.035953         0.9783
  21   0.0000       0.056948         1.5496
  22   0.0000       0.071490         1.9453
  23   0.0000       0.080442         2.1889

MULLIKEN ATOMIC CHARGES
-----------------------
   0 F :   -0.552382
   1 S :    1.015544
   2 C :   -0.057582
   3 N :   -0.405580
Sum of atomic charges:    0.0000000

LOEWDIN ATOMIC CHARGES
----------------------
   0 F :    0.085254
   1 S :    0.588224
   2 C :   -0.933814
   3 N :    0.260336

  Mayer bond orders larger than 0.100000
B(  0-F ,  1-S ) :   0.6780 B(  1-S ,  2-C ) :   0.9826 B(  2-C ,  3-N ) :   2.6961

MP2 TOTAL ENERGY:     -590.154000544 Eh
FINAL SINGLE POINT ENERGY      -590.154000543799

DIPOLE MOMENT
-------------
                                X             Y             Z
Electronic contribution:      2.08126       0.06485       0.00000
Nuclear contribution   :     -1.26565      -0.71763       0.00000
                        -----------------------------------------
Total Dipole Moment    :      0.81560      -0.65278       0.00000
                        -----------------------------------------
Magnitude (a.u.)       :      1.04467
Magnitude (Debye)      :      2.65534

Rotational constants in cm-1:     0.682023     0.139852     0.116054
Rotational constants in MHz : 20446.523239  4192.643805  3479.216194

                             ****ORCA TERMINATED NORMALLY****
TOTAL RUN TIME: 0 days 0 hours 2 minutes 53 seconds 588 msec
