                         Program Version 5.0.4 -  RELEASE  -
|  1> ! ri-mp2 aug-cc-pvdz aug-cc-pvdz/c tightscf
|  2> %pal nprocs 16 end
|  3> %maxcore 3800
|  4> %base "DZ_P-C_10_B"
|  5> %scf
|  6> STABPerform true
|  7> STABRestartUHFifUnstable true
|  8> end
|  9>
| 10> *xyz 0 2
| 11> P        -0.134790   -0.076588    0.304234
| 12> O         0.330011    1.405297   -0.134537
| 13> O        -1.414418   -0.545084   -0.233186
| 14> H        -0.406246    2.026714   -0.194281
| 15> O         1.141545   -0.916979   -0.160688
| 16> H         1.970995   -0.423769   -0.141931
| 17> *
| 18>
| 19> $new_job
| 20> ! ri-mp2 aug-cc-pvtz aug-cc-pvtz/c tightscf
| 21> %pal nprocs 16 end
| 22> %maxcore 3800
| 23> %base "TZ_P-C_10_B"
| 24>
| 25> *xyz 0 2
| 26> P        -0.134790   -0.076588    0.304234
| 27> O         0.330011    1.405297   -0.134537
| 28> O        -1.414418   -0.545084   -0.233186
| 29> H        -0.406246    2.026714   -0.194281
| 30> O         1.141545   -0.916979   -0.160688
| 31> H         1.970995   -0.423769   -0.141931
| 32> *
| 33>
| 34> $new_job
| 35> ! ri-mp2 aug-cc-pvqz aug-cc-pvqz/c tightscf
| 36> %pal nprocs 16 end
| 37> %maxcore 3800
| 38> %base "QZ_P-C_10_B"
| 39>
| 40> *xyz 0 2
| 41> P        -0.134790   -0.076588    0.304234
| 42> O         0.330011    1.405297   -0.134537
| 43> O        -1.414418   -0.545084   -0.233186
| 44> H        -0.406246    2.026714   -0.194281
| 45> O         1.141545   -0.916979   -0.160688
| 46> H         1.970995   -0.423769   -0.141931
| 47> *
| 48>
| 49>
| 50>
| 51>
| 52>                          ****END OF INPUT****
 Total Charge           Charge          ....    0
 Multiplicity           Mult            ....    2
 Number of Electrons    NEL             ....   41
MP2 TOTAL ENERGY:     -567.258988579 Eh
FINAL SINGLE POINT ENERGY      -567.258988578989
MP2 TOTAL ENERGY:     -567.520972974 Eh
FINAL SINGLE POINT ENERGY      -567.520972974344

CARTESIAN COORDINATES (ANGSTROEM)
---------------------------------
  P     -0.134790   -0.076588    0.304234
  O      0.330011    1.405297   -0.134537
  O     -1.414418   -0.545084   -0.233186
  H     -0.406246    2.026714   -0.194281
  O      1.141545   -0.916979   -0.160688
  H      1.970995   -0.423769   -0.141931

 Multiplicity           Mult            ....    2
 Number of Electrons    NEL             ....   41
 Basis Dimension        Dim             ....  416

ORBITAL ENERGIES
----------------
                 SPIN UP ORBITALS
  NO   OCC          E(Eh)            E(eV)
   0   1.0000     -80.082283     -2179.1497
   1   1.0000     -20.624686      -561.2262
   2   1.0000     -20.621176      -561.1307
   3   1.0000     -20.540444      -558.9339
   4   1.0000      -7.607784      -207.0183
   5   1.0000      -5.509433      -149.9193
   6   1.0000      -5.501735      -149.7098
   7   1.0000      -5.500165      -149.6671
   8   1.0000      -1.458854       -39.6974
   9   1.0000      -1.404915       -38.2297
  10   1.0000      -1.333512       -36.2867
  11   1.0000      -0.869120       -23.6500
  12   1.0000      -0.782489       -21.2926
  13   1.0000      -0.693992       -18.8845
  14   1.0000      -0.659402       -17.9432
  15   1.0000      -0.626881       -17.0583
  16   1.0000      -0.611511       -16.6400
  17   1.0000      -0.576114       -15.6769
  18   1.0000      -0.523871       -14.2553
  19   1.0000      -0.498538       -13.5659
  20   1.0000      -0.406013       -11.0482
  21   0.0000       0.020202         0.5497
  22   0.0000       0.031967         0.8699
  23   0.0000       0.053655         1.4600
  24   0.0000       0.062030         1.6879
  25   0.0000       0.075956         2.0669

                 SPIN DOWN ORBITALS
  NO   OCC          E(Eh)            E(eV)
   0   1.0000     -80.076558     -2178.9939
   1   1.0000     -20.618899      -561.0688
   2   1.0000     -20.615382      -560.9731
   3   1.0000     -20.529677      -558.6409
   4   1.0000      -7.598702      -206.7712
   5   1.0000      -5.498762      -149.6289
   6   1.0000      -5.497974      -149.6075
   7   1.0000      -5.488989      -149.3630
   8   1.0000      -1.440883       -39.2084
   9   1.0000      -1.387780       -37.7634
  10   1.0000      -1.300746       -35.3951
  11   1.0000      -0.841748       -22.9051
  12   1.0000      -0.772611       -21.0238
  13   1.0000      -0.666931       -18.1481
  14   1.0000      -0.620577       -16.8868
  15   1.0000      -0.610018       -16.5994
  16   1.0000      -0.575258       -15.6536
  17   1.0000      -0.557613       -15.1734
  18   1.0000      -0.488442       -13.2912
  19   1.0000      -0.472646       -12.8613
  20   0.0000       0.008305         0.2260
  21   0.0000       0.032388         0.8813
  22   0.0000       0.041169         1.1203
  23   0.0000       0.059659         1.6234
  24   0.0000       0.064023         1.7421

MULLIKEN ATOMIC CHARGES AND SPIN POPULATIONS
--------------------------------------------
   0 P :    1.852205    0.648157
   1 O :   -0.797555    0.078503
   2 O :   -0.977808    0.219699
   3 H :    0.353091   -0.014449
   4 O :   -0.784405    0.074213
   5 H :    0.354472   -0.006123
Sum of atomic charges         :    0.0000000

LOEWDIN ATOMIC CHARGES AND SPIN POPULATIONS
-------------------------------------------
   0 P :   -0.294735    0.472191
   1 O :    0.995396    0.132651
   2 O :    0.132596    0.217589
   3 H :   -0.904372    0.021792
   4 O :    0.983631    0.131776
   5 H :   -0.912516    0.024001

  Mayer bond orders larger than 0.100000
B(  0-P ,  1-O ) :   0.7649 B(  0-P ,  2-O ) :   1.5963 B(  0-P ,  4-O ) :   0.7509
B(  1-O ,  3-H ) :   0.9164 B(  4-O ,  5-H ) :   0.9048

MP2 TOTAL ENERGY:     -567.606330950 Eh
FINAL SINGLE POINT ENERGY      -567.606330950297

DIPOLE MOMENT
-------------
                                X             Y             Z
Electronic contribution:     -0.53774      -0.49008       1.05485
Nuclear contribution   :      1.61064       1.59255      -0.60307
                        -----------------------------------------
Total Dipole Moment    :      1.07290       1.10247       0.45178
                        -----------------------------------------
Magnitude (a.u.)       :      1.60333
Magnitude (Debye)      :      4.07534

Rotational constants in cm-1:     0.289260     0.262644     0.148549
Rotational constants in MHz :  8671.810272  7873.868065  4453.391271

                             ****ORCA TERMINATED NORMALLY****
TOTAL RUN TIME: 0 days 0 hours 15 minutes 54 seconds 191 msec
