                         Program Version 5.0.4 -  RELEASE  -
|  1> ! ri-mp2 aug-cc-pvdz aug-cc-pvdz/c tightscf
|  2> %pal nprocs 16 end
|  3> %maxcore 3800
|  4> %base "DZ_P-C_54_AB"
|  5> %scf
|  6> STABPerform true
|  7> STABRestartUHFifUnstable true
|  8> end
|  9>
| 10> *xyz 0 1
| 11> C        -0.538461   -0.372753   -0.062349
| 12> P         1.161798    0.146351   -0.605531
| 13> C         2.145209   -1.104467    0.296690
| 14> H         1.952779   -1.090788    1.369201
| 15> H         3.204972   -0.927867    0.115559
| 16> H         1.889039   -2.089640   -0.087218
| 17> O        -0.768757   -1.529411    0.193081
| 18> C        -1.624780    0.680345   -0.052517
| 19> C         1.418860    1.647770    0.429165
| 20> H         0.790990    2.462416    0.071910
| 21> H         2.455832    1.964753    0.319982
| 22> H         1.217918    1.476165    1.487059
| 23> C        -3.022305    0.105015    0.075659
| 24> H        -1.520154    1.284323   -0.958403
| 25> H        -1.406918    1.360341    0.777154
| 26> H        -3.249654   -0.555090   -0.760441
| 27> H        -3.764604    0.902423    0.096810
| 28> H        -3.118242   -0.482476    0.986817
| 29> *
| 30>
| 31> $new_job
| 32> ! ri-mp2 aug-cc-pvtz aug-cc-pvtz/c tightscf
| 33> %pal nprocs 16 end
| 34> %maxcore 3800
| 35> %base "TZ_P-C_54_AB"
| 36>
| 37> *xyz 0 1
| 38> C        -0.538461   -0.372753   -0.062349
| 39> P         1.161798    0.146351   -0.605531
| 40> C         2.145209   -1.104467    0.296690
| 41> H         1.952779   -1.090788    1.369201
| 42> H         3.204972   -0.927867    0.115559
| 43> H         1.889039   -2.089640   -0.087218
| 44> O        -0.768757   -1.529411    0.193081
| 45> C        -1.624780    0.680345   -0.052517
| 46> C         1.418860    1.647770    0.429165
| 47> H         0.790990    2.462416    0.071910
| 48> H         2.455832    1.964753    0.319982
| 49> H         1.217918    1.476165    1.487059
| 50> C        -3.022305    0.105015    0.075659
| 51> H        -1.520154    1.284323   -0.958403
| 52> H        -1.406918    1.360341    0.777154
| 53> H        -3.249654   -0.555090   -0.760441
| 54> H        -3.764604    0.902423    0.096810
| 55> H        -3.118242   -0.482476    0.986817
| 56> *
| 57>
| 58> $new_job
| 59> ! ri-mp2 aug-cc-pvqz aug-cc-pvqz/c tightscf
| 60> %pal nprocs 16 end
| 61> %maxcore 3800
| 62> %base "QZ_P-C_54_AB"
| 63>
| 64> *xyz 0 1
| 65> C        -0.538461   -0.372753   -0.062349
| 66> P         1.161798    0.146351   -0.605531
| 67> C         2.145209   -1.104467    0.296690
| 68> H         1.952779   -1.090788    1.369201
| 69> H         3.204972   -0.927867    0.115559
| 70> H         1.889039   -2.089640   -0.087218
| 71> O        -0.768757   -1.529411    0.193081
| 72> C        -1.624780    0.680345   -0.052517
| 73> C         1.418860    1.647770    0.429165
| 74> H         0.790990    2.462416    0.071910
| 75> H         2.455832    1.964753    0.319982
| 76> H         1.217918    1.476165    1.487059
| 77> C        -3.022305    0.105015    0.075659
| 78> H        -1.520154    1.284323   -0.958403
| 79> H        -1.406918    1.360341    0.777154
| 80> H        -3.249654   -0.555090   -0.760441
| 81> H        -3.764604    0.902423    0.096810
| 82> H        -3.118242   -0.482476    0.986817
| 83> *
| 84>
| 85>
| 86>
| 87>
| 88>                          ****END OF INPUT****
 Total Charge           Charge          ....    0
 Multiplicity           Mult            ....    1
 Number of Electrons    NEL             ....   64
MP2 TOTAL ENERGY:     -612.435519300 Eh
FINAL SINGLE POINT ENERGY      -612.435519299581
MP2 TOTAL ENERGY:     -612.731552970 Eh
FINAL SINGLE POINT ENERGY      -612.731552969677

CARTESIAN COORDINATES (ANGSTROEM)
---------------------------------
  C     -0.538461   -0.372753   -0.062349
  P      1.161798    0.146351   -0.605531
  C      2.145209   -1.104467    0.296690
  H      1.952779   -1.090788    1.369201
  H      3.204972   -0.927867    0.115559
  H      1.889039   -2.089640   -0.087218
  O     -0.768757   -1.529411    0.193081
  C     -1.624780    0.680345   -0.052517
  C      1.418860    1.647770    0.429165
  H      0.790990    2.462416    0.071910
  H      2.455832    1.964753    0.319982
  H      1.217918    1.476165    1.487059
  C     -3.022305    0.105015    0.075659
  H     -1.520154    1.284323   -0.958403
  H     -1.406918    1.360341    0.777154
  H     -3.249654   -0.555090   -0.760441
  H     -3.764604    0.902423    0.096810
  H     -3.118242   -0.482476    0.986817

 Multiplicity           Mult            ....    1
 Number of Electrons    NEL             ....   64
 Basis Dimension        Dim             .... 1070

ORBITAL ENERGIES
----------------

  NO   OCC          E(Eh)            E(eV)
   0   2.0000     -79.940173     -2175.2827
   1   2.0000     -20.547416      -559.1236
   2   2.0000     -11.323462      -308.1271
   3   2.0000     -11.238227      -305.8077
   4   2.0000     -11.234417      -305.7040
   5   2.0000     -11.222132      -305.3697
   6   2.0000     -11.215939      -305.2012
   7   2.0000      -7.482940      -203.6212
   8   2.0000      -5.377132      -146.3192
   9   2.0000      -5.376972      -146.3148
  10   2.0000      -5.375983      -146.2879
  11   2.0000      -1.391768       -37.8719
  12   2.0000      -1.060181       -28.8490
  13   2.0000      -1.016834       -27.6695
  14   2.0000      -0.947179       -25.7740
  15   2.0000      -0.902645       -24.5622
  16   2.0000      -0.796930       -21.6856
  17   2.0000      -0.707168       -19.2430
  18   2.0000      -0.644907       -17.5488
  19   2.0000      -0.634495       -17.2655
  20   2.0000      -0.616484       -16.7754
  21   2.0000      -0.595202       -16.1963
  22   2.0000      -0.568047       -15.4574
  23   2.0000      -0.563608       -15.3365
  24   2.0000      -0.558016       -15.1844
  25   2.0000      -0.532926       -14.5016
  26   2.0000      -0.526590       -14.3292
  27   2.0000      -0.508903       -13.8480
  28   2.0000      -0.490507       -13.3474
  29   2.0000      -0.472520       -12.8579
  30   2.0000      -0.400359       -10.8943
  31   2.0000      -0.338915        -9.2223
  32   0.0000       0.023011         0.6262
  33   0.0000       0.027220         0.7407
  34   0.0000       0.032732         0.8907
  35   0.0000       0.035438         0.9643
  36   0.0000       0.046039         1.2528

MULLIKEN ATOMIC CHARGES
-----------------------
   0 C :    0.536694
   1 P :    0.728136
   2 C :   -1.226719
   3 H :    0.290056
   4 H :    0.373286
   5 H :    0.361547
   6 O :   -0.891337
   7 C :   -0.357553
   8 C :   -1.192943
   9 H :    0.331000
  10 H :    0.340583
  11 H :    0.287390
  12 C :   -0.827581
  13 H :    0.251140
  14 H :    0.222665
  15 H :    0.225777
  16 H :    0.308383
  17 H :    0.239475
Sum of atomic charges:   -0.0000000

LOEWDIN ATOMIC CHARGES
----------------------
   0 C :   -0.803246
   1 P :    0.931081
   2 C :    0.754606
   3 H :   -0.344507
   4 H :   -0.357863
   5 H :   -0.370549
   6 O :    0.679212
   7 C :    0.385931
   8 C :    0.768118
   9 H :   -0.365548
  10 H :   -0.355504
  11 H :   -0.338810
  12 C :    0.896079
  13 H :   -0.305261
  14 H :   -0.309336
  15 H :   -0.286718
  16 H :   -0.282840
  17 H :   -0.294845

  Mayer bond orders larger than 0.100000
B(  0-C ,  1-P ) :   0.7656 B(  0-C ,  6-O ) :   1.0714 B(  0-C ,  7-C ) :   0.8200
B(  1-P ,  2-C ) :   0.8979 B(  1-P ,  8-C ) :   0.8946 B(  2-C ,  3-H ) :   0.8948
B(  2-C ,  4-H ) :   0.8905 B(  2-C ,  5-H ) :   0.8545 B(  6-O ,  7-C ) :   0.1093
B(  7-C , 12-C ) :   0.8531 B(  7-C , 13-H ) :   0.9194 B(  7-C , 14-H ) :   0.8846
B(  8-C ,  9-H ) :   0.8971 B(  8-C , 10-H ) :   0.9281 B(  8-C , 11-H ) :   0.8810
B( 12-C , 15-H ) :   0.9934 B( 12-C , 16-H ) :   0.9880 B( 12-C , 17-H ) :   0.9616

MP2 TOTAL ENERGY:     -612.823607270 Eh
FINAL SINGLE POINT ENERGY      -612.823607269996

DIPOLE MOMENT
-------------
                                X             Y             Z
Electronic contribution:      2.98190      -3.12669      -3.73203
Nuclear contribution   :     -2.71360       4.21402       4.06859
                        -----------------------------------------
Total Dipole Moment    :      0.26830       1.08732       0.33657
                        -----------------------------------------
Magnitude (a.u.)       :      1.16942
Magnitude (Debye)      :      2.97242

Rotational constants in cm-1:     0.121686     0.046404     0.036898
Rotational constants in MHz :  3648.066916  1391.148284  1106.185673

                             ****ORCA TERMINATED NORMALLY****
TOTAL RUN TIME: 0 days 2 hours 20 minutes 51 seconds 851 msec
