                         Program Version 5.0.4 -  RELEASE  -
|  1> ! ri-mp2 aug-cc-pvdz aug-cc-pvdz/c tightscf
|  2> %pal nprocs 16 end
|  3> %maxcore 3800
|  4> %base "DZ_S-Cl_56_A"
|  5> %scf
|  6> STABPerform true
|  7> STABRestartUHFifUnstable true
|  8> end
|  9>
| 10> *xyz 0 2
| 11> S         1.657278    0.226362   -0.000008
| 12> S        -0.345871   -0.201636    0.000002
| 13> O        -0.621471   -0.846280    1.248225
| 14> C        -1.169719    1.364408    0.000001
| 15> O        -0.621485   -0.846287   -1.248214
| 16> H        -0.892479    1.908866    0.898022
| 17> H        -2.235588    1.140734    0.000007
| 18> H        -0.892488    1.908860   -0.898025
| 19> *
| 20>
| 21> $new_job
| 22> ! ri-mp2 aug-cc-pvtz aug-cc-pvtz/c tightscf
| 23> %pal nprocs 16 end
| 24> %maxcore 3800
| 25> %base "TZ_S-Cl_56_A"
| 26>
| 27> *xyz 0 2
| 28> S         1.657278    0.226362   -0.000008
| 29> S        -0.345871   -0.201636    0.000002
| 30> O        -0.621471   -0.846280    1.248225
| 31> C        -1.169719    1.364408    0.000001
| 32> O        -0.621485   -0.846287   -1.248214
| 33> H        -0.892479    1.908866    0.898022
| 34> H        -2.235588    1.140734    0.000007
| 35> H        -0.892488    1.908860   -0.898025
| 36> *
| 37>
| 38> $new_job
| 39> ! ri-mp2 aug-cc-pvqz aug-cc-pvqz/c tightscf
| 40> %pal nprocs 16 end
| 41> %maxcore 3800
| 42> %base "QZ_S-Cl_56_A"
| 43>
| 44> *xyz 0 2
| 45> S         1.657278    0.226362   -0.000008
| 46> S        -0.345871   -0.201636    0.000002
| 47> O        -0.621471   -0.846280    1.248225
| 48> C        -1.169719    1.364408    0.000001
| 49> O        -0.621485   -0.846287   -1.248214
| 50> H        -0.892479    1.908866    0.898022
| 51> H        -2.235588    1.140734    0.000007
| 52> H        -0.892488    1.908860   -0.898025
| 53> *
| 54>
| 55>
| 56>
| 57>
| 58>                          ****END OF INPUT****
 Total Charge           Charge          ....    0
 Multiplicity           Mult            ....    2
 Number of Electrons    NEL             ....   57
MP2 TOTAL ENERGY:     -985.133398041 Eh
FINAL SINGLE POINT ENERGY      -985.133398040819
MP2 TOTAL ENERGY:     -985.440308172 Eh
FINAL SINGLE POINT ENERGY      -985.440308172241

CARTESIAN COORDINATES (ANGSTROEM)
---------------------------------
  S      1.657278    0.226362   -0.000008
  S     -0.345871   -0.201636    0.000002
  O     -0.621471   -0.846280    1.248225
  C     -1.169719    1.364408    0.000001
  O     -0.621485   -0.846287   -1.248214
  H     -0.892479    1.908866    0.898022
  H     -2.235588    1.140734    0.000007
  H     -0.892488    1.908860   -0.898025

 Multiplicity           Mult            ....    2
 Number of Electrons    NEL             ....   57
 Basis Dimension        Dim             ....  546

ORBITAL ENERGIES
----------------
                 SPIN UP ORBITALS
  NO   OCC          E(Eh)            E(eV)
   0   1.0000     -92.201556     -2508.9319
   1   1.0000     -92.029398     -2504.2472
   2   1.0000     -20.566705      -559.6485
   3   1.0000     -20.566684      -559.6479
   4   1.0000     -11.288333      -307.1712
   5   1.0000      -9.170494      -249.5418
   6   1.0000      -9.031622      -245.7629
   7   1.0000      -6.855981      -186.5607
   8   1.0000      -6.855077      -186.5361
   9   1.0000      -6.854722      -186.5265
  10   1.0000      -6.727145      -183.0549
  11   1.0000      -6.708676      -182.5524
  12   1.0000      -6.706903      -182.5041
  13   1.0000      -1.483613       -40.3712
  14   1.0000      -1.370911       -37.3044
  15   1.0000      -1.087449       -29.5910
  16   1.0000      -1.026255       -27.9258
  17   1.0000      -0.821808       -22.3625
  18   1.0000      -0.696828       -18.9617
  19   1.0000      -0.688929       -18.7467
  20   1.0000      -0.679120       -18.4798
  21   1.0000      -0.622412       -16.9367
  22   1.0000      -0.613679       -16.6990
  23   1.0000      -0.554145       -15.0790
  24   1.0000      -0.522031       -14.2052
  25   1.0000      -0.506734       -13.7889
  26   1.0000      -0.475322       -12.9342
  27   1.0000      -0.460195       -12.5226
  28   1.0000      -0.437849       -11.9145
  29   0.0000       0.020496         0.5577
  30   0.0000       0.037946         1.0326
  31   0.0000       0.038786         1.0554
  32   0.0000       0.046381         1.2621
  33   0.0000       0.065549         1.7837

                 SPIN DOWN ORBITALS
  NO   OCC          E(Eh)            E(eV)
   0   1.0000     -92.201851     -2508.9399
   1   1.0000     -92.020157     -2503.9958
   2   1.0000     -20.565004      -559.6022
   3   1.0000     -20.564984      -559.6017
   4   1.0000     -11.288485      -307.1753
   5   1.0000      -9.170905      -249.5530
   6   1.0000      -9.021474      -245.4868
   7   1.0000      -6.857003      -186.5885
   8   1.0000      -6.855244      -186.5407
   9   1.0000      -6.855195      -186.5393
  10   1.0000      -6.703681      -182.4164
  11   1.0000      -6.701608      -182.3600
  12   1.0000      -6.685225      -181.9142
  13   1.0000      -1.480781       -40.2941
  14   1.0000      -1.366438       -37.1827
  15   1.0000      -1.071874       -29.1672
  16   1.0000      -0.971986       -26.4491
  17   1.0000      -0.801843       -21.8193
  18   1.0000      -0.690853       -18.7991
  19   1.0000      -0.677162       -18.4265
  20   1.0000      -0.674511       -18.3544
  21   1.0000      -0.620766       -16.8919
  22   1.0000      -0.610390       -16.6096
  23   1.0000      -0.524437       -14.2707
  24   1.0000      -0.513602       -13.9758
  25   1.0000      -0.495419       -13.4810
  26   1.0000      -0.450555       -12.2602
  27   1.0000      -0.418451       -11.3866
  28   0.0000      -0.029053        -0.7906
  29   0.0000       0.020871         0.5679
  30   0.0000       0.039018         1.0617
  31   0.0000       0.039303         1.0695
  32   0.0000       0.047481         1.2920

MULLIKEN ATOMIC CHARGES AND SPIN POPULATIONS
--------------------------------------------
   0 S :    0.020798    1.057555
   1 S :    2.214616   -0.109203
   2 O :   -1.136284    0.023662
   3 C :   -1.002422    0.005624
   4 O :   -1.136284    0.023662
   5 H :    0.356710   -0.000115
   6 H :    0.326156   -0.001072
   7 H :    0.356710   -0.000115
Sum of atomic charges         :    0.0000000

LOEWDIN ATOMIC CHARGES AND SPIN POPULATIONS
-------------------------------------------
   0 S :    0.791720    0.777269
   1 S :   -0.889853    0.163664
   2 O :    0.216817    0.029280
   3 C :    0.704847    0.001501
   4 O :    0.216817    0.029279
   5 H :   -0.351584    0.000157
   6 H :   -0.337178   -0.001307
   7 H :   -0.351585    0.000157

  Mayer bond orders larger than 0.100000
B(  0-S ,  1-S ) :   0.9401 B(  1-S ,  2-O ) :   1.1311 B(  1-S ,  3-C ) :   0.9369
B(  1-S ,  4-O ) :   1.1311 B(  3-C ,  5-H ) :   0.8793 B(  3-C ,  6-H ) :   0.8542
B(  3-C ,  7-H ) :   0.8793

MP2 TOTAL ENERGY:     -985.540572379 Eh
FINAL SINGLE POINT ENERGY      -985.540572378643

DIPOLE MOMENT
-------------
                                X             Y             Z
Electronic contribution:      4.09511      -3.07573      -0.00001
Nuclear contribution   :     -3.92999       4.74900       0.00000
                        -----------------------------------------
Total Dipole Moment    :      0.16512       1.67327      -0.00001
                        -----------------------------------------
Magnitude (a.u.)       :      1.68140
Magnitude (Debye)      :      4.27378

Rotational constants in cm-1:     0.156638     0.094081     0.091696
Rotational constants in MHz :  4695.902532  2820.477629  2748.974326

                             ****ORCA TERMINATED NORMALLY****
TOTAL RUN TIME: 0 days 0 hours 29 minutes 28 seconds 169 msec
