                         Program Version 5.0.4 -  RELEASE  -
|  1> ! ri-mp2 aug-cc-pvdz aug-cc-pvdz/c tightscf
|  2> %pal nprocs 16 end
|  3> %maxcore 3800
|  4> %base "DZ_B-Cl_54_A"
|  5> %scf
|  6> STABPerform true
|  7> STABRestartUHFifUnstable true
|  8> end
|  9>
| 10> *xyz 0 2
| 11> Cl         1.704978    0.002146   -0.000005
| 12> B         0.016474   -0.000489    0.000016
| 13> N        -1.228793    0.021720    0.000001
| 14> N        -2.504299   -0.139698   -0.000002
| 15> H        -2.935359    0.791811    0.000016
| 16> *
| 17>
| 18> $new_job
| 19> ! ri-mp2 aug-cc-pvtz aug-cc-pvtz/c tightscf
| 20> %pal nprocs 16 end
| 21> %maxcore 3800
| 22> %base "TZ_B-Cl_54_A"
| 23>
| 24> *xyz 0 2
| 25> Cl         1.704978    0.002146   -0.000005
| 26> B         0.016474   -0.000489    0.000016
| 27> N        -1.228793    0.021720    0.000001
| 28> N        -2.504299   -0.139698   -0.000002
| 29> H        -2.935359    0.791811    0.000016
| 30> *
| 31>
| 32> $new_job
| 33> ! ri-mp2 aug-cc-pvqz aug-cc-pvqz/c tightscf
| 34> %pal nprocs 16 end
| 35> %maxcore 3800
| 36> %base "QZ_B-Cl_54_A"
| 37>
| 38> *xyz 0 2
| 39> Cl         1.704978    0.002146   -0.000005
| 40> B         0.016474   -0.000489    0.000016
| 41> N        -1.228793    0.021720    0.000001
| 42> N        -2.504299   -0.139698   -0.000002
| 43> H        -2.935359    0.791811    0.000016
| 44> *
| 45>
| 46>
| 47>
| 48>
| 49>                          ****END OF INPUT****
 Total Charge           Charge          ....    0
 Multiplicity           Mult            ....    2
 Number of Electrons    NEL             ....   37
MP2 TOTAL ENERGY:     -594.196460996 Eh
FINAL SINGLE POINT ENERGY      -594.196460995692
MP2 TOTAL ENERGY:     -594.366353230 Eh
FINAL SINGLE POINT ENERGY      -594.366353230411

CARTESIAN COORDINATES (ANGSTROEM)
---------------------------------
  Cl     1.704978    0.002146   -0.000005
  B      0.016474   -0.000489    0.000016
  N     -1.228793    0.021720    0.000001
  N     -2.504299   -0.139698   -0.000002
  H     -2.935359    0.791811    0.000016

 Multiplicity           Mult            ....    2
 Number of Electrons    NEL             ....   37
 Basis Dimension        Dim             ....  370

ORBITAL ENERGIES
----------------
                 SPIN UP ORBITALS
  NO   OCC          E(Eh)            E(eV)
   0   1.0000    -104.879652     -2853.9204
   1   1.0000     -15.627192      -425.2375
   2   1.0000     -15.591972      -424.2791
   3   1.0000     -10.606534      -288.6185
   4   1.0000      -8.073144      -219.6814
   5   1.0000      -8.072702      -219.6694
   6   1.0000      -8.072094      -219.6528
   7   1.0000      -7.678839      -208.9518
   8   1.0000      -1.331977       -36.2449
   9   1.0000      -1.157865       -31.5071
  10   1.0000      -1.025086       -27.8940
  11   1.0000      -0.742607       -20.2074
  12   1.0000      -0.646874       -17.6023
  13   1.0000      -0.619627       -16.8609
  14   1.0000      -0.603360       -16.4183
  15   1.0000      -0.532119       -14.4797
  16   1.0000      -0.529259       -14.4019
  17   1.0000      -0.379431       -10.3249
  18   1.0000      -0.361344        -9.8327
  19   0.0000       0.025356         0.6900
  20   0.0000       0.035299         0.9605
  21   0.0000       0.038613         1.0507
  22   0.0000       0.040497         1.1020
  23   0.0000       0.057134         1.5547

                 SPIN DOWN ORBITALS
  NO   OCC          E(Eh)            E(eV)
   0   1.0000    -104.879483     -2853.9158
   1   1.0000     -15.599799      -424.4921
   2   1.0000     -15.597562      -424.4312
   3   1.0000     -10.606353      -288.6135
   4   1.0000      -8.073943      -219.7032
   5   1.0000      -8.071840      -219.6459
   6   1.0000      -8.071288      -219.6309
   7   1.0000      -7.673060      -208.7946
   8   1.0000      -1.294209       -35.2172
   9   1.0000      -1.155586       -31.4451
  10   1.0000      -0.977590       -26.6016
  11   1.0000      -0.724190       -19.7062
  12   1.0000      -0.642768       -17.4906
  13   1.0000      -0.587165       -15.9776
  14   1.0000      -0.540875       -14.7179
  15   1.0000      -0.523326       -14.2404
  16   1.0000      -0.488818       -13.3014
  17   1.0000      -0.371238       -10.1019
  18   0.0000       0.025858         0.7036
  19   0.0000       0.035591         0.9685
  20   0.0000       0.038580         1.0498
  21   0.0000       0.040594         1.1046
  22   0.0000       0.057405         1.5621

MULLIKEN ATOMIC CHARGES AND SPIN POPULATIONS
--------------------------------------------
   0 Cl:   -0.242889    0.017003
   1 B :    0.573014    0.298946
   2 N :   -0.011203   -0.236195
   3 N :   -0.596488    0.962946
   4 H :    0.277567   -0.042699
Sum of atomic charges         :   -0.0000000

LOEWDIN ATOMIC CHARGES AND SPIN POPULATIONS
-------------------------------------------
   0 Cl:    1.267905    0.058759
   1 B :   -1.431390    0.145387
   2 N :    0.163063    0.147983
   3 N :    0.694312    0.519148
   4 H :   -0.693889    0.128722

  Mayer bond orders larger than 0.100000
B(  0-Cl,  1-B ) :   1.1134 B(  1-B ,  2-N ) :   2.1374 B(  1-B ,  3-N ) :   0.1533
B(  2-N ,  3-N ) :   0.4544 B(  3-N ,  4-H ) :   0.9229

MP2 TOTAL ENERGY:     -594.423645939 Eh
FINAL SINGLE POINT ENERGY      -594.423645938772

DIPOLE MOMENT
-------------
                                X             Y             Z
Electronic contribution:      5.40549      -0.17364       0.00001
Nuclear contribution   :     -4.99327       0.72774       0.00001
                        -----------------------------------------
Total Dipole Moment    :      0.41222       0.55410       0.00002
                        -----------------------------------------
Magnitude (a.u.)       :      0.69061
Magnitude (Debye)      :      1.75539

Rotational constants in cm-1:    19.191783     0.076492     0.076188
Rotational constants in MHz : 575355.183598  2293.170283  2284.066768

                             ****ORCA TERMINATED NORMALLY****
TOTAL RUN TIME: 0 days 0 hours 8 minutes 13 seconds 602 msec
