                         Program Version 5.0.4 -  RELEASE  -
|  1> ! ri-mp2 aug-cc-pvdz aug-cc-pvdz/c tightscf
|  2> %pal nprocs 16 end
|  3> %maxcore 3800
|  4> %base "DZ_Si-Si_96_AB"
|  5> %scf
|  6> STABPerform true
|  7> STABRestartUHFifUnstable true
|  8> end
|  9>
| 10> *xyz 0 1
| 11> Si        -0.696320   -0.940099    0.000006
| 12> Si         0.696319    0.940096   -0.000033
| 13> N         2.324956    0.415705    0.000009
| 14> H         0.465720    1.766119    1.202445
| 15> H         0.465755    1.766043   -1.202571
| 16> C         3.424779   -0.033977    0.000018
| 17> O         4.504060   -0.468377    0.000041
| 18> N        -2.324955   -0.415704   -0.000045
| 19> H        -0.465762   -1.766045    1.202545
| 20> H        -0.465720   -1.766125   -1.202471
| 21> C        -3.424778    0.033981   -0.000003
| 22> O        -4.504059    0.468379    0.000035
| 23> *
| 24>
| 25> $new_job
| 26> ! ri-mp2 aug-cc-pvtz aug-cc-pvtz/c tightscf
| 27> %pal nprocs 16 end
| 28> %maxcore 3800
| 29> %base "TZ_Si-Si_96_AB"
| 30>
| 31> *xyz 0 1
| 32> Si        -0.696320   -0.940099    0.000006
| 33> Si         0.696319    0.940096   -0.000033
| 34> N         2.324956    0.415705    0.000009
| 35> H         0.465720    1.766119    1.202445
| 36> H         0.465755    1.766043   -1.202571
| 37> C         3.424779   -0.033977    0.000018
| 38> O         4.504060   -0.468377    0.000041
| 39> N        -2.324955   -0.415704   -0.000045
| 40> H        -0.465762   -1.766045    1.202545
| 41> H        -0.465720   -1.766125   -1.202471
| 42> C        -3.424778    0.033981   -0.000003
| 43> O        -4.504059    0.468379    0.000035
| 44> *
| 45>
| 46> $new_job
| 47> ! ri-mp2 aug-cc-pvqz aug-cc-pvqz/c tightscf
| 48> %pal nprocs 16 end
| 49> %maxcore 3800
| 50> %base "QZ_Si-Si_96_AB"
| 51>
| 52> *xyz 0 1
| 53> Si        -0.696320   -0.940099    0.000006
| 54> Si         0.696319    0.940096   -0.000033
| 55> N         2.324956    0.415705    0.000009
| 56> H         0.465720    1.766119    1.202445
| 57> H         0.465755    1.766043   -1.202571
| 58> C         3.424779   -0.033977    0.000018
| 59> O         4.504060   -0.468377    0.000041
| 60> N        -2.324955   -0.415704   -0.000045
| 61> H        -0.465762   -1.766045    1.202545
| 62> H        -0.465720   -1.766125   -1.202471
| 63> C        -3.424778    0.033981   -0.000003
| 64> O        -4.504059    0.468379    0.000035
| 65> *
| 66>
| 67>
| 68>
| 69>
| 70>                          ****END OF INPUT****
 Total Charge           Charge          ....    0
 Multiplicity           Mult            ....    1
 Number of Electrons    NEL             ....   74
MP2 TOTAL ENERGY:     -915.840529066 Eh
FINAL SINGLE POINT ENERGY      -915.840529065887
MP2 TOTAL ENERGY:     -916.200542488 Eh
FINAL SINGLE POINT ENERGY      -916.200542488067

CARTESIAN COORDINATES (ANGSTROEM)
---------------------------------
  Si    -0.696320   -0.940099    0.000006
  Si     0.696319    0.940096   -0.000033
  N      2.324956    0.415705    0.000009
  H      0.465720    1.766119    1.202445
  H      0.465755    1.766043   -1.202571
  C      3.424779   -0.033977    0.000018
  O      4.504060   -0.468377    0.000041
  N     -2.324955   -0.415704   -0.000045
  H     -0.465762   -1.766045    1.202545
  H     -0.465720   -1.766125   -1.202471
  C     -3.424778    0.033981   -0.000003
  O     -4.504059    0.468379    0.000035

 Multiplicity           Mult            ....    1
 Number of Electrons    NEL             ....   74
 Basis Dimension        Dim             ....  832

ORBITAL ENERGIES
----------------

  NO   OCC          E(Eh)            E(eV)
   0   2.0000     -68.818975     -1872.6595
   1   2.0000     -68.818973     -1872.6595
   2   2.0000     -20.611715      -560.8733
   3   2.0000     -20.611714      -560.8733
   4   2.0000     -15.586266      -424.1239
   5   2.0000     -15.586265      -424.1238
   6   2.0000     -11.410163      -310.4863
   7   2.0000     -11.410162      -310.4863
   8   2.0000      -6.165022      -167.7588
   9   2.0000      -6.164874      -167.7548
  10   2.0000      -4.272161      -116.2514
  11   2.0000      -4.272135      -116.2507
  12   2.0000      -4.271422      -116.2313
  13   2.0000      -4.271147      -116.2238
  14   2.0000      -4.271064      -116.2216
  15   2.0000      -4.270787      -116.2140
  16   2.0000      -1.471627       -40.0450
  17   2.0000      -1.471625       -40.0449
  18   2.0000      -1.265247       -34.4291
  19   2.0000      -1.264751       -34.4156
  20   2.0000      -0.866546       -23.5799
  21   2.0000      -0.838641       -22.8206
  22   2.0000      -0.735146       -20.0043
  23   2.0000      -0.731150       -19.8956
  24   2.0000      -0.662245       -18.0206
  25   2.0000      -0.662220       -18.0199
  26   2.0000      -0.661098       -17.9894
  27   2.0000      -0.660311       -17.9680
  28   2.0000      -0.650279       -17.6950
  29   2.0000      -0.619412       -16.8550
  30   2.0000      -0.541419       -14.7328
  31   2.0000      -0.518432       -14.1073
  32   2.0000      -0.504425       -13.7261
  33   2.0000      -0.471911       -12.8414
  34   2.0000      -0.449912       -12.2427
  35   2.0000      -0.449578       -12.2336
  36   2.0000      -0.398294       -10.8381
  37   0.0000       0.022508         0.6125
  38   0.0000       0.026137         0.7112
  39   0.0000       0.030527         0.8307
  40   0.0000       0.035714         0.9718
  41   0.0000       0.045349         1.2340

MULLIKEN ATOMIC CHARGES
-----------------------
   0 Si:    0.551820
   1 Si:    0.551821
   2 N :   -0.716441
   3 H :   -0.233515
   4 H :   -0.233514
   5 C :    1.265613
   6 O :   -0.633963
   7 N :   -0.716440
   8 H :   -0.233511
   9 H :   -0.233518
  10 C :    1.265613
  11 O :   -0.633962
Sum of atomic charges:    0.0000000

LOEWDIN ATOMIC CHARGES
----------------------
   0 Si:    0.529617
   1 Si:    0.529618
   2 N :    0.280947
   3 H :   -0.270279
   4 H :   -0.270278
   5 C :   -0.857469
   6 O :    0.587462
   7 N :    0.280947
   8 H :   -0.270279
   9 H :   -0.270279
  10 C :   -0.857469
  11 O :    0.587463

  Mayer bond orders larger than 0.100000
B(  0-Si,  1-Si) :   0.8907 B(  0-Si,  7-N ) :   1.2217 B(  0-Si,  8-H ) :   0.8532
B(  0-Si,  9-H ) :   0.8532 B(  1-Si,  2-N ) :   1.2216 B(  1-Si,  3-H ) :   0.8532
B(  1-Si,  4-H ) :   0.8532 B(  2-N ,  5-C ) :   2.1718 B(  2-N ,  6-O ) :   0.3810
B(  5-C ,  6-O ) :   1.5789 B(  7-N , 10-C ) :   2.1718 B(  7-N , 11-O ) :   0.3810
B( 10-C , 11-O ) :   1.5789

MP2 TOTAL ENERGY:     -916.318718320 Eh
FINAL SINGLE POINT ENERGY      -916.318718319515

DIPOLE MOMENT
-------------
                                X             Y             Z
Electronic contribution:     -0.00000       0.00001       0.00003
Nuclear contribution   :     -0.00001      -0.00001      -0.00005
                        -----------------------------------------
Total Dipole Moment    :     -0.00001       0.00000      -0.00002
                        -----------------------------------------
Magnitude (a.u.)       :      0.00002
Magnitude (Debye)      :      0.00006

Rotational constants in cm-1:     0.210907     0.015102     0.014231
Rotational constants in MHz :  6322.834155   452.742236   426.649190

                             ****ORCA TERMINATED NORMALLY****
TOTAL RUN TIME: 0 days 0 hours 55 minutes 26 seconds 955 msec
