                         Program Version 5.0.4 -  RELEASE  -
|  1> ! ri-mp2 aug-cc-pvdz aug-cc-pvdz/c tightscf
|  2> %pal nprocs 16 end
|  3> %maxcore 3800
|  4> %base "DZ_P-C_72_AB"
|  5>
|  6> *xyz 0 1
|  7> C        -2.578424    0.250763    1.057089
|  8> P        -1.904363   -0.263756   -0.582935
|  9> H        -2.375277   -0.536946    1.781844
| 10> H        -3.659960    0.363351    0.979350
| 11> H        -2.145343    1.181193    1.420431
| 12> C        -0.109688   -0.078543   -0.277812
| 13> C         0.532203    1.156587   -0.247262
| 14> C         0.645897   -1.225060   -0.056385
| 15> C         2.003495   -1.141567    0.205857
| 16> C         2.628269    0.092771    0.233410
| 17> C         1.890168    1.242621    0.002010
| 18> H         3.690140    0.160089    0.429769
| 19> H         2.374903    2.210057    0.016624
| 20> H        -0.036605    2.061272   -0.422053
| 21> H         0.165772   -2.195114   -0.096440
| 22> H         2.575239   -2.043693    0.379438
| 23> H        -2.094932    0.970713   -1.246372
| 24> *
| 25>
| 26> $new_job
| 27> ! ri-mp2 aug-cc-pvtz aug-cc-pvtz/c tightscf
| 28> %pal nprocs 16 end
| 29> %maxcore 3800
| 30> %base "TZ_P-C_72_AB"
| 31>
| 32> *xyz 0 1
| 33> C        -2.578424    0.250763    1.057089
| 34> P        -1.904363   -0.263756   -0.582935
| 35> H        -2.375277   -0.536946    1.781844
| 36> H        -3.659960    0.363351    0.979350
| 37> H        -2.145343    1.181193    1.420431
| 38> C        -0.109688   -0.078543   -0.277812
| 39> C         0.532203    1.156587   -0.247262
| 40> C         0.645897   -1.225060   -0.056385
| 41> C         2.003495   -1.141567    0.205857
| 42> C         2.628269    0.092771    0.233410
| 43> C         1.890168    1.242621    0.002010
| 44> H         3.690140    0.160089    0.429769
| 45> H         2.374903    2.210057    0.016624
| 46> H        -0.036605    2.061272   -0.422053
| 47> H         0.165772   -2.195114   -0.096440
| 48> H         2.575239   -2.043693    0.379438
| 49> H        -2.094932    0.970713   -1.246372
| 50> *
| 51>
| 52> $new_job
| 53> ! ri-mp2 aug-cc-pvqz aug-cc-pvqz/c tightscf
| 54> %pal nprocs 16 end
| 55> %maxcore 3800
| 56> %base "QZ_P-C_72_AB"
| 57>
| 58> *xyz 0 1
| 59> C        -2.578424    0.250763    1.057089
| 60> P        -1.904363   -0.263756   -0.582935
| 61> H        -2.375277   -0.536946    1.781844
| 62> H        -3.659960    0.363351    0.979350
| 63> H        -2.145343    1.181193    1.420431
| 64> C        -0.109688   -0.078543   -0.277812
| 65> C         0.532203    1.156587   -0.247262
| 66> C         0.645897   -1.225060   -0.056385
| 67> C         2.003495   -1.141567    0.205857
| 68> C         2.628269    0.092771    0.233410
| 69> C         1.890168    1.242621    0.002010
| 70> H         3.690140    0.160089    0.429769
| 71> H         2.374903    2.210057    0.016624
| 72> H        -0.036605    2.061272   -0.422053
| 73> H         0.165772   -2.195114   -0.096440
| 74> H         2.575239   -2.043693    0.379438
| 75> H        -2.094932    0.970713   -1.246372
| 76> *
| 77>
| 78>
| 79>
| 80>
| 81>                          ****END OF INPUT****
 Total Charge           Charge          ....    0
 Multiplicity           Mult            ....    1
 Number of Electrons    NEL             ....   66
MP2 TOTAL ENERGY:     -612.171845436 Eh
FINAL SINGLE POINT ENERGY      -612.171845435773
MP2 TOTAL ENERGY:     -612.460142108 Eh
FINAL SINGLE POINT ENERGY      -612.460142107565

CARTESIAN COORDINATES (ANGSTROEM)
---------------------------------
  C     -2.578424    0.250763    1.057089
  P     -1.904363   -0.263756   -0.582935
  H     -2.375277   -0.536946    1.781844
  H     -3.659960    0.363351    0.979350
  H     -2.145343    1.181193    1.420431
  C     -0.109688   -0.078543   -0.277812
  C      0.532203    1.156587   -0.247262
  C      0.645897   -1.225060   -0.056385
  C      2.003495   -1.141567    0.205857
  C      2.628269    0.092771    0.233410
  C      1.890168    1.242621    0.002010
  H      3.690140    0.160089    0.429769
  H      2.374903    2.210057    0.016624
  H     -0.036605    2.061272   -0.422053
  H      0.165772   -2.195114   -0.096440
  H      2.575239   -2.043693    0.379438
  H     -2.094932    0.970713   -1.246372

 Multiplicity           Mult            ....    1
 Number of Electrons    NEL             ....   66
 Basis Dimension        Dim             .... 1058

ORBITAL ENERGIES
----------------

  NO   OCC          E(Eh)            E(eV)
   0   2.0000     -79.934212     -2175.1205
   1   2.0000     -11.238008      -305.8018
   2   2.0000     -11.237127      -305.7778
   3   2.0000     -11.236998      -305.7743
   4   2.0000     -11.235802      -305.7417
   5   2.0000     -11.234761      -305.7134
   6   2.0000     -11.234090      -305.6951
   7   2.0000     -11.221684      -305.3575
   8   2.0000      -7.476221      -203.4383
   9   2.0000      -5.370399      -146.1360
  10   2.0000      -5.370098      -146.1278
  11   2.0000      -5.369171      -146.1026
  12   2.0000      -1.160379       -31.5755
  13   2.0000      -1.032741       -28.1023
  14   2.0000      -1.021423       -27.7943
  15   2.0000      -0.970768       -26.4159
  16   2.0000      -0.842893       -22.9363
  17   2.0000      -0.831333       -22.6217
  18   2.0000      -0.766719       -20.8635
  19   2.0000      -0.694644       -18.9022
  20   2.0000      -0.635045       -17.2805
  21   2.0000      -0.629303       -17.1242
  22   2.0000      -0.592345       -16.1185
  23   2.0000      -0.581632       -15.8270
  24   2.0000      -0.572569       -15.5804
  25   2.0000      -0.546595       -14.8736
  26   2.0000      -0.517732       -14.0882
  27   2.0000      -0.497942       -13.5497
  28   2.0000      -0.480623       -13.0784
  29   2.0000      -0.462392       -12.5823
  30   2.0000      -0.361973        -9.8498
  31   2.0000      -0.342571        -9.3218
  32   2.0000      -0.329903        -8.9771
  33   0.0000       0.023900         0.6504
  34   0.0000       0.028481         0.7750
  35   0.0000       0.030381         0.8267
  36   0.0000       0.038410         1.0452
  37   0.0000       0.040857         1.1118

MULLIKEN ATOMIC CHARGES
-----------------------
   0 C :   -1.105784
   1 P :    0.593478
   2 H :    0.282426
   3 H :    0.384466
   4 H :    0.286987
   5 C :   -0.065101
   6 C :   -0.478093
   7 C :   -0.328386
   8 C :   -0.292864
   9 C :   -0.378362
  10 C :   -0.263793
  11 H :    0.355172
  12 H :    0.257251
  13 H :    0.310420
  14 H :    0.336192
  15 H :    0.248418
  16 H :   -0.142427
Sum of atomic charges:    0.0000000

LOEWDIN ATOMIC CHARGES
----------------------
   0 C :    0.748079
   1 P :    1.226428
   2 H :   -0.364444
   3 H :   -0.368635
   4 H :   -0.353736
   5 C :   -0.296621
   6 C :    0.248666
   7 C :    0.234962
   8 C :    0.334441
   9 C :    0.332827
  10 C :    0.337280
  11 H :   -0.320758
  12 H :   -0.321052
  13 H :   -0.342413
  14 H :   -0.346175
  15 H :   -0.321336
  16 H :   -0.427512

  Mayer bond orders larger than 0.100000
B(  0-C ,  1-P ) :   0.8530 B(  0-C ,  2-H ) :   0.9149 B(  0-C ,  3-H ) :   0.8748
B(  0-C ,  4-H ) :   0.8912 B(  1-P ,  5-C ) :   0.8054 B(  1-P ,  7-C ) :  -0.2506
B(  1-P , 16-H ) :   0.9573 B(  5-C ,  6-C ) :   0.8943 B(  5-C ,  7-C ) :   0.8943
B(  5-C ,  8-C ) :  -0.3115 B(  5-C , 10-C ) :  -0.3106 B(  5-C , 14-H ) :  -0.1183
B(  5-C , 16-H ) :  -0.1391 B(  6-C ,  8-C ) :   0.1542 B(  6-C ,  9-C ) :   0.1244
B(  6-C , 10-C ) :   1.3358 B(  6-C , 12-H ) :  -0.1383 B(  6-C , 13-H ) :   0.9391
B(  7-C ,  8-C ) :   1.3588 B(  7-C ,  9-C ) :   0.1067 B(  7-C , 10-C ) :   0.1370
B(  7-C , 14-H ) :   0.9319 B(  7-C , 15-H ) :  -0.1297 B(  8-C ,  9-C ) :   1.1327
B(  8-C , 10-C ) :  -0.1272 B(  8-C , 15-H ) :   1.1157 B(  9-C , 10-C ) :   1.1393
B(  9-C , 11-H ) :   0.9740 B( 10-C , 12-H ) :   1.1131

MP2 TOTAL ENERGY:     -612.550532587 Eh
FINAL SINGLE POINT ENERGY      -612.550532586708

DIPOLE MOMENT
-------------
                                X             Y             Z
Electronic contribution:     -0.03993      -2.07937      -3.40807
Nuclear contribution   :      0.30718       2.41879       3.79255
                        -----------------------------------------
Total Dipole Moment    :      0.26725       0.33942       0.38448
                        -----------------------------------------
Magnitude (a.u.)       :      0.57832
Magnitude (Debye)      :      1.46997

Rotational constants in cm-1:     0.132520     0.036313     0.032309
Rotational constants in MHz :  3972.836467  1088.640318   968.584906

                             ****ORCA TERMINATED NORMALLY****
TOTAL RUN TIME: 0 days 0 hours 34 minutes 13 seconds 953 msec
