                         Program Version 5.0.4 -  RELEASE  -
|  1> ! ri-mp2 aug-cc-pvdz aug-cc-pvdz/c tightscf
|  2> %pal nprocs 16 end
|  3> %maxcore 3800
|  4> %base "DZ_B-P_55_AB"
|  5> %scf
|  6> STABPerform true
|  7> STABRestartUHFifUnstable true
|  8> end
|  9>
| 10> *xyz 0 1
| 11> C         1.509123    0.192666   -0.012807
| 12> B        -1.486418    0.045904    0.031829
| 13> C        -1.639264    1.592793    0.108459
| 14> H        -0.702800    2.133102    0.238935
| 15> H        -2.361838    1.899819    0.866918
| 16> H        -2.048442    1.920362   -0.856091
| 17> O         1.571067    1.389979   -0.124920
| 18> C         2.605222   -0.610191    0.637725
| 19> H         2.888056   -1.456586    0.010843
| 20> H         2.247081   -1.012905    1.586722
| 21> H         3.465879    0.030992    0.814930
| 22> C        -2.652377   -0.908880    0.450664
| 23> H        -3.628284   -0.503095    0.174538
| 24> H        -2.647025   -0.950821    1.547051
| 25> H        -2.579027   -1.935020    0.091364
| 26> P         0.074629   -0.741062   -0.715145
| 27> H         0.174290   -1.957606   -0.012064
| 28> *
| 29>
| 30> $new_job
| 31> ! ri-mp2 aug-cc-pvtz aug-cc-pvtz/c tightscf
| 32> %pal nprocs 16 end
| 33> %maxcore 3800
| 34> %base "TZ_B-P_55_AB"
| 35>
| 36> *xyz 0 1
| 37> C         1.509123    0.192666   -0.012807
| 38> B        -1.486418    0.045904    0.031829
| 39> C        -1.639264    1.592793    0.108459
| 40> H        -0.702800    2.133102    0.238935
| 41> H        -2.361838    1.899819    0.866918
| 42> H        -2.048442    1.920362   -0.856091
| 43> O         1.571067    1.389979   -0.124920
| 44> C         2.605222   -0.610191    0.637725
| 45> H         2.888056   -1.456586    0.010843
| 46> H         2.247081   -1.012905    1.586722
| 47> H         3.465879    0.030992    0.814930
| 48> C        -2.652377   -0.908880    0.450664
| 49> H        -3.628284   -0.503095    0.174538
| 50> H        -2.647025   -0.950821    1.547051
| 51> H        -2.579027   -1.935020    0.091364
| 52> P         0.074629   -0.741062   -0.715145
| 53> H         0.174290   -1.957606   -0.012064
| 54> *
| 55>
| 56> $new_job
| 57> ! ri-mp2 aug-cc-pvqz aug-cc-pvqz/c tightscf
| 58> %pal nprocs 16 end
| 59> %maxcore 3800
| 60> %base "QZ_B-P_55_AB"
| 61>
| 62> *xyz 0 1
| 63> C         1.509123    0.192666   -0.012807
| 64> B        -1.486418    0.045904    0.031829
| 65> C        -1.639264    1.592793    0.108459
| 66> H        -0.702800    2.133102    0.238935
| 67> H        -2.361838    1.899819    0.866918
| 68> H        -2.048442    1.920362   -0.856091
| 69> O         1.571067    1.389979   -0.124920
| 70> C         2.605222   -0.610191    0.637725
| 71> H         2.888056   -1.456586    0.010843
| 72> H         2.247081   -1.012905    1.586722
| 73> H         3.465879    0.030992    0.814930
| 74> C        -2.652377   -0.908880    0.450664
| 75> H        -3.628284   -0.503095    0.174538
| 76> H        -2.647025   -0.950821    1.547051
| 77> H        -2.579027   -1.935020    0.091364
| 78> P         0.074629   -0.741062   -0.715145
| 79> H         0.174290   -1.957606   -0.012064
| 80> *
| 81>
| 82>
| 83>
| 84>
| 85>                          ****END OF INPUT****
 Total Charge           Charge          ....    0
 Multiplicity           Mult            ....    1
 Number of Electrons    NEL             ....   62
MP2 TOTAL ENERGY:     -598.610867341 Eh
FINAL SINGLE POINT ENERGY      -598.610867341160
MP2 TOTAL ENERGY:     -598.887426220 Eh
FINAL SINGLE POINT ENERGY      -598.887426220344

CARTESIAN COORDINATES (ANGSTROEM)
---------------------------------
  C      1.509123    0.192666   -0.012807
  B     -1.486418    0.045904    0.031829
  C     -1.639264    1.592793    0.108459
  H     -0.702800    2.133102    0.238935
  H     -2.361838    1.899819    0.866918
  H     -2.048442    1.920362   -0.856091
  O      1.571067    1.389979   -0.124920
  C      2.605222   -0.610191    0.637725
  H      2.888056   -1.456586    0.010843
  H      2.247081   -1.012905    1.586722
  H      3.465879    0.030992    0.814930
  C     -2.652377   -0.908880    0.450664
  H     -3.628284   -0.503095    0.174538
  H     -2.647025   -0.950821    1.547051
  H     -2.579027   -1.935020    0.091364
  P      0.074629   -0.741062   -0.715145
  H      0.174290   -1.957606   -0.012064

 Multiplicity           Mult            ....    1
 Number of Electrons    NEL             ....   62
 Basis Dimension        Dim             .... 1024

ORBITAL ENERGIES
----------------

  NO   OCC          E(Eh)            E(eV)
   0   2.0000     -79.928634     -2174.9687
   1   2.0000     -20.550511      -559.2078
   2   2.0000     -11.338935      -308.5481
   3   2.0000     -11.238038      -305.8026
   4   2.0000     -11.202946      -304.8477
   5   2.0000     -11.189921      -304.4932
   6   2.0000      -7.608646      -207.0418
   7   2.0000      -7.475846      -203.4281
   8   2.0000      -5.370150      -146.1292
   9   2.0000      -5.369697      -146.1169
  10   2.0000      -5.369480      -146.1110
  11   2.0000      -1.397712       -38.0337
  12   2.0000      -1.022966       -27.8363
  13   2.0000      -0.980273       -26.6746
  14   2.0000      -0.929900       -25.3039
  15   2.0000      -0.879394       -23.9295
  16   2.0000      -0.734360       -19.9830
  17   2.0000      -0.649457       -17.6726
  18   2.0000      -0.633318       -17.2335
  19   2.0000      -0.610212       -16.6047
  20   2.0000      -0.601155       -16.3583
  21   2.0000      -0.575730       -15.6664
  22   2.0000      -0.565254       -15.3813
  23   2.0000      -0.561824       -15.2880
  24   2.0000      -0.536440       -14.5973
  25   2.0000      -0.533811       -14.5257
  26   2.0000      -0.507649       -13.8138
  27   2.0000      -0.473751       -12.8914
  28   2.0000      -0.455835       -12.4039
  29   2.0000      -0.393559       -10.7093
  30   2.0000      -0.352692        -9.5972
  31   0.0000       0.019259         0.5241
  32   0.0000       0.029136         0.7928
  33   0.0000       0.032156         0.8750
  34   0.0000       0.034691         0.9440
  35   0.0000       0.045193         1.2298

MULLIKEN ATOMIC CHARGES
-----------------------
   0 C :    0.536221
   1 B :    0.141361
   2 C :   -1.103427
   3 H :    0.424250
   4 H :    0.321812
   5 H :    0.292631
   6 O :   -0.818369
   7 C :   -0.888600
   8 H :    0.242117
   9 H :    0.265375
  10 H :    0.346336
  11 C :   -1.042071
  12 H :    0.319822
  13 H :    0.274002
  14 H :    0.300764
  15 P :    0.480388
  16 H :   -0.092612
Sum of atomic charges:    0.0000000

LOEWDIN ATOMIC CHARGES
----------------------
   0 C :   -0.859968
   1 B :   -0.712821
   2 C :    0.998321
   3 H :   -0.369070
   4 H :   -0.299313
   5 H :   -0.293762
   6 O :    0.667318
   7 C :    0.810542
   8 H :   -0.317233
   9 H :   -0.306242
  10 H :   -0.321524
  11 C :    0.990081
  12 H :   -0.299841
  13 H :   -0.297102
  14 H :   -0.321584
  15 P :    1.367871
  16 H :   -0.435674

  Mayer bond orders larger than 0.100000
B(  0-C ,  6-O ) :   1.2372 B(  0-C ,  7-C ) :   0.9004 B(  0-C , 15-P ) :   0.7649
B(  1-B ,  2-C ) :   1.0367 B(  1-B , 11-C ) :   0.9862 B(  1-B , 15-P ) :   1.0364
B(  2-C ,  3-H ) :   0.8159 B(  2-C ,  4-H ) :   0.8740 B(  2-C ,  5-H ) :   0.8808
B(  6-O ,  7-C ) :   0.1121 B(  7-C ,  8-H ) :   0.9914 B(  7-C ,  9-H ) :   0.8988
B(  7-C , 10-H ) :   0.9216 B( 11-C , 12-H ) :   0.8948 B( 11-C , 13-H ) :   0.9150
B( 11-C , 14-H ) :   0.9072 B( 15-P , 16-H ) :   1.0005

MP2 TOTAL ENERGY:     -598.974440491 Eh
FINAL SINGLE POINT ENERGY      -598.974440490971

DIPOLE MOMENT
-------------
                                X             Y             Z
Electronic contribution:      3.81196       0.18050      -4.57113
Nuclear contribution   :     -4.05926      -1.14632       5.14016
                        -----------------------------------------
Total Dipole Moment    :     -0.24730      -0.96582       0.56903
                        -----------------------------------------
Magnitude (a.u.)       :      1.14793
Magnitude (Debye)      :      2.91782

Rotational constants in cm-1:     0.114283     0.044047     0.035915
Rotational constants in MHz :  3426.128466  1320.485780  1076.703601

                             ****ORCA TERMINATED NORMALLY****
TOTAL RUN TIME: 0 days 2 hours 0 minutes 46 seconds 610 msec
