                         Program Version 5.0.4 -  RELEASE  -
|  1> ! ri-mp2 aug-cc-pvdz aug-cc-pvdz/c tightscf
|  2> %pal nprocs 16 end
|  3> %maxcore 3800
|  4> %base "DZ_B-P_13_AB"
|  5>
|  6> *xyz 0 1
|  7> O        -1.080761    0.789558    0.480653
|  8> C        -2.386695    1.051733    0.230116
|  9> C        -0.828167   -0.497220    0.063810
| 10> C        -2.981172   -0.018061   -0.332036
| 11> C        -1.969423   -1.018714   -0.443297
| 12> H        -4.012007   -0.091593   -0.632453
| 13> H        -2.734715    2.031366    0.506531
| 14> H        -2.074751   -2.010383   -0.848867
| 15> B         1.989993    0.321513   -0.116714
| 16> O         1.547438    1.582562   -0.291043
| 17> O         3.331563    0.123443   -0.189005
| 18> H         3.610945   -0.793412   -0.148176
| 19> H         0.603045    1.682323   -0.125893
| 20> P         0.820484   -1.221542    0.206725
| 21> H         0.957090   -1.173661    1.615153
| 22> *
| 23>
| 24> $new_job
| 25> ! ri-mp2 aug-cc-pvtz aug-cc-pvtz/c tightscf
| 26> %pal nprocs 16 end
| 27> %maxcore 3800
| 28> %base "TZ_B-P_13_AB"
| 29>
| 30> *xyz 0 1
| 31> O        -1.080761    0.789558    0.480653
| 32> C        -2.386695    1.051733    0.230116
| 33> C        -0.828167   -0.497220    0.063810
| 34> C        -2.981172   -0.018061   -0.332036
| 35> C        -1.969423   -1.018714   -0.443297
| 36> H        -4.012007   -0.091593   -0.632453
| 37> H        -2.734715    2.031366    0.506531
| 38> H        -2.074751   -2.010383   -0.848867
| 39> B         1.989993    0.321513   -0.116714
| 40> O         1.547438    1.582562   -0.291043
| 41> O         3.331563    0.123443   -0.189005
| 42> H         3.610945   -0.793412   -0.148176
| 43> H         0.603045    1.682323   -0.125893
| 44> P         0.820484   -1.221542    0.206725
| 45> H         0.957090   -1.173661    1.615153
| 46> *
| 47>
| 48> $new_job
| 49> ! ri-mp2 aug-cc-pvqz aug-cc-pvqz/c tightscf
| 50> %pal nprocs 16 end
| 51> %maxcore 3800
| 52> %base "QZ_B-P_13_AB"
| 53>
| 54> *xyz 0 1
| 55> O        -1.080761    0.789558    0.480653
| 56> C        -2.386695    1.051733    0.230116
| 57> C        -0.828167   -0.497220    0.063810
| 58> C        -2.981172   -0.018061   -0.332036
| 59> C        -1.969423   -1.018714   -0.443297
| 60> H        -4.012007   -0.091593   -0.632453
| 61> H        -2.734715    2.031366    0.506531
| 62> H        -2.074751   -2.010383   -0.848867
| 63> B         1.989993    0.321513   -0.116714
| 64> O         1.547438    1.582562   -0.291043
| 65> O         3.331563    0.123443   -0.189005
| 66> H         3.610945   -0.793412   -0.148176
| 67> H         0.603045    1.682323   -0.125893
| 68> P         0.820484   -1.221542    0.206725
| 69> H         0.957090   -1.173661    1.615153
| 70> *
| 71>
| 72>
| 73>
| 74>
| 75>                          ****END OF INPUT****
 Total Charge           Charge          ....    0
 Multiplicity           Mult            ....    1
 Number of Electrons    NEL             ....   74
MP2 TOTAL ENERGY:     -746.452947070 Eh
FINAL SINGLE POINT ENERGY      -746.452947070469
MP2 TOTAL ENERGY:     -746.846105463 Eh
FINAL SINGLE POINT ENERGY      -746.846105462950

CARTESIAN COORDINATES (ANGSTROEM)
---------------------------------
  O     -1.080761    0.789558    0.480653
  C     -2.386695    1.051733    0.230116
  C     -0.828167   -0.497220    0.063810
  C     -2.981172   -0.018061   -0.332036
  C     -1.969423   -1.018714   -0.443297
  H     -4.012007   -0.091593   -0.632453
  H     -2.734715    2.031366    0.506531
  H     -2.074751   -2.010383   -0.848867
  B      1.989993    0.321513   -0.116714
  O      1.547438    1.582562   -0.291043
  O      3.331563    0.123443   -0.189005
  H      3.610945   -0.793412   -0.148176
  H      0.603045    1.682323   -0.125893
  P      0.820484   -1.221542    0.206725
  H      0.957090   -1.173661    1.615153

 Multiplicity           Mult            ....    1
 Number of Electrons    NEL             ....   74
 Basis Dimension        Dim             .... 1000

ORBITAL ENERGIES
----------------

  NO   OCC          E(Eh)            E(eV)
   0   2.0000     -79.938513     -2175.2375
   1   2.0000     -20.639286      -561.6235
   2   2.0000     -20.570409      -559.7493
   3   2.0000     -20.561152      -559.4974
   4   2.0000     -11.304949      -307.6233
   5   2.0000     -11.299406      -307.4725
   6   2.0000     -11.246465      -306.0319
   7   2.0000     -11.242177      -305.9152
   8   2.0000      -7.653028      -208.2495
   9   2.0000      -7.483222      -203.6288
  10   2.0000      -5.377604      -146.3320
  11   2.0000      -5.377049      -146.3170
  12   2.0000      -5.376578      -146.3041
  13   2.0000      -1.477847       -40.2143
  14   2.0000      -1.385129       -37.6913
  15   2.0000      -1.349973       -36.7346
  16   2.0000      -1.104491       -30.0547
  17   2.0000      -1.032318       -28.0908
  18   2.0000      -0.873966       -23.7818
  19   2.0000      -0.824400       -22.4331
  20   2.0000      -0.794890       -21.6301
  21   2.0000      -0.779968       -21.2240
  22   2.0000      -0.719834       -19.5877
  23   2.0000      -0.684362       -18.6224
  24   2.0000      -0.660652       -17.9773
  25   2.0000      -0.628657       -17.1066
  26   2.0000      -0.602726       -16.4010
  27   2.0000      -0.595101       -16.1935
  28   2.0000      -0.582362       -15.8469
  29   2.0000      -0.575710       -15.6659
  30   2.0000      -0.569393       -15.4940
  31   2.0000      -0.523935       -14.2570
  32   2.0000      -0.502036       -13.6611
  33   2.0000      -0.464543       -12.6408
  34   2.0000      -0.416035       -11.3209
  35   2.0000      -0.369994       -10.0680
  36   2.0000      -0.335265        -9.1230
  37   0.0000       0.020002         0.5443
  38   0.0000       0.027131         0.7383
  39   0.0000       0.028887         0.7860
  40   0.0000       0.038566         1.0494
  41   0.0000       0.040643         1.1060

MULLIKEN ATOMIC CHARGES
-----------------------
   0 O :   -0.568314
   1 C :   -0.539226
   2 C :    0.351913
   3 C :   -0.338401
   4 C :   -0.674042
   5 H :    0.475904
   6 H :    0.567589
   7 H :    0.408239
   8 B :    1.379966
   9 O :   -1.145436
  10 O :   -1.107807
  11 H :    0.357027
  12 H :    0.394367
  13 P :    0.503398
  14 H :   -0.065179
Sum of atomic charges:   -0.0000000

LOEWDIN ATOMIC CHARGES
----------------------
   0 O :    0.819136
   1 C :    0.008851
   2 C :   -0.670485
   3 C :    0.303486
   4 C :    0.211834
   5 H :   -0.326315
   6 H :   -0.322641
   7 H :   -0.330899
   8 B :   -1.404957
   9 O :    1.322942
  10 O :    1.287391
  11 H :   -0.834894
  12 H :   -0.969561
  13 P :    1.350927
  14 H :   -0.444814

  Mayer bond orders larger than 0.100000
B(  0-O ,  1-C ) :   1.1427 B(  0-O ,  2-C ) :   0.5882 B(  1-C ,  2-C ) :  -0.1373
B(  1-C ,  3-C ) :   1.6917 B(  1-C ,  4-C ) :   0.1085 B(  1-C ,  6-H ) :   0.7276
B(  2-C ,  3-C ) :  -0.3976 B(  2-C ,  4-C ) :   0.9688 B(  2-C , 13-P ) :   0.6729
B(  3-C ,  4-C ) :   1.1948 B(  3-C ,  5-H ) :   0.8071 B(  4-C ,  7-H ) :   0.8692
B(  4-C , 13-P ) :  -0.1793 B(  8-B ,  9-O ) :   0.4170 B(  8-B , 10-O ) :   0.4778
B(  8-B , 13-P ) :   1.0062 B(  9-O , 12-H ) :   0.8889 B( 10-O , 11-H ) :   0.9322
B( 10-O , 13-P ) :  -0.1386 B( 13-P , 14-H ) :   0.9153

MP2 TOTAL ENERGY:     -746.974258384 Eh
FINAL SINGLE POINT ENERGY      -746.974258384168

DIPOLE MOMENT
-------------
                                X             Y             Z
Electronic contribution:      4.64192      -1.08147      -0.11077
Nuclear contribution   :     -5.77214       0.56825       0.25451
                        -----------------------------------------
Total Dipole Moment    :     -1.13022      -0.51322       0.14374
                        -----------------------------------------
Magnitude (a.u.)       :      1.24958
Magnitude (Debye)      :      3.17617

Rotational constants in cm-1:     0.108811     0.028765     0.023743
Rotational constants in MHz :  3262.072782   862.342603   711.789419

                             ****ORCA TERMINATED NORMALLY****
TOTAL RUN TIME: 0 days 0 hours 23 minutes 22 seconds 904 msec
