                         Program Version 5.0.4 -  RELEASE  -
|  1> ! ri-mp2 aug-cc-pvdz aug-cc-pvdz/c tightscf
|  2> %pal nprocs 16 end
|  3> %maxcore 3800
|  4> %base "DZ_B-S_10_AB"
|  5>
|  6> *xyz 0 1
|  7> F        -0.307276   -2.381694   -0.000083
|  8> F         3.293245    1.634400    0.000072
|  9> S        -1.832436    2.080828   -0.000070
| 10> S        -2.701495   -0.964380    0.000089
| 11> C         0.078845   -0.052618    0.000000
| 12> C         0.561029   -1.356104   -0.000045
| 13> C         1.901649   -1.679318   -0.000056
| 14> H         2.193909   -2.719537   -0.000094
| 15> C         2.838342   -0.665103   -0.000017
| 16> H         3.898992   -0.872268   -0.000022
| 17> C         2.390043    0.639330    0.000031
| 18> C         1.053928    0.952837    0.000039
| 19> H         0.776482    1.997810    0.000080
| 20> B        -1.440968    0.317066    0.000008
| 21> H        -3.166677    1.995991   -0.000017
| 22> H        -3.771705   -0.158983    0.000098
| 23> *
| 24>
| 25> $new_job
| 26> ! ri-mp2 aug-cc-pvtz aug-cc-pvtz/c tightscf
| 27> %pal nprocs 16 end
| 28> %maxcore 3800
| 29> %base "TZ_B-S_10_AB"
| 30>
| 31> *xyz 0 1
| 32> F        -0.307276   -2.381694   -0.000083
| 33> F         3.293245    1.634400    0.000072
| 34> S        -1.832436    2.080828   -0.000070
| 35> S        -2.701495   -0.964380    0.000089
| 36> C         0.078845   -0.052618    0.000000
| 37> C         0.561029   -1.356104   -0.000045
| 38> C         1.901649   -1.679318   -0.000056
| 39> H         2.193909   -2.719537   -0.000094
| 40> C         2.838342   -0.665103   -0.000017
| 41> H         3.898992   -0.872268   -0.000022
| 42> C         2.390043    0.639330    0.000031
| 43> C         1.053928    0.952837    0.000039
| 44> H         0.776482    1.997810    0.000080
| 45> B        -1.440968    0.317066    0.000008
| 46> H        -3.166677    1.995991   -0.000017
| 47> H        -3.771705   -0.158983    0.000098
| 48> *
| 49>
| 50> $new_job
| 51> ! ri-mp2 aug-cc-pvqz aug-cc-pvqz/c tightscf
| 52> %pal nprocs 16 end
| 53> %maxcore 3800
| 54> %base "QZ_B-S_10_AB"
| 55>
| 56> *xyz 0 1
| 57> F        -0.307276   -2.381694   -0.000083
| 58> F         3.293245    1.634400    0.000072
| 59> S        -1.832436    2.080828   -0.000070
| 60> S        -2.701495   -0.964380    0.000089
| 61> C         0.078845   -0.052618    0.000000
| 62> C         0.561029   -1.356104   -0.000045
| 63> C         1.901649   -1.679318   -0.000056
| 64> H         2.193909   -2.719537   -0.000094
| 65> C         2.838342   -0.665103   -0.000017
| 66> H         3.898992   -0.872268   -0.000022
| 67> C         2.390043    0.639330    0.000031
| 68> C         1.053928    0.952837    0.000039
| 69> H         0.776482    1.997810    0.000080
| 70> B        -1.440968    0.317066    0.000008
| 71> H        -3.166677    1.995991   -0.000017
| 72> H        -3.771705   -0.158983    0.000098
| 73> *
| 74>
| 75>
| 76>
| 77>
| 78>                          ****END OF INPUT****
 Total Charge           Charge          ....    0
 Multiplicity           Mult            ....    1
 Number of Electrons    NEL             ....   96
MP2 TOTAL ENERGY:    -1250.432016294 Eh
FINAL SINGLE POINT ENERGY     -1250.432016293505
MP2 TOTAL ENERGY:    -1250.915055826 Eh
FINAL SINGLE POINT ENERGY     -1250.915055825534

CARTESIAN COORDINATES (ANGSTROEM)
---------------------------------
  F     -0.307276   -2.381694   -0.000083
  F      3.293245    1.634400    0.000072
  S     -1.832436    2.080828   -0.000070
  S     -2.701495   -0.964380    0.000089
  C      0.078845   -0.052618    0.000000
  C      0.561029   -1.356104   -0.000045
  C      1.901649   -1.679318   -0.000056
  H      2.193909   -2.719537   -0.000094
  C      2.838342   -0.665103   -0.000017
  H      3.898992   -0.872268   -0.000022
  C      2.390043    0.639330    0.000031
  C      1.053928    0.952837    0.000039
  H      0.776482    1.997810    0.000080
  B     -1.440968    0.317066    0.000008
  H     -3.166677    1.995991   -0.000017
  H     -3.771705   -0.158983    0.000098

 Multiplicity           Mult            ....    1
 Number of Electrons    NEL             ....   96
 Basis Dimension        Dim             .... 1118

ORBITAL ENERGIES
----------------

  NO   OCC          E(Eh)            E(eV)
   0   2.0000     -91.963259     -2502.4475
   1   2.0000     -91.960669     -2502.3770
   2   2.0000     -26.318556      -716.1643
   3   2.0000     -26.314416      -716.0517
   4   2.0000     -11.343633      -308.6760
   5   2.0000     -11.333837      -308.4094
   6   2.0000     -11.268159      -306.6222
   7   2.0000     -11.264296      -306.5171
   8   2.0000     -11.259971      -306.3994
   9   2.0000     -11.250425      -306.1396
  10   2.0000      -8.968562      -244.0470
  11   2.0000      -8.965509      -243.9639
  12   2.0000      -7.663859      -208.5442
  13   2.0000      -6.650177      -180.9605
  14   2.0000      -6.649139      -180.9323
  15   2.0000      -6.648703      -180.9204
  16   2.0000      -6.646967      -180.8732
  17   2.0000      -6.645900      -180.8441
  18   2.0000      -6.645445      -180.8317
  19   2.0000      -1.642059       -44.6827
  20   2.0000      -1.635598       -44.5069
  21   2.0000      -1.189395       -32.3651
  22   2.0000      -1.066112       -29.0104
  23   2.0000      -1.039801       -28.2944
  24   2.0000      -1.014079       -27.5945
  25   2.0000      -0.967487       -26.3267
  26   2.0000      -0.891176       -24.2501
  27   2.0000      -0.864199       -23.5161
  28   2.0000      -0.769424       -20.9371
  29   2.0000      -0.755937       -20.5701
  30   2.0000      -0.750671       -20.4268
  31   2.0000      -0.710145       -19.3240
  32   2.0000      -0.703314       -19.1381
  33   2.0000      -0.679323       -18.4853
  34   2.0000      -0.670675       -18.2500
  35   2.0000      -0.639060       -17.3897
  36   2.0000      -0.612857       -16.6767
  37   2.0000      -0.596505       -16.2317
  38   2.0000      -0.568273       -15.4635
  39   2.0000      -0.561117       -15.2688
  40   2.0000      -0.532960       -14.5026
  41   2.0000      -0.528675       -14.3860
  42   2.0000      -0.500113       -13.6088
  43   2.0000      -0.444285       -12.0896
  44   2.0000      -0.434021       -11.8103
  45   2.0000      -0.376909       -10.2562
  46   2.0000      -0.368178       -10.0186
  47   2.0000      -0.350459        -9.5365
  48   0.0000       0.022179         0.6035
  49   0.0000       0.026039         0.7086
  50   0.0000       0.033385         0.9084
  51   0.0000       0.037427         1.0184
  52   0.0000       0.040407         1.0995

MULLIKEN ATOMIC CHARGES
-----------------------
   0 F :   -0.802717
   1 F :   -0.800646
   2 S :   -0.024606
   3 S :    0.029352
   4 C :   -0.225183
   5 C :    1.124306
   6 C :   -0.425043
   7 H :    0.317284
   8 C :   -0.529760
   9 H :    0.418589
  10 C :    1.146070
  11 C :   -0.773339
  12 H :    0.232782
  13 B :    0.465535
  14 H :   -0.083731
  15 H :   -0.068896
Sum of atomic charges:   -0.0000000

LOEWDIN ATOMIC CHARGES
----------------------
   0 F :    0.793154
   1 F :    0.785941
   2 S :    1.735917
   3 S :    1.707676
   4 C :   -0.160087
   5 C :   -0.737219
   6 C :    0.300995
   7 H :   -0.325120
   8 C :    0.305275
   9 H :   -0.317582
  10 C :   -0.671011
  11 C :    0.214730
  12 H :   -0.399937
  13 B :   -1.617768
  14 H :   -0.802442
  15 H :   -0.812524

  Mayer bond orders larger than 0.100000
B(  0-F ,  4-C ) :   0.2854 B(  0-F ,  5-C ) :  -0.1552 B(  1-F ,  8-C ) :   0.1414
B(  1-F , 10-C ) :  -0.1855 B(  1-F , 11-C ) :   0.2449 B(  2-S , 13-B ) :   1.1339
B(  2-S , 14-H ) :   1.1041 B(  3-S , 13-B ) :   1.1327 B(  3-S , 15-H ) :   1.1145
B(  4-C ,  5-C ) :   1.1447 B(  4-C ,  6-C ) :  -0.1550 B(  4-C , 10-C ) :  -0.3868
B(  4-C , 11-C ) :   0.9599 B(  4-C , 13-B ) :   1.1056 B(  5-C ,  6-C ) :   1.2642
B(  5-C , 10-C ) :   0.2074 B(  6-C ,  7-H ) :   0.9603 B(  6-C ,  8-C ) :   1.2280
B(  6-C , 10-C ) :  -0.1109 B(  6-C , 11-C ) :   0.1263 B(  8-C ,  9-H ) :   0.8417
B(  8-C , 10-C ) :   1.3386 B(  8-C , 11-C ) :   0.1025 B( 10-C , 11-C ) :   1.4837
B( 11-C , 12-H ) :   0.9567 B( 11-C , 13-B ) :  -0.1010 B( 13-B , 14-H ) :  -0.1234
B( 13-B , 15-H ) :  -0.1302

MP2 TOTAL ENERGY:    -1251.073238060 Eh
FINAL SINGLE POINT ENERGY     -1251.073238059651

DIPOLE MOMENT
-------------
                                X             Y             Z
Electronic contribution:      1.56871      -0.75624      -0.00004
Nuclear contribution   :     -1.62890       0.65568       0.00005
                        -----------------------------------------
Total Dipole Moment    :     -0.06019      -0.10056       0.00001
                        -----------------------------------------
Magnitude (a.u.)       :      0.11719
Magnitude (Debye)      :      0.29788

Rotational constants in cm-1:     0.040063     0.019974     0.013329
Rotational constants in MHz :  1201.059852   598.797865   399.582739

                             ****ORCA TERMINATED NORMALLY****
TOTAL RUN TIME: 0 days 0 hours 44 minutes 33 seconds 542 msec
