                         Program Version 5.0.4 -  RELEASE  -
|  1> ! ri-mp2 aug-cc-pvdz aug-cc-pvdz/c tightscf
|  2> %pal nprocs 16 end
|  3> %maxcore 3800
|  4> %base "DZ_B-Cl_23_AB"
|  5> %scf
|  6> STABPerform true
|  7> STABRestartUHFifUnstable true
|  8> end
|  9>
| 10> *xyz 0 1
| 11> Cl         1.434027    1.605398   -0.028431
| 12> Cl         1.694975   -1.413238   -0.000083
| 13> B         0.759450    0.022285   -0.029717
| 14> S        -1.115316   -0.188904    0.030833
| 15> O        -1.519296   -1.209110   -0.870796
| 16> O        -1.445106   -0.230987    1.424287
| 17> O        -1.695263    1.171576   -0.556707
| 18> H        -1.867917    1.792495    0.165733
| 19> *
| 20>
| 21> $new_job
| 22> ! ri-mp2 aug-cc-pvtz aug-cc-pvtz/c tightscf
| 23> %pal nprocs 16 end
| 24> %maxcore 3800
| 25> %base "TZ_B-Cl_23_AB"
| 26>
| 27> *xyz 0 1
| 28> Cl         1.434027    1.605398   -0.028431
| 29> Cl         1.694975   -1.413238   -0.000083
| 30> B         0.759450    0.022285   -0.029717
| 31> S        -1.115316   -0.188904    0.030833
| 32> O        -1.519296   -1.209110   -0.870796
| 33> O        -1.445106   -0.230987    1.424287
| 34> O        -1.695263    1.171576   -0.556707
| 35> H        -1.867917    1.792495    0.165733
| 36> *
| 37>
| 38> $new_job
| 39> ! ri-mp2 aug-cc-pvqz aug-cc-pvqz/c tightscf
| 40> %pal nprocs 16 end
| 41> %maxcore 3800
| 42> %base "QZ_B-Cl_23_AB"
| 43>
| 44> *xyz 0 1
| 45> Cl         1.434027    1.605398   -0.028431
| 46> Cl         1.694975   -1.413238   -0.000083
| 47> B         0.759450    0.022285   -0.029717
| 48> S        -1.115316   -0.188904    0.030833
| 49> O        -1.519296   -1.209110   -0.870796
| 50> O        -1.445106   -0.230987    1.424287
| 51> O        -1.695263    1.171576   -0.556707
| 52> H        -1.867917    1.792495    0.165733
| 53> *
| 54>
| 55>
| 56>
| 57>
| 58>                          ****END OF INPUT****
 Total Charge           Charge          ....    0
 Multiplicity           Mult            ....    1
 Number of Electrons    NEL             ....   80
MP2 TOTAL ENERGY:    -1567.544946638 Eh
FINAL SINGLE POINT ENERGY     -1567.544946637817
MP2 TOTAL ENERGY:    -1567.973015274 Eh
FINAL SINGLE POINT ENERGY     -1567.973015273860

CARTESIAN COORDINATES (ANGSTROEM)
---------------------------------
  Cl     1.434027    1.605398   -0.028431
  Cl     1.694975   -1.413238   -0.000083
  B      0.759450    0.022285   -0.029717
  S     -1.115316   -0.188904    0.030833
  O     -1.519296   -1.209110   -0.870796
  O     -1.445106   -0.230987    1.424287
  O     -1.695263    1.171576   -0.556707
  H     -1.867917    1.792495    0.165733

 Multiplicity           Mult            ....    1
 Number of Electrons    NEL             ....   80
 Basis Dimension        Dim             ....  618

ORBITAL ENERGIES
----------------

  NO   OCC          E(Eh)            E(eV)
   0   2.0000    -104.889407     -2854.1859
   1   2.0000    -104.884519     -2854.0528
   2   2.0000     -92.217609     -2509.3687
   3   2.0000     -20.645792      -561.8006
   4   2.0000     -20.575935      -559.8997
   5   2.0000     -20.571557      -559.7805
   6   2.0000     -10.617022      -288.9039
   7   2.0000     -10.612074      -288.7692
   8   2.0000      -9.184129      -249.9129
   9   2.0000      -8.083840      -219.9725
  10   2.0000      -8.082672      -219.9407
  11   2.0000      -8.082378      -219.9327
  12   2.0000      -8.078894      -219.8379
  13   2.0000      -8.077700      -219.8054
  14   2.0000      -8.077390      -219.7969
  15   2.0000      -7.776770      -211.6167
  16   2.0000      -6.870482      -186.9553
  17   2.0000      -6.868797      -186.9095
  18   2.0000      -6.868609      -186.9043
  19   2.0000      -1.530759       -41.6541
  20   2.0000      -1.411928       -38.4205
  21   2.0000      -1.380733       -37.5716
  22   2.0000      -1.192664       -32.4540
  23   2.0000      -1.149228       -31.2721
  24   2.0000      -0.936522       -25.4841
  25   2.0000      -0.811819       -22.0907
  26   2.0000      -0.743107       -20.2210
  27   2.0000      -0.706308       -19.2196
  28   2.0000      -0.689631       -18.7658
  29   2.0000      -0.648043       -17.6341
  30   2.0000      -0.627681       -17.0801
  31   2.0000      -0.590123       -16.0581
  32   2.0000      -0.566190       -15.4068
  33   2.0000      -0.560393       -15.2491
  34   2.0000      -0.543458       -14.7882
  35   2.0000      -0.527949       -14.3662
  36   2.0000      -0.507002       -13.7962
  37   2.0000      -0.503844       -13.7103
  38   2.0000      -0.495549       -13.4846
  39   2.0000      -0.464813       -12.6482
  40   0.0000       0.021907         0.5961
  41   0.0000       0.031738         0.8636
  42   0.0000       0.032202         0.8763
  43   0.0000       0.038006         1.0342
  44   0.0000       0.041177         1.1205

MULLIKEN ATOMIC CHARGES
-----------------------
   0 Cl:   -0.103756
   1 Cl:   -0.082621
   2 B :    0.320819
   3 S :    2.631816
   4 O :   -1.195670
   5 O :   -1.141835
   6 O :   -0.785926
   7 H :    0.357174
Sum of atomic charges:    0.0000000

LOEWDIN ATOMIC CHARGES
----------------------
   0 Cl:    1.278337
   1 Cl:    1.290761
   2 B :   -2.588332
   3 S :   -0.658405
   4 O :    0.265287
   5 O :    0.289392
   6 O :    1.007629
   7 H :   -0.884669

  Mayer bond orders larger than 0.100000
B(  0-Cl,  2-B ) :   1.1533 B(  1-Cl,  2-B ) :   1.1622 B(  2-B ,  3-S ) :   0.8893
B(  3-S ,  4-O ) :   1.1677 B(  3-S ,  5-O ) :   1.2059 B(  3-S ,  6-O ) :   0.6823
B(  6-O ,  7-H ) :   0.8832

MP2 TOTAL ENERGY:    -1568.116913587 Eh
FINAL SINGLE POINT ENERGY     -1568.116913587374

DIPOLE MOMENT
-------------
                                X             Y             Z
Electronic contribution:      7.39778      -0.21077      -0.15603
Nuclear contribution   :     -6.45675       1.38562       0.21180
                        -----------------------------------------
Total Dipole Moment    :      0.94102       1.17485       0.05577
                        -----------------------------------------
Magnitude (a.u.)       :      1.50629
Magnitude (Debye)      :      3.82868

Rotational constants in cm-1:     0.064264     0.043209     0.030474
Rotational constants in MHz :  1926.599776  1295.372474   913.593744

                             ****ORCA TERMINATED NORMALLY****
TOTAL RUN TIME: 0 days 0 hours 24 minutes 59 seconds 356 msec
