                         Program Version 5.0.4 -  RELEASE  -
|  1> ! ri-mp2 aug-cc-pvdz aug-cc-pvdz/c tightscf
|  2> %pal nprocs 16 end
|  3> %maxcore 3800
|  4> %base "DZ_Si-Cl_84_A"
|  5> %scf
|  6> STABPerform true
|  7> STABRestartUHFifUnstable true
|  8> end
|  9>
| 10> *xyz 0 2
| 11> C         0.656906   -0.583907   -0.300589
| 12> O         0.906898   -1.704074    0.042437
| 13> Si        -1.135183    0.066887   -0.587246
| 14> O         1.558340    0.349386   -0.603577
| 15> Cl        -2.410953   -1.219859    0.346845
| 16> Cl        -1.307176    1.938995    0.221071
| 17> C         2.952953   -0.008344   -0.470645
| 18> C         3.421522    0.163210    0.953146
| 19> H         3.467138    0.668783   -1.148378
| 20> H         3.080608   -1.033254   -0.813892
| 21> H         3.246589    1.182587    1.295839
| 22> H         4.491135   -0.040620    1.013424
| 23> H         2.905104   -0.527463    1.617513
| 24> *
| 25>
| 26> $new_job
| 27> ! ri-mp2 aug-cc-pvtz aug-cc-pvtz/c tightscf
| 28> %pal nprocs 16 end
| 29> %maxcore 3800
| 30> %base "TZ_Si-Cl_84_A"
| 31>
| 32> *xyz 0 2
| 33> C         0.656906   -0.583907   -0.300589
| 34> O         0.906898   -1.704074    0.042437
| 35> Si        -1.135183    0.066887   -0.587246
| 36> O         1.558340    0.349386   -0.603577
| 37> Cl        -2.410953   -1.219859    0.346845
| 38> Cl        -1.307176    1.938995    0.221071
| 39> C         2.952953   -0.008344   -0.470645
| 40> C         3.421522    0.163210    0.953146
| 41> H         3.467138    0.668783   -1.148378
| 42> H         3.080608   -1.033254   -0.813892
| 43> H         3.246589    1.182587    1.295839
| 44> H         4.491135   -0.040620    1.013424
| 45> H         2.905104   -0.527463    1.617513
| 46> *
| 47>
| 48> $new_job
| 49> ! ri-mp2 aug-cc-pvqz aug-cc-pvqz/c tightscf
| 50> %pal nprocs 16 end
| 51> %maxcore 3800
| 52> %base "QZ_Si-Cl_84_A"
| 53>
| 54> *xyz 0 2
| 55> C         0.656906   -0.583907   -0.300589
| 56> O         0.906898   -1.704074    0.042437
| 57> Si        -1.135183    0.066887   -0.587246
| 58> O         1.558340    0.349386   -0.603577
| 59> Cl        -2.410953   -1.219859    0.346845
| 60> Cl        -1.307176    1.938995    0.221071
| 61> C         2.952953   -0.008344   -0.470645
| 62> C         3.421522    0.163210    0.953146
| 63> H         3.467138    0.668783   -1.148378
| 64> H         3.080608   -1.033254   -0.813892
| 65> H         3.246589    1.182587    1.295839
| 66> H         4.491135   -0.040620    1.013424
| 67> H         2.905104   -0.527463    1.617513
| 68> *
| 69>
| 70>
| 71>
| 72>
| 73>                          ****END OF INPUT****
 Total Charge           Charge          ....    0
 Multiplicity           Mult            ....    2
 Number of Electrons    NEL             ....   87
MP2 TOTAL ENERGY:    -1475.477706318 Eh
FINAL SINGLE POINT ENERGY     -1475.477706318231
MP2 TOTAL ENERGY:    -1475.866055235 Eh
FINAL SINGLE POINT ENERGY     -1475.866055235056

CARTESIAN COORDINATES (ANGSTROEM)
---------------------------------
  C      0.656906   -0.583907   -0.300589
  O      0.906898   -1.704074    0.042437
  Si    -1.135183    0.066887   -0.587246
  O      1.558340    0.349386   -0.603577
  Cl    -2.410953   -1.219859    0.346845
  Cl    -1.307176    1.938995    0.221071
  C      2.952953   -0.008344   -0.470645
  C      3.421522    0.163210    0.953146
  H      3.467138    0.668783   -1.148378
  H      3.080608   -1.033254   -0.813892
  H      3.246589    1.182587    1.295839
  H      4.491135   -0.040620    1.013424
  H      2.905104   -0.527463    1.617513

 Multiplicity           Mult            ....    2
 Number of Electrons    NEL             ....   87
 Basis Dimension        Dim             ....  882

ORBITAL ENERGIES
----------------
                 SPIN UP ORBITALS
  NO   OCC          E(Eh)            E(eV)
   0   1.0000    -104.849720     -2853.1059
   1   1.0000    -104.846794     -2853.0263
   2   1.0000     -68.882391     -1874.3851
   3   1.0000     -20.615601      -560.9790
   4   1.0000     -20.565940      -559.6277
   5   1.0000     -11.385790      -309.8231
   6   1.0000     -11.298774      -307.4553
   7   1.0000     -11.228219      -305.5354
   8   1.0000     -10.576882      -287.8116
   9   1.0000     -10.573993      -287.7330
  10   1.0000      -8.044816      -218.9106
  11   1.0000      -8.042512      -218.8479
  12   1.0000      -8.042100      -218.8367
  13   1.0000      -8.041967      -218.8331
  14   1.0000      -8.039580      -218.7681
  15   1.0000      -8.039189      -218.7575
  16   1.0000      -6.223785      -169.3578
  17   1.0000      -4.334525      -117.9484
  18   1.0000      -4.326729      -117.7363
  19   1.0000      -4.325603      -117.7056
  20   1.0000      -1.478966       -40.2447
  21   1.0000      -1.382704       -37.6253
  22   1.0000      -1.135417       -30.8963
  23   1.0000      -1.106627       -30.1128
  24   1.0000      -1.052743       -28.6466
  25   1.0000      -0.911770       -24.8105
  26   1.0000      -0.803482       -21.8639
  27   1.0000      -0.758306       -20.6346
  28   1.0000      -0.698690       -19.0123
  29   1.0000      -0.673287       -18.3211
  30   1.0000      -0.661398       -17.9976
  31   1.0000      -0.613947       -16.7063
  32   1.0000      -0.580187       -15.7877
  33   1.0000      -0.566012       -15.4020
  34   1.0000      -0.554144       -15.0790
  35   1.0000      -0.542911       -14.7733
  36   1.0000      -0.527683       -14.3590
  37   1.0000      -0.507957       -13.8222
  38   1.0000      -0.507068       -13.7980
  39   1.0000      -0.489146       -13.3103
  40   1.0000      -0.473177       -12.8758
  41   1.0000      -0.471075       -12.8186
  42   1.0000      -0.452675       -12.3179
  43   1.0000      -0.362589        -9.8665
  44   0.0000       0.023814         0.6480
  45   0.0000       0.032312         0.8792
  46   0.0000       0.034774         0.9462
  47   0.0000       0.036703         0.9987
  48   0.0000       0.046376         1.2620

                 SPIN DOWN ORBITALS
  NO   OCC          E(Eh)            E(eV)
   0   1.0000    -104.848636     -2853.0764
   1   1.0000    -104.845714     -2852.9969
   2   1.0000     -68.876264     -1874.2184
   3   1.0000     -20.615380      -560.9730
   4   1.0000     -20.564443      -559.5870
   5   1.0000     -11.383126      -309.7506
   6   1.0000     -11.298739      -307.4543
   7   1.0000     -11.228233      -305.5358
   8   1.0000     -10.575702      -287.7795
   9   1.0000     -10.572816      -287.7010
  10   1.0000      -8.042365      -218.8439
  11   1.0000      -8.041534      -218.8213
  12   1.0000      -8.040032      -218.7804
  13   1.0000      -8.039467      -218.7650
  14   1.0000      -8.038645      -218.7427
  15   1.0000      -8.037151      -218.7020
  16   1.0000      -6.213657      -169.0822
  17   1.0000      -4.322763      -117.6284
  18   1.0000      -4.321996      -117.6075
  19   1.0000      -4.313527      -117.3770
  20   1.0000      -1.476817       -40.1862
  21   1.0000      -1.379763       -37.5453
  22   1.0000      -1.125986       -30.6396
  23   1.0000      -1.098472       -29.8909
  24   1.0000      -1.052053       -28.6278
  25   1.0000      -0.907980       -24.7074
  26   1.0000      -0.793837       -21.6014
  27   1.0000      -0.747135       -20.3306
  28   1.0000      -0.696109       -18.9421
  29   1.0000      -0.665578       -18.1113
  30   1.0000      -0.648133       -17.6366
  31   1.0000      -0.606674       -16.5084
  32   1.0000      -0.578776       -15.7493
  33   1.0000      -0.556397       -15.1403
  34   1.0000      -0.548735       -14.9318
  35   1.0000      -0.539230       -14.6732
  36   1.0000      -0.508831       -13.8460
  37   1.0000      -0.507418       -13.8075
  38   1.0000      -0.499058       -13.5800
  39   1.0000      -0.479691       -13.0530
  40   1.0000      -0.469334       -12.7712
  41   1.0000      -0.469040       -12.7632
  42   1.0000      -0.435980       -11.8636
  43   0.0000       0.007902         0.2150
  44   0.0000       0.025167         0.6848
  45   0.0000       0.033447         0.9101
  46   0.0000       0.036110         0.9826
  47   0.0000       0.041015         1.1161

MULLIKEN ATOMIC CHARGES AND SPIN POPULATIONS
--------------------------------------------
   0 C :    0.639950    0.037290
   1 O :   -0.752789    0.033014
   2 Si:    1.509415    0.840465
   3 O :   -0.683008   -0.001520
   4 Cl:   -0.603255    0.043518
   5 Cl:   -0.567812    0.046559
   6 C :   -0.107815    0.002435
   7 C :   -0.953599   -0.000420
   8 H :    0.353856    0.000037
   9 H :    0.300720   -0.000679
  10 H :    0.263709    0.000119
  11 H :    0.329558   -0.000293
  12 H :    0.271069   -0.000525
Sum of atomic charges         :   -0.0000000

LOEWDIN ATOMIC CHARGES AND SPIN POPULATIONS
-------------------------------------------
   0 C :   -1.277987    0.134720
   1 O :    0.605624    0.031593
   2 Si:   -1.206511    0.551659
   3 O :    0.741390    0.015681
   4 Cl:    0.796480    0.129499
   5 Cl:    0.787142    0.132870
   6 C :    0.158862    0.002136
   7 C :    0.911371    0.000082
   8 H :   -0.308346    0.000993
   9 H :   -0.335431    0.000661
  10 H :   -0.287484    0.000119
  11 H :   -0.284194   -0.000062
  12 H :   -0.300916    0.000048

  Mayer bond orders larger than 0.100000
B(  0-C ,  1-O ) :   1.5204 B(  0-C ,  2-Si) :   0.8304 B(  0-C ,  3-O ) :   0.9780
B(  2-Si,  4-Cl) :   0.6924 B(  2-Si,  5-Cl) :   0.6683 B(  3-O ,  6-C ) :   0.6571
B(  6-C ,  7-C ) :   1.0712 B(  6-C ,  8-H ) :   0.8141 B(  6-C ,  9-H ) :   0.8762
B(  7-C , 10-H ) :   0.9071 B(  7-C , 11-H ) :   0.8993 B(  7-C , 12-H ) :   0.9142

MP2 TOTAL ENERGY:    -1475.993970496 Eh
FINAL SINGLE POINT ENERGY     -1475.993970495937

DIPOLE MOMENT
-------------
                                X             Y             Z
Electronic contribution:    -20.70846       1.27576      -1.53591
Nuclear contribution   :     21.47795      -0.76369       1.11942
                        -----------------------------------------
Total Dipole Moment    :      0.76949       0.51206      -0.41650
                        -----------------------------------------
Magnitude (a.u.)       :      1.01380
Magnitude (Debye)      :      2.57688

Rotational constants in cm-1:     0.059015     0.023839     0.018608
Rotational constants in MHz :  1769.230637   714.671127   557.851749

                             ****ORCA TERMINATED NORMALLY****
TOTAL RUN TIME: 0 days 2 hours 45 minutes 53 seconds 704 msec
