                         Program Version 5.0.4 -  RELEASE  -
|  1> ! ri-mp2 aug-cc-pvdz aug-cc-pvdz/c tightscf
|  2> %pal nprocs 16 end
|  3> %maxcore 3800
|  4> %base "DZ_P-N_75_AB"
|  5> %scf
|  6> STABPerform true
|  7> STABRestartUHFifUnstable true
|  8> end
|  9>
| 10> *xyz 0 1
| 11> P         0.083719   -0.142986    0.860723
| 12> N        -0.576358    1.363845    0.535953
| 13> Cl        1.769543   -0.243001   -0.336154
| 14> Cl       -1.188261   -1.285682   -0.284063
| 15> O        -0.659356    1.843642   -0.779881
| 16> H        -1.587549    1.730733   -1.017665
| 17> H        -0.240679    2.105605    1.137892
| 18> *
| 19>
| 20> $new_job
| 21> ! ri-mp2 aug-cc-pvtz aug-cc-pvtz/c tightscf
| 22> %pal nprocs 16 end
| 23> %maxcore 3800
| 24> %base "TZ_P-N_75_AB"
| 25>
| 26> *xyz 0 1
| 27> P         0.083719   -0.142986    0.860723
| 28> N        -0.576358    1.363845    0.535953
| 29> Cl        1.769543   -0.243001   -0.336154
| 30> Cl       -1.188261   -1.285682   -0.284063
| 31> O        -0.659356    1.843642   -0.779881
| 32> H        -1.587549    1.730733   -1.017665
| 33> H        -0.240679    2.105605    1.137892
| 34> *
| 35>
| 36> $new_job
| 37> ! ri-mp2 aug-cc-pvqz aug-cc-pvqz/c tightscf
| 38> %pal nprocs 16 end
| 39> %maxcore 3800
| 40> %base "QZ_P-N_75_AB"
| 41>
| 42> *xyz 0 1
| 43> P         0.083719   -0.142986    0.860723
| 44> N        -0.576358    1.363845    0.535953
| 45> Cl        1.769543   -0.243001   -0.336154
| 46> Cl       -1.188261   -1.285682   -0.284063
| 47> O        -0.659356    1.843642   -0.779881
| 48> H        -1.587549    1.730733   -1.017665
| 49> H        -0.240679    2.105605    1.137892
| 50> *
| 51>
| 52>
| 53>
| 54>
| 55>                          ****END OF INPUT****
 Total Charge           Charge          ....    0
 Multiplicity           Mult            ....    1
 Number of Electrons    NEL             ....   66
MP2 TOTAL ENERGY:    -1391.028269652 Eh
FINAL SINGLE POINT ENERGY     -1391.028269652147
MP2 TOTAL ENERGY:    -1391.313032369 Eh
FINAL SINGLE POINT ENERGY     -1391.313032368744

CARTESIAN COORDINATES (ANGSTROEM)
---------------------------------
  P      0.083719   -0.142986    0.860723
  N     -0.576358    1.363845    0.535953
  Cl     1.769543   -0.243001   -0.336154
  Cl    -1.188261   -1.285682   -0.284063
  O     -0.659356    1.843642   -0.779881
  H     -1.587549    1.730733   -1.017665
  H     -0.240679    2.105605    1.137892

 Multiplicity           Mult            ....    1
 Number of Electrons    NEL             ....   66
 Basis Dimension        Dim             ....  504

ORBITAL ENERGIES
----------------

  NO   OCC          E(Eh)            E(eV)
   0   2.0000    -104.846603     -2853.0211
   1   2.0000    -104.838059     -2852.7886
   2   2.0000     -80.067779     -2178.7550
   3   2.0000     -20.624807      -561.2295
   4   2.0000     -15.642203      -425.6460
   5   2.0000     -10.573247      -287.7127
   6   2.0000     -10.564628      -287.4781
   7   2.0000      -8.040043      -218.7807
   8   2.0000      -8.038582      -218.7409
   9   2.0000      -8.038513      -218.7391
  10   2.0000      -8.031379      -218.5449
  11   2.0000      -8.029974      -218.5067
  12   2.0000      -8.029875      -218.5040
  13   2.0000      -7.597337      -206.7340
  14   2.0000      -5.490078      -149.3926
  15   2.0000      -5.489904      -149.3879
  16   2.0000      -5.488545      -149.3509
  17   2.0000      -1.444728       -39.3130
  18   2.0000      -1.171720       -31.8841
  19   2.0000      -1.106574       -30.1114
  20   2.0000      -1.092725       -29.7346
  21   2.0000      -0.818190       -22.2641
  22   2.0000      -0.732886       -19.9428
  23   2.0000      -0.693157       -18.8618
  24   2.0000      -0.642980       -17.4964
  25   2.0000      -0.576582       -15.6896
  26   2.0000      -0.539891       -14.6912
  27   2.0000      -0.512606       -13.9487
  28   2.0000      -0.490583       -13.3494
  29   2.0000      -0.480165       -13.0659
  30   2.0000      -0.453597       -12.3430
  31   2.0000      -0.434211       -11.8155
  32   2.0000      -0.394305       -10.7296
  33   0.0000       0.023882         0.6499
  34   0.0000       0.034465         0.9378
  35   0.0000       0.051321         1.3965
  36   0.0000       0.052437         1.4269
  37   0.0000       0.062843         1.7100

MULLIKEN ATOMIC CHARGES
-----------------------
   0 P :    1.115697
   1 N :   -0.299623
   2 Cl:   -0.420143
   3 Cl:   -0.425367
   4 O :   -0.576570
   5 H :    0.356205
   6 H :    0.249801
Sum of atomic charges:    0.0000000

LOEWDIN ATOMIC CHARGES
----------------------
   0 P :   -0.823011
   1 N :    0.099658
   2 Cl:    0.615214
   3 Cl:    0.647154
   4 O :    1.013106
   5 H :   -0.858857
   6 H :   -0.693264

  Mayer bond orders larger than 0.100000
B(  0-P ,  1-N ) :   0.9325 B(  0-P ,  2-Cl) :   0.8253 B(  0-P ,  3-Cl) :   0.8349
B(  1-N ,  4-O ) :   0.8120 B(  1-N ,  6-H ) :   0.9354 B(  4-O ,  5-H ) :   0.8821

MP2 TOTAL ENERGY:    -1391.407662181 Eh
FINAL SINGLE POINT ENERGY     -1391.407662180947

DIPOLE MOMENT
-------------
                                X             Y             Z
Electronic contribution:      2.01371      -5.08311       0.27071
Nuclear contribution   :     -2.54877       5.73618       0.16539
                        -----------------------------------------
Total Dipole Moment    :     -0.53506       0.65307       0.43610
                        -----------------------------------------
Magnitude (a.u.)       :      0.95025
Magnitude (Debye)      :      2.41535

Rotational constants in cm-1:     0.086905     0.075851     0.051961
Rotational constants in MHz :  2605.356845  2273.960069  1557.741995

                             ****ORCA TERMINATED NORMALLY****
TOTAL RUN TIME: 0 days 0 hours 14 minutes 27 seconds 965 msec
