                         Program Version 5.0.4 -  RELEASE  -
|  1> ! ri-mp2 aug-cc-pvdz aug-cc-pvdz/c tightscf
|  2> %pal nprocs 16 end
|  3> %maxcore 3800
|  4> %base "DZ_P-P_8_AB"
|  5> %scf
|  6> STABPerform true
|  7> STABRestartUHFifUnstable true
|  8> end
|  9>
| 10> *xyz 0 1
| 11> P         0.719456    0.129385   -0.612040
| 12> P        -1.058964   -0.789563    0.291987
| 13> C         1.988829   -1.004549    0.091663
| 14> C         1.007677    1.618303    0.434938
| 15> C        -2.350425    0.417930   -0.242628
| 16> H        -2.104432    1.454586   -0.019831
| 17> H        -3.290536    0.169716    0.248876
| 18> H        -2.497616    0.315791   -1.317043
| 19> H         1.866233   -1.998189   -0.336876
| 20> H         1.934613   -1.080232    1.178736
| 21> H         2.979233   -0.639866   -0.181730
| 22> H         0.211163    2.343251    0.271929
| 23> H         1.945632    2.089444    0.137346
| 24> H         1.054308    1.376405    1.497393
| 25> H        -0.882476   -0.318338    1.618157
| 26> *
| 27>
| 28> $new_job
| 29> ! ri-mp2 aug-cc-pvtz aug-cc-pvtz/c tightscf
| 30> %pal nprocs 16 end
| 31> %maxcore 3800
| 32> %base "TZ_P-P_8_AB"
| 33>
| 34> *xyz 0 1
| 35> P         0.719456    0.129385   -0.612040
| 36> P        -1.058964   -0.789563    0.291987
| 37> C         1.988829   -1.004549    0.091663
| 38> C         1.007677    1.618303    0.434938
| 39> C        -2.350425    0.417930   -0.242628
| 40> H        -2.104432    1.454586   -0.019831
| 41> H        -3.290536    0.169716    0.248876
| 42> H        -2.497616    0.315791   -1.317043
| 43> H         1.866233   -1.998189   -0.336876
| 44> H         1.934613   -1.080232    1.178736
| 45> H         2.979233   -0.639866   -0.181730
| 46> H         0.211163    2.343251    0.271929
| 47> H         1.945632    2.089444    0.137346
| 48> H         1.054308    1.376405    1.497393
| 49> H        -0.882476   -0.318338    1.618157
| 50> *
| 51>
| 52> $new_job
| 53> ! ri-mp2 aug-cc-pvqz aug-cc-pvqz/c tightscf
| 54> %pal nprocs 16 end
| 55> %maxcore 3800
| 56> %base "QZ_P-P_8_AB"
| 57>
| 58> *xyz 0 1
| 59> P         0.719456    0.129385   -0.612040
| 60> P        -1.058964   -0.789563    0.291987
| 61> C         1.988829   -1.004549    0.091663
| 62> C         1.007677    1.618303    0.434938
| 63> C        -2.350425    0.417930   -0.242628
| 64> H        -2.104432    1.454586   -0.019831
| 65> H        -3.290536    0.169716    0.248876
| 66> H        -2.497616    0.315791   -1.317043
| 67> H         1.866233   -1.998189   -0.336876
| 68> H         1.934613   -1.080232    1.178736
| 69> H         2.979233   -0.639866   -0.181730
| 70> H         0.211163    2.343251    0.271929
| 71> H         1.945632    2.089444    0.137346
| 72> H         1.054308    1.376405    1.497393
| 73> H        -0.882476   -0.318338    1.618157
| 74> *
| 75>
| 76>
| 77>
| 78>
| 79>                          ****END OF INPUT****
 Total Charge           Charge          ....    0
 Multiplicity           Mult            ....    1
 Number of Electrons    NEL             ....   58
MP2 TOTAL ENERGY:     -801.639085642 Eh
FINAL SINGLE POINT ENERGY      -801.639085642108
MP2 TOTAL ENERGY:     -801.850286041 Eh
FINAL SINGLE POINT ENERGY      -801.850286040519

CARTESIAN COORDINATES (ANGSTROEM)
---------------------------------
  P      0.719456    0.129385   -0.612040
  P     -1.058964   -0.789563    0.291987
  C      1.988829   -1.004549    0.091663
  C      1.007677    1.618303    0.434938
  C     -2.350425    0.417930   -0.242628
  H     -2.104432    1.454586   -0.019831
  H     -3.290536    0.169716    0.248876
  H     -2.497616    0.315791   -1.317043
  H      1.866233   -1.998189   -0.336876
  H      1.934613   -1.080232    1.178736
  H      2.979233   -0.639866   -0.181730
  H      0.211163    2.343251    0.271929
  H      1.945632    2.089444    0.137346
  H      1.054308    1.376405    1.497393
  H     -0.882476   -0.318338    1.618157

 Multiplicity           Mult            ....    1
 Number of Electrons    NEL             ....   58
 Basis Dimension        Dim             ....  868

ORBITAL ENERGIES
----------------

  NO   OCC          E(Eh)            E(eV)
   0   2.0000     -79.933024     -2175.0881
   1   2.0000     -79.931935     -2175.0585
   2   2.0000     -11.226514      -305.4890
   3   2.0000     -11.224600      -305.4369
   4   2.0000     -11.223315      -305.4019
   5   2.0000      -7.474855      -203.4011
   6   2.0000      -7.474629      -203.3950
   7   2.0000      -5.368973      -146.0972
   8   2.0000      -5.368673      -146.0890
   9   2.0000      -5.368528      -146.0851
  10   2.0000      -5.368298      -146.0788
  11   2.0000      -5.367727      -146.0633
  12   2.0000      -5.367471      -146.0563
  13   2.0000      -1.014630       -27.6095
  14   2.0000      -0.974774       -26.5249
  15   2.0000      -0.940330       -25.5877
  16   2.0000      -0.806862       -21.9558
  17   2.0000      -0.697602       -18.9827
  18   2.0000      -0.593983       -16.1631
  19   2.0000      -0.590778       -16.0759
  20   2.0000      -0.581323       -15.8186
  21   2.0000      -0.569379       -15.4936
  22   2.0000      -0.556731       -15.1494
  23   2.0000      -0.553765       -15.0687
  24   2.0000      -0.490520       -13.3477
  25   2.0000      -0.474174       -12.9029
  26   2.0000      -0.434163       -11.8142
  27   2.0000      -0.351637        -9.5685
  28   2.0000      -0.326441        -8.8829
  29   0.0000       0.026893         0.7318
  30   0.0000       0.029226         0.7953
  31   0.0000       0.035172         0.9571
  32   0.0000       0.037743         1.0271
  33   0.0000       0.047802         1.3008

MULLIKEN ATOMIC CHARGES
-----------------------
   0 P :    0.503657
   1 P :    0.266771
   2 C :   -1.259097
   3 C :   -1.163979
   4 C :   -1.158691
   5 H :    0.305449
   6 H :    0.377202
   7 H :    0.282675
   8 H :    0.367983
   9 H :    0.288364
  10 H :    0.355810
  11 H :    0.343564
  12 H :    0.342108
  13 H :    0.275740
  14 H :   -0.127557
Sum of atomic charges:    0.0000000

LOEWDIN ATOMIC CHARGES
----------------------
   0 P :    0.701029
   1 P :    1.022895
   2 C :    0.688881
   3 C :    0.717846
   4 C :    0.665517
   5 H :   -0.373330
   6 H :   -0.374460
   7 H :   -0.379111
   8 H :   -0.376112
   9 H :   -0.360071
  10 H :   -0.363491
  11 H :   -0.376328
  12 H :   -0.359045
  13 H :   -0.364294
  14 H :   -0.469924

  Mayer bond orders larger than 0.100000
B(  0-P ,  1-P ) :   0.9961 B(  0-P ,  2-C ) :   0.9015 B(  0-P ,  3-C ) :   0.8663
B(  1-P ,  4-C ) :   0.9121 B(  1-P , 14-H ) :   0.9145 B(  2-C ,  8-H ) :   0.8645
B(  2-C ,  9-H ) :   0.8956 B(  2-C , 10-H ) :   0.8777 B(  3-C , 11-H ) :   0.8833
B(  3-C , 12-H ) :   0.8805 B(  3-C , 13-H ) :   0.9045 B(  4-C ,  5-H ) :   0.8819
B(  4-C ,  6-H ) :   0.8598 B(  4-C ,  7-H ) :   0.9143

MP2 TOTAL ENERGY:     -801.913843778 Eh
FINAL SINGLE POINT ENERGY      -801.913843777874

DIPOLE MOMENT
-------------
                                X             Y             Z
Electronic contribution:     -1.43110      -3.89680      -2.99289
Nuclear contribution   :      1.55182       4.37614       3.42907
                        -----------------------------------------
Total Dipole Moment    :      0.12071       0.47934       0.43618
                        -----------------------------------------
Magnitude (a.u.)       :      0.65924
Magnitude (Debye)      :      1.67564

Rotational constants in cm-1:     0.152868     0.068441     0.055127
Rotational constants in MHz :  4582.866042  2051.809418  1652.662769

                             ****ORCA TERMINATED NORMALLY****
TOTAL RUN TIME: 0 days 1 hours 14 minutes 14 seconds 892 msec
