                         Program Version 5.0.4 -  RELEASE  -
|  1> ! ri-mp2 aug-cc-pvdz aug-cc-pvdz/c tightscf
|  2> %pal nprocs 16 end
|  3> %maxcore 3800
|  4> %base "DZ_P-C_56_AB"
|  5> %scf
|  6> STABPerform true
|  7> STABRestartUHFifUnstable true
|  8> end
|  9>
| 10> *xyz 0 1
| 11> C        -0.992190    0.000000   -0.010179
| 12> P         0.813581    0.000000   -0.104531
| 13> O         1.423623   -0.000010   -1.437929
| 14> C        -1.498331    1.253173   -0.729759
| 15> H        -1.154781    1.283178   -1.763407
| 16> H        -1.166069    2.161818   -0.228639
| 17> C        -1.457168    0.000010    1.447401
| 18> H        -1.105901    0.883408    1.979013
| 19> H        -1.105898   -0.883377    1.979027
| 20> H        -2.548504    0.000009    1.472952
| 21> H        -2.589575    1.248623   -0.732287
| 22> C        -1.498329   -1.253186   -0.729740
| 23> H        -2.589572   -1.248638   -0.732268
| 24> H        -1.166066   -2.161823   -0.228605
| 25> H        -1.154778   -1.283207   -1.763387
| 26> O         1.234419   -1.263529    0.780084
| 27> H         1.956940   -1.753042    0.370734
| 28> O         1.234414    1.263543    0.780066
| 29> H         1.956951    1.753039    0.370723
| 30> *
| 31>
| 32> $new_job
| 33> ! ri-mp2 aug-cc-pvtz aug-cc-pvtz/c tightscf
| 34> %pal nprocs 16 end
| 35> %maxcore 3800
| 36> %base "TZ_P-C_56_AB"
| 37>
| 38> *xyz 0 1
| 39> C        -0.992190    0.000000   -0.010179
| 40> P         0.813581    0.000000   -0.104531
| 41> O         1.423623   -0.000010   -1.437929
| 42> C        -1.498331    1.253173   -0.729759
| 43> H        -1.154781    1.283178   -1.763407
| 44> H        -1.166069    2.161818   -0.228639
| 45> C        -1.457168    0.000010    1.447401
| 46> H        -1.105901    0.883408    1.979013
| 47> H        -1.105898   -0.883377    1.979027
| 48> H        -2.548504    0.000009    1.472952
| 49> H        -2.589575    1.248623   -0.732287
| 50> C        -1.498329   -1.253186   -0.729740
| 51> H        -2.589572   -1.248638   -0.732268
| 52> H        -1.166066   -2.161823   -0.228605
| 53> H        -1.154778   -1.283207   -1.763387
| 54> O         1.234419   -1.263529    0.780084
| 55> H         1.956940   -1.753042    0.370734
| 56> O         1.234414    1.263543    0.780066
| 57> H         1.956951    1.753039    0.370723
| 58> *
| 59>
| 60> $new_job
| 61> ! ri-mp2 aug-cc-pvqz aug-cc-pvqz/c tightscf
| 62> %pal nprocs 16 end
| 63> %maxcore 3800
| 64> %base "QZ_P-C_56_AB"
| 65>
| 66> *xyz 0 1
| 67> C        -0.992190    0.000000   -0.010179
| 68> P         0.813581    0.000000   -0.104531
| 69> O         1.423623   -0.000010   -1.437929
| 70> C        -1.498331    1.253173   -0.729759
| 71> H        -1.154781    1.283178   -1.763407
| 72> H        -1.166069    2.161818   -0.228639
| 73> C        -1.457168    0.000010    1.447401
| 74> H        -1.105901    0.883408    1.979013
| 75> H        -1.105898   -0.883377    1.979027
| 76> H        -2.548504    0.000009    1.472952
| 77> H        -2.589575    1.248623   -0.732287
| 78> C        -1.498329   -1.253186   -0.729740
| 79> H        -2.589572   -1.248638   -0.732268
| 80> H        -1.166066   -2.161823   -0.228605
| 81> H        -1.154778   -1.283207   -1.763387
| 82> O         1.234419   -1.263529    0.780084
| 83> H         1.956940   -1.753042    0.370734
| 84> O         1.234414    1.263543    0.780066
| 85> H         1.956951    1.753039    0.370723
| 86> *
| 87>
| 88>
| 89>
| 90>
| 91>                          ****END OF INPUT****
 Total Charge           Charge          ....    0
 Multiplicity           Mult            ....    1
 Number of Electrons    NEL             ....   74
MP2 TOTAL ENERGY:     -724.680071618 Eh
FINAL SINGLE POINT ENERGY      -724.680071618341
MP2 TOTAL ENERGY:     -725.098972592 Eh
FINAL SINGLE POINT ENERGY      -725.098972592034

CARTESIAN COORDINATES (ANGSTROEM)
---------------------------------
  C     -0.992190    0.000000   -0.010179
  P      0.813581    0.000000   -0.104531
  O      1.423623   -0.000010   -1.437929
  C     -1.498331    1.253173   -0.729759
  H     -1.154781    1.283178   -1.763407
  H     -1.166069    2.161818   -0.228639
  C     -1.457168    0.000010    1.447401
  H     -1.105901    0.883408    1.979013
  H     -1.105898   -0.883377    1.979027
  H     -2.548504    0.000009    1.472952
  H     -2.589575    1.248623   -0.732287
  C     -1.498329   -1.253186   -0.729740
  H     -2.589572   -1.248638   -0.732268
  H     -1.166066   -2.161823   -0.228605
  H     -1.154778   -1.283207   -1.763387
  O      1.234419   -1.263529    0.780084
  H      1.956940   -1.753042    0.370734
  O      1.234414    1.263543    0.780066
  H      1.956951    1.753039    0.370723

 Multiplicity           Mult            ....    1
 Number of Electrons    NEL             ....   74
 Basis Dimension        Dim             .... 1150

ORBITAL ENERGIES
----------------

  NO   OCC          E(Eh)            E(eV)
   0   2.0000     -80.057941     -2178.4873
   1   2.0000     -20.592998      -560.3640
   2   2.0000     -20.592985      -560.3636
   3   2.0000     -20.500252      -557.8402
   4   2.0000     -11.249012      -306.1012
   5   2.0000     -11.222218      -305.3721
   6   2.0000     -11.222184      -305.3711
   7   2.0000     -11.222164      -305.3706
   8   2.0000      -7.581878      -206.3134
   9   2.0000      -5.479933      -149.1165
  10   2.0000      -5.479433      -149.1030
  11   2.0000      -5.478195      -149.0693
  12   2.0000      -1.431201       -38.9450
  13   2.0000      -1.381238       -37.5854
  14   2.0000      -1.292744       -35.1773
  15   2.0000      -1.110315       -30.2132
  16   2.0000      -0.945241       -25.7213
  17   2.0000      -0.944923       -25.7127
  18   2.0000      -0.869352       -23.6563
  19   2.0000      -0.763423       -20.7738
  20   2.0000      -0.736351       -20.0371
  21   2.0000      -0.672861       -18.3095
  22   2.0000      -0.665683       -18.1142
  23   2.0000      -0.632812       -17.2197
  24   2.0000      -0.612442       -16.6654
  25   2.0000      -0.607405       -16.5283
  26   2.0000      -0.587020       -15.9736
  27   2.0000      -0.555500       -15.1159
  28   2.0000      -0.552309       -15.0291
  29   2.0000      -0.549788       -14.9605
  30   2.0000      -0.529529       -14.4092
  31   2.0000      -0.523167       -14.2361
  32   2.0000      -0.491093       -13.3633
  33   2.0000      -0.481832       -13.1113
  34   2.0000      -0.481655       -13.1065
  35   2.0000      -0.461219       -12.5504
  36   2.0000      -0.432600       -11.7716
  37   0.0000       0.024219         0.6590
  38   0.0000       0.030216         0.8222
  39   0.0000       0.030306         0.8247
  40   0.0000       0.035319         0.9611
  41   0.0000       0.045374         1.2347

MULLIKEN ATOMIC CHARGES
-----------------------
   0 C :    1.319354
   1 P :    2.581351
   2 O :   -1.333027
   3 C :   -1.188550
   4 H :    0.269746
   5 H :    0.246065
   6 C :   -1.214340
   7 H :    0.269714
   8 H :    0.269713
   9 H :    0.266088
  10 H :    0.272533
  11 C :   -1.188549
  12 H :    0.272535
  13 H :    0.246063
  14 H :    0.269748
  15 O :   -1.044301
  16 H :    0.365079
  17 O :   -1.044301
  18 H :    0.365079
Sum of atomic charges:   -0.0000000

LOEWDIN ATOMIC CHARGES
----------------------
   0 C :   -0.353932
   1 P :   -0.664121
   2 O :    0.357609
   3 C :    0.865979
   4 H :   -0.279343
   5 H :   -0.281240
   6 C :    0.871206
   7 H :   -0.285081
   8 H :   -0.285082
   9 H :   -0.270939
  10 H :   -0.271004
  11 C :    0.865980
  12 H :   -0.271005
  13 H :   -0.281240
  14 H :   -0.279343
  15 O :    1.133087
  16 H :   -0.852311
  17 O :    1.133087
  18 H :   -0.852309

  Mayer bond orders larger than 0.100000
B(  0-C ,  1-P ) :   0.6966 B(  0-C ,  2-O ) :  -0.2974 B(  0-C ,  3-C ) :   0.4180
B(  0-C ,  4-H ) :  -0.1072 B(  0-C ,  5-H ) :  -0.1072 B(  0-C ,  6-C ) :   0.4378
B(  0-C , 11-C ) :   0.4180 B(  0-C , 13-H ) :  -0.1072 B(  0-C , 14-H ) :  -0.1072
B(  0-C , 15-O ) :  -0.3413 B(  0-C , 17-O ) :  -0.3413 B(  1-P ,  2-O ) :   1.2831
B(  1-P , 15-O ) :   0.5486 B(  1-P , 17-O ) :   0.5486 B(  3-C ,  4-H ) :   1.0203
B(  3-C ,  5-H ) :   1.0296 B(  3-C ,  6-C ) :   0.1156 B(  3-C , 10-H ) :   0.9888
B(  3-C , 11-C ) :   0.1233 B(  6-C ,  7-H ) :   1.0297 B(  6-C ,  8-H ) :   1.0297
B(  6-C ,  9-H ) :   0.9919 B(  6-C , 11-C ) :   0.1156 B( 11-C , 12-H ) :   0.9887
B( 11-C , 13-H ) :   1.0296 B( 11-C , 14-H ) :   1.0203 B( 15-O , 16-H ) :   0.9459
B( 17-O , 18-H ) :   0.9459

MP2 TOTAL ENERGY:     -725.231982313 Eh
FINAL SINGLE POINT ENERGY      -725.231982312920

DIPOLE MOMENT
-------------
                                X             Y             Z
Electronic contribution:     11.14834       0.00001      -0.25773
Nuclear contribution   :    -11.45278      -0.00001       0.83056
                        -----------------------------------------
Total Dipole Moment    :     -0.30445      -0.00000       0.57283
                        -----------------------------------------
Magnitude (a.u.)       :      0.64871
Magnitude (Debye)      :      1.64888

Rotational constants in cm-1:     0.076246     0.050119     0.049554
Rotational constants in MHz :  2285.793078  1502.522688  1485.595801

                             ****ORCA TERMINATED NORMALLY****
TOTAL RUN TIME: 0 days 4 hours 27 minutes 2 seconds 175 msec
