                         Program Version 5.0.4 -  RELEASE  -
|  1> ! ri-mp2 aug-cc-pvdz aug-cc-pvdz/c tightscf
|  2> %pal nprocs 16 end
|  3> %maxcore 3800
|  4> %base "DZ_S-Cl_66_AB"
|  5> %scf
|  6> STABPerform true
|  7> STABRestartUHFifUnstable true
|  8> end
|  9>
| 10> *xyz 0 1
| 11> Cl         2.274453    0.848358   -0.307856
| 12> S         1.419643   -0.875491    0.306132
| 13> O        -0.042184   -0.829916   -0.446351
| 14> C        -1.040203   -0.093122    0.137668
| 15> O        -0.928881    0.583281    1.108663
| 16> O        -2.120754   -0.280949   -0.593215
| 17> C        -3.282363    0.429330   -0.148564
| 18> H        -3.092760    1.500578   -0.157026
| 19> H        -3.551299    0.116620    0.858192
| 20> H        -4.065964    0.171988   -0.853111
| 21> *
| 22>
| 23> $new_job
| 24> ! ri-mp2 aug-cc-pvtz aug-cc-pvtz/c tightscf
| 25> %pal nprocs 16 end
| 26> %maxcore 3800
| 27> %base "TZ_S-Cl_66_AB"
| 28>
| 29> *xyz 0 1
| 30> Cl         2.274453    0.848358   -0.307856
| 31> S         1.419643   -0.875491    0.306132
| 32> O        -0.042184   -0.829916   -0.446351
| 33> C        -1.040203   -0.093122    0.137668
| 34> O        -0.928881    0.583281    1.108663
| 35> O        -2.120754   -0.280949   -0.593215
| 36> C        -3.282363    0.429330   -0.148564
| 37> H        -3.092760    1.500578   -0.157026
| 38> H        -3.551299    0.116620    0.858192
| 39> H        -4.065964    0.171988   -0.853111
| 40> *
| 41>
| 42> $new_job
| 43> ! ri-mp2 aug-cc-pvqz aug-cc-pvqz/c tightscf
| 44> %pal nprocs 16 end
| 45> %maxcore 3800
| 46> %base "QZ_S-Cl_66_AB"
| 47>
| 48> *xyz 0 1
| 49> Cl         2.274453    0.848358   -0.307856
| 50> S         1.419643   -0.875491    0.306132
| 51> O        -0.042184   -0.829916   -0.446351
| 52> C        -1.040203   -0.093122    0.137668
| 53> O        -0.928881    0.583281    1.108663
| 54> O        -2.120754   -0.280949   -0.593215
| 55> C        -3.282363    0.429330   -0.148564
| 56> H        -3.092760    1.500578   -0.157026
| 57> H        -3.551299    0.116620    0.858192
| 58> H        -4.065964    0.171988   -0.853111
| 59> *
| 60>
| 61>
| 62>
| 63>
| 64>                          ****END OF INPUT****
 Total Charge           Charge          ....    0
 Multiplicity           Mult            ....    1
 Number of Electrons    NEL             ....   72
MP2 TOTAL ENERGY:    -1160.266777419 Eh
FINAL SINGLE POINT ENERGY     -1160.266777418755
MP2 TOTAL ENERGY:    -1160.645683259 Eh
FINAL SINGLE POINT ENERGY     -1160.645683259438

CARTESIAN COORDINATES (ANGSTROEM)
---------------------------------
  Cl     2.274453    0.848358   -0.307856
  S      1.419643   -0.875491    0.306132
  O     -0.042184   -0.829916   -0.446351
  C     -1.040203   -0.093122    0.137668
  O     -0.928881    0.583281    1.108663
  O     -2.120754   -0.280949   -0.593215
  C     -3.282363    0.429330   -0.148564
  H     -3.092760    1.500578   -0.157026
  H     -3.551299    0.116620    0.858192
  H     -4.065964    0.171988   -0.853111

 Multiplicity           Mult            ....    1
 Number of Electrons    NEL             ....   72
 Basis Dimension        Dim             ....  706

ORBITAL ENERGIES
----------------

  NO   OCC          E(Eh)            E(eV)
   0   2.0000    -104.865947     -2853.5475
   1   2.0000     -92.070780     -2505.3733
   2   2.0000     -20.652579      -561.9852
   3   2.0000     -20.630320      -561.3796
   4   2.0000     -20.567683      -559.6751
   5   2.0000     -11.451754      -311.6181
   6   2.0000     -11.304042      -307.5986
   7   2.0000     -10.590408      -288.1797
   8   2.0000      -9.062856      -246.6129
   9   2.0000      -8.057374      -219.2523
  10   2.0000      -8.055501      -219.2013
  11   2.0000      -8.055168      -219.1923
  12   2.0000      -6.743731      -183.5063
  13   2.0000      -6.742328      -183.4681
  14   2.0000      -6.740384      -183.4152
  15   2.0000      -1.535190       -41.7746
  16   2.0000      -1.431464       -38.9521
  17   2.0000      -1.398718       -38.0610
  18   2.0000      -1.152846       -31.3705
  19   2.0000      -1.018104       -27.7040
  20   2.0000      -0.933090       -25.3907
  21   2.0000      -0.805116       -21.9083
  22   2.0000      -0.770013       -20.9531
  23   2.0000      -0.726660       -19.7734
  24   2.0000      -0.718814       -19.5599
  25   2.0000      -0.648802       -17.6548
  26   2.0000      -0.639762       -17.4088
  27   2.0000      -0.621437       -16.9102
  28   2.0000      -0.563504       -15.3337
  29   2.0000      -0.559808       -15.2331
  30   2.0000      -0.522844       -14.2273
  31   2.0000      -0.501385       -13.6434
  32   2.0000      -0.497722       -13.5437
  33   2.0000      -0.493736       -13.4353
  34   2.0000      -0.480341       -13.0707
  35   2.0000      -0.376371       -10.2416
  36   0.0000       0.023845         0.6488
  37   0.0000       0.038321         1.0428
  38   0.0000       0.040919         1.1135
  39   0.0000       0.046653         1.2695
  40   0.0000       0.052031         1.4158

MULLIKEN ATOMIC CHARGES
-----------------------
   0 Cl:   -0.235857
   1 S :    0.481117
   2 O :   -0.584994
   3 C :    1.226982
   4 O :   -0.645808
   5 O :   -0.594385
   6 C :   -0.661605
   7 H :    0.293226
   8 H :    0.290613
   9 H :    0.430711
Sum of atomic charges:    0.0000000

LOEWDIN ATOMIC CHARGES
----------------------
   0 Cl:    0.458182
   1 S :    0.034158
   2 O :    0.161757
   3 C :   -1.727420
   4 O :    0.646195
   5 O :    0.795523
   6 C :    0.582144
   7 H :   -0.315197
   8 H :   -0.314828
   9 H :   -0.320514

  Mayer bond orders larger than 0.100000
B(  0-Cl,  1-S ) :   1.0562 B(  1-S ,  2-O ) :   0.7813 B(  2-O ,  3-C ) :   1.0163
B(  3-C ,  4-O ) :   1.6611 B(  3-C ,  5-O ) :   1.0604 B(  5-O ,  6-C ) :   0.8485
B(  6-C ,  7-H ) :   0.9147 B(  6-C ,  8-H ) :   0.9162 B(  6-C ,  9-H ) :   0.8194

MP2 TOTAL ENERGY:    -1160.769710916 Eh
FINAL SINGLE POINT ENERGY     -1160.769710916384

DIPOLE MOMENT
-------------
                                X             Y             Z
Electronic contribution:     12.47955      -0.68713      -0.41855
Nuclear contribution   :    -13.33329       0.56360       0.26572
                        -----------------------------------------
Total Dipole Moment    :     -0.85375      -0.12353      -0.15283
                        -----------------------------------------
Magnitude (a.u.)       :      0.87607
Magnitude (Debye)      :      2.22680

Rotational constants in cm-1:     0.154496     0.030602     0.028752
Rotational constants in MHz :  4631.673476   917.436686   861.968239

                             ****ORCA TERMINATED NORMALLY****
TOTAL RUN TIME: 0 days 0 hours 34 minutes 17 seconds 728 msec
