                         Program Version 5.0.4 -  RELEASE  -
|  1> ! ri-mp2 aug-cc-pvdz aug-cc-pvdz/c tightscf
|  2> %pal nprocs 16 end
|  3> %maxcore 3800
|  4> %base "DZ_Si-Cl_20_A"
|  5> %scf
|  6> STABPerform true
|  7> STABRestartUHFifUnstable true
|  8> end
|  9>
| 10> *xyz 0 2
| 11> Si         0.474635   -0.002178   -0.407081
| 12> C        -1.092955   -0.789917    0.280696
| 13> C        -2.391207   -0.061321   -0.059841
| 14> H        -0.972355   -0.849032    1.369386
| 15> H        -1.139110   -1.824435   -0.068941
| 16> H        -2.385487    0.962548    0.317040
| 17> H        -3.258597   -0.561826    0.372923
| 18> H        -2.545264   -0.009198   -1.138707
| 19> C         1.974325   -1.001069    0.120629
| 20> H         2.061272   -1.010236    1.211298
| 21> H         2.895150   -0.579388   -0.283049
| 22> H         1.903058   -2.035243   -0.217225
| 23> C         0.638238    1.771797    0.188441
| 24> H         0.670042    1.803758    1.281894
| 25> H        -0.198890    2.387694   -0.139871
| 26> H         1.554886    2.228909   -0.185162
| 27> *
| 28>
| 29> $new_job
| 30> ! ri-mp2 aug-cc-pvtz aug-cc-pvtz/c tightscf
| 31> %pal nprocs 16 end
| 32> %maxcore 3800
| 33> %base "TZ_Si-Cl_20_A"
| 34>
| 35> *xyz 0 2
| 36> Si         0.474635   -0.002178   -0.407081
| 37> C        -1.092955   -0.789917    0.280696
| 38> C        -2.391207   -0.061321   -0.059841
| 39> H        -0.972355   -0.849032    1.369386
| 40> H        -1.139110   -1.824435   -0.068941
| 41> H        -2.385487    0.962548    0.317040
| 42> H        -3.258597   -0.561826    0.372923
| 43> H        -2.545264   -0.009198   -1.138707
| 44> C         1.974325   -1.001069    0.120629
| 45> H         2.061272   -1.010236    1.211298
| 46> H         2.895150   -0.579388   -0.283049
| 47> H         1.903058   -2.035243   -0.217225
| 48> C         0.638238    1.771797    0.188441
| 49> H         0.670042    1.803758    1.281894
| 50> H        -0.198890    2.387694   -0.139871
| 51> H         1.554886    2.228909   -0.185162
| 52> *
| 53>
| 54> $new_job
| 55> ! ri-mp2 aug-cc-pvqz aug-cc-pvqz/c tightscf
| 56> %pal nprocs 16 end
| 57> %maxcore 3800
| 58> %base "QZ_Si-Cl_20_A"
| 59>
| 60> *xyz 0 2
| 61> Si         0.474635   -0.002178   -0.407081
| 62> C        -1.092955   -0.789917    0.280696
| 63> C        -2.391207   -0.061321   -0.059841
| 64> H        -0.972355   -0.849032    1.369386
| 65> H        -1.139110   -1.824435   -0.068941
| 66> H        -2.385487    0.962548    0.317040
| 67> H        -3.258597   -0.561826    0.372923
| 68> H        -2.545264   -0.009198   -1.138707
| 69> C         1.974325   -1.001069    0.120629
| 70> H         2.061272   -1.010236    1.211298
| 71> H         2.895150   -0.579388   -0.283049
| 72> H         1.903058   -2.035243   -0.217225
| 73> C         0.638238    1.771797    0.188441
| 74> H         0.670042    1.803758    1.281894
| 75> H        -0.198890    2.387694   -0.139871
| 76> H         1.554886    2.228909   -0.185162
| 77> *
| 78>
| 79>
| 80>
| 81>
| 82>                          ****END OF INPUT****
 Total Charge           Charge          ....    0
 Multiplicity           Mult            ....    2
 Number of Electrons    NEL             ....   49
MP2 TOTAL ENERGY:     -447.503644226 Eh
FINAL SINGLE POINT ENERGY      -447.503644225747
MP2 TOTAL ENERGY:     -447.698732567 Eh
FINAL SINGLE POINT ENERGY      -447.698732567146

CARTESIAN COORDINATES (ANGSTROEM)
---------------------------------
  Si     0.474635   -0.002178   -0.407081
  C     -1.092955   -0.789917    0.280696
  C     -2.391207   -0.061321   -0.059841
  H     -0.972355   -0.849032    1.369386
  H     -1.139110   -1.824435   -0.068941
  H     -2.385487    0.962548    0.317040
  H     -3.258597   -0.561826    0.372923
  H     -2.545264   -0.009198   -1.138707
  C      1.974325   -1.001069    0.120629
  H      2.061272   -1.010236    1.211298
  H      2.895150   -0.579388   -0.283049
  H      1.903058   -2.035243   -0.217225
  C      0.638238    1.771797    0.188441
  H      0.670042    1.803758    1.281894
  H     -0.198890    2.387694   -0.139871
  H      1.554886    2.228909   -0.185162

 Multiplicity           Mult            ....    2
 Number of Electrons    NEL             ....   49
 Basis Dimension        Dim             ....  910

ORBITAL ENERGIES
----------------
                 SPIN UP ORBITALS
  NO   OCC          E(Eh)            E(eV)
   0   1.0000     -68.752538     -1870.8517
   1   1.0000     -11.213566      -305.1366
   2   1.0000     -11.203526      -304.8634
   3   1.0000     -11.198683      -304.7317
   4   1.0000     -11.198607      -304.7296
   5   1.0000      -6.102913      -166.0687
   6   1.0000      -4.215575      -114.7116
   7   1.0000      -4.205942      -114.4495
   8   1.0000      -4.205811      -114.4459
   9   1.0000      -1.020635       -27.7729
  10   1.0000      -0.954271       -25.9670
  11   1.0000      -0.925642       -25.1880
  12   1.0000      -0.839008       -22.8306
  13   1.0000      -0.639370       -17.3982
  14   1.0000      -0.605215       -16.4687
  15   1.0000      -0.573515       -15.6061
  16   1.0000      -0.563463       -15.3326
  17   1.0000      -0.555247       -15.1090
  18   1.0000      -0.544138       -14.8067
  19   1.0000      -0.538094       -14.6423
  20   1.0000      -0.508616       -13.8401
  21   1.0000      -0.490388       -13.3441
  22   1.0000      -0.434360       -11.8195
  23   1.0000      -0.414530       -11.2799
  24   1.0000      -0.295566        -8.0428
  25   0.0000       0.023412         0.6371
  26   0.0000       0.032322         0.8795
  27   0.0000       0.033964         0.9242
  28   0.0000       0.035145         0.9563
  29   0.0000       0.047973         1.3054

                 SPIN DOWN ORBITALS
  NO   OCC          E(Eh)            E(eV)
   0   1.0000     -68.747217     -1870.7069
   1   1.0000     -11.213589      -305.1373
   2   1.0000     -11.202619      -304.8388
   3   1.0000     -11.197887      -304.7100
   4   1.0000     -11.197736      -304.7059
   5   1.0000      -6.094718      -165.8457
   6   1.0000      -4.202468      -114.3550
   7   1.0000      -4.202359      -114.3520
   8   1.0000      -4.194335      -114.1337
   9   1.0000      -1.017584       -27.6899
  10   1.0000      -0.947690       -25.7880
  11   1.0000      -0.922284       -25.0966
  12   1.0000      -0.835820       -22.7438
  13   1.0000      -0.612806       -16.6753
  14   1.0000      -0.599688       -16.3183
  15   1.0000      -0.568885       -15.4801
  16   1.0000      -0.555835       -15.1251
  17   1.0000      -0.548933       -14.9372
  18   1.0000      -0.538780       -14.6610
  19   1.0000      -0.535646       -14.5757
  20   1.0000      -0.506785       -13.7903
  21   1.0000      -0.487739       -13.2720
  22   1.0000      -0.426486       -11.6053
  23   1.0000      -0.406497       -11.0614
  24   0.0000       0.020687         0.5629
  25   0.0000       0.032460         0.8833
  26   0.0000       0.034187         0.9303
  27   0.0000       0.035405         0.9634
  28   0.0000       0.047587         1.2949

MULLIKEN ATOMIC CHARGES AND SPIN POPULATIONS
--------------------------------------------
   0 Si:    1.130323    0.954333
   1 C :   -0.678929   -0.007265
   2 C :   -0.879587    0.007119
   3 H :    0.202283    0.022343
   4 H :    0.232701   -0.004481
   5 H :    0.242763    0.002507
   6 H :    0.300577   -0.003221
   7 H :    0.230666    0.000461
   8 C :   -1.196075    0.006470
   9 H :    0.237933    0.026159
  10 H :    0.270178   -0.010495
  11 H :    0.280480   -0.007193
  12 C :   -1.203192    0.004406
  13 H :    0.235054    0.028349
  14 H :    0.289746   -0.009249
  15 H :    0.305078   -0.010242
Sum of atomic charges         :    0.0000000

LOEWDIN ATOMIC CHARGES AND SPIN POPULATIONS
-------------------------------------------
   0 Si:    0.556141    0.487500
   1 C :    0.501737    0.119661
   2 C :    0.846382    0.022465
   3 H :   -0.336659    0.016813
   4 H :   -0.349591    0.014423
   5 H :   -0.305785    0.001991
   6 H :   -0.286077    0.000840
   7 H :   -0.297982    0.009068
   8 C :    0.916754    0.119086
   9 H :   -0.351657    0.016697
  10 H :   -0.367234    0.013886
  11 H :   -0.366090    0.013403
  12 C :    0.919929    0.119890
  13 H :   -0.347462    0.017055
  14 H :   -0.367811    0.013705
  15 H :   -0.364596    0.013515

  Mayer bond orders larger than 0.100000
B(  0-Si,  1-C ) :   0.7177 B(  0-Si,  8-C ) :   0.8428 B(  0-Si, 12-C ) :   0.7861
B(  1-C ,  2-C ) :   0.9485 B(  1-C ,  3-H ) :   0.9348 B(  1-C ,  4-H ) :   0.9356
B(  2-C ,  5-H ) :   0.9317 B(  2-C ,  6-H ) :   0.9602 B(  2-C ,  7-H ) :   0.9533
B(  8-C ,  9-H ) :   0.9492 B(  8-C , 10-H ) :   0.9668 B(  8-C , 11-H ) :   0.9521
B( 12-C , 13-H ) :   0.9508 B( 12-C , 14-H ) :   0.9521 B( 12-C , 15-H ) :   0.9492

MP2 TOTAL ENERGY:     -447.756339244 Eh
FINAL SINGLE POINT ENERGY      -447.756339243617

DIPOLE MOMENT
-------------
                                X             Y             Z
Electronic contribution:      1.52718      -0.56711      -2.42390
Nuclear contribution   :     -1.52371       0.54200       2.68454
                        -----------------------------------------
Total Dipole Moment    :      0.00347      -0.02511       0.26065
                        -----------------------------------------
Magnitude (a.u.)       :      0.26187
Magnitude (Debye)      :      0.66563

Rotational constants in cm-1:     0.177261     0.084915     0.062952
Rotational constants in MHz :  5314.153091  2545.678550  1887.259402

                             ****ORCA TERMINATED NORMALLY****
TOTAL RUN TIME: 0 days 2 hours 31 minutes 8 seconds 948 msec
