                         Program Version 5.0.4 -  RELEASE  -
|  1> ! ri-mp2 aug-cc-pvdz aug-cc-pvdz/c tightscf
|  2> %pal nprocs 16 end
|  3> %maxcore 3800
|  4> %base "DZ_P-F_27_AB"
|  5> %scf
|  6> STABPerform true
|  7> STABRestartUHFifUnstable true
|  8> end
|  9>
| 10> *xyz 0 1
| 11> F        -2.669185   -0.364170   -0.532796
| 12> O        -0.306760   -2.354893   -0.493105
| 13> O        -1.044760    2.354665   -0.199903
| 14> P        -1.588619   -0.200474    0.622865
| 15> N         0.728350    0.929727    0.013792
| 16> C        -0.592052    1.257698    0.026526
| 17> C        -0.204803   -1.251059   -0.046208
| 18> C         1.122830   -0.485152    0.055343
| 19> C         1.718834    1.965739   -0.191738
| 20> H         2.052910    2.002697   -1.229672
| 21> H         1.265349    2.921001    0.055818
| 22> C         2.019624   -0.852459   -1.116974
| 23> H         2.996643   -0.380355   -1.021119
| 24> H         2.157568   -1.930878   -1.140916
| 25> H         1.571628   -0.545854   -2.061563
| 26> H         2.580740    1.794765    0.451830
| 27> C         1.782607   -0.846143    1.387908
| 28> H         2.706918   -0.283826    1.518702
| 29> H         2.025144   -1.907756    1.407887
| 30> H         1.126526   -0.623150    2.229611
| 31> *
| 32>
| 33> $new_job
| 34> ! ri-mp2 aug-cc-pvtz aug-cc-pvtz/c tightscf
| 35> %pal nprocs 16 end
| 36> %maxcore 3800
| 37> %base "TZ_P-F_27_AB"
| 38>
| 39> *xyz 0 1
| 40> F        -2.669185   -0.364170   -0.532796
| 41> O        -0.306760   -2.354893   -0.493105
| 42> O        -1.044760    2.354665   -0.199903
| 43> P        -1.588619   -0.200474    0.622865
| 44> N         0.728350    0.929727    0.013792
| 45> C        -0.592052    1.257698    0.026526
| 46> C        -0.204803   -1.251059   -0.046208
| 47> C         1.122830   -0.485152    0.055343
| 48> C         1.718834    1.965739   -0.191738
| 49> H         2.052910    2.002697   -1.229672
| 50> H         1.265349    2.921001    0.055818
| 51> C         2.019624   -0.852459   -1.116974
| 52> H         2.996643   -0.380355   -1.021119
| 53> H         2.157568   -1.930878   -1.140916
| 54> H         1.571628   -0.545854   -2.061563
| 55> H         2.580740    1.794765    0.451830
| 56> C         1.782607   -0.846143    1.387908
| 57> H         2.706918   -0.283826    1.518702
| 58> H         2.025144   -1.907756    1.407887
| 59> H         1.126526   -0.623150    2.229611
| 60> *
| 61>
| 62> $new_job
| 63> ! ri-mp2 aug-cc-pvqz aug-cc-pvqz/c tightscf
| 64> %pal nprocs 16 end
| 65> %maxcore 3800
| 66> %base "QZ_P-F_27_AB"
| 67>
| 68> *xyz 0 1
| 69> F        -2.669185   -0.364170   -0.532796
| 70> O        -0.306760   -2.354893   -0.493105
| 71> O        -1.044760    2.354665   -0.199903
| 72> P        -1.588619   -0.200474    0.622865
| 73> N         0.728350    0.929727    0.013792
| 74> C        -0.592052    1.257698    0.026526
| 75> C        -0.204803   -1.251059   -0.046208
| 76> C         1.122830   -0.485152    0.055343
| 77> C         1.718834    1.965739   -0.191738
| 78> H         2.052910    2.002697   -1.229672
| 79> H         1.265349    2.921001    0.055818
| 80> C         2.019624   -0.852459   -1.116974
| 81> H         2.996643   -0.380355   -1.021119
| 82> H         2.157568   -1.930878   -1.140916
| 83> H         1.571628   -0.545854   -2.061563
| 84> H         2.580740    1.794765    0.451830
| 85> C         1.782607   -0.846143    1.387908
| 86> H         2.706918   -0.283826    1.518702
| 87> H         2.025144   -1.907756    1.407887
| 88> H         1.126526   -0.623150    2.229611
| 89> *
| 90>
| 91>
| 92>
| 93>
| 94>                          ****END OF INPUT****
 Total Charge           Charge          ....    0
 Multiplicity           Mult            ....    1
 Number of Electrons    NEL             ....   92
MP2 TOTAL ENERGY:     -878.617739930 Eh
FINAL SINGLE POINT ENERGY      -878.617739930018
MP2 TOTAL ENERGY:     -879.125496550 Eh
FINAL SINGLE POINT ENERGY      -879.125496549997

CARTESIAN COORDINATES (ANGSTROEM)
---------------------------------
  F     -2.669185   -0.364170   -0.532796
  O     -0.306760   -2.354893   -0.493105
  O     -1.044760    2.354665   -0.199903
  P     -1.588619   -0.200474    0.622865
  N      0.728350    0.929727    0.013792
  C     -0.592052    1.257698    0.026526
  C     -0.204803   -1.251059   -0.046208
  C      1.122830   -0.485152    0.055343
  C      1.718834    1.965739   -0.191738
  H      2.052910    2.002697   -1.229672
  H      1.265349    2.921001    0.055818
  C      2.019624   -0.852459   -1.116974
  H      2.996643   -0.380355   -1.021119
  H      2.157568   -1.930878   -1.140916
  H      1.571628   -0.545854   -2.061563
  H      2.580740    1.794765    0.451830
  C      1.782607   -0.846143    1.387908
  H      2.706918   -0.283826    1.518702
  H      2.025144   -1.907756    1.407887
  H      1.126526   -0.623150    2.229611

 Multiplicity           Mult            ....    1
 Number of Electrons    NEL             ....   92
 Basis Dimension        Dim             .... 1298

ORBITAL ENERGIES
----------------

  NO   OCC          E(Eh)            E(eV)
   0   2.0000     -80.031094     -2177.7568
   1   2.0000     -26.319826      -716.1989
   2   2.0000     -20.588699      -560.2470
   3   2.0000     -20.542188      -558.9814
   4   2.0000     -15.613476      -424.8643
   5   2.0000     -11.366351      -309.2941
   6   2.0000     -11.357461      -309.0522
   7   2.0000     -11.315688      -307.9155
   8   2.0000     -11.275200      -306.8138
   9   2.0000     -11.251553      -306.1703
  10   2.0000     -11.241834      -305.9058
  11   2.0000      -7.566812      -205.9034
  12   2.0000      -5.460829      -148.5967
  13   2.0000      -5.459838      -148.5698
  14   2.0000      -5.458984      -148.5465
  15   2.0000      -1.627679       -44.2914
  16   2.0000      -1.434147       -39.0251
  17   2.0000      -1.408635       -38.3309
  18   2.0000      -1.289578       -35.0912
  19   2.0000      -1.100353       -29.9421
  20   2.0000      -1.020346       -27.7650
  21   2.0000      -0.974682       -26.5224
  22   2.0000      -0.922634       -25.1062
  23   2.0000      -0.883848       -24.0507
  24   2.0000      -0.806060       -21.9340
  25   2.0000      -0.753656       -20.5080
  26   2.0000      -0.734664       -19.9912
  27   2.0000      -0.702410       -19.1136
  28   2.0000      -0.697401       -18.9772
  29   2.0000      -0.681202       -18.5364
  30   2.0000      -0.672490       -18.2994
  31   2.0000      -0.645364       -17.5612
  32   2.0000      -0.644978       -17.5507
  33   2.0000      -0.624637       -16.9972
  34   2.0000      -0.606837       -16.5129
  35   2.0000      -0.587008       -15.9733
  36   2.0000      -0.575116       -15.6497
  37   2.0000      -0.565745       -15.3947
  38   2.0000      -0.552762       -15.0414
  39   2.0000      -0.549594       -14.9552
  40   2.0000      -0.544821       -14.8253
  41   2.0000      -0.524727       -14.2785
  42   2.0000      -0.496894       -13.5212
  43   2.0000      -0.404510       -11.0073
  44   2.0000      -0.399327       -10.8662
  45   2.0000      -0.388822       -10.5804
  46   0.0000       0.017958         0.4887
  47   0.0000       0.026620         0.7244
  48   0.0000       0.029853         0.8123
  49   0.0000       0.034435         0.9370
  50   0.0000       0.046635         1.2690

MULLIKEN ATOMIC CHARGES
-----------------------
   0 F :   -0.740287
   1 O :   -0.892973
   2 O :   -0.936955
   3 P :    1.102619
   4 N :   -0.378919
   5 C :    0.869645
   6 C :    0.639358
   7 C :    1.055698
   8 C :   -1.066202
   9 H :    0.317430
  10 H :    0.328144
  11 C :   -1.010066
  12 H :    0.193937
  13 H :    0.291165
  14 H :    0.225267
  15 H :    0.267410
  16 C :   -1.090332
  17 H :    0.234156
  18 H :    0.328300
  19 H :    0.262605
Sum of atomic charges:    0.0000000

LOEWDIN ATOMIC CHARGES
----------------------
   0 F :    0.310195
   1 O :    0.692272
   2 O :    0.631559
   3 P :    0.458216
   4 N :    0.326463
   5 C :   -1.038445
   6 C :   -0.865999
   7 C :   -0.574646
   8 C :    0.770804
   9 H :   -0.266909
  10 H :   -0.327015
  11 C :    0.893182
  12 H :   -0.276081
  13 H :   -0.287516
  14 H :   -0.258905
  15 H :   -0.285517
  16 C :    0.911974
  17 H :   -0.276454
  18 H :   -0.266679
  19 H :   -0.270498

  Mayer bond orders larger than 0.100000
B(  0-F ,  3-P ) :   0.6247 B(  0-F ,  5-C ) :  -0.1430 B(  0-F ,  6-C ) :  -0.1407
B(  1-O ,  6-C ) :   0.7732 B(  1-O ,  7-C ) :   0.4238 B(  2-O ,  4-N ) :   0.3677
B(  2-O ,  5-C ) :   0.9443 B(  3-P ,  5-C ) :   0.8505 B(  3-P ,  6-C ) :   0.9524
B(  4-N ,  5-C ) :   1.4445 B(  4-N ,  7-C ) :   0.3324 B(  4-N ,  8-C ) :   0.7054
B(  4-N ,  9-H ) :  -0.1008 B(  5-C ,  7-C ) :  -0.2008 B(  6-C ,  7-C ) :   0.7629
B(  7-C ,  8-C ) :  -0.1423 B(  7-C , 11-C ) :   0.3910 B(  7-C , 12-H ) :  -0.1102
B(  7-C , 14-H ) :  -0.1376 B(  7-C , 16-C ) :   0.6178 B(  7-C , 19-H ) :  -0.1041
B(  8-C ,  9-H ) :   0.9946 B(  8-C , 10-H ) :   0.9541 B(  8-C , 15-H ) :   0.9811
B( 11-C , 12-H ) :   1.0677 B( 11-C , 13-H ) :   0.9524 B( 11-C , 14-H ) :   1.0632
B( 11-C , 16-C ) :   0.1492 B( 16-C , 17-H ) :   0.9857 B( 16-C , 18-H ) :   0.9212
B( 16-C , 19-H ) :   1.0454

MP2 TOTAL ENERGY:     -879.290191544 Eh
FINAL SINGLE POINT ENERGY      -879.290191544035

DIPOLE MOMENT
-------------
                                X             Y             Z
Electronic contribution:    -20.13452      -1.71876       0.48585
Nuclear contribution   :     22.06223       1.56347       0.12947
                        -----------------------------------------
Total Dipole Moment    :      1.92771      -0.15529       0.61532
                        -----------------------------------------
Magnitude (a.u.)       :      2.02948
Magnitude (Debye)      :      5.15854

Rotational constants in cm-1:     0.042126     0.033753     0.022686
Rotational constants in MHz :  1262.900044  1011.879194   680.105465

                             ****ORCA TERMINATED NORMALLY****
TOTAL RUN TIME: 0 days 5 hours 11 minutes 38 seconds 190 msec
