                         Program Version 5.0.4 -  RELEASE  -
|  1> ! ri-mp2 aug-cc-pvdz aug-cc-pvdz/c tightscf
|  2> %pal nprocs 16 end
|  3> %maxcore 3800
|  4> %base "DZ_Si-Si_147_AB"
|  5> %scf
|  6> STABPerform true
|  7> STABRestartUHFifUnstable true
|  8> end
|  9>
| 10> *xyz 0 1
| 11> Si        -1.451284    0.238652    0.000003
| 12> Si         0.722971   -0.651334   -0.000008
| 13> H        -1.667630    1.076846    1.200692
| 14> H        -2.449046   -0.854317   -0.000009
| 15> H        -1.667631    1.076874   -1.200666
| 16> B         1.940600    0.923599    0.000011
| 17> H         0.856111   -1.506480   -1.203616
| 18> H         0.856111   -1.506509    1.203579
| 19> H         2.282735    1.436575   -1.018207
| 20> H         2.282735    1.436551    1.018241
| 21> *
| 22>
| 23> $new_job
| 24> ! ri-mp2 aug-cc-pvtz aug-cc-pvtz/c tightscf
| 25> %pal nprocs 16 end
| 26> %maxcore 3800
| 27> %base "TZ_Si-Si_147_AB"
| 28>
| 29> *xyz 0 1
| 30> Si        -1.451284    0.238652    0.000003
| 31> Si         0.722971   -0.651334   -0.000008
| 32> H        -1.667630    1.076846    1.200692
| 33> H        -2.449046   -0.854317   -0.000009
| 34> H        -1.667631    1.076874   -1.200666
| 35> B         1.940600    0.923599    0.000011
| 36> H         0.856111   -1.506480   -1.203616
| 37> H         0.856111   -1.506509    1.203579
| 38> H         2.282735    1.436575   -1.018207
| 39> H         2.282735    1.436551    1.018241
| 40> *
| 41>
| 42> $new_job
| 43> ! ri-mp2 aug-cc-pvqz aug-cc-pvqz/c tightscf
| 44> %pal nprocs 16 end
| 45> %maxcore 3800
| 46> %base "QZ_Si-Si_147_AB"
| 47>
| 48> *xyz 0 1
| 49> Si        -1.451284    0.238652    0.000003
| 50> Si         0.722971   -0.651334   -0.000008
| 51> H        -1.667630    1.076846    1.200692
| 52> H        -2.449046   -0.854317   -0.000009
| 53> H        -1.667631    1.076874   -1.200666
| 54> B         1.940600    0.923599    0.000011
| 55> H         0.856111   -1.506480   -1.203616
| 56> H         0.856111   -1.506509    1.203579
| 57> H         2.282735    1.436575   -1.018207
| 58> H         2.282735    1.436551    1.018241
| 59> *
| 60>
| 61>
| 62>
| 63>
| 64>                          ****END OF INPUT****
 Total Charge           Charge          ....    0
 Multiplicity           Mult            ....    1
 Number of Electrons    NEL             ....   40
MP2 TOTAL ENERGY:     -606.882021473 Eh
FINAL SINGLE POINT ENERGY      -606.882021473136
MP2 TOTAL ENERGY:     -606.979765784 Eh
FINAL SINGLE POINT ENERGY      -606.979765783805

CARTESIAN COORDINATES (ANGSTROEM)
---------------------------------
  Si    -1.451284    0.238652    0.000003
  Si     0.722971   -0.651334   -0.000008
  H     -1.667630    1.076846    1.200692
  H     -2.449046   -0.854317   -0.000009
  H     -1.667631    1.076874   -1.200666
  B      1.940600    0.923599    0.000011
  H      0.856111   -1.506480   -1.203616
  H      0.856111   -1.506509    1.203579
  H      2.282735    1.436575   -1.018207
  H      2.282735    1.436551    1.018241

 Multiplicity           Mult            ....    1
 Number of Electrons    NEL             ....   40
 Basis Dimension        Dim             ....  570

ORBITAL ENERGIES
----------------

  NO   OCC          E(Eh)            E(eV)
   0   2.0000     -68.767954     -1871.2712
   1   2.0000     -68.754298     -1870.8996
   2   2.0000      -7.614684      -207.2061
   3   2.0000      -6.118601      -166.4956
   4   2.0000      -6.107047      -166.1812
   5   2.0000      -4.224712      -114.9602
   6   2.0000      -4.224654      -114.9587
   7   2.0000      -4.224621      -114.9578
   8   2.0000      -4.213379      -114.6519
   9   2.0000      -4.212968      -114.6407
  10   2.0000      -4.212758      -114.6350
  11   2.0000      -0.767829       -20.8937
  12   2.0000      -0.702883       -19.1264
  13   2.0000      -0.640090       -17.4177
  14   2.0000      -0.519725       -14.1424
  15   2.0000      -0.489244       -13.3130
  16   2.0000      -0.488236       -13.2856
  17   2.0000      -0.464687       -12.6448
  18   2.0000      -0.434667       -11.8279
  19   2.0000      -0.385287       -10.4842
  20   0.0000       0.020785         0.5656
  21   0.0000       0.025742         0.7005
  22   0.0000       0.031386         0.8540
  23   0.0000       0.032549         0.8857
  24   0.0000       0.037979         1.0335

MULLIKEN ATOMIC CHARGES
-----------------------
   0 Si:    0.444214
   1 Si:    0.459344
   2 H :   -0.160810
   3 H :   -0.151261
   4 H :   -0.160810
   5 B :    0.298933
   6 H :   -0.182203
   7 H :   -0.182203
   8 H :   -0.182602
   9 H :   -0.182602
Sum of atomic charges:    0.0000000

LOEWDIN ATOMIC CHARGES
----------------------
   0 Si:    1.004160
   1 Si:    0.783724
   2 H :   -0.311939
   3 H :   -0.316746
   4 H :   -0.311939
   5 B :    0.264217
   6 H :   -0.297206
   7 H :   -0.297206
   8 H :   -0.258533
   9 H :   -0.258533

  Mayer bond orders larger than 0.100000
B(  0-Si,  1-Si) :   0.7150 B(  0-Si,  2-H ) :   0.8044 B(  0-Si,  3-H ) :   0.7933
B(  0-Si,  4-H ) :   0.8044 B(  1-Si,  5-B ) :   0.8766 B(  1-Si,  6-H ) :   0.7978
B(  1-Si,  7-H ) :   0.7978 B(  5-B ,  8-H ) :   0.9287 B(  5-B ,  9-H ) :   0.9287

MP2 TOTAL ENERGY:     -607.011314829 Eh
FINAL SINGLE POINT ENERGY      -607.011314829376

DIPOLE MOMENT
-------------
                                X             Y             Z
Electronic contribution:      1.21129      -0.41620      -0.00001
Nuclear contribution   :     -1.04118       0.44681       0.00001
                        -----------------------------------------
Total Dipole Moment    :      0.17011       0.03061       0.00000
                        -----------------------------------------
Magnitude (a.u.)       :      0.17285
Magnitude (Debye)      :      0.43934

Rotational constants in cm-1:     0.397131     0.115389     0.097607
Rotational constants in MHz : 11905.677667  3459.268673  2926.190259

                             ****ORCA TERMINATED NORMALLY****
TOTAL RUN TIME: 0 days 0 hours 15 minutes 5 seconds 119 msec
