                         Program Version 5.0.4 -  RELEASE  -
|  1> ! ri-mp2 aug-cc-pvdz aug-cc-pvdz/c tightscf
|  2> %pal nprocs 16 end
|  3> %maxcore 3800
|  4> %base "DZ_Si-Si_92_AB"
|  5>
|  6> *xyz 0 1
|  7> Si         0.640836    0.982323   -0.000002
|  8> Si        -0.640837   -0.982323   -0.000006
|  9> N        -2.360983   -0.420235    0.000007
| 10> H        -0.500084   -1.820168    1.207690
| 11> H        -0.500098   -1.820155   -1.207712
| 12> N        -2.433788    0.811674    0.000015
| 13> H        -3.430063    1.093474    0.000024
| 14> N         2.360983    0.420235   -0.000002
| 15> H         0.500090    1.820160    1.207700
| 16> H         0.500091    1.820163   -1.207702
| 17> N         2.433788   -0.811674   -0.000004
| 18> H         3.430063   -1.093474   -0.000003
| 19> *
| 20>
| 21> $new_job
| 22> ! ri-mp2 aug-cc-pvtz aug-cc-pvtz/c tightscf
| 23> %pal nprocs 16 end
| 24> %maxcore 3800
| 25> %base "TZ_Si-Si_92_AB"
| 26>
| 27> *xyz 0 1
| 28> Si         0.640836    0.982323   -0.000002
| 29> Si        -0.640837   -0.982323   -0.000006
| 30> N        -2.360983   -0.420235    0.000007
| 31> H        -0.500084   -1.820168    1.207690
| 32> H        -0.500098   -1.820155   -1.207712
| 33> N        -2.433788    0.811674    0.000015
| 34> H        -3.430063    1.093474    0.000024
| 35> N         2.360983    0.420235   -0.000002
| 36> H         0.500090    1.820160    1.207700
| 37> H         0.500091    1.820163   -1.207702
| 38> N         2.433788   -0.811674   -0.000004
| 39> H         3.430063   -1.093474   -0.000003
| 40> *
| 41>
| 42> $new_job
| 43> ! ri-mp2 aug-cc-pvqz aug-cc-pvqz/c tightscf
| 44> %pal nprocs 16 end
| 45> %maxcore 3800
| 46> %base "QZ_Si-Si_92_AB"
| 47>
| 48> *xyz 0 1
| 49> Si         0.640836    0.982323   -0.000002
| 50> Si        -0.640837   -0.982323   -0.000006
| 51> N        -2.360983   -0.420235    0.000007
| 52> H        -0.500084   -1.820168    1.207690
| 53> H        -0.500098   -1.820155   -1.207712
| 54> N        -2.433788    0.811674    0.000015
| 55> H        -3.430063    1.093474    0.000024
| 56> N         2.360983    0.420235   -0.000002
| 57> H         0.500090    1.820160    1.207700
| 58> H         0.500091    1.820163   -1.207702
| 59> N         2.433788   -0.811674   -0.000004
| 60> H         3.430063   -1.093474   -0.000003
| 61> *
| 62>
| 63>
| 64>
| 65>
| 66>                          ****END OF INPUT****
 Total Charge           Charge          ....    0
 Multiplicity           Mult            ....    1
 Number of Electrons    NEL             ....   62
MP2 TOTAL ENERGY:     -799.965192627 Eh
FINAL SINGLE POINT ENERGY      -799.965192627016
MP2 TOTAL ENERGY:     -800.220979537 Eh
FINAL SINGLE POINT ENERGY      -800.220979536851

CARTESIAN COORDINATES (ANGSTROEM)
---------------------------------
  Si     0.640836    0.982323   -0.000002
  Si    -0.640837   -0.982323   -0.000006
  N     -2.360983   -0.420235    0.000007
  H     -0.500084   -1.820168    1.207690
  H     -0.500098   -1.820155   -1.207712
  N     -2.433788    0.811674    0.000015
  H     -3.430063    1.093474    0.000024
  N      2.360983    0.420235   -0.000002
  H      0.500090    1.820160    1.207700
  H      0.500091    1.820163   -1.207702
  N      2.433788   -0.811674   -0.000004
  H      3.430063   -1.093474   -0.000003

 Multiplicity           Mult            ....    1
 Number of Electrons    NEL             ....   62
 Basis Dimension        Dim             ....  764

ORBITAL ENERGIES
----------------

  NO   OCC          E(Eh)            E(eV)
   0   2.0000     -68.786880     -1871.7862
   1   2.0000     -68.786879     -1871.7861
   2   2.0000     -15.635124      -425.4533
   3   2.0000     -15.635124      -425.4533
   4   2.0000     -15.608939      -424.7408
   5   2.0000     -15.608939      -424.7408
   6   2.0000      -6.135723      -166.9615
   7   2.0000      -6.135579      -166.9576
   8   2.0000      -4.241988      -115.4304
   9   2.0000      -4.241825      -115.4259
  10   2.0000      -4.241559      -115.4187
  11   2.0000      -4.241529      -115.4179
  12   2.0000      -4.241475      -115.4164
  13   2.0000      -4.241048      -115.4048
  14   2.0000      -1.354625       -36.8612
  15   2.0000      -1.354135       -36.8479
  16   2.0000      -0.924005       -25.1434
  17   2.0000      -0.919566       -25.0227
  18   2.0000      -0.745772       -20.2935
  19   2.0000      -0.697918       -18.9913
  20   2.0000      -0.668879       -18.2011
  21   2.0000      -0.652178       -17.7467
  22   2.0000      -0.585504       -15.9324
  23   2.0000      -0.573429       -15.6038
  24   2.0000      -0.551456       -15.0059
  25   2.0000      -0.536102       -14.5881
  26   2.0000      -0.478997       -13.0342
  27   2.0000      -0.475026       -12.9261
  28   2.0000      -0.425477       -11.5778
  29   2.0000      -0.372545       -10.1375
  30   2.0000      -0.368106       -10.0167
  31   0.0000       0.024458         0.6655
  32   0.0000       0.031601         0.8599
  33   0.0000       0.033029         0.8988
  34   0.0000       0.042063         1.1446
  35   0.0000       0.047751         1.2994

MULLIKEN ATOMIC CHARGES
-----------------------
   0 Si:    1.014861
   1 Si:    1.014861
   2 N :   -0.667221
   3 H :   -0.178656
   4 H :   -0.178656
   5 N :   -0.306284
   6 H :    0.315957
   7 N :   -0.667221
   8 H :   -0.178656
   9 H :   -0.178656
  10 N :   -0.306284
  11 H :    0.315957
Sum of atomic charges:    0.0000000

LOEWDIN ATOMIC CHARGES
----------------------
   0 Si:    0.487448
   1 Si:    0.487448
   2 N :    0.171935
   3 H :   -0.269654
   4 H :   -0.269655
   5 N :    0.555596
   6 H :   -0.675671
   7 N :    0.171936
   8 H :   -0.269654
   9 H :   -0.269654
  10 N :    0.555596
  11 H :   -0.675672

  Mayer bond orders larger than 0.100000
B(  0-Si,  1-Si) :   0.9238 B(  0-Si,  7-N ) :   0.4009 B(  0-Si,  8-H ) :   0.8577
B(  0-Si,  9-H ) :   0.8577 B(  1-Si,  2-N ) :   0.4009 B(  1-Si,  3-H ) :   0.8577
B(  1-Si,  4-H ) :   0.8577 B(  2-N ,  5-N ) :   1.7616 B(  5-N ,  6-H ) :   0.8634
B(  7-N , 10-N ) :   1.7616 B( 10-N , 11-H ) :   0.8634

MP2 TOTAL ENERGY:     -800.305709775 Eh
FINAL SINGLE POINT ENERGY      -800.305709775412

DIPOLE MOMENT
-------------
                                X             Y             Z
Electronic contribution:     -0.00000       0.00000       0.00000
Nuclear contribution   :      0.00000      -0.00000      -0.00000
                        -----------------------------------------
Total Dipole Moment    :     -0.00000       0.00000       0.00000
                        -----------------------------------------
Magnitude (a.u.)       :      0.00000
Magnitude (Debye)      :      0.00001

Rotational constants in cm-1:     0.169935     0.044855     0.036389
Rotational constants in MHz :  5094.524640  1344.720927  1090.911166

                             ****ORCA TERMINATED NORMALLY****
TOTAL RUN TIME: 0 days 0 hours 9 minutes 11 seconds 145 msec
