                         Program Version 5.0.4 -  RELEASE  -
|  1> ! ri-mp2 aug-cc-pvdz aug-cc-pvdz/c tightscf
|  2> %pal nprocs 16 end
|  3> %maxcore 3800
|  4> %base "DZ_P-P_11_AB"
|  5> %scf
|  6> STABPerform true
|  7> STABRestartUHFifUnstable true
|  8> end
|  9>
| 10> *xyz 0 1
| 11> P        -1.760922   -0.131024    0.039622
| 12> P         0.409247   -0.006778    0.115096
| 13> O         0.986446   -0.243161    1.438531
| 14> O         0.767585    1.386669   -0.563519
| 15> H        -1.857387    0.482642   -1.229179
| 16> H        -1.933107    1.071333    0.759588
| 17> H         1.654031    1.694908   -0.333685
| 18> O         0.895179   -1.057207   -0.991171
| 19> H         1.217914   -1.872265   -0.588222
| 20> *
| 21>
| 22> $new_job
| 23> ! ri-mp2 aug-cc-pvtz aug-cc-pvtz/c tightscf
| 24> %pal nprocs 16 end
| 25> %maxcore 3800
| 26> %base "TZ_P-P_11_AB"
| 27>
| 28> *xyz 0 1
| 29> P        -1.760922   -0.131024    0.039622
| 30> P         0.409247   -0.006778    0.115096
| 31> O         0.986446   -0.243161    1.438531
| 32> O         0.767585    1.386669   -0.563519
| 33> H        -1.857387    0.482642   -1.229179
| 34> H        -1.933107    1.071333    0.759588
| 35> H         1.654031    1.694908   -0.333685
| 36> O         0.895179   -1.057207   -0.991171
| 37> H         1.217914   -1.872265   -0.588222
| 38> *
| 39>
| 40> $new_job
| 41> ! ri-mp2 aug-cc-pvqz aug-cc-pvqz/c tightscf
| 42> %pal nprocs 16 end
| 43> %maxcore 3800
| 44> %base "QZ_P-P_11_AB"
| 45>
| 46> *xyz 0 1
| 47> P        -1.760922   -0.131024    0.039622
| 48> P         0.409247   -0.006778    0.115096
| 49> O         0.986446   -0.243161    1.438531
| 50> O         0.767585    1.386669   -0.563519
| 51> H        -1.857387    0.482642   -1.229179
| 52> H        -1.933107    1.071333    0.759588
| 53> H         1.654031    1.694908   -0.333685
| 54> O         0.895179   -1.057207   -0.991171
| 55> H         1.217914   -1.872265   -0.588222
| 56> *
| 57>
| 58>
| 59>
| 60>
| 61>                          ****END OF INPUT****
 Total Charge           Charge          ....    0
 Multiplicity           Mult            ....    1
 Number of Electrons    NEL             ....   58
MP2 TOTAL ENERGY:     -909.351747673 Eh
FINAL SINGLE POINT ENERGY      -909.351747672974
MP2 TOTAL ENERGY:     -909.664408126 Eh
FINAL SINGLE POINT ENERGY      -909.664408125769

CARTESIAN COORDINATES (ANGSTROEM)
---------------------------------
  P     -1.760922   -0.131024    0.039622
  P      0.409247   -0.006778    0.115096
  O      0.986446   -0.243161    1.438531
  O      0.767585    1.386669   -0.563519
  H     -1.857387    0.482642   -1.229179
  H     -1.933107    1.071333    0.759588
  H      1.654031    1.694908   -0.333685
  O      0.895179   -1.057207   -0.991171
  H      1.217914   -1.872265   -0.588222

 Multiplicity           Mult            ....    1
 Number of Electrons    NEL             ....   58
 Basis Dimension        Dim             ....  592

ORBITAL ENERGIES
----------------

  NO   OCC          E(Eh)            E(eV)
   0   2.0000     -80.079003     -2179.0605
   1   2.0000     -79.964451     -2175.9433
   2   2.0000     -20.607167      -560.7495
   3   2.0000     -20.604571      -560.6789
   4   2.0000     -20.512584      -558.1758
   5   2.0000      -7.601184      -206.8387
   6   2.0000      -7.508762      -204.3238
   7   2.0000      -5.499176      -149.6402
   8   2.0000      -5.498627      -149.6252
   9   2.0000      -5.497844      -149.6039
  10   2.0000      -5.402328      -147.0048
  11   2.0000      -5.402266      -147.0031
  12   2.0000      -5.401388      -146.9792
  13   2.0000      -1.443012       -39.2664
  14   2.0000      -1.391336       -37.8602
  15   2.0000      -1.304992       -35.5106
  16   2.0000      -0.916822       -24.9480
  17   2.0000      -0.824130       -22.4257
  18   2.0000      -0.747541       -20.3416
  19   2.0000      -0.681088       -18.5333
  20   2.0000      -0.652553       -17.7569
  21   2.0000      -0.624625       -16.9969
  22   2.0000      -0.574006       -15.6195
  23   2.0000      -0.563468       -15.3327
  24   2.0000      -0.547727       -14.9044
  25   2.0000      -0.511140       -13.9088
  26   2.0000      -0.473875       -12.8948
  27   2.0000      -0.450692       -12.2639
  28   2.0000      -0.403715       -10.9856
  29   0.0000       0.022513         0.6126
  30   0.0000       0.034845         0.9482
  31   0.0000       0.035787         0.9738
  32   0.0000       0.049049         1.3347
  33   0.0000       0.060576         1.6484

MULLIKEN ATOMIC CHARGES
-----------------------
   0 P :    0.133642
   1 P :    2.060758
   2 O :   -1.157224
   3 O :   -0.854308
   4 H :   -0.040177
   5 H :   -0.041167
   6 H :    0.375364
   7 O :   -0.844362
   8 H :    0.367475
Sum of atomic charges:   -0.0000000

LOEWDIN ATOMIC CHARGES
----------------------
   0 P :    1.431258
   1 P :   -0.930425
   2 O :    0.235840
   3 O :    1.043345
   4 H :   -0.537569
   5 H :   -0.538125
   6 H :   -0.859966
   7 O :    1.040921
   8 H :   -0.885280

  Mayer bond orders larger than 0.100000
B(  0-P ,  1-P ) :   0.9572 B(  0-P ,  4-H ) :   0.9154 B(  0-P ,  5-H ) :   0.9043
B(  1-P ,  2-O ) :   1.3848 B(  1-P ,  3-O ) :   0.6523 B(  1-P ,  7-O ) :   0.6568
B(  3-O ,  6-H ) :   0.9124 B(  7-O ,  8-H ) :   0.9216

MP2 TOTAL ENERGY:     -909.766219777 Eh
FINAL SINGLE POINT ENERGY      -909.766219776901

DIPOLE MOMENT
-------------
                                X             Y             Z
Electronic contribution:     -0.50122      -1.27806       0.71212
Nuclear contribution   :      0.39233       1.44236      -1.47243
                        -----------------------------------------
Total Dipole Moment    :     -0.10889       0.16430      -0.76031
                        -----------------------------------------
Magnitude (a.u.)       :      0.78545
Magnitude (Debye)      :      1.99645

Rotational constants in cm-1:     0.146896     0.081392     0.080703
Rotational constants in MHz :  4403.839983  2440.068314  2419.418680

                             ****ORCA TERMINATED NORMALLY****
TOTAL RUN TIME: 0 days 0 hours 17 minutes 4 seconds 277 msec
