                         Program Version 5.0.4 -  RELEASE  -
|  1> ! ri-mp2 aug-cc-pvdz aug-cc-pvdz/c tightscf
|  2> %pal nprocs 16 end
|  3> %maxcore 3800
|  4> %base "DZ_S-S_3_AB"
|  5> %scf
|  6> STABPerform true
|  7> STABRestartUHFifUnstable true
|  8> end
|  9>
| 10> *xyz 0 1
| 11> S        -0.870490    1.450404    0.517572
| 12> S         0.870491    1.450406   -0.517566
| 13> C         1.748318    0.067778    0.241611
| 14> C        -1.748320    0.067783   -0.241614
| 15> O        -1.285093   -0.607428   -1.111381
| 16> O         1.285084   -0.607444    1.111365
| 17> C        -3.082127   -0.122965    0.363008
| 18> C        -4.164933   -0.681283   -0.525790
| 19> C        -3.561819   -1.545347    0.514663
| 20> H        -3.884068   -0.863761   -1.552866
| 21> H        -5.163323   -0.298298   -0.373389
| 22> H        -4.132808   -1.772277    1.402914
| 23> H        -2.871262   -2.311256    0.193033
| 24> H        -3.365677    0.589455    1.124956
| 25> C         3.082130   -0.122960   -0.363003
| 26> C         4.164929   -0.681287    0.525798
| 27> C         3.561826   -1.545340   -0.514670
| 28> H         3.365685    0.589469   -1.124939
| 29> H         4.132825   -1.772258   -1.402918
| 30> H         2.871269   -2.311254   -0.193055
| 31> H         3.884055   -0.863777    1.552870
| 32> H         5.163320   -0.298298    0.373412
| 33> *
| 34>
| 35> $new_job
| 36> ! ri-mp2 aug-cc-pvtz aug-cc-pvtz/c tightscf
| 37> %pal nprocs 16 end
| 38> %maxcore 3800
| 39> %base "TZ_S-S_3_AB"
| 40>
| 41> *xyz 0 1
| 42> S        -0.870490    1.450404    0.517572
| 43> S         0.870491    1.450406   -0.517566
| 44> C         1.748318    0.067778    0.241611
| 45> C        -1.748320    0.067783   -0.241614
| 46> O        -1.285093   -0.607428   -1.111381
| 47> O         1.285084   -0.607444    1.111365
| 48> C        -3.082127   -0.122965    0.363008
| 49> C        -4.164933   -0.681283   -0.525790
| 50> C        -3.561819   -1.545347    0.514663
| 51> H        -3.884068   -0.863761   -1.552866
| 52> H        -5.163323   -0.298298   -0.373389
| 53> H        -4.132808   -1.772277    1.402914
| 54> H        -2.871262   -2.311256    0.193033
| 55> H        -3.365677    0.589455    1.124956
| 56> C         3.082130   -0.122960   -0.363003
| 57> C         4.164929   -0.681287    0.525798
| 58> C         3.561826   -1.545340   -0.514670
| 59> H         3.365685    0.589469   -1.124939
| 60> H         4.132825   -1.772258   -1.402918
| 61> H         2.871269   -2.311254   -0.193055
| 62> H         3.884055   -0.863777    1.552870
| 63> H         5.163320   -0.298298    0.373412
| 64> *
| 65>
| 66> $new_job
| 67> ! ri-mp2 aug-cc-pvqz aug-cc-pvqz/c tightscf
| 68> %pal nprocs 16 end
| 69> %maxcore 3800
| 70> %base "QZ_S-S_3_AB"
| 71>
| 72> *xyz 0 1
| 73> S        -0.870490    1.450404    0.517572
| 74> S         0.870491    1.450406   -0.517566
| 75> C         1.748318    0.067778    0.241611
| 76> C        -1.748320    0.067783   -0.241614
| 77> O        -1.285093   -0.607428   -1.111381
| 78> O         1.285084   -0.607444    1.111365
| 79> C        -3.082127   -0.122965    0.363008
| 80> C        -4.164933   -0.681283   -0.525790
| 81> C        -3.561819   -1.545347    0.514663
| 82> H        -3.884068   -0.863761   -1.552866
| 83> H        -5.163323   -0.298298   -0.373389
| 84> H        -4.132808   -1.772277    1.402914
| 85> H        -2.871262   -2.311256    0.193033
| 86> H        -3.365677    0.589455    1.124956
| 87> C         3.082130   -0.122960   -0.363003
| 88> C         4.164929   -0.681287    0.525798
| 89> C         3.561826   -1.545340   -0.514670
| 90> H         3.365685    0.589469   -1.124939
| 91> H         4.132825   -1.772258   -1.402918
| 92> H         2.871269   -2.311254   -0.193055
| 93> H         3.884055   -0.863777    1.552870
| 94> H         5.163320   -0.298298    0.373412
| 95> *
| 96>
| 97>
| 98>
| 99>
|100>                          ****END OF INPUT****
 Total Charge           Charge          ....    0
 Multiplicity           Mult            ....    1
 Number of Electrons    NEL             ....  106
MP2 TOTAL ENERGY:    -1255.351346676 Eh
FINAL SINGLE POINT ENERGY     -1255.351346676264
MP2 TOTAL ENERGY:    -1255.857616332 Eh
FINAL SINGLE POINT ENERGY     -1255.857616331698

CARTESIAN COORDINATES (ANGSTROEM)
---------------------------------
  S     -0.870490    1.450404    0.517572
  S      0.870491    1.450406   -0.517566
  C      1.748318    0.067778    0.241611
  C     -1.748320    0.067783   -0.241614
  O     -1.285093   -0.607428   -1.111381
  O      1.285084   -0.607444    1.111365
  C     -3.082127   -0.122965    0.363008
  C     -4.164933   -0.681283   -0.525790
  C     -3.561819   -1.545347    0.514663
  H     -3.884068   -0.863761   -1.552866
  H     -5.163323   -0.298298   -0.373389
  H     -4.132808   -1.772277    1.402914
  H     -2.871262   -2.311256    0.193033
  H     -3.365677    0.589455    1.124956
  C      3.082130   -0.122960   -0.363003
  C      4.164929   -0.681287    0.525798
  C      3.561826   -1.545340   -0.514670
  H      3.365685    0.589469   -1.124939
  H      4.132825   -1.772258   -1.402918
  H      2.871269   -2.311254   -0.193055
  H      3.884055   -0.863777    1.552870
  H      5.163320   -0.298298    0.373412

 Multiplicity           Mult            ....    1
 Number of Electrons    NEL             ....  106
 Basis Dimension        Dim             .... 1428

ORBITAL ENERGIES
----------------

  NO   OCC          E(Eh)            E(eV)
   0   2.0000     -91.990932     -2503.2005
   1   2.0000     -91.990929     -2503.2004
   2   2.0000     -20.554895      -559.3271
   3   2.0000     -20.554894      -559.3271
   4   2.0000     -11.363673      -309.2213
   5   2.0000     -11.363673      -309.2213
   6   2.0000     -11.254226      -306.2430
   7   2.0000     -11.254226      -306.2430
   8   2.0000     -11.245806      -306.0139
   9   2.0000     -11.245806      -306.0139
  10   2.0000     -11.245044      -305.9932
  11   2.0000     -11.245044      -305.9932
  12   2.0000      -8.992623      -244.7017
  13   2.0000      -8.992404      -244.6958
  14   2.0000      -6.673985      -181.6084
  15   2.0000      -6.673586      -181.5975
  16   2.0000      -6.672458      -181.5668
  17   2.0000      -6.672348      -181.5638
  18   2.0000      -6.671764      -181.5479
  19   2.0000      -6.671756      -181.5477
  20   2.0000      -1.414290       -38.4848
  21   2.0000      -1.411041       -38.3964
  22   2.0000      -1.171073       -31.8665
  23   2.0000      -1.170966       -31.8636
  24   2.0000      -1.086790       -29.5731
  25   2.0000      -0.985607       -26.8197
  26   2.0000      -0.916090       -24.9281
  27   2.0000      -0.845451       -23.0059
  28   2.0000      -0.840740       -22.8777
  29   2.0000      -0.840704       -22.8767
  30   2.0000      -0.748195       -20.3594
  31   2.0000      -0.740173       -20.1411
  32   2.0000      -0.705248       -19.1908
  33   2.0000      -0.683660       -18.6033
  34   2.0000      -0.669509       -18.2183
  35   2.0000      -0.660437       -17.9714
  36   2.0000      -0.631058       -17.1720
  37   2.0000      -0.606923       -16.5152
  38   2.0000      -0.579406       -15.7664
  39   2.0000      -0.575175       -15.6513
  40   2.0000      -0.572784       -15.5862
  41   2.0000      -0.566020       -15.4022
  42   2.0000      -0.528874       -14.3914
  43   2.0000      -0.527904       -14.3650
  44   2.0000      -0.497640       -13.5415
  45   2.0000      -0.461559       -12.5596
  46   2.0000      -0.448746       -12.2110
  47   2.0000      -0.435288       -11.8448
  48   2.0000      -0.433003       -11.7826
  49   2.0000      -0.427230       -11.6255
  50   2.0000      -0.421319       -11.4647
  51   2.0000      -0.384920       -10.4742
  52   2.0000      -0.368671       -10.0321
  53   0.0000       0.024589         0.6691
  54   0.0000       0.025301         0.6885
  55   0.0000       0.034359         0.9349
  56   0.0000       0.034655         0.9430
  57   0.0000       0.038972         1.0605

MULLIKEN ATOMIC CHARGES
-----------------------
   0 S :   -0.007573
   1 S :   -0.007572
   2 C :    0.529306
   3 C :    0.529314
   4 O :   -0.832869
   5 O :   -0.832865
   6 C :   -0.329803
   7 C :   -0.662231
   8 C :   -0.687565
   9 H :    0.369481
  10 H :    0.383049
  11 H :    0.360501
  12 H :    0.387679
  13 H :    0.490014
  14 C :   -0.329808
  15 C :   -0.662225
  16 C :   -0.687560
  17 H :    0.490016
  18 H :    0.360506
  19 H :    0.387677
  20 H :    0.369483
  21 H :    0.383042
Sum of atomic charges:    0.0000000

LOEWDIN ATOMIC CHARGES
----------------------
   0 S :    0.769649
   1 S :    0.769649
   2 C :   -1.163842
   3 C :   -1.163842
   4 O :    0.658799
   5 O :    0.658800
   6 C :   -0.015613
   7 C :    0.585244
   8 C :    0.587221
   9 H :   -0.285939
  10 H :   -0.262861
  11 H :   -0.261584
  12 H :   -0.283025
  13 H :   -0.328049
  14 C :   -0.015612
  15 C :    0.585244
  16 C :    0.587221
  17 H :   -0.328050
  18 H :   -0.261584
  19 H :   -0.283026
  20 H :   -0.285939
  21 H :   -0.262860

  Mayer bond orders larger than 0.100000
B(  0-S ,  1-S ) :   1.0876 B(  0-S ,  3-C ) :   1.0233 B(  0-S ,  6-C ) :  -0.1639
B(  1-S ,  2-C ) :   1.0233 B(  1-S , 14-C ) :  -0.1639 B(  2-C ,  5-O ) :   1.2772
B(  2-C , 14-C ) :   0.6285 B(  3-C ,  4-O ) :   1.2772 B(  3-C ,  6-C ) :   0.6285
B(  6-C ,  7-C ) :   0.8398 B(  6-C ,  8-C ) :   0.8474 B(  6-C , 13-H ) :   0.7466
B(  7-C ,  8-C ) :   1.1627 B(  7-C ,  9-H ) :   0.8401 B(  7-C , 10-H ) :   0.8534
B(  8-C , 11-H ) :   0.8604 B(  8-C , 12-H ) :   0.8313 B( 14-C , 15-C ) :   0.8398
B( 14-C , 16-C ) :   0.8474 B( 14-C , 17-H ) :   0.7466 B( 15-C , 16-C ) :   1.1627
B( 15-C , 20-H ) :   0.8401 B( 15-C , 21-H ) :   0.8534 B( 16-C , 18-H ) :   0.8604
B( 16-C , 19-H ) :   0.8313

MP2 TOTAL ENERGY:    -1256.021355620 Eh
FINAL SINGLE POINT ENERGY     -1256.021355619609

DIPOLE MOMENT
-------------
                                X             Y             Z
Electronic contribution:     -0.00001       9.33156      -0.00001
Nuclear contribution   :      0.00002      -9.27141       0.00002
                        -----------------------------------------
Total Dipole Moment    :      0.00001       0.06016       0.00001
                        -----------------------------------------
Magnitude (a.u.)       :      0.06016
Magnitude (Debye)      :      0.15290

Rotational constants in cm-1:     0.052561     0.012318     0.011110
Rotational constants in MHz :  1575.724846   369.275692   333.075134

                             ****ORCA TERMINATED NORMALLY****
TOTAL RUN TIME: 0 days 5 hours 44 minutes 6 seconds 880 msec
