                         Program Version 5.0.4 -  RELEASE  -
|  1> ! ri-mp2 aug-cc-pvdz aug-cc-pvdz/c tightscf
|  2> %pal nprocs 16 end
|  3> %maxcore 3800
|  4> %base "DZ_B-B_16_B"
|  5> %scf
|  6> STABPerform true
|  7> STABRestartUHFifUnstable true
|  8> end
|  9>
| 10> *xyz 0 2
| 11> B         0.000000   -0.000000    0.502105
| 12> F         0.000000   -1.137158   -0.139474
| 13> F         0.000000    1.137158   -0.139474
| 14> *
| 15>
| 16> $new_job
| 17> ! ri-mp2 aug-cc-pvtz aug-cc-pvtz/c tightscf
| 18> %pal nprocs 16 end
| 19> %maxcore 3800
| 20> %base "TZ_B-B_16_B"
| 21>
| 22> *xyz 0 2
| 23> B         0.000000   -0.000000    0.502105
| 24> F         0.000000   -1.137158   -0.139474
| 25> F         0.000000    1.137158   -0.139474
| 26> *
| 27>
| 28> $new_job
| 29> ! ri-mp2 aug-cc-pvqz aug-cc-pvqz/c tightscf
| 30> %pal nprocs 16 end
| 31> %maxcore 3800
| 32> %base "QZ_B-B_16_B"
| 33>
| 34> *xyz 0 2
| 35> B         0.000000   -0.000000    0.502105
| 36> F         0.000000   -1.137158   -0.139474
| 37> F         0.000000    1.137158   -0.139474
| 38> *
| 39>
| 40>
| 41>
| 42>
| 43>                          ****END OF INPUT****
 Total Charge           Charge          ....    0
 Multiplicity           Mult            ....    2
 Number of Electrons    NEL             ....   23
MP2 TOTAL ENERGY:     -224.098290060 Eh
FINAL SINGLE POINT ENERGY      -224.098290060163
MP2 TOTAL ENERGY:     -224.293611676 Eh
FINAL SINGLE POINT ENERGY      -224.293611676319

CARTESIAN COORDINATES (ANGSTROEM)
---------------------------------
  B      0.000000   -0.000000    0.502105
  F      0.000000   -1.137158   -0.139474
  F      0.000000    1.137158   -0.139474

 Multiplicity           Mult            ....    2
 Number of Electrons    NEL             ....   23
 Basis Dimension        Dim             ....  240

ORBITAL ENERGIES
----------------
                 SPIN UP ORBITALS
  NO   OCC          E(Eh)            E(eV)
   0   1.0000     -26.336935      -716.6644
   1   1.0000     -26.336921      -716.6640
   2   1.0000      -7.751398      -210.9262
   3   1.0000      -1.672244       -45.5041
   4   1.0000      -1.643737       -44.7283
   5   1.0000      -0.845646       -23.0112
   6   1.0000      -0.793512       -21.5926
   7   1.0000      -0.755810       -20.5666
   8   1.0000      -0.734334       -19.9822
   9   1.0000      -0.678844       -18.4723
  10   1.0000      -0.678732       -18.4692
  11   1.0000      -0.414360       -11.2753
  12   0.0000       0.037453         1.0191
  13   0.0000       0.041964         1.1419
  14   0.0000       0.042784         1.1642
  15   0.0000       0.053295         1.4502
  16   0.0000       0.103990         2.8297

                 SPIN DOWN ORBITALS
  NO   OCC          E(Eh)            E(eV)
   0   1.0000     -26.333442      -716.5694
   1   1.0000     -26.333424      -716.5689
   2   1.0000      -7.727882      -210.2864
   3   1.0000      -1.661136       -45.2018
   4   1.0000      -1.632926       -44.4342
   5   1.0000      -0.832693       -22.6587
   6   1.0000      -0.774142       -21.0655
   7   1.0000      -0.732146       -19.9227
   8   1.0000      -0.720231       -19.5985
   9   1.0000      -0.681787       -18.5524
  10   1.0000      -0.669126       -18.2078
  11   0.0000       0.023749         0.6463
  12   0.0000       0.040231         1.0947
  13   0.0000       0.042481         1.1560
  14   0.0000       0.044304         1.2056
  15   0.0000       0.104716         2.8495

MULLIKEN ATOMIC CHARGES AND SPIN POPULATIONS
--------------------------------------------
   0 B :    1.257098    1.031535
   1 F :   -0.628549   -0.015767
   2 F :   -0.628549   -0.015767
Sum of atomic charges         :   -0.0000000

LOEWDIN ATOMIC CHARGES AND SPIN POPULATIONS
-------------------------------------------
   0 B :   -1.292424    0.670185
   1 F :    0.646212    0.164908
   2 F :    0.646212    0.164908

  Mayer bond orders larger than 0.100000
B(  0-B ,  1-F ) :   0.5358 B(  0-B ,  2-F ) :   0.5358

MP2 TOTAL ENERGY:     -224.355673185 Eh
FINAL SINGLE POINT ENERGY      -224.355673185153

DIPOLE MOMENT
-------------
                                X             Y             Z
Electronic contribution:      0.00000       0.00000       0.33566
Nuclear contribution   :      0.00000       0.00000      -0.11427
                        -----------------------------------------
Total Dipole Moment    :      0.00000       0.00000       0.22139
                        -----------------------------------------
Magnitude (a.u.)       :      0.22139
Magnitude (Debye)      :      0.56273

Rotational constants in cm-1:     4.866383     0.343097     0.320501
Rotational constants in MHz : 145890.484304 10285.800649  9608.375808

                             ****ORCA TERMINATED NORMALLY****
TOTAL RUN TIME: 0 days 0 hours 4 minutes 20 seconds 884 msec
