                         Program Version 5.0.4 -  RELEASE  -
|  1> ! ri-mp2 aug-cc-pvdz aug-cc-pvdz/c tightscf
|  2> %pal nprocs 16 end
|  3> %maxcore 3800
|  4> %base "DZ_Si-Cl_58_AB"
|  5> %scf
|  6> STABPerform true
|  7> STABRestartUHFifUnstable true
|  8> end
|  9>
| 10> *xyz 0 1
| 11> Si        -1.568763   -1.140452   -0.077502
| 12> C         0.299329   -0.885357   -0.249420
| 13> Cl        -2.782268    0.483456    0.373049
| 14> N         1.083889    0.185326   -0.073603
| 15> C         0.591548    1.471628    0.393078
| 16> O         0.723162   -1.985853   -0.602048
| 17> C         2.512258    0.052439   -0.338061
| 18> C         0.305056    2.446159   -0.735414
| 19> H         1.341428    1.883499    1.070833
| 20> H        -0.305816    1.312558    0.984904
| 21> H         1.188032    2.609371   -1.353905
| 22> H        -0.008887    3.409661   -0.333197
| 23> H        -0.494097    2.069353   -1.373204
| 24> C         3.286900   -0.410745    0.883620
| 25> H         2.875174    1.021172   -0.682978
| 26> H         2.634146   -0.661423   -1.149926
| 27> H         3.160573    0.278984    1.719326
| 28> H         4.351533   -0.472612    0.656538
| 29> H         2.944933   -1.397004    1.193413
| 30> H        -1.751942   -2.119540    1.001465
| 31> H        -2.016911   -1.641643   -1.381283
| 32> *
| 33>
| 34> $new_job
| 35> ! ri-mp2 aug-cc-pvtz aug-cc-pvtz/c tightscf
| 36> %pal nprocs 16 end
| 37> %maxcore 3800
| 38> %base "TZ_Si-Cl_58_AB"
| 39>
| 40> *xyz 0 1
| 41> Si        -1.568763   -1.140452   -0.077502
| 42> C         0.299329   -0.885357   -0.249420
| 43> Cl        -2.782268    0.483456    0.373049
| 44> N         1.083889    0.185326   -0.073603
| 45> C         0.591548    1.471628    0.393078
| 46> O         0.723162   -1.985853   -0.602048
| 47> C         2.512258    0.052439   -0.338061
| 48> C         0.305056    2.446159   -0.735414
| 49> H         1.341428    1.883499    1.070833
| 50> H        -0.305816    1.312558    0.984904
| 51> H         1.188032    2.609371   -1.353905
| 52> H        -0.008887    3.409661   -0.333197
| 53> H        -0.494097    2.069353   -1.373204
| 54> C         3.286900   -0.410745    0.883620
| 55> H         2.875174    1.021172   -0.682978
| 56> H         2.634146   -0.661423   -1.149926
| 57> H         3.160573    0.278984    1.719326
| 58> H         4.351533   -0.472612    0.656538
| 59> H         2.944933   -1.397004    1.193413
| 60> H        -1.751942   -2.119540    1.001465
| 61> H        -2.016911   -1.641643   -1.381283
| 62> *
| 63>
| 64> $new_job
| 65> ! ri-mp2 aug-cc-pvqz aug-cc-pvqz/c tightscf
| 66> %pal nprocs 16 end
| 67> %maxcore 3800
| 68> %base "QZ_Si-Cl_58_AB"
| 69>
| 70> *xyz 0 1
| 71> Si        -1.568763   -1.140452   -0.077502
| 72> C         0.299329   -0.885357   -0.249420
| 73> Cl        -2.782268    0.483456    0.373049
| 74> N         1.083889    0.185326   -0.073603
| 75> C         0.591548    1.471628    0.393078
| 76> O         0.723162   -1.985853   -0.602048
| 77> C         2.512258    0.052439   -0.338061
| 78> C         0.305056    2.446159   -0.735414
| 79> H         1.341428    1.883499    1.070833
| 80> H        -0.305816    1.312558    0.984904
| 81> H         1.188032    2.609371   -1.353905
| 82> H        -0.008887    3.409661   -0.333197
| 83> H        -0.494097    2.069353   -1.373204
| 84> C         3.286900   -0.410745    0.883620
| 85> H         2.875174    1.021172   -0.682978
| 86> H         2.634146   -0.661423   -1.149926
| 87> H         3.160573    0.278984    1.719326
| 88> H         4.351533   -0.472612    0.656538
| 89> H         2.944933   -1.397004    1.193413
| 90> H        -1.751942   -2.119540    1.001465
| 91> H        -2.016911   -1.641643   -1.381283
| 92> *
| 93>
| 94>
| 95>
| 96>
| 97>                          ****END OF INPUT****
 Total Charge           Charge          ....    0
 Multiplicity           Mult            ....    1
 Number of Electrons    NEL             ....   88
MP2 TOTAL ENERGY:    -1075.526821724 Eh
FINAL SINGLE POINT ENERGY     -1075.526821723578
MP2 TOTAL ENERGY:    -1075.921146903 Eh
FINAL SINGLE POINT ENERGY     -1075.921146903232

CARTESIAN COORDINATES (ANGSTROEM)
---------------------------------
  Si    -1.568763   -1.140452   -0.077502
  C      0.299329   -0.885357   -0.249420
  Cl    -2.782268    0.483456    0.373049
  N      1.083889    0.185326   -0.073603
  C      0.591548    1.471628    0.393078
  O      0.723162   -1.985853   -0.602048
  C      2.512258    0.052439   -0.338061
  C      0.305056    2.446159   -0.735414
  H      1.341428    1.883499    1.070833
  H     -0.305816    1.312558    0.984904
  H      1.188032    2.609371   -1.353905
  H     -0.008887    3.409661   -0.333197
  H     -0.494097    2.069353   -1.373204
  C      3.286900   -0.410745    0.883620
  H      2.875174    1.021172   -0.682978
  H      2.634146   -0.661423   -1.149926
  H      3.160573    0.278984    1.719326
  H      4.351533   -0.472612    0.656538
  H      2.944933   -1.397004    1.193413
  H     -1.751942   -2.119540    1.001465
  H     -2.016911   -1.641643   -1.381283

 Multiplicity           Mult            ....    1
 Number of Electrons    NEL             ....   88
 Basis Dimension        Dim             .... 1280

ORBITAL ENERGIES
----------------

  NO   OCC          E(Eh)            E(eV)
   0   2.0000    -104.829229     -2852.5483
   1   2.0000     -68.822569     -1872.7573
   2   2.0000     -20.527015      -558.5685
   3   2.0000     -15.593954      -424.3331
   4   2.0000     -11.338154      -308.5269
   5   2.0000     -11.275917      -306.8333
   6   2.0000     -11.264970      -306.5354
   7   2.0000     -11.228110      -305.5324
   8   2.0000     -11.219747      -305.3048
   9   2.0000     -10.556798      -287.2651
  10   2.0000      -8.023564      -218.3323
  11   2.0000      -8.022533      -218.3042
  12   2.0000      -8.022491      -218.3031
  13   2.0000      -6.167610      -167.8292
  14   2.0000      -4.274737      -116.3215
  15   2.0000      -4.273361      -116.2841
  16   2.0000      -4.273191      -116.2794
  17   2.0000      -1.388264       -37.7766
  18   2.0000      -1.262158       -34.3451
  19   2.0000      -1.099316       -29.9139
  20   2.0000      -1.051233       -28.6055
  21   2.0000      -1.015826       -27.6420
  22   2.0000      -0.884745       -24.0751
  23   2.0000      -0.883597       -24.0439
  24   2.0000      -0.780004       -21.2250
  25   2.0000      -0.729894       -19.8614
  26   2.0000      -0.678707       -18.4686
  27   2.0000      -0.660409       -17.9706
  28   2.0000      -0.629170       -17.1206
  29   2.0000      -0.616283       -16.7699
  30   2.0000      -0.597150       -16.2493
  31   2.0000      -0.572489       -15.5782
  32   2.0000      -0.557685       -15.1754
  33   2.0000      -0.547947       -14.9104
  34   2.0000      -0.537788       -14.6340
  35   2.0000      -0.528336       -14.3767
  36   2.0000      -0.518658       -14.1134
  37   2.0000      -0.515538       -14.0285
  38   2.0000      -0.509717       -13.8701
  39   2.0000      -0.498311       -13.5597
  40   2.0000      -0.472215       -12.8496
  41   2.0000      -0.450525       -12.2594
  42   2.0000      -0.399912       -10.8822
  43   2.0000      -0.381179       -10.3724
  44   0.0000       0.021108         0.5744
  45   0.0000       0.029311         0.7976
  46   0.0000       0.030342         0.8257
  47   0.0000       0.032004         0.8709
  48   0.0000       0.044493         1.2107

MULLIKEN ATOMIC CHARGES
-----------------------
   0 Si:    1.138396
   1 C :    1.060387
   2 Cl:   -0.690297
   3 N :   -0.360331
   4 C :   -0.512386
   5 O :   -0.981116
   6 C :   -0.550471
   7 C :   -0.989023
   8 H :    0.311043
   9 H :    0.489750
  10 H :    0.270057
  11 H :    0.335863
  12 H :    0.244731
  13 C :   -0.945164
  14 H :    0.310538
  15 H :    0.381340
  16 H :    0.218472
  17 H :    0.345577
  18 H :    0.250071
  19 H :   -0.173256
  20 H :   -0.154182
Sum of atomic charges:    0.0000000

LOEWDIN ATOMIC CHARGES
----------------------
   0 Si:   -0.025623
   1 C :   -0.894167
   2 Cl:    0.923990
   3 N :    0.367741
   4 C :    0.310481
   5 O :    0.649580
   6 C :    0.337607
   7 C :    0.933034
   8 H :   -0.282304
   9 H :   -0.397382
  10 H :   -0.283634
  11 H :   -0.273120
  12 H :   -0.293092
  13 C :    0.944957
  14 H :   -0.289570
  15 H :   -0.317077
  16 H :   -0.283624
  17 H :   -0.275940
  18 H :   -0.284662
  19 H :   -0.282146
  20 H :   -0.285048

  Mayer bond orders larger than 0.100000
B(  0-Si,  1-C ) :   0.7675 B(  0-Si,  2-Cl) :   0.3463 B(  0-Si, 19-H ) :   0.8226
B(  0-Si, 20-H ) :   0.8732 B(  1-C ,  3-N ) :   1.4514 B(  1-C ,  5-O ) :   0.9505
B(  2-Cl,  9-H ) :  -0.1338 B(  3-N ,  4-C ) :   0.5707 B(  3-N ,  5-O ) :   0.3111
B(  3-N ,  6-C ) :   0.7017 B(  3-N ,  7-C ) :  -0.1100 B(  3-N , 13-C ) :  -0.1092
B(  4-C ,  7-C ) :   1.0148 B(  4-C ,  8-H ) :   0.8577 B(  4-C ,  9-H ) :   0.7820
B(  6-C , 13-C ) :   1.0707 B(  6-C , 14-H ) :   0.8735 B(  6-C , 15-H ) :   0.8322
B(  7-C , 10-H ) :   0.9493 B(  7-C , 11-H ) :   0.9223 B(  7-C , 12-H ) :   0.9693
B( 13-C , 16-H ) :   0.9569 B( 13-C , 17-H ) :   0.9230 B( 13-C , 18-H ) :   0.9598

MP2 TOTAL ENERGY:    -1076.047294264 Eh
FINAL SINGLE POINT ENERGY     -1076.047294264442

DIPOLE MOMENT
-------------
                                X             Y             Z
Electronic contribution:    -17.44521      -4.47674       0.46220
Nuclear contribution   :     17.96537       5.62525      -0.18646
                        -----------------------------------------
Total Dipole Moment    :      0.52016       1.14851       0.27574
                        -----------------------------------------
Magnitude (a.u.)       :      1.29061
Magnitude (Debye)      :      3.28046

Rotational constants in cm-1:     0.055673     0.024470     0.018741
Rotational constants in MHz :  1669.022329   733.590969   561.852490

                             ****ORCA TERMINATED NORMALLY****
TOTAL RUN TIME: 0 days 4 hours 43 minutes 36 seconds 250 msec
