                         Program Version 5.0.4 -  RELEASE  -
|  1> ! ri-mp2 aug-cc-pvdz aug-cc-pvdz/c tightscf
|  2> %pal nprocs 16 end
|  3> %maxcore 3800
|  4> %base "DZ_Si-Cl_61_A"
|  5> %scf
|  6> STABPerform true
|  7> STABRestartUHFifUnstable true
|  8> end
|  9>
| 10> *xyz 0 2
| 11> Si        -0.056244   -0.541082    0.000000
| 12> F        -0.056244    1.062266    0.000000
| 13> H         0.646811   -0.992627    1.225348
| 14> H         0.646811   -0.992627   -1.225348
| 15> *
| 16>
| 17> $new_job
| 18> ! ri-mp2 aug-cc-pvtz aug-cc-pvtz/c tightscf
| 19> %pal nprocs 16 end
| 20> %maxcore 3800
| 21> %base "TZ_Si-Cl_61_A"
| 22>
| 23> *xyz 0 2
| 24> Si        -0.056244   -0.541082    0.000000
| 25> F        -0.056244    1.062266    0.000000
| 26> H         0.646811   -0.992627    1.225348
| 27> H         0.646811   -0.992627   -1.225348
| 28> *
| 29>
| 30> $new_job
| 31> ! ri-mp2 aug-cc-pvqz aug-cc-pvqz/c tightscf
| 32> %pal nprocs 16 end
| 33> %maxcore 3800
| 34> %base "QZ_Si-Cl_61_A"
| 35>
| 36> *xyz 0 2
| 37> Si        -0.056244   -0.541082    0.000000
| 38> F        -0.056244    1.062266    0.000000
| 39> H         0.646811   -0.992627    1.225348
| 40> H         0.646811   -0.992627   -1.225348
| 41> *
| 42>
| 43>
| 44>
| 45>
| 46>                          ****END OF INPUT****
 Total Charge           Charge          ....    0
 Multiplicity           Mult            ....    2
 Number of Electrons    NEL             ....   25
MP2 TOTAL ENERGY:     -389.849402891 Eh
FINAL SINGLE POINT ENERGY      -389.849402891200
MP2 TOTAL ENERGY:     -389.970454633 Eh
FINAL SINGLE POINT ENERGY      -389.970454632940

CARTESIAN COORDINATES (ANGSTROEM)
---------------------------------
  Si    -0.056244   -0.541082    0.000000
  F     -0.056244    1.062266    0.000000
  H      0.646811   -0.992627    1.225348
  H      0.646811   -0.992627   -1.225348

 Multiplicity           Mult            ....    2
 Number of Electrons    NEL             ....   25
 Basis Dimension        Dim             ....  256

ORBITAL ENERGIES
----------------
                 SPIN UP ORBITALS
  NO   OCC          E(Eh)            E(eV)
   0   1.0000     -68.829058     -1872.9339
   1   1.0000     -26.288256      -715.3398
   2   1.0000      -6.173428      -167.9875
   3   1.0000      -4.285454      -116.6131
   4   1.0000      -4.276854      -116.3791
   5   1.0000      -4.275838      -116.3515
   6   1.0000      -1.591642       -43.3108
   7   1.0000      -0.778515       -21.1845
   8   1.0000      -0.678039       -18.4504
   9   1.0000      -0.672131       -18.2896
  10   1.0000      -0.633442       -17.2368
  11   1.0000      -0.500780       -13.6269
  12   1.0000      -0.356964        -9.7135
  13   0.0000       0.028314         0.7705
  14   0.0000       0.037552         1.0218
  15   0.0000       0.042795         1.1645
  16   0.0000       0.045959         1.2506
  17   0.0000       0.063637         1.7316

                 SPIN DOWN ORBITALS
  NO   OCC          E(Eh)            E(eV)
   0   1.0000     -68.823342     -1872.7783
   1   1.0000     -26.285219      -715.2572
   2   1.0000      -6.164248      -167.7377
   3   1.0000      -4.273326      -116.2831
   4   1.0000      -4.272362      -116.2569
   5   1.0000      -4.264134      -116.0330
   6   1.0000      -1.583423       -43.0871
   7   1.0000      -0.756192       -20.5770
   8   1.0000      -0.669394       -18.2151
   9   1.0000      -0.655024       -17.8241
  10   1.0000      -0.604569       -16.4512
  11   1.0000      -0.485883       -13.2215
  12   0.0000       0.021093         0.5740
  13   0.0000       0.031319         0.8522
  14   0.0000       0.039410         1.0724
  15   0.0000       0.043246         1.1768
  16   0.0000       0.064493         1.7550

MULLIKEN ATOMIC CHARGES AND SPIN POPULATIONS
--------------------------------------------
   0 Si:    1.043979    0.912566
   1 F :   -0.665718   -0.004464
   2 H :   -0.189130    0.045949
   3 H :   -0.189130    0.045949
Sum of atomic charges         :    0.0000000

LOEWDIN ATOMIC CHARGES AND SPIN POPULATIONS
-------------------------------------------
   0 Si:    0.556982    0.608122
   1 F :    0.248756    0.109068
   2 H :   -0.402869    0.141405
   3 H :   -0.402869    0.141405

  Mayer bond orders larger than 0.100000
B(  0-Si,  1-F ) :   0.3728 B(  0-Si,  2-H ) :   0.9144 B(  0-Si,  3-H ) :   0.9144

MP2 TOTAL ENERGY:     -390.011239736 Eh
FINAL SINGLE POINT ENERGY      -390.011239735652

DIPOLE MOMENT
-------------
                                X             Y             Z
Electronic contribution:     -1.27742       2.31771      -0.00000
Nuclear contribution   :      1.29341      -2.87017       0.00000
                        -----------------------------------------
Total Dipole Moment    :      0.01598      -0.55246      -0.00000
                        -----------------------------------------
Magnitude (a.u.)       :      0.55269
Magnitude (Debye)      :      1.40484

Rotational constants in cm-1:     4.311795     0.519961     0.487705
Rotational constants in MHz : 129264.364585 15588.042853 14621.019027

                             ****ORCA TERMINATED NORMALLY****
TOTAL RUN TIME: 0 days 0 hours 3 minutes 5 seconds 162 msec
