                         Program Version 5.0.4 -  RELEASE  -
|  1> ! ri-mp2 aug-cc-pvdz aug-cc-pvdz/c tightscf
|  2> %pal nprocs 16 end
|  3> %maxcore 3800
|  4> %base "DZ_Si-Si_83_AB"
|  5>
|  6> *xyz 0 1
|  7> Si        -1.987365   -0.635351   -0.198473
|  8> Si        -0.406014    0.971398    0.422934
|  9> C         1.185417    0.803998   -0.608355
| 10> H        -0.134369    0.880374    1.875742
| 11> H        -0.937686    2.322922    0.135301
| 12> H        -2.250980   -0.545518   -1.651948
| 13> H        -3.258377   -0.424199    0.530346
| 14> N         2.105287   -0.057727   -0.540221
| 15> H        -1.484652   -1.993533    0.107004
| 16> C         2.041575   -1.115370    0.436368
| 17> H         2.071923   -2.073189   -0.084737
| 18> H         1.155589   -1.093508    1.081349
| 19> H         2.931768   -1.067149    1.064951
| 20> H         1.315130    1.561459   -1.386985
| 21> *
| 22>
| 23> $new_job
| 24> ! ri-mp2 aug-cc-pvtz aug-cc-pvtz/c tightscf
| 25> %pal nprocs 16 end
| 26> %maxcore 3800
| 27> %base "TZ_Si-Si_83_AB"
| 28>
| 29> *xyz 0 1
| 30> Si        -1.987365   -0.635351   -0.198473
| 31> Si        -0.406014    0.971398    0.422934
| 32> C         1.185417    0.803998   -0.608355
| 33> H        -0.134369    0.880374    1.875742
| 34> H        -0.937686    2.322922    0.135301
| 35> H        -2.250980   -0.545518   -1.651948
| 36> H        -3.258377   -0.424199    0.530346
| 37> N         2.105287   -0.057727   -0.540221
| 38> H        -1.484652   -1.993533    0.107004
| 39> C         2.041575   -1.115370    0.436368
| 40> H         2.071923   -2.073189   -0.084737
| 41> H         1.155589   -1.093508    1.081349
| 42> H         2.931768   -1.067149    1.064951
| 43> H         1.315130    1.561459   -1.386985
| 44> *
| 45>
| 46> $new_job
| 47> ! ri-mp2 aug-cc-pvqz aug-cc-pvqz/c tightscf
| 48> %pal nprocs 16 end
| 49> %maxcore 3800
| 50> %base "QZ_Si-Si_83_AB"
| 51>
| 52> *xyz 0 1
| 53> Si        -1.987365   -0.635351   -0.198473
| 54> Si        -0.406014    0.971398    0.422934
| 55> C         1.185417    0.803998   -0.608355
| 56> H        -0.134369    0.880374    1.875742
| 57> H        -0.937686    2.322922    0.135301
| 58> H        -2.250980   -0.545518   -1.651948
| 59> H        -3.258377   -0.424199    0.530346
| 60> N         2.105287   -0.057727   -0.540221
| 61> H        -1.484652   -1.993533    0.107004
| 62> C         2.041575   -1.115370    0.436368
| 63> H         2.071923   -2.073189   -0.084737
| 64> H         1.155589   -1.093508    1.081349
| 65> H         2.931768   -1.067149    1.064951
| 66> H         1.315130    1.561459   -1.386985
| 67> *
| 68>
| 69>
| 70>
| 71>
| 72>                          ****END OF INPUT****
 Total Charge           Charge          ....    0
 Multiplicity           Mult            ....    1
 Number of Electrons    NEL             ....   56
MP2 TOTAL ENERGY:     -713.935634915 Eh
FINAL SINGLE POINT ENERGY      -713.935634915333
MP2 TOTAL ENERGY:     -714.129605115 Eh
FINAL SINGLE POINT ENERGY      -714.129605114989

CARTESIAN COORDINATES (ANGSTROEM)
---------------------------------
  Si    -1.987365   -0.635351   -0.198473
  Si    -0.406014    0.971398    0.422934
  C      1.185417    0.803998   -0.608355
  H     -0.134369    0.880374    1.875742
  H     -0.937686    2.322922    0.135301
  H     -2.250980   -0.545518   -1.651948
  H     -3.258377   -0.424199    0.530346
  N      2.105287   -0.057727   -0.540221
  H     -1.484652   -1.993533    0.107004
  C      2.041575   -1.115370    0.436368
  H      2.071923   -2.073189   -0.084737
  H      1.155589   -1.093508    1.081349
  H      2.931768   -1.067149    1.064951
  H      1.315130    1.561459   -1.386985

 Multiplicity           Mult            ....    1
 Number of Electrons    NEL             ....   56
 Basis Dimension        Dim             ....  822

ORBITAL ENERGIES
----------------

  NO   OCC          E(Eh)            E(eV)
   0   2.0000     -68.775789     -1871.4844
   1   2.0000     -68.772114     -1871.3844
   2   2.0000     -15.568738      -423.6469
   3   2.0000     -11.262171      -306.4592
   4   2.0000     -11.251195      -306.1606
   5   2.0000      -6.126634      -166.7142
   6   2.0000      -6.123052      -166.6167
   7   2.0000      -4.232871      -115.1823
   8   2.0000      -4.232754      -115.1791
   9   2.0000      -4.232524      -115.1728
  10   2.0000      -4.229106      -115.0798
  11   2.0000      -4.229097      -115.0796
  12   2.0000      -4.229089      -115.0794
  13   2.0000      -1.231856       -33.5205
  14   2.0000      -0.966222       -26.2922
  15   2.0000      -0.808473       -21.9997
  16   2.0000      -0.738057       -20.0836
  17   2.0000      -0.678458       -18.4618
  18   2.0000      -0.648266       -17.6402
  19   2.0000      -0.597488       -16.2585
  20   2.0000      -0.580067       -15.7844
  21   2.0000      -0.522990       -14.2313
  22   2.0000      -0.501909       -13.6576
  23   2.0000      -0.491062       -13.3625
  24   2.0000      -0.477646       -12.9974
  25   2.0000      -0.443163       -12.0591
  26   2.0000      -0.400460       -10.8971
  27   2.0000      -0.374081       -10.1793
  28   0.0000       0.023352         0.6354
  29   0.0000       0.028827         0.7844
  30   0.0000       0.033200         0.9034
  31   0.0000       0.036464         0.9922
  32   0.0000       0.045092         1.2270

MULLIKEN ATOMIC CHARGES
-----------------------
   0 Si:    0.322804
   1 Si:    1.195194
   2 C :   -0.518336
   3 H :   -0.232008
   4 H :   -0.444965
   5 H :   -0.121136
   6 H :   -0.135047
   7 N :   -0.536210
   8 H :   -0.142596
   9 C :   -0.756897
  10 H :    0.299932
  11 H :    0.222999
  12 H :    0.400314
  13 H :    0.445951
Sum of atomic charges:   -0.0000000

LOEWDIN ATOMIC CHARGES
----------------------
   0 Si:    1.050149
   1 Si:    0.685419
   2 C :    0.045116
   3 H :   -0.255441
   4 H :   -0.276209
   5 H :   -0.311013
   6 H :   -0.317105
   7 N :    0.531549
   8 H :   -0.307207
   9 C :    0.617627
  10 H :   -0.313019
  11 H :   -0.393585
  12 H :   -0.310842
  13 H :   -0.445441

  Mayer bond orders larger than 0.100000
B(  0-Si,  1-Si) :   0.7448 B(  0-Si,  5-H ) :   0.7501 B(  0-Si,  6-H ) :   0.7723
B(  0-Si,  8-H ) :   0.7475 B(  1-Si,  2-C ) :   0.6854 B(  1-Si,  3-H ) :   0.8377
B(  1-Si,  4-H ) :   0.6717 B(  2-C ,  7-N ) :   1.7043 B(  2-C , 13-H ) :   0.8227
B(  7-N ,  9-C ) :   0.8794 B(  9-C , 10-H ) :   0.9178 B(  9-C , 11-H ) :   0.9543
B(  9-C , 12-H ) :   0.8392

MP2 TOTAL ENERGY:     -714.191453793 Eh
FINAL SINGLE POINT ENERGY      -714.191453792721

DIPOLE MOMENT
-------------
                                X             Y             Z
Electronic contribution:      0.02631       2.46572      -1.33927
Nuclear contribution   :     -0.44198      -2.49819       1.68464
                        -----------------------------------------
Total Dipole Moment    :     -0.41567      -0.03247       0.34537
                        -----------------------------------------
Magnitude (a.u.)       :      0.54140
Magnitude (Debye)      :      1.37614

Rotational constants in cm-1:     0.155979     0.054843     0.046812
Rotational constants in MHz :  4676.122561  1644.149856  1403.386481

                             ****ORCA TERMINATED NORMALLY****
TOTAL RUN TIME: 0 days 0 hours 11 minutes 33 seconds 36 msec
