                         Program Version 5.0.4 -  RELEASE  -
|  1> ! ri-mp2 aug-cc-pvdz aug-cc-pvdz/c tightscf
|  2> %pal nprocs 16 end
|  3> %maxcore 3800
|  4> %base "DZ_B-Cl_15_A"
|  5> %scf
|  6> STABPerform true
|  7> STABRestartUHFifUnstable true
|  8> end
|  9>
| 10> *xyz 0 2
| 11> Cl        -1.915532   -0.022508   -0.024080
| 12> B        -0.391023   -0.774701   -0.071199
| 13> C         0.966992   -0.065531    0.332615
| 14> F         1.016522    1.227292   -0.113024
| 15> F         2.053880   -0.705919   -0.181870
| 16> H         1.083583   -0.043039    1.423716
| 17> *
| 18>
| 19> $new_job
| 20> ! ri-mp2 aug-cc-pvtz aug-cc-pvtz/c tightscf
| 21> %pal nprocs 16 end
| 22> %maxcore 3800
| 23> %base "TZ_B-Cl_15_A"
| 24>
| 25> *xyz 0 2
| 26> Cl        -1.915532   -0.022508   -0.024080
| 27> B        -0.391023   -0.774701   -0.071199
| 28> C         0.966992   -0.065531    0.332615
| 29> F         1.016522    1.227292   -0.113024
| 30> F         2.053880   -0.705919   -0.181870
| 31> H         1.083583   -0.043039    1.423716
| 32> *
| 33>
| 34> $new_job
| 35> ! ri-mp2 aug-cc-pvqz aug-cc-pvqz/c tightscf
| 36> %pal nprocs 16 end
| 37> %maxcore 3800
| 38> %base "QZ_B-Cl_15_A"
| 39>
| 40> *xyz 0 2
| 41> Cl        -1.915532   -0.022508   -0.024080
| 42> B        -0.391023   -0.774701   -0.071199
| 43> C         0.966992   -0.065531    0.332615
| 44> F         1.016522    1.227292   -0.113024
| 45> F         2.053880   -0.705919   -0.181870
| 46> H         1.083583   -0.043039    1.423716
| 47> *
| 48>
| 49>
| 50>
| 51>
| 52>                          ****END OF INPUT****
 Total Charge           Charge          ....    0
 Multiplicity           Mult            ....    2
 Number of Electrons    NEL             ....   47
MP2 TOTAL ENERGY:     -722.258736350 Eh
FINAL SINGLE POINT ENERGY      -722.258736349780
MP2 TOTAL ENERGY:     -722.534334687 Eh
FINAL SINGLE POINT ENERGY      -722.534334686800

CARTESIAN COORDINATES (ANGSTROEM)
---------------------------------
  Cl    -1.915532   -0.022508   -0.024080
  B     -0.391023   -0.774701   -0.071199
  C      0.966992   -0.065531    0.332615
  F      1.016522    1.227292   -0.113024
  F      2.053880   -0.705919   -0.181870
  H      1.083583   -0.043039    1.423716

 Multiplicity           Mult            ....    2
 Number of Electrons    NEL             ....   47
 Basis Dimension        Dim             ....  450

ORBITAL ENERGIES
----------------
                 SPIN UP ORBITALS
  NO   OCC          E(Eh)            E(eV)
   0   1.0000    -104.870727     -2853.6776
   1   1.0000     -26.314025      -716.0410
   2   1.0000     -26.312808      -716.0079
   3   1.0000     -11.405520      -310.3600
   4   1.0000     -10.598338      -288.3955
   5   1.0000      -8.066021      -219.4876
   6   1.0000      -8.063924      -219.4305
   7   1.0000      -8.063483      -219.4185
   8   1.0000      -7.708622      -209.7623
   9   1.0000      -1.662810       -45.2474
  10   1.0000      -1.602485       -43.6058
  11   1.0000      -1.157074       -31.4856
  12   1.0000      -0.979566       -26.6553
  13   1.0000      -0.790409       -21.5081
  14   1.0000      -0.777956       -21.1693
  15   1.0000      -0.759108       -20.6564
  16   1.0000      -0.673173       -18.3180
  17   1.0000      -0.672931       -18.3114
  18   1.0000      -0.636360       -17.3162
  19   1.0000      -0.617893       -16.8137
  20   1.0000      -0.542846       -14.7716
  21   1.0000      -0.523962       -14.2577
  22   1.0000      -0.514969       -14.0130
  23   1.0000      -0.373345       -10.1592
  24   0.0000       0.024802         0.6749
  25   0.0000       0.028964         0.7881
  26   0.0000       0.035965         0.9787
  27   0.0000       0.038504         1.0477
  28   0.0000       0.051273         1.3952

                 SPIN DOWN ORBITALS
  NO   OCC          E(Eh)            E(eV)
   0   1.0000    -104.870031     -2853.6586
   1   1.0000     -26.312993      -716.0129
   2   1.0000     -26.312883      -716.0099
   3   1.0000     -11.403903      -310.3160
   4   1.0000     -10.597524      -288.3733
   5   1.0000      -8.064598      -219.4489
   6   1.0000      -8.063934      -219.4308
   7   1.0000      -8.061483      -219.3641
   8   1.0000      -7.687771      -209.1949
   9   1.0000      -1.661287       -45.2059
  10   1.0000      -1.600911       -43.5630
  11   1.0000      -1.148555       -31.2538
  12   1.0000      -0.971690       -26.4410
  13   1.0000      -0.779472       -21.2105
  14   1.0000      -0.775626       -21.1059
  15   1.0000      -0.755018       -20.5451
  16   1.0000      -0.672170       -18.2907
  17   1.0000      -0.650305       -17.6957
  18   1.0000      -0.635451       -17.2915
  19   1.0000      -0.609729       -16.5916
  20   1.0000      -0.526495       -14.3266
  21   1.0000      -0.516739       -14.0612
  22   1.0000      -0.493722       -13.4349
  23   0.0000       0.019532         0.5315
  24   0.0000       0.033580         0.9138
  25   0.0000       0.037430         1.0185
  26   0.0000       0.038573         1.0496
  27   0.0000       0.055462         1.5092

MULLIKEN ATOMIC CHARGES AND SPIN POPULATIONS
--------------------------------------------
   0 Cl:   -0.173361    0.014972
   1 B :    0.326995    0.982585
   2 C :    0.770371   -0.001777
   3 F :   -0.623109    0.014929
   4 F :   -0.597416   -0.013748
   5 H :    0.296519    0.003039
Sum of atomic charges         :    0.0000000

LOEWDIN ATOMIC CHARGES AND SPIN POPULATIONS
-------------------------------------------
   0 Cl:    1.234214    0.174430
   1 B :   -1.087853    0.598498
   2 C :   -1.120617    0.169340
   3 F :    0.713501    0.023480
   4 F :    0.719149    0.013698
   5 H :   -0.458394    0.020555

  Mayer bond orders larger than 0.100000
B(  0-Cl,  1-B ) :   1.2352 B(  1-B ,  2-C ) :   0.9384 B(  2-C ,  3-F ) :   0.5395
B(  2-C ,  4-F ) :   0.5996 B(  2-C ,  5-H ) :   0.8331

MP2 TOTAL ENERGY:     -722.626420933 Eh
FINAL SINGLE POINT ENERGY      -722.626420933476

DIPOLE MOMENT
-------------
                                X             Y             Z
Electronic contribution:     -1.46135      -0.31829      -1.11079
Nuclear contribution   :      1.00434       0.08939       1.63945
                        -----------------------------------------
Total Dipole Moment    :     -0.45701      -0.22890       0.52866
                        -----------------------------------------
Magnitude (a.u.)       :      0.73535
Magnitude (Debye)      :      1.86910

Rotational constants in cm-1:     0.344658     0.067920     0.058417
Rotational constants in MHz : 10332.589968  2036.184821  1751.312286

                             ****ORCA TERMINATED NORMALLY****
TOTAL RUN TIME: 0 days 0 hours 19 minutes 48 seconds 271 msec
