                         Program Version 5.0.4 -  RELEASE  -
|  1> ! ri-mp2 aug-cc-pvdz aug-cc-pvdz/c tightscf
|  2> %pal nprocs 16 end
|  3> %maxcore 3800
|  4> %base "DZ_B-B_53_AB"
|  5>
|  6> *xyz 0 1
|  7> B         1.666748    1.403989   -0.000011
|  8> B         1.499455   -0.234823   -0.000016
|  9> S        -0.068970   -1.092493    0.000002
| 10> C        -1.175092    0.200498    0.000009
| 11> N        -1.938433    1.057244    0.000013
| 12> H         2.406588   -1.005282   -0.000031
| 13> H         1.742753    2.017832   -1.017864
| 14> H         1.742755    2.017824    1.017847
| 15> *
| 16>
| 17> $new_job
| 18> ! ri-mp2 aug-cc-pvtz aug-cc-pvtz/c tightscf
| 19> %pal nprocs 16 end
| 20> %maxcore 3800
| 21> %base "TZ_B-B_53_AB"
| 22>
| 23> *xyz 0 1
| 24> B         1.666748    1.403989   -0.000011
| 25> B         1.499455   -0.234823   -0.000016
| 26> S        -0.068970   -1.092493    0.000002
| 27> C        -1.175092    0.200498    0.000009
| 28> N        -1.938433    1.057244    0.000013
| 29> H         2.406588   -1.005282   -0.000031
| 30> H         1.742753    2.017832   -1.017864
| 31> H         1.742755    2.017824    1.017847
| 32> *
| 33>
| 34> $new_job
| 35> ! ri-mp2 aug-cc-pvqz aug-cc-pvqz/c tightscf
| 36> %pal nprocs 16 end
| 37> %maxcore 3800
| 38> %base "QZ_B-B_53_AB"
| 39>
| 40> *xyz 0 1
| 41> B         1.666748    1.403989   -0.000011
| 42> B         1.499455   -0.234823   -0.000016
| 43> S        -0.068970   -1.092493    0.000002
| 44> C        -1.175092    0.200498    0.000009
| 45> N        -1.938433    1.057244    0.000013
| 46> H         2.406588   -1.005282   -0.000031
| 47> H         1.742753    2.017832   -1.017864
| 48> H         1.742755    2.017824    1.017847
| 49> *
| 50>
| 51>
| 52>
| 53>
| 54>                          ****END OF INPUT****
 Total Charge           Charge          ....    0
 Multiplicity           Mult            ....    1
 Number of Electrons    NEL             ....   42
MP2 TOTAL ENERGY:     -541.534855253 Eh
FINAL SINGLE POINT ENERGY      -541.534855253492
MP2 TOTAL ENERGY:     -541.706141063 Eh
FINAL SINGLE POINT ENERGY      -541.706141062993

CARTESIAN COORDINATES (ANGSTROEM)
---------------------------------
  B      1.666748    1.403989   -0.000011
  B      1.499455   -0.234823   -0.000016
  S     -0.068970   -1.092493    0.000002
  C     -1.175092    0.200498    0.000009
  N     -1.938433    1.057244    0.000013
  H      2.406588   -1.005282   -0.000031
  H      1.742753    2.017832   -1.017864
  H      1.742755    2.017824    1.017847

 Multiplicity           Mult            ....    1
 Number of Electrons    NEL             ....   42
 Basis Dimension        Dim             ....  542

ORBITAL ENERGIES
----------------

  NO   OCC          E(Eh)            E(eV)
   0   2.0000     -92.021783     -2504.0400
   1   2.0000     -15.588889      -424.1952
   2   2.0000     -11.302488      -307.5563
   3   2.0000      -9.024936      -245.5810
   4   2.0000      -7.643504      -207.9903
   5   2.0000      -7.615636      -207.2320
   6   2.0000      -6.706683      -182.4981
   7   2.0000      -6.704942      -182.4507
   8   2.0000      -6.704766      -182.4460
   9   2.0000      -1.244273       -33.8584
  10   2.0000      -1.067559       -29.0497
  11   2.0000      -0.776500       -21.1296
  12   2.0000      -0.711452       -19.3596
  13   2.0000      -0.611704       -16.6453
  14   2.0000      -0.568733       -15.4760
  15   2.0000      -0.560546       -15.2532
  16   2.0000      -0.544618       -14.8198
  17   2.0000      -0.512476       -13.9452
  18   2.0000      -0.479472       -13.0471
  19   2.0000      -0.448957       -12.2167
  20   2.0000      -0.416939       -11.3455
  21   0.0000       0.019715         0.5365
  22   0.0000       0.024379         0.6634
  23   0.0000       0.029824         0.8116
  24   0.0000       0.033412         0.9092
  25   0.0000       0.043992         1.1971

MULLIKEN ATOMIC CHARGES
-----------------------
   0 B :    0.509469
   1 B :    0.190957
   2 S :    0.462465
   3 C :   -0.076196
   4 N :   -0.520693
   5 H :   -0.185281
   6 H :   -0.190361
   7 H :   -0.190361
Sum of atomic charges:   -0.0000000

LOEWDIN ATOMIC CHARGES
----------------------
   0 B :    0.358619
   1 B :   -0.489366
   2 S :    1.350491
   3 C :   -0.852637
   4 N :    0.311804
   5 H :   -0.267800
   6 H :   -0.205556
   7 H :   -0.205556

  Mayer bond orders larger than 0.100000
B(  0-B ,  1-B ) :   1.0016 B(  0-B ,  6-H ) :   0.9726 B(  0-B ,  7-H ) :   0.9726
B(  1-B ,  2-S ) :   1.2068 B(  1-B ,  5-H ) :   0.8906 B(  2-S ,  3-C ) :   0.8606
B(  3-C ,  4-N ) :   2.6295

MP2 TOTAL ENERGY:     -541.762063253 Eh
FINAL SINGLE POINT ENERGY      -541.762063253086

DIPOLE MOMENT
-------------
                                X             Y             Z
Electronic contribution:     -1.94466      -2.74298       0.00002
Nuclear contribution   :      3.17674       2.02931      -0.00002
                        -----------------------------------------
Total Dipole Moment    :      1.23208      -0.71367      -0.00001
                        -----------------------------------------
Magnitude (a.u.)       :      1.42385
Magnitude (Debye)      :      3.61913

Rotational constants in cm-1:     0.192915     0.122326     0.076274
Rotational constants in MHz :  5783.453471  3667.249075  2286.626763

                             ****ORCA TERMINATED NORMALLY****
TOTAL RUN TIME: 0 days 0 hours 3 minutes 55 seconds 187 msec
