                         Program Version 5.0.4 -  RELEASE  -
|  1> ! ri-mp2 aug-cc-pvdz aug-cc-pvdz/c tightscf
|  2> %pal nprocs 16 end
|  3> %maxcore 3800
|  4> %base "DZ_Si-Si_155_AB"
|  5> %scf
|  6> STABPerform true
|  7> STABRestartUHFifUnstable true
|  8> end
|  9>
| 10> *xyz 0 1
| 11> Si        -2.082482   -0.543370    0.256327
| 12> Si        -0.554163    1.152520   -0.242882
| 13> H        -2.320813   -1.387680   -0.926556
| 14> H        -3.354555    0.095528    0.667682
| 15> H        -1.574679   -1.346914    1.386736
| 16> S         1.381835    0.078059   -0.405348
| 17> H        -0.447724    2.229397    0.770098
| 18> H        -0.778229    1.760623   -1.570702
| 19> O         0.947369   -1.267754   -0.913037
| 20> C         1.716354   -0.095447    1.362093
| 21> H         1.948071    0.883562    1.780697
| 22> H         2.584113   -0.746974    1.446852
| 23> H         0.870416   -0.549871    1.874277
| 24> *
| 25>
| 26> $new_job
| 27> ! ri-mp2 aug-cc-pvtz aug-cc-pvtz/c tightscf
| 28> %pal nprocs 16 end
| 29> %maxcore 3800
| 30> %base "TZ_Si-Si_155_AB"
| 31>
| 32> *xyz 0 1
| 33> Si        -2.082482   -0.543370    0.256327
| 34> Si        -0.554163    1.152520   -0.242882
| 35> H        -2.320813   -1.387680   -0.926556
| 36> H        -3.354555    0.095528    0.667682
| 37> H        -1.574679   -1.346914    1.386736
| 38> S         1.381835    0.078059   -0.405348
| 39> H        -0.447724    2.229397    0.770098
| 40> H        -0.778229    1.760623   -1.570702
| 41> O         0.947369   -1.267754   -0.913037
| 42> C         1.716354   -0.095447    1.362093
| 43> H         1.948071    0.883562    1.780697
| 44> H         2.584113   -0.746974    1.446852
| 45> H         0.870416   -0.549871    1.874277
| 46> *
| 47>
| 48> $new_job
| 49> ! ri-mp2 aug-cc-pvqz aug-cc-pvqz/c tightscf
| 50> %pal nprocs 16 end
| 51> %maxcore 3800
| 52> %base "QZ_Si-Si_155_AB"
| 53>
| 54> *xyz 0 1
| 55> Si        -2.082482   -0.543370    0.256327
| 56> Si        -0.554163    1.152520   -0.242882
| 57> H        -2.320813   -1.387680   -0.926556
| 58> H        -3.354555    0.095528    0.667682
| 59> H        -1.574679   -1.346914    1.386736
| 60> S         1.381835    0.078059   -0.405348
| 61> H        -0.447724    2.229397    0.770098
| 62> H        -0.778229    1.760623   -1.570702
| 63> O         0.947369   -1.267754   -0.913037
| 64> C         1.716354   -0.095447    1.362093
| 65> H         1.948071    0.883562    1.780697
| 66> H         2.584113   -0.746974    1.446852
| 67> H         0.870416   -0.549871    1.874277
| 68> *
| 69>
| 70>
| 71>
| 72>
| 73>                          ****END OF INPUT****
 Total Charge           Charge          ....    0
 Multiplicity           Mult            ....    1
 Number of Electrons    NEL             ....   66
MP2 TOTAL ENERGY:    -1093.453046192 Eh
FINAL SINGLE POINT ENERGY     -1093.453046192125
MP2 TOTAL ENERGY:    -1093.696619122 Eh
FINAL SINGLE POINT ENERGY     -1093.696619121889

CARTESIAN COORDINATES (ANGSTROEM)
---------------------------------
  Si    -2.082482   -0.543370    0.256327
  Si    -0.554163    1.152520   -0.242882
  H     -2.320813   -1.387680   -0.926556
  H     -3.354555    0.095528    0.667682
  H     -1.574679   -1.346914    1.386736
  S      1.381835    0.078059   -0.405348
  H     -0.447724    2.229397    0.770098
  H     -0.778229    1.760623   -1.570702
  O      0.947369   -1.267754   -0.913037
  C      1.716354   -0.095447    1.362093
  H      1.948071    0.883562    1.780697
  H      2.584113   -0.746974    1.446852
  H      0.870416   -0.549871    1.874277

 Multiplicity           Mult            ....    1
 Number of Electrons    NEL             ....   66
 Basis Dimension        Dim             ....  780

ORBITAL ENERGIES
----------------

  NO   OCC          E(Eh)            E(eV)
   0   2.0000     -92.048727     -2504.7732
   1   2.0000     -68.800088     -1872.1456
   2   2.0000     -68.776924     -1871.5153
   3   2.0000     -20.500950      -557.8592
   4   2.0000     -11.266269      -306.5708
   5   2.0000      -9.039488      -245.9770
   6   2.0000      -6.721483      -182.9009
   7   2.0000      -6.721228      -182.8939
   8   2.0000      -6.720110      -182.8635
   9   2.0000      -6.149952      -167.3487
  10   2.0000      -6.127444      -166.7362
  11   2.0000      -4.256051      -115.8130
  12   2.0000      -4.255542      -115.7992
  13   2.0000      -4.255303      -115.7927
  14   2.0000      -4.233770      -115.2068
  15   2.0000      -4.233496      -115.1993
  16   2.0000      -4.233329      -115.1947
  17   2.0000      -1.329374       -36.1741
  18   2.0000      -1.035464       -28.1764
  19   2.0000      -0.859623       -23.3915
  20   2.0000      -0.759709       -20.6727
  21   2.0000      -0.685259       -18.6468
  22   2.0000      -0.624146       -16.9839
  23   2.0000      -0.614974       -16.7343
  24   2.0000      -0.586869       -15.9695
  25   2.0000      -0.550087       -14.9686
  26   2.0000      -0.526228       -14.3194
  27   2.0000      -0.510638       -13.8952
  28   2.0000      -0.489563       -13.3217
  29   2.0000      -0.484998       -13.1975
  30   2.0000      -0.424550       -11.5526
  31   2.0000      -0.406328       -11.0567
  32   2.0000      -0.353461        -9.6182
  33   0.0000       0.020801         0.5660
  34   0.0000       0.027795         0.7564
  35   0.0000       0.031402         0.8545
  36   0.0000       0.037686         1.0255
  37   0.0000       0.044113         1.2004

MULLIKEN ATOMIC CHARGES
-----------------------
   0 Si:    0.417368
   1 Si:    0.929328
   2 H :   -0.097318
   3 H :   -0.203002
   4 H :   -0.150887
   5 S :    0.783188
   6 H :   -0.223335
   7 H :   -0.298188
   8 O :   -1.183215
   9 C :   -1.060145
  10 H :    0.319833
  11 H :    0.400830
  12 H :    0.365543
Sum of atomic charges:    0.0000000

LOEWDIN ATOMIC CHARGES
----------------------
   0 Si:    0.997170
   1 Si:    0.484139
   2 H :   -0.299160
   3 H :   -0.321477
   4 H :   -0.299253
   5 S :    0.518454
   6 H :   -0.289665
   7 H :   -0.306221
   8 O :    0.002070
   9 C :    0.619830
  10 H :   -0.364426
  11 H :   -0.359871
  12 H :   -0.381590

  Mayer bond orders larger than 0.100000
B(  0-Si,  1-Si) :   0.7543 B(  0-Si,  2-H ) :   0.7777 B(  0-Si,  3-H ) :   0.7539
B(  0-Si,  4-H ) :   0.7825 B(  1-Si,  5-S ) :   0.7066 B(  1-Si,  6-H ) :   0.8553
B(  1-Si,  7-H ) :   0.7936 B(  5-S ,  8-O ) :   1.1813 B(  5-S ,  9-C ) :   0.9368
B(  9-C , 10-H ) :   0.8983 B(  9-C , 11-H ) :   0.8228 B(  9-C , 12-H ) :   0.8433

MP2 TOTAL ENERGY:    -1093.775094521 Eh
FINAL SINGLE POINT ENERGY     -1093.775094521113

DIPOLE MOMENT
-------------
                                X             Y             Z
Electronic contribution:      2.77457       0.31229      -4.32391
Nuclear contribution   :     -2.93268       0.87580       5.41096
                        -----------------------------------------
Total Dipole Moment    :     -0.15812       1.18809       1.08705
                        -----------------------------------------
Magnitude (a.u.)       :      1.61810
Magnitude (Debye)      :      4.11288

Rotational constants in cm-1:     0.116863     0.050785     0.047050
Rotational constants in MHz :  3503.451967  1522.501175  1410.514450

                             ****ORCA TERMINATED NORMALLY****
TOTAL RUN TIME: 0 days 0 hours 56 minutes 5 seconds 139 msec
