                         Program Version 5.0.4 -  RELEASE  -
|  1> ! ri-mp2 aug-cc-pvdz aug-cc-pvdz/c tightscf
|  2> %pal nprocs 16 end
|  3> %maxcore 3800
|  4> %base "DZ_Si-Si_153_AB"
|  5> %scf
|  6> STABPerform true
|  7> STABRestartUHFifUnstable true
|  8> end
|  9>
| 10> *xyz 0 1
| 11> Si        -2.302166    0.192141   -0.532587
| 12> Si        -0.614182   -0.517025    0.923361
| 13> B         1.195182   -0.456479   -0.021780
| 14> H        -0.922317   -1.906448    1.342577
| 15> H        -0.692164    0.337282    2.137069
| 16> H        -2.068852    1.600603   -0.932923
| 17> H        -3.645391    0.105016    0.084288
| 18> O         1.861376    0.689022   -0.265147
| 19> C         1.840205   -1.783745   -0.543910
| 20> H        -2.301365   -0.633062   -1.763300
| 21> H         1.136975   -2.342038   -1.168509
| 22> H         2.072282   -2.446449    0.295118
| 23> H         2.753783   -1.610187   -1.113275
| 24> C         1.431980    1.986957    0.097231
| 25> H         1.108332    2.519210   -0.796830
| 26> H         2.274822    2.516425    0.538365
| 27> H         0.612742    1.958974    0.816736
| 28> *
| 29>
| 30> $new_job
| 31> ! ri-mp2 aug-cc-pvtz aug-cc-pvtz/c tightscf
| 32> %pal nprocs 16 end
| 33> %maxcore 3800
| 34> %base "TZ_Si-Si_153_AB"
| 35>
| 36> *xyz 0 1
| 37> Si        -2.302166    0.192141   -0.532587
| 38> Si        -0.614182   -0.517025    0.923361
| 39> B         1.195182   -0.456479   -0.021780
| 40> H        -0.922317   -1.906448    1.342577
| 41> H        -0.692164    0.337282    2.137069
| 42> H        -2.068852    1.600603   -0.932923
| 43> H        -3.645391    0.105016    0.084288
| 44> O         1.861376    0.689022   -0.265147
| 45> C         1.840205   -1.783745   -0.543910
| 46> H        -2.301365   -0.633062   -1.763300
| 47> H         1.136975   -2.342038   -1.168509
| 48> H         2.072282   -2.446449    0.295118
| 49> H         2.753783   -1.610187   -1.113275
| 50> C         1.431980    1.986957    0.097231
| 51> H         1.108332    2.519210   -0.796830
| 52> H         2.274822    2.516425    0.538365
| 53> H         0.612742    1.958974    0.816736
| 54> *
| 55>
| 56> $new_job
| 57> ! ri-mp2 aug-cc-pvqz aug-cc-pvqz/c tightscf
| 58> %pal nprocs 16 end
| 59> %maxcore 3800
| 60> %base "QZ_Si-Si_153_AB"
| 61>
| 62> *xyz 0 1
| 63> Si        -2.302166    0.192141   -0.532587
| 64> Si        -0.614182   -0.517025    0.923361
| 65> B         1.195182   -0.456479   -0.021780
| 66> H        -0.922317   -1.906448    1.342577
| 67> H        -0.692164    0.337282    2.137069
| 68> H        -2.068852    1.600603   -0.932923
| 69> H        -3.645391    0.105016    0.084288
| 70> O         1.861376    0.689022   -0.265147
| 71> C         1.840205   -1.783745   -0.543910
| 72> H        -2.301365   -0.633062   -1.763300
| 73> H         1.136975   -2.342038   -1.168509
| 74> H         2.072282   -2.446449    0.295118
| 75> H         2.753783   -1.610187   -1.113275
| 76> C         1.431980    1.986957    0.097231
| 77> H         1.108332    2.519210   -0.796830
| 78> H         2.274822    2.516425    0.538365
| 79> H         0.612742    1.958974    0.816736
| 80> *
| 81>
| 82>
| 83>
| 84>
| 85>                          ****END OF INPUT****
 Total Charge           Charge          ....    0
 Multiplicity           Mult            ....    1
 Number of Electrons    NEL             ....   64
MP2 TOTAL ENERGY:     -760.398706661 Eh
FINAL SINGLE POINT ENERGY      -760.398706660742
MP2 TOTAL ENERGY:     -760.639183688 Eh
FINAL SINGLE POINT ENERGY      -760.639183688160

CARTESIAN COORDINATES (ANGSTROEM)
---------------------------------
  Si    -2.302166    0.192141   -0.532587
  Si    -0.614182   -0.517025    0.923361
  B      1.195182   -0.456479   -0.021780
  H     -0.922317   -1.906448    1.342577
  H     -0.692164    0.337282    2.137069
  H     -2.068852    1.600603   -0.932923
  H     -3.645391    0.105016    0.084288
  O      1.861376    0.689022   -0.265147
  C      1.840205   -1.783745   -0.543910
  H     -2.301365   -0.633062   -1.763300
  H      1.136975   -2.342038   -1.168509
  H      2.072282   -2.446449    0.295118
  H      2.753783   -1.610187   -1.113275
  C      1.431980    1.986957    0.097231
  H      1.108332    2.519210   -0.796830
  H      2.274822    2.516425    0.538365
  H      0.612742    1.958974    0.816736

 Multiplicity           Mult            ....    1
 Number of Electrons    NEL             ....   64
 Basis Dimension        Dim             ....  994

ORBITAL ENERGIES
----------------

  NO   OCC          E(Eh)            E(eV)
   0   2.0000     -68.763369     -1871.1464
   1   2.0000     -68.748398     -1870.7390
   2   2.0000     -20.572129      -559.7961
   3   2.0000     -11.284849      -307.0764
   4   2.0000     -11.189692      -304.4870
   5   2.0000      -7.615578      -207.2304
   6   2.0000      -6.114127      -166.3739
   7   2.0000      -6.101214      -166.0225
   8   2.0000      -4.220220      -114.8380
   9   2.0000      -4.220181      -114.8370
  10   2.0000      -4.220140      -114.8359
  11   2.0000      -4.207349      -114.4878
  12   2.0000      -4.207289      -114.4862
  13   2.0000      -4.206740      -114.4712
  14   2.0000      -1.382445       -37.6183
  15   2.0000      -0.968873       -26.3644
  16   2.0000      -0.930218       -25.3125
  17   2.0000      -0.760017       -20.6811
  18   2.0000      -0.716098       -19.4860
  19   2.0000      -0.670549       -18.2466
  20   2.0000      -0.643354       -17.5065
  21   2.0000      -0.638509       -17.3747
  22   2.0000      -0.564321       -15.3559
  23   2.0000      -0.547511       -14.8985
  24   2.0000      -0.517803       -14.0901
  25   2.0000      -0.514147       -13.9906
  26   2.0000      -0.491210       -13.3665
  27   2.0000      -0.483327       -13.1520
  28   2.0000      -0.477272       -12.9872
  29   2.0000      -0.464411       -12.6373
  30   2.0000      -0.412542       -11.2258
  31   2.0000      -0.369914       -10.0659
  32   0.0000       0.023049         0.6272
  33   0.0000       0.028811         0.7840
  34   0.0000       0.032198         0.8762
  35   0.0000       0.033033         0.8989
  36   0.0000       0.043978         1.1967

MULLIKEN ATOMIC CHARGES
-----------------------
   0 Si:    0.375080
   1 Si:    0.811205
   2 B :    0.998318
   3 H :   -0.440015
   4 H :   -0.258158
   5 H :   -0.170417
   6 H :   -0.147775
   7 O :   -1.313825
   8 C :   -1.057821
   9 H :   -0.150641
  10 H :    0.328186
  11 H :    0.301582
  12 H :    0.338031
  13 C :   -0.737993
  14 H :    0.361909
  15 H :    0.459157
  16 H :    0.303178
Sum of atomic charges:    0.0000000

LOEWDIN ATOMIC CHARGES
----------------------
   0 Si:    1.029104
   1 Si:    0.828657
   2 B :   -0.948553
   3 H :   -0.273576
   4 H :   -0.266248
   5 H :   -0.306924
   6 H :   -0.315573
   7 O :    0.932288
   8 C :    0.981570
   9 H :   -0.308393
  10 H :   -0.316400
  11 H :   -0.315176
  12 H :   -0.315581
  13 C :    0.568670
  14 H :   -0.296414
  15 H :   -0.299188
  16 H :   -0.378263

  Mayer bond orders larger than 0.100000
B(  0-Si,  1-Si) :   0.7085 B(  0-Si,  5-H ) :   0.7538 B(  0-Si,  6-H ) :   0.7541
B(  0-Si,  9-H ) :   0.7645 B(  1-Si,  2-B ) :   0.7779 B(  1-Si,  3-H ) :   0.6151
B(  1-Si,  4-H ) :   0.7819 B(  2-B ,  7-O ) :   0.2332 B(  2-B ,  8-C ) :   0.9363
B(  7-O ,  8-C ) :  -0.1011 B(  7-O , 13-C ) :   0.9038 B(  8-C , 10-H ) :   0.9127
B(  8-C , 11-H ) :   0.9181 B(  8-C , 12-H ) :   0.8470 B( 13-C , 14-H ) :   0.8628
B( 13-C , 15-H ) :   0.7917 B( 13-C , 16-H ) :   0.8598

MP2 TOTAL ENERGY:     -760.714454594 Eh
FINAL SINGLE POINT ENERGY      -760.714454594092

DIPOLE MOMENT
-------------
                                X             Y             Z
Electronic contribution:      0.57995      -0.15392       0.70463
Nuclear contribution   :     -0.43548       0.50662      -0.58122
                        -----------------------------------------
Total Dipole Moment    :      0.14447       0.35269       0.12341
                        -----------------------------------------
Magnitude (a.u.)       :      0.40062
Magnitude (Debye)      :      1.01829

Rotational constants in cm-1:     0.087321     0.043054     0.034987
Rotational constants in MHz :  2617.823020  1290.717058  1048.896985

                             ****ORCA TERMINATED NORMALLY****
TOTAL RUN TIME: 0 days 1 hours 56 minutes 39 seconds 699 msec
