                         Program Version 5.0.4 -  RELEASE  -
|  1> ! ri-mp2 aug-cc-pvdz aug-cc-pvdz/c tightscf
|  2> %pal nprocs 16 end
|  3> %maxcore 3800
|  4> %base "DZ_B-B_67_AB"
|  5> %scf
|  6> STABPerform true
|  7> STABRestartUHFifUnstable true
|  8> end
|  9>
| 10> *xyz 0 1
| 11> B        -2.411244    0.134847   -0.352003
| 12> B        -1.133214   -0.022806    0.624162
| 13> B         0.470985   -0.111085    0.122342
| 14> O         0.994150   -1.345439   -0.118148
| 15> C         1.333360    1.190434   -0.083536
| 16> H         1.920716   -1.333756   -0.380187
| 17> H         1.137485    1.953965    0.671129
| 18> H         1.068879    1.640411   -1.046082
| 19> H         2.409627    0.995932   -0.098057
| 20> H        -1.314215   -0.030689    1.810896
| 21> H        -3.010260   -0.814179   -0.762597
| 22> H        -2.798223    1.204439   -0.721211
| 23> *
| 24>
| 25> $new_job
| 26> ! ri-mp2 aug-cc-pvtz aug-cc-pvtz/c tightscf
| 27> %pal nprocs 16 end
| 28> %maxcore 3800
| 29> %base "TZ_B-B_67_AB"
| 30>
| 31> *xyz 0 1
| 32> B        -2.411244    0.134847   -0.352003
| 33> B        -1.133214   -0.022806    0.624162
| 34> B         0.470985   -0.111085    0.122342
| 35> O         0.994150   -1.345439   -0.118148
| 36> C         1.333360    1.190434   -0.083536
| 37> H         1.920716   -1.333756   -0.380187
| 38> H         1.137485    1.953965    0.671129
| 39> H         1.068879    1.640411   -1.046082
| 40> H         2.409627    0.995932   -0.098057
| 41> H        -1.314215   -0.030689    1.810896
| 42> H        -3.010260   -0.814179   -0.762597
| 43> H        -2.798223    1.204439   -0.721211
| 44> *
| 45>
| 46> $new_job
| 47> ! ri-mp2 aug-cc-pvqz aug-cc-pvqz/c tightscf
| 48> %pal nprocs 16 end
| 49> %maxcore 3800
| 50> %base "QZ_B-B_67_AB"
| 51>
| 52> *xyz 0 1
| 53> B        -2.411244    0.134847   -0.352003
| 54> B        -1.133214   -0.022806    0.624162
| 55> B         0.470985   -0.111085    0.122342
| 56> O         0.994150   -1.345439   -0.118148
| 57> C         1.333360    1.190434   -0.083536
| 58> H         1.920716   -1.333756   -0.380187
| 59> H         1.137485    1.953965    0.671129
| 60> H         1.068879    1.640411   -1.046082
| 61> H         2.409627    0.995932   -0.098057
| 62> H        -1.314215   -0.030689    1.810896
| 63> H        -3.010260   -0.814179   -0.762597
| 64> H        -2.798223    1.204439   -0.721211
| 65> *
| 66>
| 67>
| 68>
| 69>
| 70>                          ****END OF INPUT****
 Total Charge           Charge          ....    0
 Multiplicity           Mult            ....    1
 Number of Electrons    NEL             ....   36
MP2 TOTAL ENERGY:     -191.477926362 Eh
FINAL SINGLE POINT ENERGY      -191.477926362188
MP2 TOTAL ENERGY:     -191.653123435 Eh
FINAL SINGLE POINT ENERGY      -191.653123434767

CARTESIAN COORDINATES (ANGSTROEM)
---------------------------------
  B     -2.411244    0.134847   -0.352003
  B     -1.133214   -0.022806    0.624162
  B      0.470985   -0.111085    0.122342
  O      0.994150   -1.345439   -0.118148
  C      1.333360    1.190434   -0.083536
  H      1.920716   -1.333756   -0.380187
  H      1.137485    1.953965    0.671129
  H      1.068879    1.640411   -1.046082
  H      2.409627    0.995932   -0.098057
  H     -1.314215   -0.030689    1.810896
  H     -3.010260   -0.814179   -0.762597
  H     -2.798223    1.204439   -0.721211

 Multiplicity           Mult            ....    1
 Number of Electrons    NEL             ....   36
 Basis Dimension        Dim             ....  722

ORBITAL ENERGIES
----------------

  NO   OCC          E(Eh)            E(eV)
   0   2.0000     -20.568387      -559.6943
   1   2.0000     -11.198714      -304.7325
   2   2.0000      -7.599646      -206.7969
   3   2.0000      -7.578638      -206.2252
   4   2.0000      -7.559293      -205.6988
   5   2.0000      -1.363214       -37.0949
   6   2.0000      -0.952897       -25.9296
   7   2.0000      -0.770002       -20.9528
   8   2.0000      -0.718281       -19.5454
   9   2.0000      -0.621234       -16.9046
  10   2.0000      -0.618559       -16.8318
  11   2.0000      -0.568813       -15.4782
  12   2.0000      -0.552300       -15.0288
  13   2.0000      -0.523240       -14.2381
  14   2.0000      -0.503846       -13.7104
  15   2.0000      -0.485000       -13.1975
  16   2.0000      -0.441123       -12.0036
  17   2.0000      -0.394845       -10.7443
  18   0.0000       0.020124         0.5476
  19   0.0000       0.028860         0.7853
  20   0.0000       0.031529         0.8580
  21   0.0000       0.032638         0.8881
  22   0.0000       0.042165         1.1474

MULLIKEN ATOMIC CHARGES
-----------------------
   0 B :    0.214025
   1 B :    0.438909
   2 B :    0.899149
   3 O :   -1.150140
   4 C :   -0.990169
   5 H :    0.325938
   6 H :    0.289931
   7 H :    0.294005
   8 H :    0.304762
   9 H :   -0.240326
  10 H :   -0.175888
  11 H :   -0.210195
Sum of atomic charges:    0.0000000

LOEWDIN ATOMIC CHARGES
----------------------
   0 B :    0.479047
   1 B :    0.152556
   2 B :   -0.744873
   3 O :    1.356724
   4 C :    1.037402
   5 H :   -0.782087
   6 H :   -0.302254
   7 H :   -0.296375
   8 H :   -0.307084
   9 H :   -0.182729
  10 H :   -0.205613
  11 H :   -0.204715

  Mayer bond orders larger than 0.100000
B(  0-B ,  1-B ) :   1.0397 B(  0-B , 10-H ) :   0.9566 B(  0-B , 11-H ) :   0.9644
B(  1-B ,  2-B ) :   0.9437 B(  1-B ,  3-O ) :  -0.1784 B(  1-B ,  9-H ) :   0.8991
B(  2-B ,  3-O ) :   0.4787 B(  2-B ,  4-C ) :   0.8505 B(  3-O ,  5-H ) :   0.9345
B(  4-C ,  6-H ) :   0.9331 B(  4-C ,  7-H ) :   0.8985 B(  4-C ,  8-H ) :   0.8946

MP2 TOTAL ENERGY:     -191.707968360 Eh
FINAL SINGLE POINT ENERGY      -191.707968360037

DIPOLE MOMENT
-------------
                                X             Y             Z
Electronic contribution:     -1.26015      -3.28311       0.74226
Nuclear contribution   :      1.90953       3.60025      -0.84730
                        -----------------------------------------
Total Dipole Moment    :      0.64938       0.31713      -0.10504
                        -----------------------------------------
Magnitude (a.u.)       :      0.73027
Magnitude (Debye)      :      1.85621

Rotational constants in cm-1:     0.242100     0.105827     0.082371
Rotational constants in MHz :  7257.967568  3172.610041  2469.411886

                             ****ORCA TERMINATED NORMALLY****
TOTAL RUN TIME: 0 days 0 hours 39 minutes 34 seconds 248 msec
