                         Program Version 5.0.4 -  RELEASE  -
|  1> ! ri-mp2 aug-cc-pvdz aug-cc-pvdz/c tightscf
|  2> %pal nprocs 16 end
|  3> %maxcore 3800
|  4> %base "DZ_P-S_14_A"
|  5> %scf
|  6> STABPerform true
|  7> STABRestartUHFifUnstable true
|  8> end
|  9>
| 10> *xyz 0 2
| 11> S         1.083309   -0.124861    0.000002
| 12> O        -0.356536    0.598882   -0.000003
| 13> C        -1.511961   -0.244807   -0.000001
| 14> H        -2.373744    0.418566   -0.000017
| 15> H        -1.517575   -0.871489    0.890977
| 16> H        -1.517561   -0.871515   -0.890961
| 17> *
| 18>
| 19> $new_job
| 20> ! ri-mp2 aug-cc-pvtz aug-cc-pvtz/c tightscf
| 21> %pal nprocs 16 end
| 22> %maxcore 3800
| 23> %base "TZ_P-S_14_A"
| 24>
| 25> *xyz 0 2
| 26> S         1.083309   -0.124861    0.000002
| 27> O        -0.356536    0.598882   -0.000003
| 28> C        -1.511961   -0.244807   -0.000001
| 29> H        -2.373744    0.418566   -0.000017
| 30> H        -1.517575   -0.871489    0.890977
| 31> H        -1.517561   -0.871515   -0.890961
| 32> *
| 33>
| 34> $new_job
| 35> ! ri-mp2 aug-cc-pvqz aug-cc-pvqz/c tightscf
| 36> %pal nprocs 16 end
| 37> %maxcore 3800
| 38> %base "QZ_P-S_14_A"
| 39>
| 40> *xyz 0 2
| 41> S         1.083309   -0.124861    0.000002
| 42> O        -0.356536    0.598882   -0.000003
| 43> C        -1.511961   -0.244807   -0.000001
| 44> H        -2.373744    0.418566   -0.000017
| 45> H        -1.517575   -0.871489    0.890977
| 46> H        -1.517561   -0.871515   -0.890961
| 47> *
| 48>
| 49>
| 50>
| 51>
| 52>                          ****END OF INPUT****
 Total Charge           Charge          ....    0
 Multiplicity           Mult            ....    2
 Number of Electrons    NEL             ....   33
MP2 TOTAL ENERGY:     -512.435171203 Eh
FINAL SINGLE POINT ENERGY      -512.435171203219
MP2 TOTAL ENERGY:     -512.589936248 Eh
FINAL SINGLE POINT ENERGY      -512.589936248220

CARTESIAN COORDINATES (ANGSTROEM)
---------------------------------
  S      1.083309   -0.124861    0.000002
  O     -0.356536    0.598882   -0.000003
  C     -1.511961   -0.244807   -0.000001
  H     -2.373744    0.418566   -0.000017
  H     -1.517575   -0.871489    0.890977
  H     -1.517561   -0.871515   -0.890961

 Multiplicity           Mult            ....    2
 Number of Electrons    NEL             ....   33
 Basis Dimension        Dim             ....  382

ORBITAL ENERGIES
----------------
                 SPIN UP ORBITALS
  NO   OCC          E(Eh)            E(eV)
   0   1.0000     -92.010292     -2503.7273
   1   1.0000     -20.616333      -560.9989
   2   1.0000     -11.291757      -307.2643
   3   1.0000      -9.007023      -245.0936
   4   1.0000      -6.701530      -182.3579
   5   1.0000      -6.684579      -181.8966
   6   1.0000      -6.682634      -181.8437
   7   1.0000      -1.422551       -38.7096
   8   1.0000      -1.000907       -27.2361
   9   1.0000      -0.882308       -24.0088
  10   1.0000      -0.682125       -18.5616
  11   1.0000      -0.657166       -17.8824
  12   1.0000      -0.644101       -17.5269
  13   1.0000      -0.538577       -14.6554
  14   1.0000      -0.525431       -14.2977
  15   1.0000      -0.409281       -11.1371
  16   1.0000      -0.372447       -10.1348
  17   0.0000       0.025859         0.7036
  18   0.0000       0.041109         1.1186
  19   0.0000       0.042249         1.1496
  20   0.0000       0.053131         1.4458
  21   0.0000       0.069319         1.8863

                 SPIN DOWN ORBITALS
  NO   OCC          E(Eh)            E(eV)
   0   1.0000     -92.001862     -2503.4979
   1   1.0000     -20.607770      -560.7659
   2   1.0000     -11.292255      -307.2779
   3   1.0000      -8.997743      -244.8410
   4   1.0000      -6.681266      -181.8065
   5   1.0000      -6.677800      -181.7122
   6   1.0000      -6.662373      -181.2924
   7   1.0000      -1.400388       -38.1065
   8   1.0000      -0.979213       -26.6457
   9   1.0000      -0.829484       -22.5714
  10   1.0000      -0.651201       -17.7201
  11   1.0000      -0.645574       -17.5670
  12   1.0000      -0.619791       -16.8654
  13   1.0000      -0.517439       -14.0802
  14   1.0000      -0.484739       -13.1904
  15   1.0000      -0.355577        -9.6757
  16   0.0000       0.023003         0.6259
  17   0.0000       0.026031         0.7083
  18   0.0000       0.041337         1.1248
  19   0.0000       0.047796         1.3006
  20   0.0000       0.053845         1.4652

MULLIKEN ATOMIC CHARGES AND SPIN POPULATIONS
--------------------------------------------
   0 S :    0.272375    0.928890
   1 O :   -0.661589    0.082418
   2 C :   -0.461696   -0.026438
   3 H :    0.316701    0.001688
   4 H :    0.267104    0.006721
   5 H :    0.267104    0.006721
Sum of atomic charges         :    0.0000000

LOEWDIN ATOMIC CHARGES AND SPIN POPULATIONS
-------------------------------------------
   0 S :    0.622852    0.742484
   1 O :    0.062210    0.240646
   2 C :    0.373837    0.015233
   3 H :   -0.344568   -0.001296
   4 H :   -0.357165    0.001466
   5 H :   -0.357166    0.001466

  Mayer bond orders larger than 0.100000
B(  0-S ,  1-O ) :   0.9298 B(  1-O ,  2-C ) :   0.8094 B(  2-C ,  3-H ) :   0.8765
B(  2-C ,  4-H ) :   0.9206 B(  2-C ,  5-H ) :   0.9206

MP2 TOTAL ENERGY:     -512.638905258 Eh
FINAL SINGLE POINT ENERGY      -512.638905258475

DIPOLE MOMENT
-------------
                                X             Y             Z
Electronic contribution:      4.72997       0.87888       0.00000
Nuclear contribution   :     -5.35143      -1.28792      -0.00000
                        -----------------------------------------
Total Dipole Moment    :     -0.62146      -0.40904       0.00000
                        -----------------------------------------
Magnitude (a.u.)       :      0.74399
Magnitude (Debye)      :      1.89107

Rotational constants in cm-1:     1.653671     0.214422     0.196907
Rotational constants in MHz : 49575.796874  6428.224474  5903.124540

                             ****ORCA TERMINATED NORMALLY****
TOTAL RUN TIME: 0 days 0 hours 9 minutes 52 seconds 761 msec
