                         Program Version 5.0.4 -  RELEASE  -
|  1> ! ri-mp2 aug-cc-pvdz aug-cc-pvdz/c tightscf
|  2> %pal nprocs 16 end
|  3> %maxcore 3800
|  4> %base "DZ_P-F_21_AB"
|  5> %scf
|  6> STABPerform true
|  7> STABRestartUHFifUnstable true
|  8> end
|  9>
| 10> *xyz 0 1
| 11> F        -1.611853    1.192318    0.360954
| 12> S         0.930030    0.000000   -0.152957
| 13> O         1.431555    1.250474   -0.655588
| 14> P        -1.231269    0.000000   -0.605867
| 15> C         1.061967    0.000000    1.614572
| 16> H         2.130769    0.000000    1.825399
| 17> H         0.597228    0.900422    2.007359
| 18> F        -1.611853   -1.192318    0.360954
| 19> O         1.431555   -1.250474   -0.655588
| 20> H         0.597227   -0.900422    2.007359
| 21> *
| 22>
| 23> $new_job
| 24> ! ri-mp2 aug-cc-pvtz aug-cc-pvtz/c tightscf
| 25> %pal nprocs 16 end
| 26> %maxcore 3800
| 27> %base "TZ_P-F_21_AB"
| 28>
| 29> *xyz 0 1
| 30> F        -1.611853    1.192318    0.360954
| 31> S         0.930030    0.000000   -0.152957
| 32> O         1.431555    1.250474   -0.655588
| 33> P        -1.231269    0.000000   -0.605867
| 34> C         1.061967    0.000000    1.614572
| 35> H         2.130769    0.000000    1.825399
| 36> H         0.597228    0.900422    2.007359
| 37> F        -1.611853   -1.192318    0.360954
| 38> O         1.431555   -1.250474   -0.655588
| 39> H         0.597227   -0.900422    2.007359
| 40> *
| 41>
| 42> $new_job
| 43> ! ri-mp2 aug-cc-pvqz aug-cc-pvqz/c tightscf
| 44> %pal nprocs 16 end
| 45> %maxcore 3800
| 46> %base "QZ_P-F_21_AB"
| 47>
| 48> *xyz 0 1
| 49> F        -1.611853    1.192318    0.360954
| 50> S         0.930030    0.000000   -0.152957
| 51> O         1.431555    1.250474   -0.655588
| 52> P        -1.231269    0.000000   -0.605867
| 53> C         1.061967    0.000000    1.614572
| 54> H         2.130769    0.000000    1.825399
| 55> H         0.597228    0.900422    2.007359
| 56> F        -1.611853   -1.192318    0.360954
| 57> O         1.431555   -1.250474   -0.655588
| 58> H         0.597227   -0.900422    2.007359
| 59> *
| 60>
| 61>
| 62>
| 63>
| 64>                          ****END OF INPUT****
 Total Charge           Charge          ....    0
 Multiplicity           Mult            ....    1
 Number of Electrons    NEL             ....   74
MP2 TOTAL ENERGY:    -1127.720893386 Eh
FINAL SINGLE POINT ENERGY     -1127.720893385963
MP2 TOTAL ENERGY:    -1128.196174991 Eh
FINAL SINGLE POINT ENERGY     -1128.196174990562

CARTESIAN COORDINATES (ANGSTROEM)
---------------------------------
  F     -1.611853    1.192318    0.360954
  S      0.930030    0.000000   -0.152957
  O      1.431555    1.250474   -0.655588
  P     -1.231269    0.000000   -0.605867
  C      1.061967    0.000000    1.614572
  H      2.130769    0.000000    1.825399
  H      0.597228    0.900422    2.007359
  F     -1.611853   -1.192318    0.360954
  O      1.431555   -1.250474   -0.655588
  H      0.597227   -0.900422    2.007359

 Multiplicity           Mult            ....    1
 Number of Electrons    NEL             ....   74
 Basis Dimension        Dim             ....  706

ORBITAL ENERGIES
----------------

  NO   OCC          E(Eh)            E(eV)
   0   2.0000     -92.179665     -2508.3362
   1   2.0000     -80.119291     -2180.1567
   2   2.0000     -26.358948      -717.2634
   3   2.0000     -26.358935      -717.2631
   4   2.0000     -20.561633      -559.5105
   5   2.0000     -20.561613      -559.5099
   6   2.0000     -11.287058      -307.1365
   7   2.0000      -9.152471      -249.0514
   8   2.0000      -7.645242      -208.0376
   9   2.0000      -6.837567      -186.0597
  10   2.0000      -6.836784      -186.0384
  11   2.0000      -6.836604      -186.0335
  12   2.0000      -5.538414      -150.7079
  13   2.0000      -5.537532      -150.6839
  14   2.0000      -5.535943      -150.6407
  15   2.0000      -1.688943       -45.9585
  16   2.0000      -1.653528       -44.9948
  17   2.0000      -1.471859       -40.0513
  18   2.0000      -1.360983       -37.0342
  19   2.0000      -1.064032       -28.9538
  20   2.0000      -0.947668       -25.7874
  21   2.0000      -0.847381       -23.0584
  22   2.0000      -0.791140       -21.5280
  23   2.0000      -0.769875       -20.9494
  24   2.0000      -0.767509       -20.8850
  25   2.0000      -0.726346       -19.7649
  26   2.0000      -0.704037       -19.1578
  27   2.0000      -0.694887       -18.9088
  28   2.0000      -0.677134       -18.4258
  29   2.0000      -0.668071       -18.1791
  30   2.0000      -0.618197       -16.8220
  31   2.0000      -0.614915       -16.7327
  32   2.0000      -0.536366       -14.5952
  33   2.0000      -0.523201       -14.2370
  34   2.0000      -0.502127       -13.6636
  35   2.0000      -0.492854       -13.4112
  36   2.0000      -0.406915       -11.0727
  37   0.0000       0.021827         0.5939
  38   0.0000       0.036466         0.9923
  39   0.0000       0.039211         1.0670
  40   0.0000       0.043487         1.1833
  41   0.0000       0.055223         1.5027

MULLIKEN ATOMIC CHARGES
-----------------------
   0 F :   -0.668677
   1 S :    2.184843
   2 O :   -1.204969
   3 P :    1.525114
   4 C :   -1.032125
   5 H :    0.354976
   6 H :    0.357241
   7 F :   -0.668677
   8 O :   -1.204969
   9 H :    0.357241
Sum of atomic charges:    0.0000000

LOEWDIN ATOMIC CHARGES
----------------------
   0 F :    0.259512
   1 S :   -0.436719
   2 O :    0.218561
   3 P :   -0.233162
   4 C :    0.747371
   5 H :   -0.336825
   6 H :   -0.348406
   7 F :    0.259512
   8 O :    0.218561
   9 H :   -0.348405

  Mayer bond orders larger than 0.100000
B(  0-F ,  3-P ) :   0.5573 B(  1-S ,  2-O ) :   1.0413 B(  1-S ,  3-P ) :   0.8156
B(  1-S ,  4-C ) :   0.9013 B(  1-S ,  8-O ) :   1.0413 B(  3-P ,  7-F ) :   0.5573
B(  4-C ,  5-H ) :   0.8475 B(  4-C ,  6-H ) :   0.8796 B(  4-C ,  9-H ) :   0.8796

MP2 TOTAL ENERGY:    -1128.352003993 Eh
FINAL SINGLE POINT ENERGY     -1128.352003992854

DIPOLE MOMENT
-------------
                                X             Y             Z
Electronic contribution:     -8.07307       0.00000      -4.21522
Nuclear contribution   :      7.22561      -0.00000       5.33918
                        -----------------------------------------
Total Dipole Moment    :     -0.84746       0.00000       1.12396
                        -----------------------------------------
Magnitude (a.u.)       :      1.40765
Magnitude (Debye)      :      3.57796

Rotational constants in cm-1:     0.094270     0.050956     0.046392
Rotational constants in MHz :  2826.143165  1527.633411  1390.802494

                             ****ORCA TERMINATED NORMALLY****
TOTAL RUN TIME: 0 days 0 hours 34 minutes 2 seconds 403 msec
