                         Program Version 5.0.4 -  RELEASE  -
|  1> ! ri-mp2 aug-cc-pvdz aug-cc-pvdz/c tightscf
|  2> %pal nprocs 16 end
|  3> %maxcore 3800
|  4> %base "DZ_P-C_50_A"
|  5> %scf
|  6> STABPerform true
|  7> STABRestartUHFifUnstable true
|  8> end
|  9>
| 10> *xyz 0 2
| 11> P        -0.640090   -0.098367    0.000884
| 12> N         1.042538    0.016156   -0.005314
| 13> H         1.604101   -0.816404    0.010282
| 14> H         1.558890    0.876540    0.017580
| 15> H        -0.859416    1.302277   -0.003924
| 16> *
| 17>
| 18> $new_job
| 19> ! ri-mp2 aug-cc-pvtz aug-cc-pvtz/c tightscf
| 20> %pal nprocs 16 end
| 21> %maxcore 3800
| 22> %base "TZ_P-C_50_A"
| 23>
| 24> *xyz 0 2
| 25> P        -0.640090   -0.098367    0.000884
| 26> N         1.042538    0.016156   -0.005314
| 27> H         1.604101   -0.816404    0.010282
| 28> H         1.558890    0.876540    0.017580
| 29> H        -0.859416    1.302277   -0.003924
| 30> *
| 31>
| 32> $new_job
| 33> ! ri-mp2 aug-cc-pvqz aug-cc-pvqz/c tightscf
| 34> %pal nprocs 16 end
| 35> %maxcore 3800
| 36> %base "QZ_P-C_50_A"
| 37>
| 38> *xyz 0 2
| 39> P        -0.640090   -0.098367    0.000884
| 40> N         1.042538    0.016156   -0.005314
| 41> H         1.604101   -0.816404    0.010282
| 42> H         1.558890    0.876540    0.017580
| 43> H        -0.859416    1.302277   -0.003924
| 44> *
| 45>
| 46>
| 47>
| 48>
| 49>                          ****END OF INPUT****
 Total Charge           Charge          ....    0
 Multiplicity           Mult            ....    2
 Number of Electrons    NEL             ....   25
MP2 TOTAL ENERGY:     -397.218391344 Eh
FINAL SINGLE POINT ENERGY      -397.218391343524
MP2 TOTAL ENERGY:     -397.313212676 Eh
FINAL SINGLE POINT ENERGY      -397.313212675969

CARTESIAN COORDINATES (ANGSTROEM)
---------------------------------
  P     -0.640090   -0.098367    0.000884
  N      1.042538    0.016156   -0.005314
  H      1.604101   -0.816404    0.010282
  H      1.558890    0.876540    0.017580
  H     -0.859416    1.302277   -0.003924

 Multiplicity           Mult            ....    2
 Number of Electrons    NEL             ....   25
 Basis Dimension        Dim             ....  302

ORBITAL ENERGIES
----------------
                 SPIN UP ORBITALS
  NO   OCC          E(Eh)            E(eV)
   0   1.0000     -79.954816     -2175.6812
   1   1.0000     -15.567022      -423.6002
   2   1.0000      -7.494587      -203.9381
   3   1.0000      -5.398011      -146.8874
   4   1.0000      -5.385911      -146.5581
   5   1.0000      -5.384069      -146.5080
   6   1.0000      -1.180087       -32.1118
   7   1.0000      -0.822366       -22.3777
   8   1.0000      -0.694164       -18.8892
   9   1.0000      -0.572943       -15.5906
  10   1.0000      -0.499827       -13.6010
  11   1.0000      -0.421266       -11.4632
  12   1.0000      -0.300783        -8.1847
  13   0.0000       0.023286         0.6337
  14   0.0000       0.038232         1.0404
  15   0.0000       0.043031         1.1709
  16   0.0000       0.067734         1.8431
  17   0.0000       0.072059         1.9608

                 SPIN DOWN ORBITALS
  NO   OCC          E(Eh)            E(eV)
   0   1.0000     -79.948734     -2175.5157
   1   1.0000     -15.559269      -423.3892
   2   1.0000      -7.487079      -203.7338
   3   1.0000      -5.382402      -146.4626
   4   1.0000      -5.381815      -146.4466
   5   1.0000      -5.368368      -146.0807
   6   1.0000      -1.158451       -31.5230
   7   1.0000      -0.776045       -21.1173
   8   1.0000      -0.689723       -18.7683
   9   1.0000      -0.556943       -15.1552
  10   1.0000      -0.422997       -11.5103
  11   1.0000      -0.396571       -10.7913
  12   0.0000       0.023621         0.6428
  13   0.0000       0.038596         1.0503
  14   0.0000       0.043616         1.1868
  15   0.0000       0.053037         1.4432
  16   0.0000       0.068277         1.8579

MULLIKEN ATOMIC CHARGES AND SPIN POPULATIONS
--------------------------------------------
   0 P :    0.410649    0.921778
   1 N :   -0.835425    0.149591
   2 H :    0.267013   -0.014887
   3 H :    0.270405   -0.014749
   4 H :   -0.112642   -0.041732
Sum of atomic charges         :   -0.0000000

LOEWDIN ATOMIC CHARGES AND SPIN POPULATIONS
-------------------------------------------
   0 P :    1.085213    0.577611
   1 N :    0.813129    0.221342
   2 H :   -0.645222    0.016107
   3 H :   -0.625828    0.018539
   4 H :   -0.627292    0.166401

  Mayer bond orders larger than 0.100000
B(  0-P ,  1-N ) :   0.9628 B(  0-P ,  4-H ) :   0.9579 B(  1-N ,  2-H ) :   0.9738
B(  1-N ,  3-H ) :   0.9669

MP2 TOTAL ENERGY:     -397.343022058 Eh
FINAL SINGLE POINT ENERGY      -397.343022058498

DIPOLE MOMENT
-------------
                                X             Y             Z
Electronic contribution:     -2.15467      -1.17962      -0.00050
Nuclear contribution   :      2.85525       1.42424       0.02256
                        -----------------------------------------
Total Dipole Moment    :      0.70058       0.24462       0.02206
                        -----------------------------------------
Magnitude (a.u.)       :      0.74239
Magnitude (Debye)      :      1.88700

Rotational constants in cm-1:     4.985595     0.502271     0.456320
Rotational constants in MHz : 149464.388168 15057.695790 13680.128224

                             ****ORCA TERMINATED NORMALLY****
TOTAL RUN TIME: 0 days 0 hours 5 minutes 34 seconds 255 msec
