                         Program Version 5.0.4 -  RELEASE  -
|  1> ! ri-mp2 aug-cc-pvdz aug-cc-pvdz/c tightscf
|  2> %pal nprocs 16 end
|  3> %maxcore 3800
|  4> %base "DZ_Si-Cl_48_AB"
|  5>
|  6> *xyz 0 1
|  7> C        -0.118705    2.057415   -0.082101
|  8> C        -1.479564    2.258093   -0.277491
|  9> C        -2.352433    1.194568   -0.246217
| 10> C        -1.873642   -0.093804   -0.018512
| 11> C        -0.518427   -0.299452    0.181961
| 12> C         0.367994    0.779321    0.152273
| 13> H         0.556524    2.902773   -0.121972
| 14> H        -1.858359    3.254677   -0.462167
| 15> Si         2.176046    0.536971    0.480324
| 16> H        -0.137423   -1.296672    0.347469
| 17> Cl         2.845818   -1.165318   -0.475550
| 18> H        -3.414067    1.329540   -0.401688
| 19> O        -2.803933   -1.076798   -0.013642
| 20> C        -2.376184   -2.404125    0.200028
| 21> H        -1.677205   -2.726758   -0.575445
| 22> H        -3.269962   -3.020071    0.157709
| 23> H        -1.905238   -2.517714    1.179657
| 24> H         2.461041    0.337574    1.913827
| 25> H         2.938378    1.691750   -0.028082
| 26> *
| 27>
| 28> $new_job
| 29> ! ri-mp2 aug-cc-pvtz aug-cc-pvtz/c tightscf
| 30> %pal nprocs 16 end
| 31> %maxcore 3800
| 32> %base "TZ_Si-Cl_48_AB"
| 33>
| 34> *xyz 0 1
| 35> C        -0.118705    2.057415   -0.082101
| 36> C        -1.479564    2.258093   -0.277491
| 37> C        -2.352433    1.194568   -0.246217
| 38> C        -1.873642   -0.093804   -0.018512
| 39> C        -0.518427   -0.299452    0.181961
| 40> C         0.367994    0.779321    0.152273
| 41> H         0.556524    2.902773   -0.121972
| 42> H        -1.858359    3.254677   -0.462167
| 43> Si         2.176046    0.536971    0.480324
| 44> H        -0.137423   -1.296672    0.347469
| 45> Cl         2.845818   -1.165318   -0.475550
| 46> H        -3.414067    1.329540   -0.401688
| 47> O        -2.803933   -1.076798   -0.013642
| 48> C        -2.376184   -2.404125    0.200028
| 49> H        -1.677205   -2.726758   -0.575445
| 50> H        -3.269962   -3.020071    0.157709
| 51> H        -1.905238   -2.517714    1.179657
| 52> H         2.461041    0.337574    1.913827
| 53> H         2.938378    1.691750   -0.028082
| 54> *
| 55>
| 56> $new_job
| 57> ! ri-mp2 aug-cc-pvqz aug-cc-pvqz/c tightscf
| 58> %pal nprocs 16 end
| 59> %maxcore 3800
| 60> %base "QZ_Si-Cl_48_AB"
| 61>
| 62> *xyz 0 1
| 63> C        -0.118705    2.057415   -0.082101
| 64> C        -1.479564    2.258093   -0.277491
| 65> C        -2.352433    1.194568   -0.246217
| 66> C        -1.873642   -0.093804   -0.018512
| 67> C        -0.518427   -0.299452    0.181961
| 68> C         0.367994    0.779321    0.152273
| 69> H         0.556524    2.902773   -0.121972
| 70> H        -1.858359    3.254677   -0.462167
| 71> Si         2.176046    0.536971    0.480324
| 72> H        -0.137423   -1.296672    0.347469
| 73> Cl         2.845818   -1.165318   -0.475550
| 74> H        -3.414067    1.329540   -0.401688
| 75> O        -2.803933   -1.076798   -0.013642
| 76> C        -2.376184   -2.404125    0.200028
| 77> H        -1.677205   -2.726758   -0.575445
| 78> H        -3.269962   -3.020071    0.157709
| 79> H        -1.905238   -2.517714    1.179657
| 80> H         2.461041    0.337574    1.913827
| 81> H         2.938378    1.691750   -0.028082
| 82> *
| 83>
| 84>
| 85>
| 86>
| 87>                          ****END OF INPUT****
 Total Charge           Charge          ....    0
 Multiplicity           Mult            ....    1
 Number of Electrons    NEL             ....   90
MP2 TOTAL ENERGY:    -1095.099814751 Eh
FINAL SINGLE POINT ENERGY     -1095.099814750717
MP2 TOTAL ENERGY:    -1095.503617313 Eh
FINAL SINGLE POINT ENERGY     -1095.503617313464

CARTESIAN COORDINATES (ANGSTROEM)
---------------------------------
  C     -0.118705    2.057415   -0.082101
  C     -1.479564    2.258093   -0.277491
  C     -2.352433    1.194568   -0.246217
  C     -1.873642   -0.093804   -0.018512
  C     -0.518427   -0.299452    0.181961
  C      0.367994    0.779321    0.152273
  H      0.556524    2.902773   -0.121972
  H     -1.858359    3.254677   -0.462167
  Si     2.176046    0.536971    0.480324
  H     -0.137423   -1.296672    0.347469
  Cl     2.845818   -1.165318   -0.475550
  H     -3.414067    1.329540   -0.401688
  O     -2.803933   -1.076798   -0.013642
  C     -2.376184   -2.404125    0.200028
  H     -1.677205   -2.726758   -0.575445
  H     -3.269962   -3.020071    0.157709
  H     -1.905238   -2.517714    1.179657
  H      2.461041    0.337574    1.913827
  H      2.938378    1.691750   -0.028082

 Multiplicity           Mult            ....    1
 Number of Electrons    NEL             ....   90
 Basis Dimension        Dim             .... 1222

ORBITAL ENERGIES
----------------

  NO   OCC          E(Eh)            E(eV)
   0   2.0000    -104.822341     -2852.3609
   1   2.0000     -68.811043     -1872.4437
   2   2.0000     -20.588074      -560.2300
   3   2.0000     -11.304520      -307.6116
   4   2.0000     -11.286584      -307.1236
   5   2.0000     -11.242913      -305.9352
   6   2.0000     -11.238694      -305.8204
   7   2.0000     -11.237911      -305.7991
   8   2.0000     -11.235828      -305.7424
   9   2.0000     -11.233768      -305.6864
  10   2.0000     -10.549875      -287.0767
  11   2.0000      -8.016678      -218.1449
  12   2.0000      -8.015601      -218.1156
  13   2.0000      -8.015578      -218.1150
  14   2.0000      -6.156719      -167.5328
  15   2.0000      -4.263859      -116.0255
  16   2.0000      -4.262766      -115.9958
  17   2.0000      -4.262392      -115.9856
  18   2.0000      -1.421337       -38.6766
  19   2.0000      -1.160633       -31.5824
  20   2.0000      -1.093101       -29.7448
  21   2.0000      -1.032765       -28.1030
  22   2.0000      -1.026032       -27.9197
  23   2.0000      -0.950008       -25.8510
  24   2.0000      -0.845021       -22.9942
  25   2.0000      -0.818053       -22.2604
  26   2.0000      -0.743301       -20.2263
  27   2.0000      -0.693929       -18.8828
  28   2.0000      -0.674897       -18.3649
  29   2.0000      -0.672181       -18.2910
  30   2.0000      -0.663729       -18.0610
  31   2.0000      -0.619835       -16.8666
  32   2.0000      -0.586932       -15.9712
  33   2.0000      -0.565627       -15.3915
  34   2.0000      -0.541811       -14.7434
  35   2.0000      -0.528192       -14.3728
  36   2.0000      -0.522791       -14.2259
  37   2.0000      -0.521144       -14.1811
  38   2.0000      -0.518083       -14.0977
  39   2.0000      -0.480792       -13.0830
  40   2.0000      -0.476135       -12.9563
  41   2.0000      -0.446910       -12.1610
  42   2.0000      -0.440043       -11.9742
  43   2.0000      -0.351916        -9.5761
  44   2.0000      -0.322937        -8.7876
  45   0.0000       0.021829         0.5940
  46   0.0000       0.026061         0.7092
  47   0.0000       0.030328         0.8253
  48   0.0000       0.037596         1.0231
  49   0.0000       0.039817         1.0835

MULLIKEN ATOMIC CHARGES
-----------------------
   0 C :   -0.493414
   1 C :   -0.283216
   2 C :   -0.620361
   3 C :    1.256653
   4 C :   -0.640559
   5 C :   -0.106369
   6 H :    0.297695
   7 H :    0.211769
   8 Si:    1.318717
   9 H :    0.380700
  10 Cl:   -0.673676
  11 H :    0.328781
  12 O :   -0.847515
  13 C :   -0.647760
  14 H :    0.250362
  15 H :    0.507726
  16 H :    0.243505
  17 H :   -0.191633
  18 H :   -0.291405
Sum of atomic charges:    0.0000000

LOEWDIN ATOMIC CHARGES
----------------------
   0 C :    0.243302
   1 C :    0.339923
   2 C :    0.325692
   3 C :   -0.459558
   4 C :    0.219110
   5 C :   -0.162739
   6 H :   -0.348395
   7 H :   -0.316373
   8 Si:   -0.020109
   9 H :   -0.399141
  10 Cl:    0.909355
  11 H :   -0.321624
  12 O :    0.884731
  13 C :    0.578081
  14 H :   -0.304018
  15 H :   -0.315534
  16 H :   -0.303879
  17 H :   -0.279080
  18 H :   -0.269745

  Mayer bond orders larger than 0.100000
B(  0-C ,  1-C ) :   1.1539 B(  0-C ,  2-C ) :   0.1848 B(  0-C ,  5-C ) :   1.0417
B(  0-C ,  6-H ) :   0.9725 B(  0-C ,  7-H ) :  -0.1632 B(  1-C ,  2-C ) :   1.3330
B(  1-C ,  3-C ) :  -0.3692 B(  1-C ,  5-C ) :  -0.2637 B(  1-C ,  7-H ) :   1.2230
B(  2-C ,  3-C ) :   1.0127 B(  2-C ,  4-C ) :   0.1037 B(  2-C ,  7-H ) :  -0.1724
B(  2-C , 11-H ) :   0.9042 B(  2-C , 12-O ) :   0.2346 B(  3-C ,  4-C ) :   1.4787
B(  3-C ,  5-C ) :  -0.3932 B(  3-C , 13-C ) :  -0.1228 B(  4-C ,  5-C ) :   0.7651
B(  4-C ,  8-Si) :  -0.2043 B(  4-C ,  9-H ) :   0.8882 B(  4-C , 12-O ) :   0.2498
B(  4-C , 13-C ) :   0.1216 B(  5-C ,  6-H ) :  -0.1289 B(  5-C ,  8-Si) :   1.1290
B(  5-C ,  9-H ) :  -0.1982 B(  5-C , 10-Cl) :  -0.1106 B(  5-C , 18-H ) :  -0.1580
B(  8-Si, 10-Cl) :   0.2937 B(  8-Si, 17-H ) :   0.8057 B(  8-Si, 18-H ) :   0.7788
B( 12-O , 13-C ) :   0.8992 B( 13-C , 14-H ) :   0.9212 B( 13-C , 15-H ) :   0.7384
B( 13-C , 16-H ) :   0.9272

MP2 TOTAL ENERGY:    -1095.633629861 Eh
FINAL SINGLE POINT ENERGY     -1095.633629860554

DIPOLE MOMENT
-------------
                                X             Y             Z
Electronic contribution:      9.91297      -1.43647      -2.34450
Nuclear contribution   :    -10.33029       1.53936       2.60389
                        -----------------------------------------
Total Dipole Moment    :     -0.41731       0.10288       0.25939
                        -----------------------------------------
Magnitude (a.u.)       :      0.50202
Magnitude (Debye)      :      1.27602

Rotational constants in cm-1:     0.047758     0.020437     0.014899
Rotational constants in MHz :  1431.756709   612.698486   446.673384

                             ****ORCA TERMINATED NORMALLY****
TOTAL RUN TIME: 0 days 0 hours 44 minutes 50 seconds 956 msec
