                         Program Version 5.0.4 -  RELEASE  -
|  1> ! ri-mp2 aug-cc-pvdz aug-cc-pvdz/c tightscf
|  2> %pal nprocs 16 end
|  3> %maxcore 3800
|  4> %base "DZ_B-F_35_AB"
|  5>
|  6> *xyz 0 1
|  7> F         2.030508    0.215881    1.125501
|  8> F         2.030517    0.215855   -1.125502
|  9> B         1.377451    0.019461   -0.000002
| 10> C        -0.094428   -0.564618    0.000003
| 11> O        -0.119607   -1.789769    0.000011
| 12> N        -1.193064    0.216865   -0.000000
| 13> C        -1.114575    1.655822   -0.000006
| 14> H        -0.074744    1.981919   -0.000004
| 15> H        -1.598307    2.072766    0.886251
| 16> H        -1.598305    2.072759   -0.886267
| 17> C        -2.510906   -0.377093   -0.000003
| 18> H        -2.400809   -1.457363   -0.000006
| 19> H        -3.068277   -0.068783   -0.887064
| 20> H        -3.068280   -0.068791    0.887059
| 21> *
| 22>
| 23> $new_job
| 24> ! ri-mp2 aug-cc-pvtz aug-cc-pvtz/c tightscf
| 25> %pal nprocs 16 end
| 26> %maxcore 3800
| 27> %base "TZ_B-F_35_AB"
| 28>
| 29> *xyz 0 1
| 30> F         2.030508    0.215881    1.125501
| 31> F         2.030517    0.215855   -1.125502
| 32> B         1.377451    0.019461   -0.000002
| 33> C        -0.094428   -0.564618    0.000003
| 34> O        -0.119607   -1.789769    0.000011
| 35> N        -1.193064    0.216865   -0.000000
| 36> C        -1.114575    1.655822   -0.000006
| 37> H        -0.074744    1.981919   -0.000004
| 38> H        -1.598307    2.072766    0.886251
| 39> H        -1.598305    2.072759   -0.886267
| 40> C        -2.510906   -0.377093   -0.000003
| 41> H        -2.400809   -1.457363   -0.000006
| 42> H        -3.068277   -0.068783   -0.887064
| 43> H        -3.068280   -0.068791    0.887059
| 44> *
| 45>
| 46> $new_job
| 47> ! ri-mp2 aug-cc-pvqz aug-cc-pvqz/c tightscf
| 48> %pal nprocs 16 end
| 49> %maxcore 3800
| 50> %base "QZ_B-F_35_AB"
| 51>
| 52> *xyz 0 1
| 53> F         2.030508    0.215881    1.125501
| 54> F         2.030517    0.215855   -1.125502
| 55> B         1.377451    0.019461   -0.000002
| 56> C        -0.094428   -0.564618    0.000003
| 57> O        -0.119607   -1.789769    0.000011
| 58> N        -1.193064    0.216865   -0.000000
| 59> C        -1.114575    1.655822   -0.000006
| 60> H        -0.074744    1.981919   -0.000004
| 61> H        -1.598307    2.072766    0.886251
| 62> H        -1.598305    2.072759   -0.886267
| 63> C        -2.510906   -0.377093   -0.000003
| 64> H        -2.400809   -1.457363   -0.000006
| 65> H        -3.068277   -0.068783   -0.887064
| 66> H        -3.068280   -0.068791    0.887059
| 67> *
| 68>
| 69>
| 70>
| 71>
| 72>                          ****END OF INPUT****
 Total Charge           Charge          ....    0
 Multiplicity           Mult            ....    1
 Number of Electrons    NEL             ....   62
MP2 TOTAL ENERGY:     -471.432293278 Eh
FINAL SINGLE POINT ENERGY      -471.432293278109
MP2 TOTAL ENERGY:     -471.846217886 Eh
FINAL SINGLE POINT ENERGY      -471.846217885612

CARTESIAN COORDINATES (ANGSTROEM)
---------------------------------
  F      2.030508    0.215881    1.125501
  F      2.030517    0.215855   -1.125502
  B      1.377451    0.019461   -0.000002
  C     -0.094428   -0.564618    0.000003
  O     -0.119607   -1.789769    0.000011
  N     -1.193064    0.216865   -0.000000
  C     -1.114575    1.655822   -0.000006
  H     -0.074744    1.981919   -0.000004
  H     -1.598307    2.072766    0.886251
  H     -1.598305    2.072759   -0.886267
  C     -2.510906   -0.377093   -0.000003
  H     -2.400809   -1.457363   -0.000006
  H     -3.068277   -0.068783   -0.887064
  H     -3.068280   -0.068791    0.887059

 Multiplicity           Mult            ....    1
 Number of Electrons    NEL             ....   62
 Basis Dimension        Dim             ....  916

ORBITAL ENERGIES
----------------

  NO   OCC          E(Eh)            E(eV)
   0   2.0000     -26.324606      -716.3290
   1   2.0000     -26.324590      -716.3285
   2   2.0000     -20.530529      -558.6641
   3   2.0000     -15.605740      -424.6538
   4   2.0000     -11.343959      -308.6848
   5   2.0000     -11.288782      -307.1834
   6   2.0000     -11.266353      -306.5730
   7   2.0000      -7.728826      -210.3120
   8   2.0000      -1.658763       -45.1372
   9   2.0000      -1.626707       -44.2650
  10   2.0000      -1.392795       -37.8999
  11   2.0000      -1.270442       -34.5705
  12   2.0000      -1.000167       -27.2159
  13   2.0000      -0.964306       -26.2401
  14   2.0000      -0.847292       -23.0560
  15   2.0000      -0.798662       -21.7327
  16   2.0000      -0.775826       -21.1113
  17   2.0000      -0.745129       -20.2760
  18   2.0000      -0.724940       -19.7266
  19   2.0000      -0.679048       -18.4778
  20   2.0000      -0.676094       -18.3975
  21   2.0000      -0.671750       -18.2792
  22   2.0000      -0.668545       -18.1920
  23   2.0000      -0.663011       -18.0414
  24   2.0000      -0.582504       -15.8507
  25   2.0000      -0.579694       -15.7743
  26   2.0000      -0.578357       -15.7379
  27   2.0000      -0.552198       -15.0261
  28   2.0000      -0.543125       -14.7792
  29   2.0000      -0.427253       -11.6261
  30   2.0000      -0.390380       -10.6228
  31   0.0000       0.018400         0.5007
  32   0.0000       0.030739         0.8365
  33   0.0000       0.031507         0.8573
  34   0.0000       0.037884         1.0309
  35   0.0000       0.048646         1.3237

MULLIKEN ATOMIC CHARGES
-----------------------
   0 F :   -0.836783
   1 F :   -0.836785
   2 B :    1.861863
   3 C :    1.012754
   4 O :   -0.917634
   5 N :   -0.487659
   6 C :   -0.800152
   7 H :    0.275269
   8 H :    0.304883
   9 H :    0.304885
  10 C :   -0.779516
  11 H :    0.315552
  12 H :    0.291662
  13 H :    0.291664
Sum of atomic charges:    0.0000000

LOEWDIN ATOMIC CHARGES
----------------------
   0 F :    0.832162
   1 F :    0.832163
   2 B :   -1.829881
   3 C :   -0.738269
   4 O :    0.712456
   5 N :    0.391147
   6 C :    0.776339
   7 H :   -0.321489
   8 H :   -0.264787
   9 H :   -0.264788
  10 C :    0.771874
  11 H :   -0.351501
  12 H :   -0.272713
  13 H :   -0.272712

  Mayer bond orders larger than 0.100000
B(  0-F ,  2-B ) :   0.3180 B(  1-F ,  2-B ) :   0.3180 B(  2-B ,  3-C ) :   0.8639
B(  3-C ,  4-O ) :   1.1808 B(  3-C ,  5-N ) :   1.2699 B(  4-O ,  5-N ) :   0.2589
B(  5-N ,  6-C ) :   0.8040 B(  5-N , 10-C ) :   0.8486 B(  6-C ,  7-H ) :   0.9230
B(  6-C ,  8-H ) :   0.9497 B(  6-C ,  9-H ) :   0.9497 B( 10-C , 11-H ) :   0.8961
B( 10-C , 12-H ) :   0.9501 B( 10-C , 13-H ) :   0.9501

MP2 TOTAL ENERGY:     -471.978573562 Eh
FINAL SINGLE POINT ENERGY      -471.978573561645

DIPOLE MOMENT
-------------
                                X             Y             Z
Electronic contribution:     15.22026      -2.44588       0.00001
Nuclear contribution   :    -16.31436       3.91385      -0.00003
                        -----------------------------------------
Total Dipole Moment    :     -1.09410       1.46797      -0.00002
                        -----------------------------------------
Magnitude (a.u.)       :      1.83084
Magnitude (Debye)      :      4.65363

Rotational constants in cm-1:     0.106693     0.045924     0.039902
Rotational constants in MHz :  3198.585830  1376.767060  1196.234969

                             ****ORCA TERMINATED NORMALLY****
TOTAL RUN TIME: 0 days 0 hours 17 minutes 58 seconds 329 msec
