                         Program Version 5.0.4 -  RELEASE  -
|  1> ! ri-mp2 aug-cc-pvdz aug-cc-pvdz/c tightscf
|  2> %pal nprocs 16 end
|  3> %maxcore 3800
|  4> %base "DZ_S-S_9_AB"
|  5>
|  6> *xyz 0 1
|  7> C        -3.064351    0.412389    0.559030
|  8> O        -2.422625    0.745268    1.504316
|  9> S        -2.500936   -0.812995   -0.645669
| 10> S        -0.658369   -1.270511    0.055854
| 11> C         0.278747    0.185864   -0.485586
| 12> O        -0.255558    1.119680   -1.004799
| 13> C        -4.406093    0.976873    0.189452
| 14> H        -4.239651    1.879302   -0.400723
| 15> H        -4.939590    1.246944    1.097984
| 16> H        -4.995894    0.281269   -0.405275
| 17> C         1.732638    0.126761   -0.187238
| 18> C         2.457095    1.308977   -0.294884
| 19> C         3.811819    1.316933   -0.029126
| 20> C         4.452380    0.144297    0.340492
| 21> C         3.736098   -1.036168    0.444008
| 22> C         2.378247   -1.046483    0.182871
| 23> H         1.937794    2.210818   -0.586352
| 24> H         4.371705    2.238828   -0.109310
| 25> H         5.514333    0.150678    0.547412
| 26> H         4.236101   -1.952256    0.727117
| 27> H         1.830080   -1.975707    0.255948
| 28> *
| 29>
| 30> $new_job
| 31> ! ri-mp2 aug-cc-pvtz aug-cc-pvtz/c tightscf
| 32> %pal nprocs 16 end
| 33> %maxcore 3800
| 34> %base "TZ_S-S_9_AB"
| 35>
| 36> *xyz 0 1
| 37> C        -3.064351    0.412389    0.559030
| 38> O        -2.422625    0.745268    1.504316
| 39> S        -2.500936   -0.812995   -0.645669
| 40> S        -0.658369   -1.270511    0.055854
| 41> C         0.278747    0.185864   -0.485586
| 42> O        -0.255558    1.119680   -1.004799
| 43> C        -4.406093    0.976873    0.189452
| 44> H        -4.239651    1.879302   -0.400723
| 45> H        -4.939590    1.246944    1.097984
| 46> H        -4.995894    0.281269   -0.405275
| 47> C         1.732638    0.126761   -0.187238
| 48> C         2.457095    1.308977   -0.294884
| 49> C         3.811819    1.316933   -0.029126
| 50> C         4.452380    0.144297    0.340492
| 51> C         3.736098   -1.036168    0.444008
| 52> C         2.378247   -1.046483    0.182871
| 53> H         1.937794    2.210818   -0.586352
| 54> H         4.371705    2.238828   -0.109310
| 55> H         5.514333    0.150678    0.547412
| 56> H         4.236101   -1.952256    0.727117
| 57> H         1.830080   -1.975707    0.255948
| 58> *
| 59>
| 60> $new_job
| 61> ! ri-mp2 aug-cc-pvqz aug-cc-pvqz/c tightscf
| 62> %pal nprocs 16 end
| 63> %maxcore 3800
| 64> %base "QZ_S-S_9_AB"
| 65>
| 66> *xyz 0 1
| 67> C        -3.064351    0.412389    0.559030
| 68> O        -2.422625    0.745268    1.504316
| 69> S        -2.500936   -0.812995   -0.645669
| 70> S        -0.658369   -1.270511    0.055854
| 71> C         0.278747    0.185864   -0.485586
| 72> O        -0.255558    1.119680   -1.004799
| 73> C        -4.406093    0.976873    0.189452
| 74> H        -4.239651    1.879302   -0.400723
| 75> H        -4.939590    1.246944    1.097984
| 76> H        -4.995894    0.281269   -0.405275
| 77> C         1.732638    0.126761   -0.187238
| 78> C         2.457095    1.308977   -0.294884
| 79> C         3.811819    1.316933   -0.029126
| 80> C         4.452380    0.144297    0.340492
| 81> C         3.736098   -1.036168    0.444008
| 82> C         2.378247   -1.046483    0.182871
| 83> H         1.937794    2.210818   -0.586352
| 84> H         4.371705    2.238828   -0.109310
| 85> H         5.514333    0.150678    0.547412
| 86> H         4.236101   -1.952256    0.727117
| 87> H         1.830080   -1.975707    0.255948
| 88> *
| 89>
| 90>
| 91>
| 92>
| 93>                          ****END OF INPUT****
 Total Charge           Charge          ....    0
 Multiplicity           Mult            ....    1
 Number of Electrons    NEL             ....  110
MP2 TOTAL ENERGY:    -1292.221134219 Eh
FINAL SINGLE POINT ENERGY     -1292.221134219483
MP2 TOTAL ENERGY:    -1292.749834977 Eh
FINAL SINGLE POINT ENERGY     -1292.749834976735

CARTESIAN COORDINATES (ANGSTROEM)
---------------------------------
  C     -3.064351    0.412389    0.559030
  O     -2.422625    0.745268    1.504316
  S     -2.500936   -0.812995   -0.645669
  S     -0.658369   -1.270511    0.055854
  C      0.278747    0.185864   -0.485586
  O     -0.255558    1.119680   -1.004799
  C     -4.406093    0.976873    0.189452
  H     -4.239651    1.879302   -0.400723
  H     -4.939590    1.246944    1.097984
  H     -4.995894    0.281269   -0.405275
  C      1.732638    0.126761   -0.187238
  C      2.457095    1.308977   -0.294884
  C      3.811819    1.316933   -0.029126
  C      4.452380    0.144297    0.340492
  C      3.736098   -1.036168    0.444008
  C      2.378247   -1.046483    0.182871
  H      1.937794    2.210818   -0.586352
  H      4.371705    2.238828   -0.109310
  H      5.514333    0.150678    0.547412
  H      4.236101   -1.952256    0.727117
  H      1.830080   -1.975707    0.255948

 Multiplicity           Mult            ....    1
 Number of Electrons    NEL             ....  110
 Basis Dimension        Dim             .... 1416

ORBITAL ENERGIES
----------------

  NO   OCC          E(Eh)            E(eV)
   0   2.0000     -91.993591     -2503.2729
   1   2.0000     -91.993138     -2503.2605
   2   2.0000     -20.562284      -559.5282
   3   2.0000     -20.561765      -559.5141
   4   2.0000     -11.370292      -309.4014
   5   2.0000     -11.367624      -309.3288
   6   2.0000     -11.259590      -306.3890
   7   2.0000     -11.258294      -306.3537
   8   2.0000     -11.255343      -306.2734
   9   2.0000     -11.252578      -306.1982
  10   2.0000     -11.248903      -306.0982
  11   2.0000     -11.248077      -306.0757
  12   2.0000     -11.246569      -306.0347
  13   2.0000      -8.995232      -244.7727
  14   2.0000      -8.994723      -244.7589
  15   2.0000      -6.676546      -181.6780
  16   2.0000      -6.675947      -181.6618
  17   2.0000      -6.675149      -181.6400
  18   2.0000      -6.674618      -181.6256
  19   2.0000      -6.674463      -181.6214
  20   2.0000      -6.673990      -181.6085
  21   2.0000      -1.420412       -38.6514
  22   2.0000      -1.416833       -38.5540
  23   2.0000      -1.181367       -32.1466
  24   2.0000      -1.094796       -29.7909
  25   2.0000      -1.059230       -28.8231
  26   2.0000      -1.039357       -28.2824
  27   2.0000      -1.028503       -27.9870
  28   2.0000      -0.935931       -25.4680
  29   2.0000      -0.870121       -23.6772
  30   2.0000      -0.845859       -23.0170
  31   2.0000      -0.777294       -21.1513
  32   2.0000      -0.738530       -20.0964
  33   2.0000      -0.715213       -19.4619
  34   2.0000      -0.674077       -18.3426
  35   2.0000      -0.664005       -18.0685
  36   2.0000      -0.650369       -17.6974
  37   2.0000      -0.643961       -17.5231
  38   2.0000      -0.630829       -17.1657
  39   2.0000      -0.622967       -16.9518
  40   2.0000      -0.609071       -16.5737
  41   2.0000      -0.602676       -16.3996
  42   2.0000      -0.585148       -15.9227
  43   2.0000      -0.564387       -15.3577
  44   2.0000      -0.534706       -14.5501
  45   2.0000      -0.527097       -14.3430
  46   2.0000      -0.515632       -14.0311
  47   2.0000      -0.513480       -13.9725
  48   2.0000      -0.484032       -13.1712
  49   2.0000      -0.432063       -11.7570
  50   2.0000      -0.428230       -11.6527
  51   2.0000      -0.390525       -10.6267
  52   2.0000      -0.376323       -10.2403
  53   2.0000      -0.356815        -9.7094
  54   2.0000      -0.356034        -9.6882
  55   0.0000       0.021896         0.5958
  56   0.0000       0.026403         0.7185
  57   0.0000       0.028942         0.7875
  58   0.0000       0.036231         0.9859
  59   0.0000       0.041862         1.1391

MULLIKEN ATOMIC CHARGES
-----------------------
   0 C :    0.587699
   1 O :   -0.757483
   2 S :    0.046064
   3 S :    0.033075
   4 C :    0.814953
   5 O :   -0.811926
   6 C :   -0.809948
   7 H :    0.317208
   8 H :    0.298518
   9 H :    0.268884
  10 C :   -0.136051
  11 C :   -0.270256
  12 C :   -0.288109
  13 C :   -0.270441
  14 C :   -0.403182
  15 C :   -0.119699
  16 H :    0.342715
  17 H :    0.273864
  18 H :    0.319999
  19 H :    0.254989
  20 H :    0.309125
Sum of atomic charges:    0.0000000

LOEWDIN ATOMIC CHARGES
----------------------
   0 C :   -1.167722
   1 O :    0.628348
   2 S :    0.748707
   3 S :    0.760171
   4 C :   -1.152361
   5 O :    0.641515
   6 C :    0.773982
   7 H :   -0.303247
   8 H :   -0.315233
   9 H :   -0.345812
  10 C :   -0.236654
  11 C :    0.312014
  12 C :    0.359633
  13 C :    0.348173
  14 C :    0.355638
  15 C :    0.272968
  16 H :   -0.335487
  17 H :   -0.317664
  18 H :   -0.314002
  19 H :   -0.317709
  20 H :   -0.395256

  Mayer bond orders larger than 0.100000
B(  0-C ,  1-O ) :   1.4425 B(  0-C ,  2-S ) :   0.9648 B(  0-C ,  6-C ) :   0.8632
B(  2-S ,  3-S ) :   1.0723 B(  2-S ,  4-C ) :  -0.1066 B(  3-S ,  4-C ) :   0.9896
B(  3-S , 10-C ) :  -0.1364 B(  4-C ,  5-O ) :   1.0969 B(  4-C , 10-C ) :   0.8563
B(  4-C , 11-C ) :  -0.3588 B(  4-C , 15-C ) :  -0.4296 B(  5-O , 10-C ) :   0.3600
B(  6-C ,  7-H ) :   0.8631 B(  6-C ,  8-H ) :   0.9685 B(  6-C ,  9-H ) :   0.9760
B( 10-C , 11-C ) :   1.1549 B( 10-C , 12-C ) :  -0.2795 B( 10-C , 13-C ) :   0.1021
B( 10-C , 14-C ) :  -0.2476 B( 10-C , 15-C ) :   1.1111 B( 10-C , 20-H ) :  -0.1543
B( 11-C , 12-C ) :   1.3080 B( 11-C , 14-C ) :   0.1300 B( 11-C , 16-H ) :   0.8640
B( 11-C , 17-H ) :  -0.1352 B( 12-C , 13-C ) :   1.1367 B( 12-C , 15-C ) :   0.1205
B( 12-C , 17-H ) :   1.0853 B( 13-C , 14-C ) :   1.1745 B( 13-C , 18-H ) :   1.0076
B( 14-C , 15-C ) :   1.2159 B( 14-C , 19-H ) :   1.1132 B( 15-C , 19-H ) :  -0.1235
B( 15-C , 20-H ) :   0.9375

MP2 TOTAL ENERGY:    -1292.921994954 Eh
FINAL SINGLE POINT ENERGY     -1292.921994953680

DIPOLE MOMENT
-------------
                                X             Y             Z
Electronic contribution:     -3.27512      -4.31639      -1.28523
Nuclear contribution   :      3.66904       4.06164       1.12196
                        -----------------------------------------
Total Dipole Moment    :      0.39392      -0.25475      -0.16327
                        -----------------------------------------
Magnitude (a.u.)       :      0.49672
Magnitude (Debye)      :      1.26255

Rotational constants in cm-1:     0.058581     0.010296     0.009564
Rotational constants in MHz :  1756.225229   308.658809   286.707209

                             ****ORCA TERMINATED NORMALLY****
TOTAL RUN TIME: 0 days 1 hours 7 minutes 42 seconds 742 msec
