                         Program Version 5.0.4 -  RELEASE  -
|  1> ! ri-mp2 aug-cc-pvdz aug-cc-pvdz/c tightscf
|  2> %pal nprocs 16 end
|  3> %maxcore 3800
|  4> %base "DZ_B-Si_27_AB"
|  5>
|  6> *xyz 0 1
|  7> Si         0.082709   -0.156645    0.497099
|  8> N         1.046123   -1.169864   -0.727617
|  9> B        -1.883873   -0.234344    0.012495
| 10> N         0.684416    1.551510    0.003331
| 11> C         0.740730   -0.480125    2.177173
| 12> O        -0.152542    2.369196   -0.367934
| 13> O        -2.513954    0.832708   -0.503260
| 14> O         1.637400   -2.156302   -0.337836
| 15> O        -2.512444   -1.406377    0.248558
| 16> O         0.983803   -0.800753   -1.885879
| 17> O         1.864692    1.792183    0.103350
| 18> H         0.527760   -1.512248    2.456413
| 19> H         0.272380    0.179792    2.908549
| 20> H         1.819016   -0.327629    2.197922
| 21> H        -1.929718    1.600731   -0.620311
| 22> H        -3.441798   -1.411899   -0.013458
| 23> *
| 24>
| 25> $new_job
| 26> ! ri-mp2 aug-cc-pvtz aug-cc-pvtz/c tightscf
| 27> %pal nprocs 16 end
| 28> %maxcore 3800
| 29> %base "TZ_B-Si_27_AB"
| 30>
| 31> *xyz 0 1
| 32> Si         0.082709   -0.156645    0.497099
| 33> N         1.046123   -1.169864   -0.727617
| 34> B        -1.883873   -0.234344    0.012495
| 35> N         0.684416    1.551510    0.003331
| 36> C         0.740730   -0.480125    2.177173
| 37> O        -0.152542    2.369196   -0.367934
| 38> O        -2.513954    0.832708   -0.503260
| 39> O         1.637400   -2.156302   -0.337836
| 40> O        -2.512444   -1.406377    0.248558
| 41> O         0.983803   -0.800753   -1.885879
| 42> O         1.864692    1.792183    0.103350
| 43> H         0.527760   -1.512248    2.456413
| 44> H         0.272380    0.179792    2.908549
| 45> H         1.819016   -0.327629    2.197922
| 46> H        -1.929718    1.600731   -0.620311
| 47> H        -3.441798   -1.411899   -0.013458
| 48> *
| 49>
| 50> $new_job
| 51> ! ri-mp2 aug-cc-pvqz aug-cc-pvqz/c tightscf
| 52> %pal nprocs 16 end
| 53> %maxcore 3800
| 54> %base "QZ_B-Si_27_AB"
| 55>
| 56> *xyz 0 1
| 57> Si         0.082709   -0.156645    0.497099
| 58> N         1.046123   -1.169864   -0.727617
| 59> B        -1.883873   -0.234344    0.012495
| 60> N         0.684416    1.551510    0.003331
| 61> C         0.740730   -0.480125    2.177173
| 62> O        -0.152542    2.369196   -0.367934
| 63> O        -2.513954    0.832708   -0.503260
| 64> O         1.637400   -2.156302   -0.337836
| 65> O        -2.512444   -1.406377    0.248558
| 66> O         0.983803   -0.800753   -1.885879
| 67> O         1.864692    1.792183    0.103350
| 68> H         0.527760   -1.512248    2.456413
| 69> H         0.272380    0.179792    2.908549
| 70> H         1.819016   -0.327629    2.197922
| 71> H        -1.929718    1.600731   -0.620311
| 72> H        -3.441798   -1.411899   -0.013458
| 73> *
| 74>
| 75>
| 76>
| 77>
| 78>                          ****END OF INPUT****
 Total Charge           Charge          ....    0
 Multiplicity           Mult            ....    1
 Number of Electrons    NEL             ....   92
MP2 TOTAL ENERGY:     -914.372745107 Eh
FINAL SINGLE POINT ENERGY      -914.372745107467
MP2 TOTAL ENERGY:     -914.930059647 Eh
FINAL SINGLE POINT ENERGY      -914.930059647322

CARTESIAN COORDINATES (ANGSTROEM)
---------------------------------
  Si     0.082709   -0.156645    0.497099
  N      1.046123   -1.169864   -0.727617
  B     -1.883873   -0.234344    0.012495
  N      0.684416    1.551510    0.003331
  C      0.740730   -0.480125    2.177173
  O     -0.152542    2.369196   -0.367934
  O     -2.513954    0.832708   -0.503260
  O      1.637400   -2.156302   -0.337836
  O     -2.512444   -1.406377    0.248558
  O      0.983803   -0.800753   -1.885879
  O      1.864692    1.792183    0.103350
  H      0.527760   -1.512248    2.456413
  H      0.272380    0.179792    2.908549
  H      1.819016   -0.327629    2.197922
  H     -1.929718    1.600731   -0.620311
  H     -3.441798   -1.411899   -0.013458

 Multiplicity           Mult            ....    1
 Number of Electrons    NEL             ....   92
 Basis Dimension        Dim             .... 1114

ORBITAL ENERGIES
----------------

  NO   OCC          E(Eh)            E(eV)
   0   2.0000     -68.876632     -1874.2284
   1   2.0000     -20.632605      -561.4417
   2   2.0000     -20.625035      -561.2357
   3   2.0000     -20.620432      -561.1105
   4   2.0000     -20.617538      -561.0317
   5   2.0000     -20.607639      -560.7624
   6   2.0000     -20.597780      -560.4941
   7   2.0000     -15.842334      -431.0918
   8   2.0000     -15.834728      -430.8849
   9   2.0000     -11.259825      -306.3954
  10   2.0000      -7.687707      -209.1932
  11   2.0000      -6.223839      -169.3593
  12   2.0000      -4.330353      -117.8349
  13   2.0000      -4.329507      -117.8119
  14   2.0000      -4.328076      -117.7729
  15   2.0000      -1.626283       -44.2534
  16   2.0000      -1.616877       -43.9975
  17   2.0000      -1.426647       -38.8210
  18   2.0000      -1.420402       -38.6511
  19   2.0000      -1.417085       -38.5608
  20   2.0000      -1.384820       -37.6829
  21   2.0000      -1.031531       -28.0694
  22   2.0000      -0.976724       -26.5780
  23   2.0000      -0.950047       -25.8521
  24   2.0000      -0.827602       -22.5202
  25   2.0000      -0.814325       -22.1589
  26   2.0000      -0.790513       -21.5109
  27   2.0000      -0.770068       -20.9546
  28   2.0000      -0.749320       -20.3900
  29   2.0000      -0.739784       -20.1305
  30   2.0000      -0.734044       -19.9744
  31   2.0000      -0.720434       -19.6040
  32   2.0000      -0.669049       -18.2058
  33   2.0000      -0.617690       -16.8082
  34   2.0000      -0.611672       -16.6445
  35   2.0000      -0.609104       -16.5746
  36   2.0000      -0.608275       -16.5520
  37   2.0000      -0.601346       -16.3635
  38   2.0000      -0.537018       -14.6130
  39   2.0000      -0.528111       -14.3706
  40   2.0000      -0.524336       -14.2679
  41   2.0000      -0.492759       -13.4087
  42   2.0000      -0.482566       -13.1313
  43   2.0000      -0.480044       -13.0627
  44   2.0000      -0.470201       -12.7948
  45   2.0000      -0.464291       -12.6340
  46   0.0000       0.013439         0.3657
  47   0.0000       0.023799         0.6476
  48   0.0000       0.031967         0.8699
  49   0.0000       0.038111         1.0370
  50   0.0000       0.039440         1.0732

MULLIKEN ATOMIC CHARGES
-----------------------
   0 Si:    1.402131
   1 N :    0.765851
   2 B :    1.378339
   3 N :    0.719532
   4 C :   -1.052268
   5 O :   -0.678148
   6 O :   -1.213946
   7 O :   -0.652904
   8 O :   -1.000807
   9 O :   -0.649858
  10 O :   -0.603170
  11 H :    0.280330
  12 H :    0.311545
  13 H :    0.311863
  14 H :    0.359471
  15 H :    0.322037
Sum of atomic charges:    0.0000000

LOEWDIN ATOMIC CHARGES
----------------------
   0 Si:   -0.006322
   1 N :   -0.867830
   2 B :   -1.134302
   3 N :   -0.801256
   4 C :    0.978777
   5 O :    0.547564
   6 O :    1.334452
   7 O :    0.473924
   8 O :    1.302402
   9 O :    0.473908
  10 O :    0.492681
  11 H :   -0.334853
  12 H :   -0.331208
  13 H :   -0.339570
  14 H :   -1.009551
  15 H :   -0.778815

  Mayer bond orders larger than 0.100000
B(  0-Si,  1-N ) :   0.4863 B(  0-Si,  2-B ) :   0.9101 B(  0-Si,  3-N ) :   0.5102
B(  0-Si,  4-C ) :   0.8481 B(  0-Si,  6-O ) :  -0.1676 B(  0-Si,  7-O ) :   0.1276
B(  0-Si,  8-O ) :  -0.1571 B(  1-N ,  7-O ) :   1.1670 B(  1-N ,  9-O ) :   1.2337
B(  2-B ,  6-O ) :   0.5621 B(  2-B ,  8-O ) :   0.3982 B(  3-N ,  5-O ) :   1.0880
B(  3-N , 10-O ) :   1.3077 B(  4-C , 11-H ) :   0.9330 B(  4-C , 12-H ) :   0.9215
B(  4-C , 13-H ) :   0.9227 B(  5-O , 10-O ) :   0.1399 B(  6-O ,  8-O ) :  -0.1260
B(  6-O , 14-H ) :   0.8900 B(  7-O ,  9-O ) :   0.1449 B(  8-O , 15-H ) :   0.9624

MP2 TOTAL ENERGY:     -915.116400282 Eh
FINAL SINGLE POINT ENERGY      -915.116400282189

DIPOLE MOMENT
-------------
                                X             Y             Z
Electronic contribution:     -0.17121       0.93811      -4.93083
Nuclear contribution   :     -1.19069      -1.21048       6.56871
                        -----------------------------------------
Total Dipole Moment    :     -1.36190      -0.27237       1.63788
                        -----------------------------------------
Magnitude (a.u.)       :      2.14746
Magnitude (Debye)      :      5.45842

Rotational constants in cm-1:     0.034450     0.030115     0.022911
Rotational constants in MHz :  1032.780961   902.832389   686.849974

                             ****ORCA TERMINATED NORMALLY****
TOTAL RUN TIME: 0 days 0 hours 37 minutes 16 seconds 475 msec
