                         Program Version 5.0.4 -  RELEASE  -
|  1> ! ri-mp2 aug-cc-pvdz aug-cc-pvdz/c tightscf
|  2> %pal nprocs 16 end
|  3> %maxcore 3800
|  4> %base "DZ_P-N_33_AB"
|  5>
|  6> *xyz 0 1
|  7> N        -2.188451   -0.148088    0.169120
|  8> C        -1.906979   -0.915179    1.362769
|  9> C         0.532299   -0.088309   -0.521403
| 10> C        -2.837876    1.119584    0.433582
| 11> H        -3.050437    1.629674   -0.504260
| 12> H        -3.783407    0.950942    0.955067
| 13> H        -2.227418    1.786164    1.057931
| 14> H        -1.577489   -1.918175    1.095238
| 15> H        -2.813925   -1.004327    1.965267
| 16> H        -1.127798   -0.457380    1.985696
| 17> C         1.036466    1.188945   -0.287368
| 18> C         1.344044   -1.181627   -0.238938
| 19> C         2.622426   -1.006444    0.264520
| 20> C         3.103524    0.268938    0.506324
| 21> C         2.306180    1.368325    0.231879
| 22> H         2.680092    2.367777    0.411732
| 23> H         0.428159    2.054400   -0.522781
| 24> H         3.242029   -1.868505    0.474694
| 25> H         4.100175    0.406954    0.904228
| 26> H         0.972414   -2.183911   -0.412599
| 27> P        -1.172333   -0.240175   -1.186553
| 28> H        -1.138752   -1.649768   -1.303944
| 29> *
| 30>
| 31> $new_job
| 32> ! ri-mp2 aug-cc-pvtz aug-cc-pvtz/c tightscf
| 33> %pal nprocs 16 end
| 34> %maxcore 3800
| 35> %base "TZ_P-N_33_AB"
| 36>
| 37> *xyz 0 1
| 38> N        -2.188451   -0.148088    0.169120
| 39> C        -1.906979   -0.915179    1.362769
| 40> C         0.532299   -0.088309   -0.521403
| 41> C        -2.837876    1.119584    0.433582
| 42> H        -3.050437    1.629674   -0.504260
| 43> H        -3.783407    0.950942    0.955067
| 44> H        -2.227418    1.786164    1.057931
| 45> H        -1.577489   -1.918175    1.095238
| 46> H        -2.813925   -1.004327    1.965267
| 47> H        -1.127798   -0.457380    1.985696
| 48> C         1.036466    1.188945   -0.287368
| 49> C         1.344044   -1.181627   -0.238938
| 50> C         2.622426   -1.006444    0.264520
| 51> C         3.103524    0.268938    0.506324
| 52> C         2.306180    1.368325    0.231879
| 53> H         2.680092    2.367777    0.411732
| 54> H         0.428159    2.054400   -0.522781
| 55> H         3.242029   -1.868505    0.474694
| 56> H         4.100175    0.406954    0.904228
| 57> H         0.972414   -2.183911   -0.412599
| 58> P        -1.172333   -0.240175   -1.186553
| 59> H        -1.138752   -1.649768   -1.303944
| 60> *
| 61>
| 62> $new_job
| 63> ! ri-mp2 aug-cc-pvqz aug-cc-pvqz/c tightscf
| 64> %pal nprocs 16 end
| 65> %maxcore 3800
| 66> %base "QZ_P-N_33_AB"
| 67>
| 68> *xyz 0 1
| 69> N        -2.188451   -0.148088    0.169120
| 70> C        -1.906979   -0.915179    1.362769
| 71> C         0.532299   -0.088309   -0.521403
| 72> C        -2.837876    1.119584    0.433582
| 73> H        -3.050437    1.629674   -0.504260
| 74> H        -3.783407    0.950942    0.955067
| 75> H        -2.227418    1.786164    1.057931
| 76> H        -1.577489   -1.918175    1.095238
| 77> H        -2.813925   -1.004327    1.965267
| 78> H        -1.127798   -0.457380    1.985696
| 79> C         1.036466    1.188945   -0.287368
| 80> C         1.344044   -1.181627   -0.238938
| 81> C         2.622426   -1.006444    0.264520
| 82> C         3.103524    0.268938    0.506324
| 83> C         2.306180    1.368325    0.231879
| 84> H         2.680092    2.367777    0.411732
| 85> H         0.428159    2.054400   -0.522781
| 86> H         3.242029   -1.868505    0.474694
| 87> H         4.100175    0.406954    0.904228
| 88> H         0.972414   -2.183911   -0.412599
| 89> P        -1.172333   -0.240175   -1.186553
| 90> H        -1.138752   -1.649768   -1.303944
| 91> *
| 92>
| 93>
| 94>
| 95>
| 96>                          ****END OF INPUT****
 Total Charge           Charge          ....    0
 Multiplicity           Mult            ....    1
 Number of Electrons    NEL             ....   82
MP2 TOTAL ENERGY:     -706.562865836 Eh
FINAL SINGLE POINT ENERGY      -706.562865836270
MP2 TOTAL ENERGY:     -706.940247711 Eh
FINAL SINGLE POINT ENERGY      -706.940247711368

CARTESIAN COORDINATES (ANGSTROEM)
---------------------------------
  N     -2.188451   -0.148088    0.169120
  C     -1.906979   -0.915179    1.362769
  C      0.532299   -0.088309   -0.521403
  C     -2.837876    1.119584    0.433582
  H     -3.050437    1.629674   -0.504260
  H     -3.783407    0.950942    0.955067
  H     -2.227418    1.786164    1.057931
  H     -1.577489   -1.918175    1.095238
  H     -2.813925   -1.004327    1.965267
  H     -1.127798   -0.457380    1.985696
  C      1.036466    1.188945   -0.287368
  C      1.344044   -1.181627   -0.238938
  C      2.622426   -1.006444    0.264520
  C      3.103524    0.268938    0.506324
  C      2.306180    1.368325    0.231879
  H      2.680092    2.367777    0.411732
  H      0.428159    2.054400   -0.522781
  H      3.242029   -1.868505    0.474694
  H      4.100175    0.406954    0.904228
  H      0.972414   -2.183911   -0.412599
  P     -1.172333   -0.240175   -1.186553
  H     -1.138752   -1.649768   -1.303944

 Multiplicity           Mult            ....    1
 Number of Electrons    NEL             ....   82
 Basis Dimension        Dim             .... 1356

ORBITAL ENERGIES
----------------

  NO   OCC          E(Eh)            E(eV)
   0   2.0000     -79.948297     -2175.5038
   1   2.0000     -15.547858      -423.0787
   2   2.0000     -11.247147      -306.0504
   3   2.0000     -11.245903      -306.0166
   4   2.0000     -11.236766      -305.7679
   5   2.0000     -11.236458      -305.7596
   6   2.0000     -11.236173      -305.7518
   7   2.0000     -11.234147      -305.6967
   8   2.0000     -11.233840      -305.6883
   9   2.0000     -11.230468      -305.5966
  10   2.0000      -7.487048      -203.7329
  11   2.0000      -5.381178      -146.4293
  12   2.0000      -5.381006      -146.4246
  13   2.0000      -5.380246      -146.4039
  14   2.0000      -1.216183       -33.0940
  15   2.0000      -1.158304       -31.5190
  16   2.0000      -1.025716       -27.9111
  17   2.0000      -1.020654       -27.7734
  18   2.0000      -0.957917       -26.0662
  19   2.0000      -0.900892       -24.5145
  20   2.0000      -0.830545       -22.6003
  21   2.0000      -0.829020       -22.5588
  22   2.0000      -0.761722       -20.7275
  23   2.0000      -0.697422       -18.9778
  24   2.0000      -0.640109       -17.4183
  25   2.0000      -0.639831       -17.4107
  26   2.0000      -0.626846       -17.0573
  27   2.0000      -0.617961       -16.8156
  28   2.0000      -0.609090       -16.5742
  29   2.0000      -0.590974       -16.0812
  30   2.0000      -0.552612       -15.0374
  31   2.0000      -0.545940       -14.8558
  32   2.0000      -0.518265       -14.1027
  33   2.0000      -0.513883       -13.9835
  34   2.0000      -0.500808       -13.6277
  35   2.0000      -0.495852       -13.4928
  36   2.0000      -0.480970       -13.0879
  37   2.0000      -0.379940       -10.3387
  38   2.0000      -0.351444        -9.5633
  39   2.0000      -0.342257        -9.3133
  40   2.0000      -0.326145        -8.8749
  41   0.0000       0.022718         0.6182
  42   0.0000       0.028444         0.7740
  43   0.0000       0.028997         0.7891
  44   0.0000       0.036312         0.9881
  45   0.0000       0.039806         1.0832

MULLIKEN ATOMIC CHARGES
-----------------------
   0 N :   -0.420536
   1 C :   -0.902439
   2 C :   -0.147609
   3 C :   -0.915805
   4 H :    0.338073
   5 H :    0.358281
   6 H :    0.311407
   7 H :    0.266440
   8 H :    0.351405
   9 H :    0.354675
  10 C :   -0.350023
  11 C :   -0.372019
  12 C :   -0.296286
  13 C :   -0.348429
  14 C :   -0.260422
  15 H :    0.234526
  16 H :    0.356417
  17 H :    0.241549
  18 H :    0.360171
  19 H :    0.318928
  20 P :    0.696098
  21 H :   -0.174402
Sum of atomic charges:    0.0000000

LOEWDIN ATOMIC CHARGES
----------------------
   0 N :    0.206244
   1 C :    0.665606
   2 C :   -0.260721
   3 C :    0.645563
   4 H :   -0.336145
   5 H :   -0.297993
   6 H :   -0.283130
   7 H :   -0.317883
   8 H :   -0.294257
   9 H :   -0.279258
  10 C :    0.241550
  11 C :    0.249448
  12 C :    0.338415
  13 C :    0.333667
  14 C :    0.337337
  15 H :   -0.320306
  16 H :   -0.337197
  17 H :   -0.320344
  18 H :   -0.320555
  19 H :   -0.345378
  20 P :    1.107424
  21 H :   -0.412086

  Mayer bond orders larger than 0.100000
B(  0-N ,  1-C ) :   0.8806 B(  0-N ,  3-C ) :   0.9048 B(  0-N , 20-P ) :   0.6082
B(  1-C ,  7-H ) :   0.9466 B(  1-C ,  8-H ) :   0.9060 B(  1-C ,  9-H ) :   0.8733
B(  2-C , 10-C ) :   0.9672 B(  2-C , 11-C ) :   0.8751 B(  2-C , 12-C ) :  -0.2758
B(  2-C , 14-C ) :  -0.3066 B(  2-C , 16-H ) :  -0.1219 B(  2-C , 20-P ) :   0.8771
B(  2-C , 21-H ) :  -0.1300 B(  3-C ,  4-H ) :   0.9221 B(  3-C ,  5-H ) :   0.8899
B(  3-C ,  6-H ) :   0.9086 B( 10-C , 12-C ) :   0.1189 B( 10-C , 14-C ) :   1.3202
B( 10-C , 15-H ) :  -0.1288 B( 10-C , 16-H ) :   0.9001 B( 10-C , 20-P ) :  -0.1837
B( 11-C , 12-C ) :   1.3639 B( 11-C , 14-C ) :   0.1708 B( 11-C , 17-H ) :  -0.1393
B( 11-C , 19-H ) :   0.9593 B( 12-C , 13-C ) :   1.1342 B( 12-C , 17-H ) :   1.1300
B( 13-C , 14-C ) :   1.1267 B( 13-C , 18-H ) :   0.9749 B( 14-C , 15-H ) :   1.1310
B( 20-P , 21-H ) :   1.0373

MP2 TOTAL ENERGY:     -707.058233207 Eh
FINAL SINGLE POINT ENERGY      -707.058233207150

DIPOLE MOMENT
-------------
                                X             Y             Z
Electronic contribution:      3.44886      -0.37111      -6.61348
Nuclear contribution   :     -3.21015       0.34358       7.27685
                        -----------------------------------------
Total Dipole Moment    :      0.23871      -0.02753       0.66337
                        -----------------------------------------
Magnitude (a.u.)       :      0.70555
Magnitude (Debye)      :      1.79337

Rotational constants in cm-1:     0.076000     0.023397     0.022252
Rotational constants in MHz :  2278.410787   701.428911   667.100687

                             ****ORCA TERMINATED NORMALLY****
TOTAL RUN TIME: 0 days 1 hours 7 minutes 34 seconds 308 msec
