                         Program Version 5.0.4 -  RELEASE  -
|  1> ! ri-mp2 aug-cc-pvdz aug-cc-pvdz/c tightscf
|  2> %pal nprocs 16 end
|  3> %maxcore 3800
|  4> %base "DZ_P-N_5_AB"
|  5> %scf
|  6> STABPerform true
|  7> STABRestartUHFifUnstable true
|  8> end
|  9>
| 10> *xyz 0 1
| 11> N         1.315625    0.951927   -0.199529
| 12> P         0.797852   -0.634211    0.119550
| 13> C        -1.791173    0.585126    0.174926
| 14> C        -0.971939   -0.570976   -0.377591
| 15> H        -1.399206   -1.528948   -0.066838
| 16> H        -0.990526   -0.565376   -1.469615
| 17> H        -1.389610    1.543250   -0.156922
| 18> H        -2.827911    0.534577   -0.161836
| 19> H        -1.794587    0.578432    1.266440
| 20> H         0.545105   -0.584272    1.520114
| 21> H         2.284274    1.053940   -0.448045
| 22> H         0.973973    1.733172    0.336142
| 23> *
| 24>
| 25> $new_job
| 26> ! ri-mp2 aug-cc-pvtz aug-cc-pvtz/c tightscf
| 27> %pal nprocs 16 end
| 28> %maxcore 3800
| 29> %base "TZ_P-N_5_AB"
| 30>
| 31> *xyz 0 1
| 32> N         1.315625    0.951927   -0.199529
| 33> P         0.797852   -0.634211    0.119550
| 34> C        -1.791173    0.585126    0.174926
| 35> C        -0.971939   -0.570976   -0.377591
| 36> H        -1.399206   -1.528948   -0.066838
| 37> H        -0.990526   -0.565376   -1.469615
| 38> H        -1.389610    1.543250   -0.156922
| 39> H        -2.827911    0.534577   -0.161836
| 40> H        -1.794587    0.578432    1.266440
| 41> H         0.545105   -0.584272    1.520114
| 42> H         2.284274    1.053940   -0.448045
| 43> H         0.973973    1.733172    0.336142
| 44> *
| 45>
| 46> $new_job
| 47> ! ri-mp2 aug-cc-pvqz aug-cc-pvqz/c tightscf
| 48> %pal nprocs 16 end
| 49> %maxcore 3800
| 50> %base "QZ_P-N_5_AB"
| 51>
| 52> *xyz 0 1
| 53> N         1.315625    0.951927   -0.199529
| 54> P         0.797852   -0.634211    0.119550
| 55> C        -1.791173    0.585126    0.174926
| 56> C        -0.971939   -0.570976   -0.377591
| 57> H        -1.399206   -1.528948   -0.066838
| 58> H        -0.990526   -0.565376   -1.469615
| 59> H        -1.389610    1.543250   -0.156922
| 60> H        -2.827911    0.534577   -0.161836
| 61> H        -1.794587    0.578432    1.266440
| 62> H         0.545105   -0.584272    1.520114
| 63> H         2.284274    1.053940   -0.448045
| 64> H         0.973973    1.733172    0.336142
| 65> *
| 66>
| 67>
| 68>
| 69>
| 70>                          ****END OF INPUT****
 Total Charge           Charge          ....    0
 Multiplicity           Mult            ....    1
 Number of Electrons    NEL             ....   42
MP2 TOTAL ENERGY:     -476.216728692 Eh
FINAL SINGLE POINT ENERGY      -476.216728692365
MP2 TOTAL ENERGY:     -476.396646734 Eh
FINAL SINGLE POINT ENERGY      -476.396646733882

CARTESIAN COORDINATES (ANGSTROEM)
---------------------------------
  N      1.315625    0.951927   -0.199529
  P      0.797852   -0.634211    0.119550
  C     -1.791173    0.585126    0.174926
  C     -0.971939   -0.570976   -0.377591
  H     -1.399206   -1.528948   -0.066838
  H     -0.990526   -0.565376   -1.469615
  H     -1.389610    1.543250   -0.156922
  H     -2.827911    0.534577   -0.161836
  H     -1.794587    0.578432    1.266440
  H      0.545105   -0.584272    1.520114
  H      2.284274    1.053940   -0.448045
  H      0.973973    1.733172    0.336142

 Multiplicity           Mult            ....    1
 Number of Electrons    NEL             ....   42
 Basis Dimension        Dim             ....  692

ORBITAL ENERGIES
----------------

  NO   OCC          E(Eh)            E(eV)
   0   2.0000     -79.944321     -2175.3956
   1   2.0000     -15.545090      -423.0034
   2   2.0000     -11.219928      -305.3098
   3   2.0000     -11.216898      -305.2273
   4   2.0000      -7.482864      -203.6191
   5   2.0000      -5.377241      -146.3222
   6   2.0000      -5.376739      -146.3085
   7   2.0000      -5.376054      -146.2899
   8   2.0000      -1.159537       -31.5526
   9   2.0000      -1.031310       -28.0634
  10   2.0000      -0.872748       -23.7487
  11   2.0000      -0.763386       -20.7728
  12   2.0000      -0.672201       -18.2915
  13   2.0000      -0.625583       -17.0230
  14   2.0000      -0.575913       -15.6714
  15   2.0000      -0.560356       -15.2481
  16   2.0000      -0.531139       -14.4530
  17   2.0000      -0.493263       -13.4224
  18   2.0000      -0.474967       -12.9245
  19   2.0000      -0.396589       -10.7917
  20   2.0000      -0.344969        -9.3871
  21   0.0000       0.025151         0.6844
  22   0.0000       0.032402         0.8817
  23   0.0000       0.037523         1.0210
  24   0.0000       0.038345         1.0434
  25   0.0000       0.052667         1.4331

MULLIKEN ATOMIC CHARGES
-----------------------
   0 N :   -0.867367
   1 P :    0.652106
   2 C :   -0.894128
   3 C :   -0.562254
   4 H :    0.285745
   5 H :    0.247358
   6 H :    0.239182
   7 H :    0.321981
   8 H :    0.232525
   9 H :   -0.127287
  10 H :    0.193006
  11 H :    0.279133
Sum of atomic charges:    0.0000000

LOEWDIN ATOMIC CHARGES
----------------------
   0 N :    1.011459
   1 P :    1.087775
   2 C :    0.841592
   3 C :    0.318491
   4 H :   -0.365625
   5 H :   -0.361029
   6 H :   -0.316524
   7 H :   -0.286145
   8 H :   -0.302600
   9 H :   -0.414178
  10 H :   -0.618022
  11 H :   -0.595194

  Mayer bond orders larger than 0.100000
B(  0-N ,  1-P ) :   0.7901 B(  0-N , 10-H ) :   1.0476 B(  0-N , 11-H ) :   0.9356
B(  1-P ,  3-C ) :   0.8149 B(  1-P ,  9-H ) :   0.9159 B(  2-C ,  3-C ) :   0.9764
B(  2-C ,  6-H ) :   0.9322 B(  2-C ,  7-H ) :   0.9116 B(  2-C ,  8-H ) :   0.9507
B(  3-C ,  4-H ) :   0.8904 B(  3-C ,  5-H ) :   0.9067

MP2 TOTAL ENERGY:     -476.451724419 Eh
FINAL SINGLE POINT ENERGY      -476.451724419321

DIPOLE MOMENT
-------------
                                X             Y             Z
Electronic contribution:      5.29816      -2.94425      -0.49463
Nuclear contribution   :     -5.47643       3.45371       0.72098
                        -----------------------------------------
Total Dipole Moment    :     -0.17827       0.50945       0.22635
                        -----------------------------------------
Magnitude (a.u.)       :      0.58528
Magnitude (Debye)      :      1.48767

Rotational constants in cm-1:     0.319624     0.133983     0.105724
Rotational constants in MHz :  9582.083784  4016.696346  3169.524668

                             ****ORCA TERMINATED NORMALLY****
TOTAL RUN TIME: 0 days 0 hours 32 minutes 18 seconds 574 msec
