                         Program Version 5.0.4 -  RELEASE  -
|  1> ! ri-mp2 aug-cc-pvdz aug-cc-pvdz/c tightscf
|  2> %pal nprocs 16 end
|  3> %maxcore 3800
|  4> %base "DZ_B-F_13_AB"
|  5> %scf
|  6> STABPerform true
|  7> STABRestartUHFifUnstable true
|  8> end
|  9>
| 10> *xyz 0 1
| 11> F        -1.765533    1.123677    0.110547
| 12> F        -1.765530   -1.123679    0.110551
| 13> B        -1.083345   -0.000000   -0.041031
| 14> P         0.740233    0.000001   -0.594337
| 15> C         1.402246   -1.444536    0.338455
| 16> C         1.402246    1.444536    0.338459
| 17> H         0.884637   -2.344916    0.010599
| 18> H         1.288722   -1.347361    1.417625
| 19> H         2.459566   -1.564932    0.106189
| 20> H         0.884637    2.344917    0.010605
| 21> H         2.459566    1.564933    0.106194
| 22> H         1.288721    1.347358    1.417628
| 23> *
| 24>
| 25> $new_job
| 26> ! ri-mp2 aug-cc-pvtz aug-cc-pvtz/c tightscf
| 27> %pal nprocs 16 end
| 28> %maxcore 3800
| 29> %base "TZ_B-F_13_AB"
| 30>
| 31> *xyz 0 1
| 32> F        -1.765533    1.123677    0.110547
| 33> F        -1.765530   -1.123679    0.110551
| 34> B        -1.083345   -0.000000   -0.041031
| 35> P         0.740233    0.000001   -0.594337
| 36> C         1.402246   -1.444536    0.338455
| 37> C         1.402246    1.444536    0.338459
| 38> H         0.884637   -2.344916    0.010599
| 39> H         1.288722   -1.347361    1.417625
| 40> H         2.459566   -1.564932    0.106189
| 41> H         0.884637    2.344917    0.010605
| 42> H         2.459566    1.564933    0.106194
| 43> H         1.288721    1.347358    1.417628
| 44> *
| 45>
| 46> $new_job
| 47> ! ri-mp2 aug-cc-pvqz aug-cc-pvqz/c tightscf
| 48> %pal nprocs 16 end
| 49> %maxcore 3800
| 50> %base "QZ_B-F_13_AB"
| 51>
| 52> *xyz 0 1
| 53> F        -1.765533    1.123677    0.110547
| 54> F        -1.765530   -1.123679    0.110551
| 55> B        -1.083345   -0.000000   -0.041031
| 56> P         0.740233    0.000001   -0.594337
| 57> C         1.402246   -1.444536    0.338455
| 58> C         1.402246    1.444536    0.338459
| 59> H         0.884637   -2.344916    0.010599
| 60> H         1.288722   -1.347361    1.417625
| 61> H         2.459566   -1.564932    0.106189
| 62> H         0.884637    2.344917    0.010605
| 63> H         2.459566    1.564933    0.106194
| 64> H         1.288721    1.347358    1.417628
| 65> *
| 66>
| 67>
| 68>
| 69>
| 70>                          ****END OF INPUT****
 Total Charge           Charge          ....    0
 Multiplicity           Mult            ....    1
 Number of Electrons    NEL             ....   56
MP2 TOTAL ENERGY:     -644.602800304 Eh
FINAL SINGLE POINT ENERGY      -644.602800303768
MP2 TOTAL ENERGY:     -644.922261079 Eh
FINAL SINGLE POINT ENERGY      -644.922261079182

CARTESIAN COORDINATES (ANGSTROEM)
---------------------------------
  F     -1.765533    1.123677    0.110547
  F     -1.765530   -1.123679    0.110551
  B     -1.083345   -0.000000   -0.041031
  P      0.740233    0.000001   -0.594337
  C      1.402246   -1.444536    0.338455
  C      1.402246    1.444536    0.338459
  H      0.884637   -2.344916    0.010599
  H      1.288722   -1.347361    1.417625
  H      2.459566   -1.564932    0.106189
  H      0.884637    2.344917    0.010605
  H      2.459566    1.564933    0.106194
  H      1.288721    1.347358    1.417628

 Multiplicity           Mult            ....    1
 Number of Electrons    NEL             ....   56
 Basis Dimension        Dim             ....  760

ORBITAL ENERGIES
----------------

  NO   OCC          E(Eh)            E(eV)
   0   2.0000     -79.932220     -2175.0663
   1   2.0000     -26.310764      -715.9523
   2   2.0000     -26.310747      -715.9518
   3   2.0000     -11.234275      -305.7002
   4   2.0000     -11.234266      -305.6999
   5   2.0000      -7.710043      -209.8009
   6   2.0000      -7.476615      -203.4490
   7   2.0000      -5.371014      -146.1527
   8   2.0000      -5.370959      -146.1512
   9   2.0000      -5.370130      -146.1287
  10   2.0000      -1.643980       -44.7350
  11   2.0000      -1.611280       -43.8451
  12   2.0000      -1.015418       -27.6309
  13   2.0000      -0.950910       -25.8756
  14   2.0000      -0.828390       -22.5416
  15   2.0000      -0.776760       -21.1367
  16   2.0000      -0.759010       -20.6537
  17   2.0000      -0.712687       -19.3932
  18   2.0000      -0.697094       -18.9689
  19   2.0000      -0.658937       -17.9306
  20   2.0000      -0.651996       -17.7417
  21   2.0000      -0.598263       -16.2796
  22   2.0000      -0.592563       -16.1245
  23   2.0000      -0.569252       -15.4901
  24   2.0000      -0.566076       -15.4037
  25   2.0000      -0.477341       -12.9891
  26   2.0000      -0.466969       -12.7069
  27   2.0000      -0.345053        -9.3894
  28   0.0000       0.022363         0.6085
  29   0.0000       0.032966         0.8971
  30   0.0000       0.034054         0.9267
  31   0.0000       0.036616         0.9964
  32   0.0000       0.049867         1.3570

MULLIKEN ATOMIC CHARGES
-----------------------
   0 F :   -0.808414
   1 F :   -0.808413
   2 B :    1.430522
   3 P :    0.519663
   4 C :   -1.127904
   5 C :   -1.127904
   6 H :    0.359806
   7 H :    0.279865
   8 H :    0.321554
   9 H :    0.359806
  10 H :    0.321554
  11 H :    0.279865
Sum of atomic charges:   -0.0000000

LOEWDIN ATOMIC CHARGES
----------------------
   0 F :    0.765371
   1 F :    0.765370
   2 B :   -1.907660
   3 P :    1.009261
   4 C :    0.748462
   5 C :    0.748463
   6 H :   -0.363508
   7 H :   -0.343677
   8 H :   -0.357449
   9 H :   -0.363508
  10 H :   -0.357449
  11 H :   -0.343677

  Mayer bond orders larger than 0.100000
B(  0-F ,  2-B ) :   0.2412 B(  1-F ,  2-B ) :   0.2412 B(  2-B ,  3-P ) :   1.1370
B(  3-P ,  4-C ) :   0.8873 B(  3-P ,  5-C ) :   0.8873 B(  4-C ,  6-H ) :   0.8697
B(  4-C ,  7-H ) :   0.9048 B(  4-C ,  8-H ) :   0.9024 B(  5-C ,  9-H ) :   0.8697
B(  5-C , 10-H ) :   0.9024 B(  5-C , 11-H ) :   0.9048

MP2 TOTAL ENERGY:     -645.021981072 Eh
FINAL SINGLE POINT ENERGY      -645.021981071848

DIPOLE MOMENT
-------------
                                X             Y             Z
Electronic contribution:    -11.60117       0.00000      -2.86903
Nuclear contribution   :     12.37084       0.00000       3.30268
                        -----------------------------------------
Total Dipole Moment    :      0.76966       0.00000       0.43365
                        -----------------------------------------
Magnitude (a.u.)       :      0.88342
Magnitude (Debye)      :      2.24548

Rotational constants in cm-1:     0.124154     0.073584     0.051257
Rotational constants in MHz :  3722.051326  2205.990484  1536.654534

                             ****ORCA TERMINATED NORMALLY****
TOTAL RUN TIME: 0 days 0 hours 37 minutes 16 seconds 17 msec
