                         Program Version 5.0.4 -  RELEASE  -
|  1> ! ri-mp2 aug-cc-pvdz aug-cc-pvdz/c tightscf
|  2> %pal nprocs 16 end
|  3> %maxcore 3800
|  4> %base "DZ_Si-Cl_60_AB"
|  5> %scf
|  6> STABPerform true
|  7> STABRestartUHFifUnstable true
|  8> end
|  9>
| 10> *xyz 0 1
| 11> C        -1.767289   -0.674913   -0.000001
| 12> Si        -0.444073    0.622743   -0.000001
| 13> H        -1.690064   -1.308488   -0.883507
| 14> H        -2.753216   -0.206109   -0.000007
| 15> H        -1.690070   -1.308481    0.883510
| 16> Cl         1.411103   -0.281553    0.000002
| 17> H        -0.517325    1.470278    1.205332
| 18> H        -0.517322    1.470275   -1.205337
| 19> *
| 20>
| 21> $new_job
| 22> ! ri-mp2 aug-cc-pvtz aug-cc-pvtz/c tightscf
| 23> %pal nprocs 16 end
| 24> %maxcore 3800
| 25> %base "TZ_Si-Cl_60_AB"
| 26>
| 27> *xyz 0 1
| 28> C        -1.767289   -0.674913   -0.000001
| 29> Si        -0.444073    0.622743   -0.000001
| 30> H        -1.690064   -1.308488   -0.883507
| 31> H        -2.753216   -0.206109   -0.000007
| 32> H        -1.690070   -1.308481    0.883510
| 33> Cl         1.411103   -0.281553    0.000002
| 34> H        -0.517325    1.470278    1.205332
| 35> H        -0.517322    1.470275   -1.205337
| 36> *
| 37>
| 38> $new_job
| 39> ! ri-mp2 aug-cc-pvqz aug-cc-pvqz/c tightscf
| 40> %pal nprocs 16 end
| 41> %maxcore 3800
| 42> %base "QZ_Si-Cl_60_AB"
| 43>
| 44> *xyz 0 1
| 45> C        -1.767289   -0.674913   -0.000001
| 46> Si        -0.444073    0.622743   -0.000001
| 47> H        -1.690064   -1.308488   -0.883507
| 48> H        -2.753216   -0.206109   -0.000007
| 49> H        -1.690070   -1.308481    0.883510
| 50> Cl         1.411103   -0.281553    0.000002
| 51> H        -0.517325    1.470278    1.205332
| 52> H        -0.517322    1.470275   -1.205337
| 53> *
| 54>
| 55>
| 56>
| 57>
| 58>                          ****END OF INPUT****
 Total Charge           Charge          ....    0
 Multiplicity           Mult            ....    1
 Number of Electrons    NEL             ....   42
MP2 TOTAL ENERGY:     -789.685294929 Eh
FINAL SINGLE POINT ENERGY      -789.685294928842
MP2 TOTAL ENERGY:     -789.829204380 Eh
FINAL SINGLE POINT ENERGY      -789.829204379978

CARTESIAN COORDINATES (ANGSTROEM)
---------------------------------
  C     -1.767289   -0.674913   -0.000001
  Si    -0.444073    0.622743   -0.000001
  H     -1.690064   -1.308488   -0.883507
  H     -2.753216   -0.206109   -0.000007
  H     -1.690070   -1.308481    0.883510
  Cl     1.411103   -0.281553    0.000002
  H     -0.517325    1.470278    1.205332
  H     -0.517322    1.470275   -1.205337

 Multiplicity           Mult            ....    1
 Number of Electrons    NEL             ....   42
 Basis Dimension        Dim             ....  478

ORBITAL ENERGIES
----------------

  NO   OCC          E(Eh)            E(eV)
   0   2.0000    -104.820250     -2852.3040
   1   2.0000     -68.808012     -1872.3612
   2   2.0000     -11.218432      -305.2691
   3   2.0000     -10.547765      -287.0193
   4   2.0000      -8.014570      -218.0875
   5   2.0000      -8.013489      -218.0581
   6   2.0000      -8.013484      -218.0580
   7   2.0000      -6.153709      -167.4509
   8   2.0000      -4.260814      -115.9426
   9   2.0000      -4.259732      -115.9132
  10   2.0000      -4.259411      -115.9045
  11   2.0000      -1.091024       -29.6883
  12   2.0000      -0.962291       -26.1853
  13   2.0000      -0.700711       -19.0673
  14   2.0000      -0.581598       -15.8261
  15   2.0000      -0.579791       -15.7769
  16   2.0000      -0.511997       -13.9321
  17   2.0000      -0.510513       -13.8918
  18   2.0000      -0.501702       -13.6520
  19   2.0000      -0.444003       -12.0819
  20   2.0000      -0.440663       -11.9911
  21   0.0000       0.024247         0.6598
  22   0.0000       0.036510         0.9935
  23   0.0000       0.037447         1.0190
  24   0.0000       0.038674         1.0524
  25   0.0000       0.056160         1.5282

MULLIKEN ATOMIC CHARGES
-----------------------
   0 C :   -0.949964
   1 Si:    1.253042
   2 H :    0.244817
   3 H :    0.245234
   4 H :    0.244818
   5 Cl:   -0.598803
   6 H :   -0.219571
   7 H :   -0.219572
Sum of atomic charges:    0.0000000

LOEWDIN ATOMIC CHARGES
----------------------
   0 C :    0.835530
   1 Si:   -0.005654
   2 H :   -0.371910
   3 H :   -0.365773
   4 H :   -0.371910
   5 Cl:    0.866244
   6 H :   -0.293263
   7 H :   -0.293263

  Mayer bond orders larger than 0.100000
B(  0-C ,  1-Si) :   0.8896 B(  0-C ,  2-H ) :   0.9579 B(  0-C ,  3-H ) :   0.9364
B(  0-C ,  4-H ) :   0.9579 B(  1-Si,  5-Cl) :   0.5059 B(  1-Si,  6-H ) :   0.8736
B(  1-Si,  7-H ) :   0.8736

MP2 TOTAL ENERGY:     -789.875505489 Eh
FINAL SINGLE POINT ENERGY      -789.875505488975

DIPOLE MOMENT
-------------
                                X             Y             Z
Electronic contribution:      8.18134      -0.41899       0.00001
Nuclear contribution   :     -8.96538       0.47223      -0.00001
                        -----------------------------------------
Total Dipole Moment    :     -0.78404       0.05325      -0.00000
                        -----------------------------------------
Magnitude (a.u.)       :      0.78584
Magnitude (Debye)      :      1.99745

Rotational constants in cm-1:     0.537428     0.128470     0.109764
Rotational constants in MHz : 16111.697867  3851.432089  3290.644816

                             ****ORCA TERMINATED NORMALLY****
TOTAL RUN TIME: 0 days 0 hours 12 minutes 5 seconds 698 msec
