                         Program Version 5.0.4 -  RELEASE  -
|  1> ! ri-mp2 aug-cc-pvdz aug-cc-pvdz/c tightscf
|  2> %pal nprocs 16 end
|  3> %maxcore 3800
|  4> %base "DZ_B-F_4_AB"
|  5> %scf
|  6> STABPerform true
|  7> STABRestartUHFifUnstable true
|  8> end
|  9>
| 10> *xyz 0 1
| 11> F        -0.726684   -1.136362    0.000002
| 12> F        -0.726681    1.136363   -0.000003
| 13> N         1.354002   -0.000001    0.000003
| 14> B        -0.036148   -0.000000   -0.000005
| 15> H         1.891505   -0.847807    0.000011
| 16> H         1.891506    0.847804    0.000007
| 17> *
| 18>
| 19> $new_job
| 20> ! ri-mp2 aug-cc-pvtz aug-cc-pvtz/c tightscf
| 21> %pal nprocs 16 end
| 22> %maxcore 3800
| 23> %base "TZ_B-F_4_AB"
| 24>
| 25> *xyz 0 1
| 26> F        -0.726684   -1.136362    0.000002
| 27> F        -0.726681    1.136363   -0.000003
| 28> N         1.354002   -0.000001    0.000003
| 29> B        -0.036148   -0.000000   -0.000005
| 30> H         1.891505   -0.847807    0.000011
| 31> H         1.891506    0.847804    0.000007
| 32> *
| 33>
| 34> $new_job
| 35> ! ri-mp2 aug-cc-pvqz aug-cc-pvqz/c tightscf
| 36> %pal nprocs 16 end
| 37> %maxcore 3800
| 38> %base "QZ_B-F_4_AB"
| 39>
| 40> *xyz 0 1
| 41> F        -0.726684   -1.136362    0.000002
| 42> F        -0.726681    1.136363   -0.000003
| 43> N         1.354002   -0.000001    0.000003
| 44> B        -0.036148   -0.000000   -0.000005
| 45> H         1.891505   -0.847807    0.000011
| 46> H         1.891506    0.847804    0.000007
| 47> *
| 48>
| 49>
| 50>
| 51>
| 52>                          ****END OF INPUT****
 Total Charge           Charge          ....    0
 Multiplicity           Mult            ....    1
 Number of Electrons    NEL             ....   32
MP2 TOTAL ENERGY:     -280.052051118 Eh
FINAL SINGLE POINT ENERGY      -280.052051118487
MP2 TOTAL ENERGY:     -280.299497367 Eh
FINAL SINGLE POINT ENERGY      -280.299497367310

CARTESIAN COORDINATES (ANGSTROEM)
---------------------------------
  F     -0.726684   -1.136362    0.000002
  F     -0.726681    1.136363   -0.000003
  N      1.354002   -0.000001    0.000003
  B     -0.036148   -0.000000   -0.000005
  H      1.891505   -0.847807    0.000011
  H      1.891506    0.847804    0.000007

 Multiplicity           Mult            ....    1
 Number of Electrons    NEL             ....   32
 Basis Dimension        Dim             ....  412

ORBITAL ENERGIES
----------------

  NO   OCC          E(Eh)            E(eV)
   0   2.0000     -26.296166      -715.5551
   1   2.0000     -26.296151      -715.5546
   2   2.0000     -15.566986      -423.5992
   3   2.0000      -7.701079      -209.5570
   4   2.0000      -1.628453       -44.3125
   5   2.0000      -1.597763       -43.4773
   6   2.0000      -1.184378       -32.2286
   7   2.0000      -0.807151       -21.9637
   8   2.0000      -0.761150       -20.7119
   9   2.0000      -0.739930       -20.1345
  10   2.0000      -0.703436       -19.1415
  11   2.0000      -0.681190       -18.5361
  12   2.0000      -0.649550       -17.6751
  13   2.0000      -0.632938       -17.2231
  14   2.0000      -0.625145       -17.0111
  15   2.0000      -0.455789       -12.4027
  16   0.0000       0.021480         0.5845
  17   0.0000       0.037688         1.0255
  18   0.0000       0.042423         1.1544
  19   0.0000       0.043498         1.1836
  20   0.0000       0.059210         1.6112

MULLIKEN ATOMIC CHARGES
-----------------------
   0 F :   -0.745938
   1 F :   -0.745938
   2 N :   -0.534831
   3 B :    1.536836
   4 H :    0.244936
   5 H :    0.244936
Sum of atomic charges:    0.0000000

LOEWDIN ATOMIC CHARGES
----------------------
   0 F :    0.795222
   1 F :    0.795222
   2 N :    1.301633
   3 B :   -1.843599
   4 H :   -0.524238
   5 H :   -0.524239

  Mayer bond orders larger than 0.100000
B(  0-F ,  3-B ) :   0.4460 B(  1-F ,  3-B ) :   0.4460 B(  2-N ,  3-B ) :   1.2066
B(  2-N ,  4-H ) :   0.9793 B(  2-N ,  5-H ) :   0.9793

MP2 TOTAL ENERGY:     -280.378956645 Eh
FINAL SINGLE POINT ENERGY      -280.378956645345

DIPOLE MOMENT
-------------
                                X             Y             Z
Electronic contribution:     -3.78919       0.00000      -0.00002
Nuclear contribution   :      4.87192      -0.00000       0.00002
                        -----------------------------------------
Total Dipole Moment    :      1.08273      -0.00000      -0.00000
                        -----------------------------------------
Magnitude (a.u.)       :      1.08273
Magnitude (Debye)      :      2.75207

Rotational constants in cm-1:     0.333722     0.320793     0.163565
Rotational constants in MHz : 10004.734276  9617.126925  4903.551116

                             ****ORCA TERMINATED NORMALLY****
TOTAL RUN TIME: 0 days 0 hours 3 minutes 28 seconds 349 msec
