                         Program Version 5.0.4 -  RELEASE  -
|  1> ! ri-mp2 aug-cc-pvdz aug-cc-pvdz/c tightscf
|  2> %pal nprocs 16 end
|  3> %maxcore 3800
|  4> %base "DZ_B-F_47_AB"
|  5>
|  6> *xyz 0 1
|  7> F         1.649594   -1.380102   -0.000001
|  8> B         1.194619   -0.147695   -0.000004
|  9> F         2.090402    0.825209    0.000003
| 10> C        -0.321665    0.198434   -0.000001
| 11> N        -1.084878   -0.824384   -0.000001
| 12> O        -2.416863   -0.484167   -0.000001
| 13> H        -2.867847   -1.335317   -0.000000
| 14> C        -0.830578    1.606182    0.000002
| 15> H        -0.008485    2.316956    0.000001
| 16> H        -1.457105    1.783600    0.875146
| 17> H        -1.457109    1.783603   -0.875139
| 18> *
| 19>
| 20> $new_job
| 21> ! ri-mp2 aug-cc-pvtz aug-cc-pvtz/c tightscf
| 22> %pal nprocs 16 end
| 23> %maxcore 3800
| 24> %base "TZ_B-F_47_AB"
| 25>
| 26> *xyz 0 1
| 27> F         1.649594   -1.380102   -0.000001
| 28> B         1.194619   -0.147695   -0.000004
| 29> F         2.090402    0.825209    0.000003
| 30> C        -0.321665    0.198434   -0.000001
| 31> N        -1.084878   -0.824384   -0.000001
| 32> O        -2.416863   -0.484167   -0.000001
| 33> H        -2.867847   -1.335317   -0.000000
| 34> C        -0.830578    1.606182    0.000002
| 35> H        -0.008485    2.316956    0.000001
| 36> H        -1.457105    1.783600    0.875146
| 37> H        -1.457109    1.783603   -0.875139
| 38> *
| 39>
| 40> $new_job
| 41> ! ri-mp2 aug-cc-pvqz aug-cc-pvqz/c tightscf
| 42> %pal nprocs 16 end
| 43> %maxcore 3800
| 44> %base "QZ_B-F_47_AB"
| 45>
| 46> *xyz 0 1
| 47> F         1.649594   -1.380102   -0.000001
| 48> B         1.194619   -0.147695   -0.000004
| 49> F         2.090402    0.825209    0.000003
| 50> C        -0.321665    0.198434   -0.000001
| 51> N        -1.084878   -0.824384   -0.000001
| 52> O        -2.416863   -0.484167   -0.000001
| 53> H        -2.867847   -1.335317   -0.000000
| 54> C        -0.830578    1.606182    0.000002
| 55> H        -0.008485    2.316956    0.000001
| 56> H        -1.457105    1.783600    0.875146
| 57> H        -1.457109    1.783603   -0.875139
| 58> *
| 59>
| 60>
| 61>
| 62>
| 63>                          ****END OF INPUT****
 Total Charge           Charge          ....    0
 Multiplicity           Mult            ....    1
 Number of Electrons    NEL             ....   54
MP2 TOTAL ENERGY:     -432.196848935 Eh
FINAL SINGLE POINT ENERGY      -432.196848935261
MP2 TOTAL ENERGY:     -432.571131519 Eh
FINAL SINGLE POINT ENERGY      -432.571131518959

CARTESIAN COORDINATES (ANGSTROEM)
---------------------------------
  F      1.649594   -1.380102   -0.000001
  B      1.194619   -0.147695   -0.000004
  F      2.090402    0.825209    0.000003
  C     -0.321665    0.198434   -0.000001
  N     -1.084878   -0.824384   -0.000001
  O     -2.416863   -0.484167   -0.000001
  H     -2.867847   -1.335317   -0.000000
  C     -0.830578    1.606182    0.000002
  H     -0.008485    2.316956    0.000001
  H     -1.457105    1.783600    0.875146
  H     -1.457109    1.783603   -0.875139

 Multiplicity           Mult            ....    1
 Number of Electrons    NEL             ....   54
 Basis Dimension        Dim             ....  744

ORBITAL ENERGIES
----------------

  NO   OCC          E(Eh)            E(eV)
   0   2.0000     -26.315059      -716.0691
   1   2.0000     -26.309665      -715.9224
   2   2.0000     -20.618584      -561.0602
   3   2.0000     -15.650010      -425.8584
   4   2.0000     -11.270355      -306.6820
   5   2.0000     -11.235297      -305.7280
   6   2.0000      -7.713156      -209.8857
   7   2.0000      -1.647092       -44.8196
   8   2.0000      -1.614448       -43.9314
   9   2.0000      -1.458031       -39.6750
  10   2.0000      -1.180286       -32.1172
  11   2.0000      -0.994362       -27.0580
  12   2.0000      -0.845738       -23.0137
  13   2.0000      -0.799795       -21.7635
  14   2.0000      -0.764648       -20.8071
  15   2.0000      -0.727735       -19.8027
  16   2.0000      -0.716349       -19.4928
  17   2.0000      -0.711655       -19.3651
  18   2.0000      -0.660656       -17.9774
  19   2.0000      -0.658678       -17.9235
  20   2.0000      -0.640640       -17.4327
  21   2.0000      -0.630928       -17.1684
  22   2.0000      -0.582414       -15.8483
  23   2.0000      -0.566297       -15.4097
  24   2.0000      -0.535033       -14.5590
  25   2.0000      -0.452870       -12.3232
  26   2.0000      -0.407883       -11.0991
  27   0.0000       0.022203         0.6042
  28   0.0000       0.031752         0.8640
  29   0.0000       0.034585         0.9411
  30   0.0000       0.039344         1.0706
  31   0.0000       0.050483         1.3737

MULLIKEN ATOMIC CHARGES
-----------------------
   0 F :   -0.832162
   1 B :    1.799545
   2 F :   -0.811015
   3 C :    0.143970
   4 N :   -0.184874
   5 O :   -0.550901
   6 H :    0.309891
   7 C :   -0.730681
   8 H :    0.356477
   9 H :    0.249876
  10 H :    0.249875
Sum of atomic charges:    0.0000000

LOEWDIN ATOMIC CHARGES
----------------------
   0 F :    0.826109
   1 B :   -1.787844
   2 F :    0.829146
   3 C :   -0.273704
   4 N :    0.280949
   5 O :    1.029101
   6 H :   -0.844217
   7 C :    0.849288
   8 H :   -0.318210
   9 H :   -0.295309
  10 H :   -0.295309

  Mayer bond orders larger than 0.100000
B(  0-F ,  1-B ) :   0.2925 B(  1-B ,  2-F ) :   0.3286 B(  1-B ,  3-C ) :   0.9165
B(  2-F ,  3-C ) :  -0.1161 B(  3-C ,  4-N ) :   1.6334 B(  3-C ,  7-C ) :   0.8498
B(  4-N ,  5-O ) :   0.8131 B(  5-O ,  6-H ) :   0.9457 B(  7-C ,  8-H ) :   0.9235
B(  7-C ,  9-H ) :   0.9378 B(  7-C , 10-H ) :   0.9378

MP2 TOTAL ENERGY:     -432.691945548 Eh
FINAL SINGLE POINT ENERGY      -432.691945547873

DIPOLE MOMENT
-------------
                                X             Y             Z
Electronic contribution:      9.24702      -4.63693      -0.00001
Nuclear contribution   :     -9.95618       4.93802       0.00001
                        -----------------------------------------
Total Dipole Moment    :     -0.70916       0.30109      -0.00001
                        -----------------------------------------
Magnitude (a.u.)       :      0.77043
Magnitude (Debye)      :      1.95829

Rotational constants in cm-1:     0.154665     0.059628     0.043378
Rotational constants in MHz :  4636.737522  1787.597534  1300.443137

                             ****ORCA TERMINATED NORMALLY****
TOTAL RUN TIME: 0 days 0 hours 7 minutes 11 seconds 5 msec
