                         Program Version 5.0.4 -  RELEASE  -
|  1> ! ri-mp2 aug-cc-pvdz aug-cc-pvdz/c tightscf
|  2> %pal nprocs 16 end
|  3> %maxcore 3800
|  4> %base "DZ_P-Si_65_AB"
|  5>
|  6> *xyz 0 1
|  7> C         0.645433    0.117829    0.078286
|  8> C         1.248268   -1.082649    0.456163
|  9> C         2.616878   -1.259883    0.363298
| 10> C         3.416714   -0.234299   -0.114723
| 11> C         2.839996    0.963531   -0.498006
| 12> C         1.468227    1.134251   -0.401743
| 13> P        -2.139385   -1.362006   -0.947624
| 14> H         3.061581   -2.200315    0.661591
| 15> H         4.487588   -0.370632   -0.189698
| 16> H         3.459020    1.767825   -0.873800
| 17> H         1.037159    2.079221   -0.707884
| 18> H         0.638581   -1.899723    0.824407
| 19> Si        -1.209141    0.332792    0.226891
| 20> C        -1.719662    2.015845   -0.404262
| 21> H        -1.440167    2.155492   -1.448763
| 22> H        -1.259012    2.813570    0.181943
| 23> H        -2.801660    2.132371   -0.332272
| 24> C        -1.740297    0.125901    2.007977
| 25> H        -1.298686    0.906830    2.629381
| 26> H        -1.421751   -0.837760    2.406370
| 27> H        -2.825094    0.187795    2.108154
| 28> H        -1.822289   -0.820603   -2.215286
| 29> H        -3.449856   -0.826224   -0.928194
| 30> *
| 31>
| 32> $new_job
| 33> ! ri-mp2 aug-cc-pvtz aug-cc-pvtz/c tightscf
| 34> %pal nprocs 16 end
| 35> %maxcore 3800
| 36> %base "TZ_P-Si_65_AB"
| 37>
| 38> *xyz 0 1
| 39> C         0.645433    0.117829    0.078286
| 40> C         1.248268   -1.082649    0.456163
| 41> C         2.616878   -1.259883    0.363298
| 42> C         3.416714   -0.234299   -0.114723
| 43> C         2.839996    0.963531   -0.498006
| 44> C         1.468227    1.134251   -0.401743
| 45> P        -2.139385   -1.362006   -0.947624
| 46> H         3.061581   -2.200315    0.661591
| 47> H         4.487588   -0.370632   -0.189698
| 48> H         3.459020    1.767825   -0.873800
| 49> H         1.037159    2.079221   -0.707884
| 50> H         0.638581   -1.899723    0.824407
| 51> Si        -1.209141    0.332792    0.226891
| 52> C        -1.719662    2.015845   -0.404262
| 53> H        -1.440167    2.155492   -1.448763
| 54> H        -1.259012    2.813570    0.181943
| 55> H        -2.801660    2.132371   -0.332272
| 56> C        -1.740297    0.125901    2.007977
| 57> H        -1.298686    0.906830    2.629381
| 58> H        -1.421751   -0.837760    2.406370
| 59> H        -2.825094    0.187795    2.108154
| 60> H        -1.822289   -0.820603   -2.215286
| 61> H        -3.449856   -0.826224   -0.928194
| 62> *
| 63>
| 64> $new_job
| 65> ! ri-mp2 aug-cc-pvqz aug-cc-pvqz/c tightscf
| 66> %pal nprocs 16 end
| 67> %maxcore 3800
| 68> %base "QZ_P-Si_65_AB"
| 69>
| 70> *xyz 0 1
| 71> C         0.645433    0.117829    0.078286
| 72> C         1.248268   -1.082649    0.456163
| 73> C         2.616878   -1.259883    0.363298
| 74> C         3.416714   -0.234299   -0.114723
| 75> C         2.839996    0.963531   -0.498006
| 76> C         1.468227    1.134251   -0.401743
| 77> P        -2.139385   -1.362006   -0.947624
| 78> H         3.061581   -2.200315    0.661591
| 79> H         4.487588   -0.370632   -0.189698
| 80> H         3.459020    1.767825   -0.873800
| 81> H         1.037159    2.079221   -0.707884
| 82> H         0.638581   -1.899723    0.824407
| 83> Si        -1.209141    0.332792    0.226891
| 84> C        -1.719662    2.015845   -0.404262
| 85> H        -1.440167    2.155492   -1.448763
| 86> H        -1.259012    2.813570    0.181943
| 87> H        -2.801660    2.132371   -0.332272
| 88> C        -1.740297    0.125901    2.007977
| 89> H        -1.298686    0.906830    2.629381
| 90> H        -1.421751   -0.837760    2.406370
| 91> H        -2.825094    0.187795    2.108154
| 92> H        -1.822289   -0.820603   -2.215286
| 93> H        -3.449856   -0.826224   -0.928194
| 94> *
| 95>
| 96>
| 97>
| 98>
| 99>                          ****END OF INPUT****
 Total Charge           Charge          ....    0
 Multiplicity           Mult            ....    1
 Number of Electrons    NEL             ....   90
MP2 TOTAL ENERGY:     -941.605207629 Eh
FINAL SINGLE POINT ENERGY      -941.605207629041
MP2 TOTAL ENERGY:     -941.968261873 Eh
FINAL SINGLE POINT ENERGY      -941.968261872808

CARTESIAN COORDINATES (ANGSTROEM)
---------------------------------
  C      0.645433    0.117829    0.078286
  C      1.248268   -1.082649    0.456163
  C      2.616878   -1.259883    0.363298
  C      3.416714   -0.234299   -0.114723
  C      2.839996    0.963531   -0.498006
  C      1.468227    1.134251   -0.401743
  P     -2.139385   -1.362006   -0.947624
  H      3.061581   -2.200315    0.661591
  H      4.487588   -0.370632   -0.189698
  H      3.459020    1.767825   -0.873800
  H      1.037159    2.079221   -0.707884
  H      0.638581   -1.899723    0.824407
  Si    -1.209141    0.332792    0.226891
  C     -1.719662    2.015845   -0.404262
  H     -1.440167    2.155492   -1.448763
  H     -1.259012    2.813570    0.181943
  H     -2.801660    2.132371   -0.332272
  C     -1.740297    0.125901    2.007977
  H     -1.298686    0.906830    2.629381
  H     -1.421751   -0.837760    2.406370
  H     -2.825094    0.187795    2.108154
  H     -1.822289   -0.820603   -2.215286
  H     -3.449856   -0.826224   -0.928194

 Multiplicity           Mult            ....    1
 Number of Electrons    NEL             ....   90
 Basis Dimension        Dim             .... 1406

ORBITAL ENERGIES
----------------

  NO   OCC          E(Eh)            E(eV)
   0   2.0000     -79.918053     -2174.6808
   1   2.0000     -68.763609     -1871.1529
   2   2.0000     -11.235670      -305.7381
   3   2.0000     -11.235454      -305.7323
   4   2.0000     -11.234992      -305.7197
   5   2.0000     -11.231864      -305.6345
   6   2.0000     -11.231615      -305.6278
   7   2.0000     -11.217361      -305.2399
   8   2.0000     -11.204159      -304.8807
   9   2.0000     -11.201040      -304.7958
  10   2.0000      -7.463286      -203.0863
  11   2.0000      -6.112444      -166.3281
  12   2.0000      -5.357238      -145.7779
  13   2.0000      -5.356834      -145.7669
  14   2.0000      -5.356242      -145.7508
  15   2.0000      -4.219094      -114.8074
  16   2.0000      -4.218601      -114.7940
  17   2.0000      -4.218488      -114.7909
  18   2.0000      -1.154941       -31.4275
  19   2.0000      -1.018881       -27.7252
  20   2.0000      -1.018257       -27.7082
  21   2.0000      -0.961828       -26.1727
  22   2.0000      -0.931663       -25.3519
  23   2.0000      -0.839599       -22.8466
  24   2.0000      -0.825442       -22.4614
  25   2.0000      -0.818332       -22.2680
  26   2.0000      -0.712296       -19.3826
  27   2.0000      -0.647832       -17.6284
  28   2.0000      -0.626487       -17.0476
  29   2.0000      -0.614086       -16.7101
  30   2.0000      -0.589781       -16.0488
  31   2.0000      -0.575034       -15.6475
  32   2.0000      -0.568553       -15.4711
  33   2.0000      -0.551113       -14.9966
  34   2.0000      -0.547923       -14.9098
  35   2.0000      -0.534424       -14.5424
  36   2.0000      -0.517121       -14.0716
  37   2.0000      -0.504985       -13.7413
  38   2.0000      -0.493820       -13.4375
  39   2.0000      -0.453322       -12.3355
  40   2.0000      -0.437059       -11.8930
  41   2.0000      -0.423214       -11.5162
  42   2.0000      -0.355994        -9.6871
  43   2.0000      -0.339746        -9.2450
  44   2.0000      -0.333275        -9.0689
  45   0.0000       0.019780         0.5382
  46   0.0000       0.026750         0.7279
  47   0.0000       0.029400         0.8000
  48   0.0000       0.035922         0.9775
  49   0.0000       0.039123         1.0646

MULLIKEN ATOMIC CHARGES
-----------------------
   0 C :   -0.000372
   1 C :   -0.728196
   2 C :   -0.090991
   3 C :   -0.422253
   4 C :   -0.114116
   5 C :   -0.722390
   6 P :    0.004522
   7 H :    0.255865
   8 H :    0.362267
   9 H :    0.268338
  10 H :    0.221250
  11 H :    0.238785
  12 Si:    1.754033
  13 C :   -1.208935
  14 H :    0.257775
  15 H :    0.246917
  16 H :    0.353092
  17 C :   -1.315030
  18 H :    0.291805
  19 H :    0.301618
  20 H :    0.313756
  21 H :   -0.103604
  22 H :   -0.164139
Sum of atomic charges:    0.0000000

LOEWDIN ATOMIC CHARGES
----------------------
   0 C :   -0.065630
   1 C :    0.252403
   2 C :    0.345367
   3 C :    0.336769
   4 C :    0.345163
   5 C :    0.273006
   6 P :    1.522253
   7 H :   -0.318651
   8 H :   -0.319503
   9 H :   -0.319558
  10 H :   -0.351122
  11 H :   -0.339070
  12 Si:   -0.138921
  13 C :    0.946107
  14 H :   -0.343036
  15 H :   -0.334635
  16 H :   -0.342473
  17 C :    0.944430
  18 H :   -0.335429
  19 H :   -0.348208
  20 H :   -0.343288
  21 H :   -0.529978
  22 H :   -0.535996

  Mayer bond orders larger than 0.100000
B(  0-C ,  1-C ) :   0.7600 B(  0-C ,  2-C ) :  -0.3798 B(  0-C ,  3-C ) :  -0.1616
B(  0-C ,  4-C ) :  -0.4554 B(  0-C ,  5-C ) :   0.7138 B(  0-C ,  8-H ) :   0.1206
B(  0-C , 11-H ) :  -0.1221 B(  0-C , 12-Si) :   0.6232 B(  0-C , 17-C ) :   0.1151
B(  1-C ,  2-C ) :   1.2858 B(  1-C ,  3-C ) :   0.2331 B(  1-C ,  4-C ) :   0.1515
B(  1-C ,  5-C ) :   0.1461 B(  1-C ,  7-H ) :  -0.1608 B(  1-C ,  8-H ) :  -0.1206
B(  1-C , 11-H ) :   1.0319 B(  2-C ,  3-C ) :   1.0704 B(  2-C ,  5-C ) :   0.1152
B(  2-C ,  7-H ) :   1.1222 B(  3-C ,  4-C ) :   1.0958 B(  3-C ,  5-C ) :   0.1924
B(  3-C ,  7-H ) :  -0.1016 B(  3-C ,  8-H ) :   0.9708 B(  3-C ,  9-H ) :  -0.1081
B(  4-C ,  5-C ) :   1.2957 B(  4-C ,  9-H ) :   1.1033 B(  5-C ,  8-H ) :  -0.1277
B(  5-C ,  9-H ) :  -0.1637 B(  5-C , 10-H ) :   1.0718 B(  5-C , 12-Si) :  -0.1688
B(  6-P , 12-Si) :   0.6198 B(  6-P , 21-H ) :   0.9542 B(  6-P , 22-H ) :   0.9278
B( 12-Si, 13-C ) :   0.8339 B( 12-Si, 17-C ) :   0.6415 B( 13-C , 14-H ) :   0.9780
B( 13-C , 15-H ) :   0.9412 B( 13-C , 16-H ) :   0.9382 B( 17-C , 18-H ) :   0.9237
B( 17-C , 19-H ) :   0.9405 B( 17-C , 20-H ) :   0.9377

MP2 TOTAL ENERGY:     -942.081380009 Eh
FINAL SINGLE POINT ENERGY      -942.081380009357

DIPOLE MOMENT
-------------
                                X             Y             Z
Electronic contribution:      1.71016      -5.84174      -2.86722
Nuclear contribution   :     -1.53070       6.39408       3.01850
                        -----------------------------------------
Total Dipole Moment    :      0.17945       0.55234       0.15127
                        -----------------------------------------
Magnitude (a.u.)       :      0.60014
Magnitude (Debye)      :      1.52543

Rotational constants in cm-1:     0.052276     0.020505     0.018473
Rotational constants in MHz :  1567.208246   614.713715   553.809817

                             ****ORCA TERMINATED NORMALLY****
TOTAL RUN TIME: 0 days 1 hours 15 minutes 12 seconds 911 msec
