                         Program Version 5.0.4 -  RELEASE  -
|  1> ! ri-mp2 aug-cc-pvdz aug-cc-pvdz/c tightscf
|  2> %pal nprocs 16 end
|  3> %maxcore 3800
|  4> %base "DZ_B-F_48_A"
|  5> %scf
|  6> STABPerform true
|  7> STABRestartUHFifUnstable true
|  8> end
|  9>
| 10> *xyz 0 2
| 11> F        -3.090077   -0.766789    0.004307
| 12> B        -2.137207   -0.120800   -0.585222
| 13> C        -0.804178    0.387822    0.089173
| 14> O        -0.727037    1.432032    0.658605
| 15> O         0.242821   -0.482021   -0.087296
| 16> C         1.562360   -0.026535   -0.152627
| 17> O         1.841978    1.041403   -0.577829
| 18> C         2.492636   -1.088987    0.326896
| 19> H         2.282687   -2.027175   -0.184881
| 20> H         2.328890   -1.252570    1.392428
| 21> H         3.518158   -0.780259    0.151311
| 22> *
| 23>
| 24> $new_job
| 25> ! ri-mp2 aug-cc-pvtz aug-cc-pvtz/c tightscf
| 26> %pal nprocs 16 end
| 27> %maxcore 3800
| 28> %base "TZ_B-F_48_A"
| 29>
| 30> *xyz 0 2
| 31> F        -3.090077   -0.766789    0.004307
| 32> B        -2.137207   -0.120800   -0.585222
| 33> C        -0.804178    0.387822    0.089173
| 34> O        -0.727037    1.432032    0.658605
| 35> O         0.242821   -0.482021   -0.087296
| 36> C         1.562360   -0.026535   -0.152627
| 37> O         1.841978    1.041403   -0.577829
| 38> C         2.492636   -1.088987    0.326896
| 39> H         2.282687   -2.027175   -0.184881
| 40> H         2.328890   -1.252570    1.392428
| 41> H         3.518158   -0.780259    0.151311
| 42> *
| 43>
| 44> $new_job
| 45> ! ri-mp2 aug-cc-pvqz aug-cc-pvqz/c tightscf
| 46> %pal nprocs 16 end
| 47> %maxcore 3800
| 48> %base "QZ_B-F_48_A"
| 49>
| 50> *xyz 0 2
| 51> F        -3.090077   -0.766789    0.004307
| 52> B        -2.137207   -0.120800   -0.585222
| 53> C        -0.804178    0.387822    0.089173
| 54> O        -0.727037    1.432032    0.658605
| 55> O         0.242821   -0.482021   -0.087296
| 56> C         1.562360   -0.026535   -0.152627
| 57> O         1.841978    1.041403   -0.577829
| 58> C         2.492636   -1.088987    0.326896
| 59> H         2.282687   -2.027175   -0.184881
| 60> H         2.328890   -1.252570    1.392428
| 61> H         3.518158   -0.780259    0.151311
| 62> *
| 63>
| 64>
| 65>
| 66>
| 67>                          ****END OF INPUT****
 Total Charge           Charge          ....    0
 Multiplicity           Mult            ....    2
 Number of Electrons    NEL             ....   59
MP2 TOTAL ENERGY:     -465.362083925 Eh
FINAL SINGLE POINT ENERGY      -465.362083924685
MP2 TOTAL ENERGY:     -465.754978964 Eh
FINAL SINGLE POINT ENERGY      -465.754978964389

CARTESIAN COORDINATES (ANGSTROEM)
---------------------------------
  F     -3.090077   -0.766789    0.004307
  B     -2.137207   -0.120800   -0.585222
  C     -0.804178    0.387822    0.089173
  O     -0.727037    1.432032    0.658605
  O      0.242821   -0.482021   -0.087296
  C      1.562360   -0.026535   -0.152627
  O      1.841978    1.041403   -0.577829
  C      2.492636   -1.088987    0.326896
  H      2.282687   -2.027175   -0.184881
  H      2.328890   -1.252570    1.392428
  H      3.518158   -0.780259    0.151311

 Multiplicity           Mult            ....    2
 Number of Electrons    NEL             ....   59
 Basis Dimension        Dim             ....  778

ORBITAL ENERGIES
----------------
                 SPIN UP ORBITALS
  NO   OCC          E(Eh)            E(eV)
   0   1.0000     -26.355169      -717.1606
   1   1.0000     -20.636714      -561.5535
   2   1.0000     -20.583384      -560.1024
   3   1.0000     -20.573283      -559.8275
   4   1.0000     -11.408337      -310.4366
   5   1.0000     -11.396928      -310.1262
   6   1.0000     -11.259554      -306.3880
   7   1.0000      -7.725935      -210.2334
   8   1.0000      -1.674744       -45.5721
   9   1.0000      -1.509929       -41.0873
  10   1.0000      -1.435638       -39.0657
  11   1.0000      -1.389402       -37.8075
  12   1.0000      -1.056142       -28.7391
  13   1.0000      -0.937983       -25.5238
  14   1.0000      -0.841205       -22.8903
  15   1.0000      -0.783114       -21.3096
  16   1.0000      -0.751127       -20.4392
  17   1.0000      -0.735485       -20.0136
  18   1.0000      -0.723542       -19.6886
  19   1.0000      -0.713831       -19.4243
  20   1.0000      -0.699523       -19.0350
  21   1.0000      -0.650330       -17.6964
  22   1.0000      -0.625775       -17.0282
  23   1.0000      -0.601345       -16.3634
  24   1.0000      -0.585666       -15.9368
  25   1.0000      -0.550710       -14.9856
  26   1.0000      -0.504969       -13.7409
  27   1.0000      -0.503274       -13.6948
  28   1.0000      -0.470822       -12.8117
  29   1.0000      -0.383976       -10.4485
  30   0.0000       0.019401         0.5279
  31   0.0000       0.031130         0.8471
  32   0.0000       0.033715         0.9174
  33   0.0000       0.035699         0.9714
  34   0.0000       0.045841         1.2474

                 SPIN DOWN ORBITALS
  NO   OCC          E(Eh)            E(eV)
   0   1.0000     -26.351907      -717.0718
   1   1.0000     -20.637149      -561.5654
   2   1.0000     -20.578474      -559.9687
   3   1.0000     -20.573377      -559.8301
   4   1.0000     -11.408146      -310.4314
   5   1.0000     -11.395470      -310.0865
   6   1.0000     -11.259544      -306.3878
   7   1.0000      -7.706135      -209.6946
   8   1.0000      -1.665933       -45.3323
   9   1.0000      -1.508878       -41.0586
  10   1.0000      -1.430439       -38.9242
  11   1.0000      -1.385461       -37.7003
  12   1.0000      -1.055283       -28.7157
  13   1.0000      -0.927745       -25.2452
  14   1.0000      -0.828560       -22.5463
  15   1.0000      -0.768505       -20.9121
  16   1.0000      -0.745215       -20.2783
  17   1.0000      -0.724079       -19.7032
  18   1.0000      -0.713202       -19.4072
  19   1.0000      -0.711271       -19.3547
  20   1.0000      -0.697586       -18.9823
  21   1.0000      -0.643664       -17.5150
  22   1.0000      -0.620116       -16.8742
  23   1.0000      -0.600155       -16.3310
  24   1.0000      -0.579738       -15.7755
  25   1.0000      -0.540328       -14.7031
  26   1.0000      -0.500459       -13.6182
  27   1.0000      -0.490256       -13.3406
  28   1.0000      -0.455373       -12.3913
  29   0.0000       0.017815         0.4848
  30   0.0000       0.026318         0.7162
  31   0.0000       0.033935         0.9234
  32   0.0000       0.035924         0.9775
  33   0.0000       0.044403         1.2083

MULLIKEN ATOMIC CHARGES AND SPIN POPULATIONS
--------------------------------------------
   0 F :   -0.693030   -0.014382
   1 B :    0.971123    0.987575
   2 C :    0.749273   -0.073502
   3 O :   -0.683837    0.106710
   4 O :   -0.675531   -0.011206
   5 C :    0.882963    0.005981
   6 O :   -0.677958   -0.001035
   7 C :   -0.767659    0.000039
   8 H :    0.296356   -0.000062
   9 H :    0.283075   -0.000100
  10 H :    0.315227   -0.000019
Sum of atomic charges         :    0.0000000

LOEWDIN ATOMIC CHARGES AND SPIN POPULATIONS
-------------------------------------------
   0 F :    0.735705    0.152371
   1 B :   -0.724301    0.572449
   2 C :   -1.036841    0.174069
   3 O :    0.659938    0.087015
   4 O :    0.745659    0.009208
   5 C :   -1.059176    0.004548
   6 O :    0.720717   -0.001154
   7 C :    0.872271    0.000994
   8 H :   -0.302488    0.000187
   9 H :   -0.295903    0.000181
  10 H :   -0.315580    0.000131

  Mayer bond orders larger than 0.100000
B(  0-F ,  1-B ) :   0.4649 B(  1-B ,  2-C ) :   0.8641 B(  2-C ,  3-O ) :   1.5758
B(  2-C ,  4-O ) :   0.9539 B(  4-O ,  5-C ) :   0.8928 B(  5-C ,  6-O ) :   1.5348
B(  5-C ,  7-C ) :   0.9594 B(  7-C ,  8-H ) :   0.9103 B(  7-C ,  9-H ) :   0.9050
B(  7-C , 10-H ) :   0.9507

MP2 TOTAL ENERGY:     -465.883534384 Eh
FINAL SINGLE POINT ENERGY      -465.883534384099

DIPOLE MOMENT
-------------
                                X             Y             Z
Electronic contribution:    -11.98565       1.50427      -1.71291
Nuclear contribution   :     12.25527      -3.00952       1.73145
                        -----------------------------------------
Total Dipole Moment    :      0.26962      -1.50526       0.01854
                        -----------------------------------------
Magnitude (a.u.)       :      1.52933
Magnitude (Debye)      :      3.88724

Rotational constants in cm-1:     0.157920     0.037614     0.032699
Rotational constants in MHz :  4734.324682  1127.650701   980.304274

                             ****ORCA TERMINATED NORMALLY****
TOTAL RUN TIME: 0 days 2 hours 19 minutes 7 seconds 991 msec
