                         Program Version 5.0.4 -  RELEASE  -
|  1> ! ri-mp2 aug-cc-pvdz aug-cc-pvdz/c tightscf
|  2> %pal nprocs 16 end
|  3> %maxcore 3800
|  4> %base "DZ_S-Cl_42_AB"
|  5> %scf
|  6> STABPerform true
|  7> STABRestartUHFifUnstable true
|  8> end
|  9>
| 10> *xyz 0 1
| 11> Cl         1.829224    0.305238   -0.000002
| 12> S         0.230451   -0.964082    0.000006
| 13> C        -1.216441    0.090755   -0.000002
| 14> O        -2.259260   -0.510603   -0.000002
| 15> N        -1.055009    1.420013   -0.000005
| 16> H        -0.144789    1.843511    0.000000
| 17> H        -1.881445    1.992951   -0.000006
| 18> *
| 19>
| 20> $new_job
| 21> ! ri-mp2 aug-cc-pvtz aug-cc-pvtz/c tightscf
| 22> %pal nprocs 16 end
| 23> %maxcore 3800
| 24> %base "TZ_S-Cl_42_AB"
| 25>
| 26> *xyz 0 1
| 27> Cl         1.829224    0.305238   -0.000002
| 28> S         0.230451   -0.964082    0.000006
| 29> C        -1.216441    0.090755   -0.000002
| 30> O        -2.259260   -0.510603   -0.000002
| 31> N        -1.055009    1.420013   -0.000005
| 32> H        -0.144789    1.843511    0.000000
| 33> H        -1.881445    1.992951   -0.000006
| 34> *
| 35>
| 36> $new_job
| 37> ! ri-mp2 aug-cc-pvqz aug-cc-pvqz/c tightscf
| 38> %pal nprocs 16 end
| 39> %maxcore 3800
| 40> %base "QZ_S-Cl_42_AB"
| 41>
| 42> *xyz 0 1
| 43> Cl         1.829224    0.305238   -0.000002
| 44> S         0.230451   -0.964082    0.000006
| 45> C        -1.216441    0.090755   -0.000002
| 46> O        -2.259260   -0.510603   -0.000002
| 47> N        -1.055009    1.420013   -0.000005
| 48> H        -0.144789    1.843511    0.000000
| 49> H        -1.881445    1.992951   -0.000006
| 50> *
| 51>
| 52>
| 53>
| 54>
| 55>                          ****END OF INPUT****
 Total Charge           Charge          ....    0
 Multiplicity           Mult            ....    1
 Number of Electrons    NEL             ....   56
MP2 TOTAL ENERGY:    -1026.204521240 Eh
FINAL SINGLE POINT ENERGY     -1026.204521239740
MP2 TOTAL ENERGY:    -1026.463158286 Eh
FINAL SINGLE POINT ENERGY     -1026.463158285682

CARTESIAN COORDINATES (ANGSTROEM)
---------------------------------
  Cl     1.829224    0.305238   -0.000002
  S      0.230451   -0.964082    0.000006
  C     -1.216441    0.090755   -0.000002
  O     -2.259260   -0.510603   -0.000002
  N     -1.055009    1.420013   -0.000005
  H     -0.144789    1.843511    0.000000
  H     -1.881445    1.992951   -0.000006

 Multiplicity           Mult            ....    1
 Number of Electrons    NEL             ....   56
 Basis Dimension        Dim             ....  500

ORBITAL ENERGIES
----------------

  NO   OCC          E(Eh)            E(eV)
   0   2.0000    -104.876447     -2853.8332
   1   2.0000     -92.036082     -2504.4291
   2   2.0000     -20.552031      -559.2492
   3   2.0000     -15.613954      -424.8773
   4   2.0000     -11.406299      -310.3812
   5   2.0000     -10.600866      -288.4642
   6   2.0000      -9.034456      -245.8401
   7   2.0000      -8.067850      -219.5374
   8   2.0000      -8.066004      -219.4871
   9   2.0000      -8.065762      -219.4805
  10   2.0000      -6.715517      -182.7385
  11   2.0000      -6.713753      -182.6905
  12   2.0000      -6.712586      -182.6588
  13   2.0000      -1.425999       -38.8034
  14   2.0000      -1.253959       -34.1220
  15   2.0000      -1.162741       -31.6398
  16   2.0000      -0.981588       -26.7104
  17   2.0000      -0.824896       -22.4466
  18   2.0000      -0.760299       -20.6888
  19   2.0000      -0.693457       -18.8699
  20   2.0000      -0.623333       -16.9617
  21   2.0000      -0.618966       -16.8429
  22   2.0000      -0.540766       -14.7150
  23   2.0000      -0.530551       -14.4370
  24   2.0000      -0.503656       -13.7052
  25   2.0000      -0.450681       -12.2637
  26   2.0000      -0.437401       -11.9023
  27   2.0000      -0.389063       -10.5869
  28   0.0000       0.019963         0.5432
  29   0.0000       0.037565         1.0222
  30   0.0000       0.052310         1.4234
  31   0.0000       0.058795         1.5999
  32   0.0000       0.073953         2.0124

MULLIKEN ATOMIC CHARGES
-----------------------
   0 Cl:   -0.288080
   1 S :    0.368742
   2 C :    0.539232
   3 O :   -0.637227
   4 N :   -0.618783
   5 H :    0.389379
   6 H :    0.246737
Sum of atomic charges:    0.0000000

LOEWDIN ATOMIC CHARGES
----------------------
   0 Cl:    0.520727
   1 S :    0.418282
   2 C :   -1.427362
   3 O :    0.549852
   4 N :    1.104521
   5 H :   -0.665256
   6 H :   -0.500764

  Mayer bond orders larger than 0.100000
B(  0-Cl,  1-S ) :   0.9514 B(  1-S ,  2-C ) :   1.0672 B(  2-C ,  3-O ) :   1.6055
B(  2-C ,  4-N ) :   1.1456 B(  3-O ,  4-N ) :   0.1421 B(  4-N ,  5-H ) :   0.8724
B(  4-N ,  6-H ) :   0.9757

MP2 TOTAL ENERGY:    -1026.549569001 Eh
FINAL SINGLE POINT ENERGY     -1026.549569000744

DIPOLE MOMENT
-------------
                                X             Y             Z
Electronic contribution:      4.98201      -2.03510       0.00001
Nuclear contribution   :     -4.42403       3.23382      -0.00000
                        -----------------------------------------
Total Dipole Moment    :      0.55798       1.19872       0.00000
                        -----------------------------------------
Magnitude (a.u.)       :      1.32222
Magnitude (Debye)      :      3.36082

Rotational constants in cm-1:     0.231575     0.070565     0.054084
Rotational constants in MHz :  6942.444740  2115.473227  1621.405276

                             ****ORCA TERMINATED NORMALLY****
TOTAL RUN TIME: 0 days 0 hours 11 minutes 47 seconds 205 msec
