                         Program Version 5.0.4 -  RELEASE  -
|  1> ! ri-mp2 aug-cc-pvdz aug-cc-pvdz/c tightscf
|  2> %pal nprocs 16 end
|  3> %maxcore 3800
|  4> %base "DZ_B-F_78_AB"
|  5> %scf
|  6> STABPerform true
|  7> STABRestartUHFifUnstable true
|  8> end
|  9>
| 10> *xyz 0 1
| 11> B         1.080168   -0.000000   -0.040772
| 12> F         1.773467   -1.131855   -0.013625
| 13> F         1.773462    1.131859   -0.013624
| 14> N        -0.305802   -0.000003   -0.204217
| 15> C        -1.377091   -0.000005    0.436418
| 16> C        -2.721968    0.000002   -0.204492
| 17> H        -2.634237    0.000008   -1.288004
| 18> H        -3.286941    0.876620    0.120347
| 19> H        -3.286942   -0.876621    0.120337
| 20> H        -1.380113   -0.000001    1.534387
| 21> *
| 22>
| 23> $new_job
| 24> ! ri-mp2 aug-cc-pvtz aug-cc-pvtz/c tightscf
| 25> %pal nprocs 16 end
| 26> %maxcore 3800
| 27> %base "TZ_B-F_78_AB"
| 28>
| 29> *xyz 0 1
| 30> B         1.080168   -0.000000   -0.040772
| 31> F         1.773467   -1.131855   -0.013625
| 32> F         1.773462    1.131859   -0.013624
| 33> N        -0.305802   -0.000003   -0.204217
| 34> C        -1.377091   -0.000005    0.436418
| 35> C        -2.721968    0.000002   -0.204492
| 36> H        -2.634237    0.000008   -1.288004
| 37> H        -3.286941    0.876620    0.120347
| 38> H        -3.286942   -0.876621    0.120337
| 39> H        -1.380113   -0.000001    1.534387
| 40> *
| 41>
| 42> $new_job
| 43> ! ri-mp2 aug-cc-pvqz aug-cc-pvqz/c tightscf
| 44> %pal nprocs 16 end
| 45> %maxcore 3800
| 46> %base "QZ_B-F_78_AB"
| 47>
| 48> *xyz 0 1
| 49> B         1.080168   -0.000000   -0.040772
| 50> F         1.773467   -1.131855   -0.013625
| 51> F         1.773462    1.131859   -0.013624
| 52> N        -0.305802   -0.000003   -0.204217
| 53> C        -1.377091   -0.000005    0.436418
| 54> C        -2.721968    0.000002   -0.204492
| 55> H        -2.634237    0.000008   -1.288004
| 56> H        -3.286941    0.876620    0.120347
| 57> H        -3.286942   -0.876621    0.120337
| 58> H        -1.380113   -0.000001    1.534387
| 59> *
| 60>
| 61>
| 62>
| 63>
| 64>                          ****END OF INPUT****
 Total Charge           Charge          ....    0
 Multiplicity           Mult            ....    1
 Number of Electrons    NEL             ....   46
MP2 TOTAL ENERGY:     -357.187219179 Eh
FINAL SINGLE POINT ENERGY      -357.187219179302
MP2 TOTAL ENERGY:     -357.503322000 Eh
FINAL SINGLE POINT ENERGY      -357.503321999517

CARTESIAN COORDINATES (ANGSTROEM)
---------------------------------
  B      1.080168   -0.000000   -0.040772
  F      1.773467   -1.131855   -0.013625
  F      1.773462    1.131859   -0.013624
  N     -0.305802   -0.000003   -0.204217
  C     -1.377091   -0.000005    0.436418
  C     -2.721968    0.000002   -0.204492
  H     -2.634237    0.000008   -1.288004
  H     -3.286941    0.876620    0.120347
  H     -3.286942   -0.876621    0.120337
  H     -1.380113   -0.000001    1.534387

 Multiplicity           Mult            ....    1
 Number of Electrons    NEL             ....   46
 Basis Dimension        Dim             ....  664

ORBITAL ENERGIES
----------------

  NO   OCC          E(Eh)            E(eV)
   0   2.0000     -26.294365      -715.5060
   1   2.0000     -26.294348      -715.5056
   2   2.0000     -15.556325      -423.3091
   3   2.0000     -11.321711      -308.0794
   4   2.0000     -11.242501      -305.9240
   5   2.0000      -7.706556      -209.7061
   6   2.0000      -1.627249       -44.2797
   7   2.0000      -1.595587       -43.4181
   8   2.0000      -1.239194       -33.7202
   9   2.0000      -1.019775       -27.7495
  10   2.0000      -0.853113       -23.2144
  11   2.0000      -0.789690       -21.4886
  12   2.0000      -0.747124       -20.3303
  13   2.0000      -0.740445       -20.1485
  14   2.0000      -0.701245       -19.0819
  15   2.0000      -0.656310       -17.8591
  16   2.0000      -0.646060       -17.5802
  17   2.0000      -0.637269       -17.3410
  18   2.0000      -0.611092       -16.6287
  19   2.0000      -0.600742       -16.3470
  20   2.0000      -0.563092       -15.3225
  21   2.0000      -0.463093       -12.6014
  22   2.0000      -0.413523       -11.2525
  23   0.0000       0.021279         0.5790
  24   0.0000       0.030291         0.8243
  25   0.0000       0.034947         0.9510
  26   0.0000       0.039159         1.0656
  27   0.0000       0.050980         1.3872

MULLIKEN ATOMIC CHARGES
-----------------------
   0 B :    1.520838
   1 F :   -0.752299
   2 F :   -0.752299
   3 N :   -0.444846
   4 C :   -0.112336
   5 C :   -0.751382
   6 H :    0.304197
   7 H :    0.269544
   8 H :    0.269542
   9 H :    0.449041
Sum of atomic charges:    0.0000000

LOEWDIN ATOMIC CHARGES
----------------------
   0 B :   -1.969123
   1 F :    0.782470
   2 F :    0.782470
   3 N :    0.616089
   4 C :    0.097251
   5 C :    0.904101
   6 H :   -0.315051
   7 H :   -0.296242
   8 H :   -0.296241
   9 H :   -0.305724

  Mayer bond orders larger than 0.100000
B(  0-B ,  1-F ) :   0.4911 B(  0-B ,  2-F ) :   0.4911 B(  0-B ,  3-N ) :   1.1090
B(  1-F ,  3-N ) :  -0.1446 B(  2-F ,  3-N ) :  -0.1446 B(  3-N ,  4-C ) :   1.6831
B(  4-C ,  5-C ) :   0.9811 B(  4-C ,  9-H ) :   0.7411 B(  5-C ,  6-H ) :   0.9139
B(  5-C ,  7-H ) :   0.9324 B(  5-C ,  8-H ) :   0.9324

MP2 TOTAL ENERGY:     -357.603669674 Eh
FINAL SINGLE POINT ENERGY      -357.603669674171

DIPOLE MOMENT
-------------
                                X             Y             Z
Electronic contribution:     12.80747      -0.00000      -0.02588
Nuclear contribution   :    -14.22632       0.00000       0.51876
                        -----------------------------------------
Total Dipole Moment    :     -1.41885      -0.00000       0.49288
                        -----------------------------------------
Magnitude (a.u.)       :      1.50202
Magnitude (Debye)      :      3.81784

Rotational constants in cm-1:     0.292183     0.060007     0.052081
Rotational constants in MHz :  8759.428055  1798.970248  1561.338793

                             ****ORCA TERMINATED NORMALLY****
TOTAL RUN TIME: 0 days 0 hours 25 minutes 45 seconds 501 msec
