                         Program Version 5.0.4 -  RELEASE  -
|  1> ! ri-mp2 aug-cc-pvdz aug-cc-pvdz/c tightscf
|  2> %pal nprocs 16 end
|  3> %maxcore 3800
|  4> %base "DZ_S-F_41_AB"
|  5> %scf
|  6> STABPerform true
|  7> STABRestartUHFifUnstable true
|  8> end
|  9>
| 10> *xyz 0 1
| 11> F        -1.773786   -0.874887   -0.602098
| 12> S        -1.172230    0.070777    0.562306
| 13> C         1.675434   -0.213534   -0.002854
| 14> N         2.553236   -0.932857    0.166129
| 15> S         0.424655    0.909547   -0.295238
| 16> *
| 17>
| 18> $new_job
| 19> ! ri-mp2 aug-cc-pvtz aug-cc-pvtz/c tightscf
| 20> %pal nprocs 16 end
| 21> %maxcore 3800
| 22> %base "TZ_S-F_41_AB"
| 23>
| 24> *xyz 0 1
| 25> F        -1.773786   -0.874887   -0.602098
| 26> S        -1.172230    0.070777    0.562306
| 27> C         1.675434   -0.213534   -0.002854
| 28> N         2.553236   -0.932857    0.166129
| 29> S         0.424655    0.909547   -0.295238
| 30> *
| 31>
| 32> $new_job
| 33> ! ri-mp2 aug-cc-pvqz aug-cc-pvqz/c tightscf
| 34> %pal nprocs 16 end
| 35> %maxcore 3800
| 36> %base "QZ_S-F_41_AB"
| 37>
| 38> *xyz 0 1
| 39> F        -1.773786   -0.874887   -0.602098
| 40> S        -1.172230    0.070777    0.562306
| 41> C         1.675434   -0.213534   -0.002854
| 42> N         2.553236   -0.932857    0.166129
| 43> S         0.424655    0.909547   -0.295238
| 44> *
| 45>
| 46>
| 47>
| 48>
| 49>                          ****END OF INPUT****
 Total Charge           Charge          ....    0
 Multiplicity           Mult            ....    1
 Number of Electrons    NEL             ....   54
MP2 TOTAL ENERGY:     -987.552127373 Eh
FINAL SINGLE POINT ENERGY      -987.552127372602
MP2 TOTAL ENERGY:     -987.817576019 Eh
FINAL SINGLE POINT ENERGY      -987.817576019024

CARTESIAN COORDINATES (ANGSTROEM)
---------------------------------
  F     -1.773786   -0.874887   -0.602098
  S     -1.172230    0.070777    0.562306
  C      1.675434   -0.213534   -0.002854
  N      2.553236   -0.932857    0.166129
  S      0.424655    0.909547   -0.295238

 Multiplicity           Mult            ....    1
 Number of Electrons    NEL             ....   54
 Basis Dimension        Dim             ....  408

ORBITAL ENERGIES
----------------

  NO   OCC          E(Eh)            E(eV)
   0   2.0000     -92.096060     -2506.0612
   1   2.0000     -92.069597     -2505.3411
   2   2.0000     -26.342625      -716.8193
   3   2.0000     -15.603648      -424.5969
   4   2.0000     -11.312296      -307.8232
   5   2.0000      -9.088187      -247.3021
   6   2.0000      -9.068669      -246.7710
   7   2.0000      -6.769148      -184.1979
   8   2.0000      -6.767629      -184.1566
   9   2.0000      -6.765963      -184.1112
  10   2.0000      -6.749970      -183.6760
  11   2.0000      -6.748611      -183.6390
  12   2.0000      -6.747839      -183.6180
  13   2.0000      -1.643429       -44.7200
  14   2.0000      -1.256230       -34.1837
  15   2.0000      -1.134341       -30.8670
  16   2.0000      -0.955995       -26.0139
  17   2.0000      -0.758014       -20.6266
  18   2.0000      -0.724952       -19.7269
  19   2.0000      -0.715636       -19.4734
  20   2.0000      -0.657032       -17.8788
  21   2.0000      -0.584074       -15.8934
  22   2.0000      -0.562400       -15.3037
  23   2.0000      -0.549718       -14.9586
  24   2.0000      -0.480640       -13.0789
  25   2.0000      -0.435351       -11.8465
  26   2.0000      -0.424518       -11.5517
  27   0.0000       0.034925         0.9504
  28   0.0000       0.036111         0.9826
  29   0.0000       0.047854         1.3022
  30   0.0000       0.055733         1.5166
  31   0.0000       0.072235         1.9656

MULLIKEN ATOMIC CHARGES
-----------------------
   0 F :   -0.564928
   1 S :    0.549622
   2 C :    0.000739
   3 N :   -0.453090
   4 S :    0.467658
Sum of atomic charges:    0.0000000

LOEWDIN ATOMIC CHARGES
----------------------
   0 F :    0.014538
   1 S :    0.119106
   2 C :   -0.970161
   3 N :    0.255065
   4 S :    0.581453

  Mayer bond orders larger than 0.100000
B(  0-F ,  1-S ) :   0.6386 B(  1-S ,  4-S ) :   1.2374 B(  2-C ,  3-N ) :   2.6938
B(  2-C ,  4-S ) :   0.8629

MP2 TOTAL ENERGY:     -987.906111635 Eh
FINAL SINGLE POINT ENERGY      -987.906111634639

DIPOLE MOMENT
-------------
                                X             Y             Z
Electronic contribution:     -2.41148       0.16661      -0.39937
Nuclear contribution   :      1.66322       0.76971       0.54581
                        -----------------------------------------
Total Dipole Moment    :     -0.74826       0.93632       0.14644
                        -----------------------------------------
Magnitude (a.u.)       :      1.20749
Magnitude (Debye)      :      3.06920

Rotational constants in cm-1:     0.227377     0.066156     0.058417
Rotational constants in MHz :  6816.580297  1983.310323  1751.289199

                             ****ORCA TERMINATED NORMALLY****
TOTAL RUN TIME: 0 days 0 hours 6 minutes 11 seconds 731 msec
