                         Program Version 5.0.4 -  RELEASE  -
|  1> ! ri-mp2 aug-cc-pvdz aug-cc-pvdz/c tightscf
|  2> %pal nprocs 16 end
|  3> %maxcore 3800
|  4> %base "DZ_B-P_2_AB"
|  5>
|  6> *xyz 0 1
|  7> C         0.444946   -1.550297   -0.238882
|  8> C         1.673265   -2.137365   -0.170572
|  9> C         2.825787   -1.357114    0.033507
| 10> C         2.718068   -0.004609    0.151089
| 11> C         1.460192    0.634585    0.079188
| 12> C         0.294344   -0.150390   -0.109572
| 13> H        -0.428694   -2.164164   -0.405817
| 14> H         1.764074   -3.210079   -0.276779
| 15> H         3.795038   -1.834217    0.089820
| 16> H         3.599648    0.606279    0.299590
| 17> C        -0.972980    0.500552   -0.163262
| 18> C        -1.034006    1.865013   -0.064441
| 19> C         1.345762    2.038130    0.183055
| 20> C         0.127645    2.638959    0.103927
| 21> H         2.244120    2.625580    0.323657
| 22> H         0.040944    3.714539    0.180436
| 23> H        -1.992308    2.366044   -0.104929
| 24> B        -2.999483   -1.438904    1.035626
| 25> P        -2.501877   -0.446515   -0.428087
| 26> H        -4.157822   -1.651682    1.196132
| 27> H        -2.180715   -1.993552    1.692558
| 28> H        -3.456849    0.568718   -0.575720
| 29> *
| 30>
| 31> $new_job
| 32> ! ri-mp2 aug-cc-pvtz aug-cc-pvtz/c tightscf
| 33> %pal nprocs 16 end
| 34> %maxcore 3800
| 35> %base "TZ_B-P_2_AB"
| 36>
| 37> *xyz 0 1
| 38> C         0.444946   -1.550297   -0.238882
| 39> C         1.673265   -2.137365   -0.170572
| 40> C         2.825787   -1.357114    0.033507
| 41> C         2.718068   -0.004609    0.151089
| 42> C         1.460192    0.634585    0.079188
| 43> C         0.294344   -0.150390   -0.109572
| 44> H        -0.428694   -2.164164   -0.405817
| 45> H         1.764074   -3.210079   -0.276779
| 46> H         3.795038   -1.834217    0.089820
| 47> H         3.599648    0.606279    0.299590
| 48> C        -0.972980    0.500552   -0.163262
| 49> C        -1.034006    1.865013   -0.064441
| 50> C         1.345762    2.038130    0.183055
| 51> C         0.127645    2.638959    0.103927
| 52> H         2.244120    2.625580    0.323657
| 53> H         0.040944    3.714539    0.180436
| 54> H        -1.992308    2.366044   -0.104929
| 55> B        -2.999483   -1.438904    1.035626
| 56> P        -2.501877   -0.446515   -0.428087
| 57> H        -4.157822   -1.651682    1.196132
| 58> H        -2.180715   -1.993552    1.692558
| 59> H        -3.456849    0.568718   -0.575720
| 60> *
| 61>
| 62> $new_job
| 63> ! ri-mp2 aug-cc-pvqz aug-cc-pvqz/c tightscf
| 64> %pal nprocs 16 end
| 65> %maxcore 3800
| 66> %base "QZ_B-P_2_AB"
| 67>
| 68> *xyz 0 1
| 69> C         0.444946   -1.550297   -0.238882
| 70> C         1.673265   -2.137365   -0.170572
| 71> C         2.825787   -1.357114    0.033507
| 72> C         2.718068   -0.004609    0.151089
| 73> C         1.460192    0.634585    0.079188
| 74> C         0.294344   -0.150390   -0.109572
| 75> H        -0.428694   -2.164164   -0.405817
| 76> H         1.764074   -3.210079   -0.276779
| 77> H         3.795038   -1.834217    0.089820
| 78> H         3.599648    0.606279    0.299590
| 79> C        -0.972980    0.500552   -0.163262
| 80> C        -1.034006    1.865013   -0.064441
| 81> C         1.345762    2.038130    0.183055
| 82> C         0.127645    2.638959    0.103927
| 83> H         2.244120    2.625580    0.323657
| 84> H         0.040944    3.714539    0.180436
| 85> H        -1.992308    2.366044   -0.104929
| 86> B        -2.999483   -1.438904    1.035626
| 87> P        -2.501877   -0.446515   -0.428087
| 88> H        -4.157822   -1.651682    1.196132
| 89> H        -2.180715   -1.993552    1.692558
| 90> H        -3.456849    0.568718   -0.575720
| 91> *
| 92>
| 93>
| 94>
| 95>
| 96>                          ****END OF INPUT****
 Total Charge           Charge          ....    0
 Multiplicity           Mult            ....    1
 Number of Electrons    NEL             ....   90
MP2 TOTAL ENERGY:     -751.513895272 Eh
FINAL SINGLE POINT ENERGY      -751.513895271574
MP2 TOTAL ENERGY:     -751.912268190 Eh
FINAL SINGLE POINT ENERGY      -751.912268189547

CARTESIAN COORDINATES (ANGSTROEM)
---------------------------------
  C      0.444946   -1.550297   -0.238882
  C      1.673265   -2.137365   -0.170572
  C      2.825787   -1.357114    0.033507
  C      2.718068   -0.004609    0.151089
  C      1.460192    0.634585    0.079188
  C      0.294344   -0.150390   -0.109572
  H     -0.428694   -2.164164   -0.405817
  H      1.764074   -3.210079   -0.276779
  H      3.795038   -1.834217    0.089820
  H      3.599648    0.606279    0.299590
  C     -0.972980    0.500552   -0.163262
  C     -1.034006    1.865013   -0.064441
  C      1.345762    2.038130    0.183055
  C      0.127645    2.638959    0.103927
  H      2.244120    2.625580    0.323657
  H      0.040944    3.714539    0.180436
  H     -1.992308    2.366044   -0.104929
  B     -2.999483   -1.438904    1.035626
  P     -2.501877   -0.446515   -0.428087
  H     -4.157822   -1.651682    1.196132
  H     -2.180715   -1.993552    1.692558
  H     -3.456849    0.568718   -0.575720

 Multiplicity           Mult            ....    1
 Number of Electrons    NEL             ....   90
 Basis Dimension        Dim             .... 1424

ORBITAL ENERGIES
----------------

  NO   OCC          E(Eh)            E(eV)
   0   2.0000     -79.929629     -2174.9958
   1   2.0000     -11.252885      -306.2066
   2   2.0000     -11.249126      -306.1043
   3   2.0000     -11.245482      -306.0051
   4   2.0000     -11.240948      -305.8818
   5   2.0000     -11.238601      -305.8179
   6   2.0000     -11.237429      -305.7860
   7   2.0000     -11.236924      -305.7723
   8   2.0000     -11.236653      -305.7649
   9   2.0000     -11.235642      -305.7374
  10   2.0000     -11.234883      -305.7167
  11   2.0000      -7.607684      -207.0156
  12   2.0000      -7.476333      -203.4414
  13   2.0000      -5.371072      -146.1543
  14   2.0000      -5.370758      -146.1458
  15   2.0000      -5.370463      -146.1377
  16   2.0000      -1.187770       -32.3209
  17   2.0000      -1.120793       -30.4983
  18   2.0000      -1.063100       -28.9284
  19   2.0000      -1.017118       -27.6772
  20   2.0000      -0.994574       -27.0637
  21   2.0000      -0.883494       -24.0411
  22   2.0000      -0.852188       -23.1892
  23   2.0000      -0.845796       -23.0153
  24   2.0000      -0.791026       -21.5249
  25   2.0000      -0.712403       -19.3855
  26   2.0000      -0.704937       -19.1823
  27   2.0000      -0.686231       -18.6733
  28   2.0000      -0.661293       -17.9947
  29   2.0000      -0.624347       -16.9893
  30   2.0000      -0.611873       -16.6499
  31   2.0000      -0.592873       -16.1329
  32   2.0000      -0.571966       -15.5640
  33   2.0000      -0.563304       -15.3283
  34   2.0000      -0.547269       -14.8919
  35   2.0000      -0.529486       -14.4081
  36   2.0000      -0.508851       -13.8465
  37   2.0000      -0.495473       -13.4825
  38   2.0000      -0.482997       -13.1430
  39   2.0000      -0.465066       -12.6551
  40   2.0000      -0.452552       -12.3146
  41   2.0000      -0.405609       -11.0372
  42   2.0000      -0.343845        -9.3565
  43   2.0000      -0.327389        -8.9087
  44   2.0000      -0.286805        -7.8044
  45   0.0000       0.021162         0.5758
  46   0.0000       0.024754         0.6736
  47   0.0000       0.026852         0.7307
  48   0.0000       0.034737         0.9452
  49   0.0000       0.035609         0.9690

MULLIKEN ATOMIC CHARGES
-----------------------
   0 C :   -0.406969
   1 C :   -0.574105
   2 C :   -0.377686
   3 C :   -0.541253
   4 C :    0.907777
   5 C :    0.938378
   6 H :    0.236634
   7 H :    0.214750
   8 H :    0.294967
   9 H :    0.175507
  10 C :    0.160486
  11 C :   -0.839314
  12 C :   -0.676924
  13 C :   -0.282776
  14 H :    0.211777
  15 H :    0.260027
  16 H :    0.217849
  17 B :    0.271468
  18 P :    0.454007
  19 H :   -0.280845
  20 H :   -0.128059
  21 H :   -0.235696
Sum of atomic charges:   -0.0000000

LOEWDIN ATOMIC CHARGES
----------------------
   0 C :    0.313423
   1 C :    0.362939
   2 C :    0.356861
   3 C :    0.354939
   4 C :   -0.115835
   5 C :   -0.176677
   6 H :   -0.382001
   7 H :   -0.317189
   8 H :   -0.319990
   9 H :   -0.319039
  10 C :   -0.254290
  11 C :    0.258694
  12 C :    0.357474
  13 C :    0.361279
  14 H :   -0.317393
  15 H :   -0.318532
  16 H :   -0.352665
  17 B :    0.141519
  18 P :    1.300876
  19 H :   -0.263264
  20 H :   -0.241593
  21 H :   -0.429534

  Mayer bond orders larger than 0.100000
B(  0-C ,  1-C ) :   1.3239 B(  0-C ,  3-C ) :   0.1384 B(  0-C ,  4-C ) :  -0.2273
B(  0-C ,  5-C ) :   0.6536 B(  0-C ,  6-H ) :   0.9736 B(  0-C ,  7-H ) :  -0.1822
B(  0-C , 10-C ) :  -0.1175 B(  0-C , 18-P ) :  -0.1107 B(  1-C ,  2-C ) :   1.1741
B(  1-C ,  3-C ) :   0.1314 B(  1-C ,  5-C ) :  -0.3429 B(  1-C ,  7-H ) :   1.1796
B(  2-C ,  3-C ) :   1.2675 B(  2-C ,  4-C ) :  -0.2921 B(  2-C ,  8-H ) :   1.1011
B(  3-C ,  4-C ) :   0.6665 B(  3-C ,  5-C ) :  -0.3786 B(  3-C ,  8-H ) :  -0.2085
B(  3-C ,  9-H ) :   1.1461 B(  3-C , 12-C ) :  -0.1465 B(  4-C ,  5-C ) :   0.9858
B(  4-C ,  9-H ) :  -0.1730 B(  4-C , 10-C ) :  -0.5744 B(  4-C , 12-C ) :   0.4863
B(  4-C , 13-C ) :  -0.4237 B(  4-C , 14-H ) :  -0.1849 B(  5-C ,  6-H ) :  -0.2235
B(  5-C , 10-C ) :   0.3063 B(  5-C , 13-C ) :   0.1610 B(  5-C , 18-P ) :  -0.2309
B(  6-H , 10-C ) :   0.1520 B( 10-C , 11-C ) :   0.7444 B( 10-C , 13-C ) :  -0.3495
B( 10-C , 18-P ) :   0.7476 B( 10-C , 21-H ) :  -0.2738 B( 11-C , 12-C ) :   0.4289
B( 11-C , 13-C ) :   1.2038 B( 11-C , 15-H ) :  -0.1849 B( 11-C , 16-H ) :   1.0488
B( 11-C , 18-P ) :  -0.1077 B( 12-C , 13-C ) :   1.3372 B( 12-C , 14-H ) :   1.0775
B( 12-C , 15-H ) :  -0.2382 B( 13-C , 15-H ) :   1.1727 B( 17-B , 18-P ) :   1.2889
B( 17-B , 19-H ) :   0.9329 B( 17-B , 20-H ) :   0.9260 B( 18-P , 21-H ) :   0.9405

MP2 TOTAL ENERGY:     -752.038775455 Eh
FINAL SINGLE POINT ENERGY      -752.038775455129

DIPOLE MOMENT
-------------
                                X             Y             Z
Electronic contribution:     -3.64681      -0.21531      -1.76558
Nuclear contribution   :      3.95813       0.60169       1.95799
                        -----------------------------------------
Total Dipole Moment    :      0.31132       0.38639       0.19241
                        -----------------------------------------
Magnitude (a.u.)       :      0.53220
Magnitude (Debye)      :      1.35274

Rotational constants in cm-1:     0.042668     0.024659     0.016381
Rotational constants in MHz :  1279.145815   739.259346   491.102619

                             ****ORCA TERMINATED NORMALLY****
TOTAL RUN TIME: 0 days 1 hours 35 minutes 0 seconds 306 msec
