                         Program Version 5.0.4 -  RELEASE  -
|  1> ! ri-mp2 aug-cc-pvdz aug-cc-pvdz/c tightscf
|  2> %pal nprocs 16 end
|  3> %maxcore 3800
|  4> %base "DZ_S-Cl_43_A"
|  5> %scf
|  6> STABPerform true
|  7> STABRestartUHFifUnstable true
|  8> end
|  9>
| 10> *xyz 0 2
| 11> S        -1.761586   -0.341219   -0.000002
| 12> C        -0.104321    0.250980    0.000000
| 13> O         0.007858    1.459253   -0.000003
| 14> N         0.906382   -0.631994    0.000001
| 15> C         2.296587   -0.225943    0.000006
| 16> H         0.676541   -1.610553    0.000008
| 17> H         2.329934    0.859461   -0.000023
| 18> H         2.808893   -0.594873   -0.888717
| 19> H         2.808875   -0.594824    0.888760
| 20> *
| 21>
| 22> $new_job
| 23> ! ri-mp2 aug-cc-pvtz aug-cc-pvtz/c tightscf
| 24> %pal nprocs 16 end
| 25> %maxcore 3800
| 26> %base "TZ_S-Cl_43_A"
| 27>
| 28> *xyz 0 2
| 29> S        -1.761586   -0.341219   -0.000002
| 30> C        -0.104321    0.250980    0.000000
| 31> O         0.007858    1.459253   -0.000003
| 32> N         0.906382   -0.631994    0.000001
| 33> C         2.296587   -0.225943    0.000006
| 34> H         0.676541   -1.610553    0.000008
| 35> H         2.329934    0.859461   -0.000023
| 36> H         2.808893   -0.594873   -0.888717
| 37> H         2.808875   -0.594824    0.888760
| 38> *
| 39>
| 40> $new_job
| 41> ! ri-mp2 aug-cc-pvqz aug-cc-pvqz/c tightscf
| 42> %pal nprocs 16 end
| 43> %maxcore 3800
| 44> %base "QZ_S-Cl_43_A"
| 45>
| 46> *xyz 0 2
| 47> S        -1.761586   -0.341219   -0.000002
| 48> C        -0.104321    0.250980    0.000000
| 49> O         0.007858    1.459253   -0.000003
| 50> N         0.906382   -0.631994    0.000001
| 51> C         2.296587   -0.225943    0.000006
| 52> H         0.676541   -1.610553    0.000008
| 53> H         2.329934    0.859461   -0.000023
| 54> H         2.808893   -0.594873   -0.888717
| 55> H         2.808875   -0.594824    0.888760
| 56> *
| 57>
| 58>
| 59>
| 60>
| 61>                          ****END OF INPUT****
 Total Charge           Charge          ....    0
 Multiplicity           Mult            ....    2
 Number of Electrons    NEL             ....   47
MP2 TOTAL ENERGY:     -605.692879586 Eh
FINAL SINGLE POINT ENERGY      -605.692879585977
MP2 TOTAL ENERGY:     -605.920396758 Eh
FINAL SINGLE POINT ENERGY      -605.920396758029

CARTESIAN COORDINATES (ANGSTROEM)
---------------------------------
  S     -1.761586   -0.341219   -0.000002
  C     -0.104321    0.250980    0.000000
  O      0.007858    1.459253   -0.000003
  N      0.906382   -0.631994    0.000001
  C      2.296587   -0.225943    0.000006
  H      0.676541   -1.610553    0.000008
  H      2.329934    0.859461   -0.000023
  H      2.808893   -0.594873   -0.888717
  H      2.808875   -0.594824    0.888760

 Multiplicity           Mult            ....    2
 Number of Electrons    NEL             ....   47
 Basis Dimension        Dim             ....  588

ORBITAL ENERGIES
----------------
                 SPIN UP ORBITALS
  NO   OCC          E(Eh)            E(eV)
   0   1.0000     -91.997192     -2503.3709
   1   1.0000     -20.534739      -558.7787
   2   1.0000     -15.606402      -424.6718
   3   1.0000     -11.386393      -309.8395
   4   1.0000     -11.272937      -306.7522
   5   1.0000      -9.000019      -244.9030
   6   1.0000      -6.696012      -182.2077
   7   1.0000      -6.677088      -181.6928
   8   1.0000      -6.675790      -181.6575
   9   1.0000      -1.409283       -38.3486
  10   1.0000      -1.258110       -34.2349
  11   1.0000      -1.042092       -28.3568
  12   1.0000      -0.953898       -25.9569
  13   1.0000      -0.810151       -22.0453
  14   1.0000      -0.694182       -18.8897
  15   1.0000      -0.669191       -18.2096
  16   1.0000      -0.646414       -17.5898
  17   1.0000      -0.584967       -15.9178
  18   1.0000      -0.569150       -15.4873
  19   1.0000      -0.564382       -15.3576
  20   1.0000      -0.480889       -13.0857
  21   1.0000      -0.430207       -11.7065
  22   1.0000      -0.416785       -11.3413
  23   1.0000      -0.401683       -10.9303
  24   0.0000       0.019088         0.5194
  25   0.0000       0.034878         0.9491
  26   0.0000       0.037478         1.0198
  27   0.0000       0.046448         1.2639
  28   0.0000       0.058754         1.5988

                 SPIN DOWN ORBITALS
  NO   OCC          E(Eh)            E(eV)
   0   1.0000     -91.987945     -2503.1192
   1   1.0000     -20.531925      -558.7021
   2   1.0000     -15.606478      -424.6739
   3   1.0000     -11.387319      -309.8647
   4   1.0000     -11.272843      -306.7496
   5   1.0000      -8.989802      -244.6249
   6   1.0000      -6.672407      -181.5654
   7   1.0000      -6.670340      -181.5092
   8   1.0000      -6.654071      -181.0665
   9   1.0000      -1.403037       -38.1786
  10   1.0000      -1.256238       -34.1840
  11   1.0000      -1.002511       -27.2797
  12   1.0000      -0.917087       -24.9552
  13   1.0000      -0.806010       -21.9327
  14   1.0000      -0.674745       -18.3608
  15   1.0000      -0.660609       -17.9761
  16   1.0000      -0.646333       -17.5876
  17   1.0000      -0.570497       -15.5240
  18   1.0000      -0.567262       -15.4360
  19   1.0000      -0.563639       -15.3374
  20   1.0000      -0.425095       -11.5674
  21   1.0000      -0.415093       -11.2953
  22   1.0000      -0.382843       -10.4177
  23   0.0000      -0.001574        -0.0428
  24   0.0000       0.020381         0.5546
  25   0.0000       0.037505         1.0206
  26   0.0000       0.037594         1.0230
  27   0.0000       0.047056         1.2805

MULLIKEN ATOMIC CHARGES AND SPIN POPULATIONS
--------------------------------------------
   0 S :    0.088459    1.086226
   1 C :    0.550892   -0.113344
   2 O :   -0.719136    0.034790
   3 N :   -0.356196   -0.006206
   4 C :   -0.682990    0.000883
   5 H :    0.264381   -0.001116
   6 H :    0.303211   -0.000841
   7 H :    0.275689   -0.000196
   8 H :    0.275691   -0.000196
Sum of atomic charges         :   -0.0000000

LOEWDIN ATOMIC CHARGES AND SPIN POPULATIONS
-------------------------------------------
   0 S :    1.004769    0.725774
   1 C :   -1.557086    0.191240
   2 O :    0.549690    0.049266
   3 N :    0.685482    0.013880
   4 C :    0.779155    0.000878
   5 H :   -0.540982    0.018676
   6 H :   -0.351380    0.000372
   7 H :   -0.284825   -0.000043
   8 H :   -0.284824   -0.000043

  Mayer bond orders larger than 0.100000
B(  0-S ,  1-C ) :   0.9288 B(  0-S ,  3-N ) :  -0.1096 B(  1-C ,  2-O ) :   1.5488
B(  1-C ,  3-N ) :   1.1239 B(  2-O ,  3-N ) :   0.1365 B(  3-N ,  4-C ) :   0.8032
B(  3-N ,  5-H ) :   0.9762 B(  4-C ,  6-H ) :   0.9212 B(  4-C ,  7-H ) :   0.9482
B(  4-C ,  8-H ) :   0.9482

MP2 TOTAL ENERGY:     -605.994945422 Eh
FINAL SINGLE POINT ENERGY      -605.994945421932

DIPOLE MOMENT
-------------
                                X             Y             Z
Electronic contribution:     -7.75615       0.43398      -0.00002
Nuclear contribution   :      8.50572      -1.87172       0.00003
                        -----------------------------------------
Total Dipole Moment    :      0.74957      -1.43775       0.00001
                        -----------------------------------------
Magnitude (a.u.)       :      1.62141
Magnitude (Debye)      :      4.12129

Rotational constants in cm-1:     0.334850     0.085516     0.069007
Rotational constants in MHz : 10038.540356  2563.705336  2068.787590

                             ****ORCA TERMINATED NORMALLY****
TOTAL RUN TIME: 0 days 0 hours 40 minutes 54 seconds 432 msec
