                         Program Version 5.0.4 -  RELEASE  -
|  1> ! ri-mp2 aug-cc-pvdz aug-cc-pvdz/c tightscf
|  2> %pal nprocs 16 end
|  3> %maxcore 3800
|  4> %base "DZ_P-F_11_AB"
|  5> %scf
|  6> STABPerform true
|  7> STABRestartUHFifUnstable true
|  8> end
|  9>
| 10> *xyz 0 1
| 11> F        -2.576963    0.000001   -0.393976
| 12> P        -1.258377    0.000001    0.484137
| 13> C         0.000000    1.260543   -0.000022
| 14> O        -0.000002    2.448921   -0.000041
| 15> C        -0.000002   -1.260543   -0.000021
| 16> P         1.258407   -0.000001   -0.484140
| 17> O        -0.000006   -2.448921   -0.000041
| 18> F         2.576920   -0.000001    0.394084
| 19> *
| 20>
| 21> $new_job
| 22> ! ri-mp2 aug-cc-pvtz aug-cc-pvtz/c tightscf
| 23> %pal nprocs 16 end
| 24> %maxcore 3800
| 25> %base "TZ_P-F_11_AB"
| 26>
| 27> *xyz 0 1
| 28> F        -2.576963    0.000001   -0.393976
| 29> P        -1.258377    0.000001    0.484137
| 30> C         0.000000    1.260543   -0.000022
| 31> O        -0.000002    2.448921   -0.000041
| 32> C        -0.000002   -1.260543   -0.000021
| 33> P         1.258407   -0.000001   -0.484140
| 34> O        -0.000006   -2.448921   -0.000041
| 35> F         2.576920   -0.000001    0.394084
| 36> *
| 37>
| 38> $new_job
| 39> ! ri-mp2 aug-cc-pvqz aug-cc-pvqz/c tightscf
| 40> %pal nprocs 16 end
| 41> %maxcore 3800
| 42> %base "QZ_P-F_11_AB"
| 43>
| 44> *xyz 0 1
| 45> F        -2.576963    0.000001   -0.393976
| 46> P        -1.258377    0.000001    0.484137
| 47> C         0.000000    1.260543   -0.000022
| 48> O        -0.000002    2.448921   -0.000041
| 49> C        -0.000002   -1.260543   -0.000021
| 50> P         1.258407   -0.000001   -0.484140
| 51> O        -0.000006   -2.448921   -0.000041
| 52> F         2.576920   -0.000001    0.394084
| 53> *
| 54>
| 55>
| 56>
| 57>
| 58>                          ****END OF INPUT****
 Total Charge           Charge          ....    0
 Multiplicity           Mult            ....    1
 Number of Electrons    NEL             ....   76
MP2 TOTAL ENERGY:    -1107.121653722 Eh
FINAL SINGLE POINT ENERGY     -1107.121653721739
MP2 TOTAL ENERGY:    -1107.563343535 Eh
FINAL SINGLE POINT ENERGY     -1107.563343534895

CARTESIAN COORDINATES (ANGSTROEM)
---------------------------------
  F     -2.576963    0.000001   -0.393976
  P     -1.258377    0.000001    0.484137
  C      0.000000    1.260543   -0.000022
  O     -0.000002    2.448921   -0.000041
  C     -0.000002   -1.260543   -0.000021
  P      1.258407   -0.000001   -0.484140
  O     -0.000006   -2.448921   -0.000041
  F      2.576920   -0.000001    0.394084

 Multiplicity           Mult            ....    1
 Number of Electrons    NEL             ....   76
 Basis Dimension        Dim             ....  648

ORBITAL ENERGIES
----------------

  NO   OCC          E(Eh)            E(eV)
   0   2.0000     -80.065809     -2178.7014
   1   2.0000     -80.065808     -2178.7014
   2   2.0000     -26.355163      -717.1605
   3   2.0000     -26.355162      -717.1604
   4   2.0000     -20.615038      -560.9637
   5   2.0000     -20.615038      -560.9637
   6   2.0000     -11.395834      -310.0964
   7   2.0000     -11.395821      -310.0961
   8   2.0000      -7.601050      -206.8351
   9   2.0000      -7.601040      -206.8348
  10   2.0000      -5.495296      -149.5346
  11   2.0000      -5.495262      -149.5337
  12   2.0000      -5.493635      -149.4894
  13   2.0000      -5.493623      -149.4891
  14   2.0000      -5.493504      -149.4858
  15   2.0000      -5.493495      -149.4856
  16   2.0000      -1.662232       -45.2316
  17   2.0000      -1.661972       -45.2246
  18   2.0000      -1.458973       -39.7007
  19   2.0000      -1.457022       -39.6476
  20   2.0000      -1.084048       -29.4984
  21   2.0000      -0.901104       -24.5203
  22   2.0000      -0.848135       -23.0789
  23   2.0000      -0.813268       -22.1301
  24   2.0000      -0.746766       -20.3205
  25   2.0000      -0.741510       -20.1775
  26   2.0000      -0.734905       -19.9978
  27   2.0000      -0.727540       -19.7974
  28   2.0000      -0.724385       -19.7115
  29   2.0000      -0.724010       -19.7013
  30   2.0000      -0.675621       -18.3846
  31   2.0000      -0.651912       -17.7394
  32   2.0000      -0.619063       -16.8456
  33   2.0000      -0.593240       -16.1429
  34   2.0000      -0.546201       -14.8629
  35   2.0000      -0.444817       -12.1041
  36   2.0000      -0.409513       -11.1434
  37   2.0000      -0.373523       -10.1641
  38   0.0000      -0.016404        -0.4464
  39   0.0000       0.041537         1.1303
  40   0.0000       0.044206         1.2029
  41   0.0000       0.046471         1.2645
  42   0.0000       0.051022         1.3884

MULLIKEN ATOMIC CHARGES
-----------------------
   0 F :   -0.625035
   1 P :    1.316075
   2 C :   -0.031748
   3 O :   -0.659286
   4 C :   -0.031748
   5 P :    1.316062
   6 O :   -0.659286
   7 F :   -0.625034
Sum of atomic charges:    0.0000000

LOEWDIN ATOMIC CHARGES
----------------------
   0 F :    0.285408
   1 P :    0.275951
   2 C :   -1.083619
   3 O :    0.522263
   4 C :   -1.083619
   5 P :    0.275948
   6 O :    0.522263
   7 F :    0.285405

  Mayer bond orders larger than 0.100000
B(  0-F ,  1-P ) :   0.5072 B(  1-P ,  2-C ) :   0.9358 B(  1-P ,  4-C ) :   0.9358
B(  1-P ,  5-P ) :   0.1271 B(  2-C ,  3-O ) :   1.5915 B(  2-C ,  5-P ) :   0.9358
B(  4-C ,  5-P ) :   0.9358 B(  4-C ,  6-O ) :   1.5915 B(  5-P ,  7-F ) :   0.5072

MP2 TOTAL ENERGY:    -1107.711929783 Eh
FINAL SINGLE POINT ENERGY     -1107.711929783292

DIPOLE MOMENT
-------------
                                X             Y             Z
Electronic contribution:     -0.00001       0.00000       0.00009
Nuclear contribution   :      0.00001      -0.00000      -0.00010
                        -----------------------------------------
Total Dipole Moment    :     -0.00000       0.00000      -0.00000
                        -----------------------------------------
Magnitude (a.u.)       :      0.00000
Magnitude (Debye)      :      0.00001

Rotational constants in cm-1:     0.067300     0.045459     0.029041
Rotational constants in MHz :  2017.594379  1362.817492   870.614022

                             ****ORCA TERMINATED NORMALLY****
TOTAL RUN TIME: 0 days 0 hours 28 minutes 6 seconds 933 msec
