                         Program Version 5.0.4 -  RELEASE  -
|  1> ! ri-mp2 aug-cc-pvdz aug-cc-pvdz/c tightscf
|  2> %pal nprocs 16 end
|  3> %maxcore 3800
|  4> %base "DZ_B-B_71_AB"
|  5> %scf
|  6> STABPerform true
|  7> STABRestartUHFifUnstable true
|  8> end
|  9>
| 10> *xyz 0 1
| 11> B         3.105313   -0.715045    0.803956
| 12> B         2.175372   -0.469795   -0.516190
| 13> C         0.826514    0.333689   -0.465260
| 14> O         0.753097    1.518847   -0.553220
| 15> O        -0.281941   -0.488690   -0.367580
| 16> C        -1.439469   -0.061011    0.271432
| 17> O        -1.418431    0.688808    1.189159
| 18> C        -2.636606   -0.720831   -0.327458
| 19> H        -2.771574   -0.354857   -1.345758
| 20> H        -3.514857   -0.493359    0.268320
| 21> H        -2.480714   -1.797209   -0.384339
| 22> H         3.931190    0.076408    1.137591
| 23> H         3.002240   -1.706336    1.458616
| 24> H         2.505855   -0.863250   -1.592416
| 25> *
| 26>
| 27> $new_job
| 28> ! ri-mp2 aug-cc-pvtz aug-cc-pvtz/c tightscf
| 29> %pal nprocs 16 end
| 30> %maxcore 3800
| 31> %base "TZ_B-B_71_AB"
| 32>
| 33> *xyz 0 1
| 34> B         3.105313   -0.715045    0.803956
| 35> B         2.175372   -0.469795   -0.516190
| 36> C         0.826514    0.333689   -0.465260
| 37> O         0.753097    1.518847   -0.553220
| 38> O        -0.281941   -0.488690   -0.367580
| 39> C        -1.439469   -0.061011    0.271432
| 40> O        -1.418431    0.688808    1.189159
| 41> C        -2.636606   -0.720831   -0.327458
| 42> H        -2.771574   -0.354857   -1.345758
| 43> H        -3.514857   -0.493359    0.268320
| 44> H        -2.480714   -1.797209   -0.384339
| 45> H         3.931190    0.076408    1.137591
| 46> H         3.002240   -1.706336    1.458616
| 47> H         2.505855   -0.863250   -1.592416
| 48> *
| 49>
| 50> $new_job
| 51> ! ri-mp2 aug-cc-pvqz aug-cc-pvqz/c tightscf
| 52> %pal nprocs 16 end
| 53> %maxcore 3800
| 54> %base "QZ_B-B_71_AB"
| 55>
| 56> *xyz 0 1
| 57> B         3.105313   -0.715045    0.803956
| 58> B         2.175372   -0.469795   -0.516190
| 59> C         0.826514    0.333689   -0.465260
| 60> O         0.753097    1.518847   -0.553220
| 61> O        -0.281941   -0.488690   -0.367580
| 62> C        -1.439469   -0.061011    0.271432
| 63> O        -1.418431    0.688808    1.189159
| 64> C        -2.636606   -0.720831   -0.327458
| 65> H        -2.771574   -0.354857   -1.345758
| 66> H        -3.514857   -0.493359    0.268320
| 67> H        -2.480714   -1.797209   -0.384339
| 68> H         3.931190    0.076408    1.137591
| 69> H         3.002240   -1.706336    1.458616
| 70> H         2.505855   -0.863250   -1.592416
| 71> *
| 72>
| 73>
| 74>
| 75>
| 76>                          ****END OF INPUT****
 Total Charge           Charge          ....    0
 Multiplicity           Mult            ....    1
 Number of Electrons    NEL             ....   58
MP2 TOTAL ENERGY:     -392.217045202 Eh
FINAL SINGLE POINT ENERGY      -392.217045202423
MP2 TOTAL ENERGY:     -392.551122387 Eh
FINAL SINGLE POINT ENERGY      -392.551122386614

CARTESIAN COORDINATES (ANGSTROEM)
---------------------------------
  B      3.105313   -0.715045    0.803956
  B      2.175372   -0.469795   -0.516190
  C      0.826514    0.333689   -0.465260
  O      0.753097    1.518847   -0.553220
  O     -0.281941   -0.488690   -0.367580
  C     -1.439469   -0.061011    0.271432
  O     -1.418431    0.688808    1.189159
  C     -2.636606   -0.720831   -0.327458
  H     -2.771574   -0.354857   -1.345758
  H     -3.514857   -0.493359    0.268320
  H     -2.480714   -1.797209   -0.384339
  H      3.931190    0.076408    1.137591
  H      3.002240   -1.706336    1.458616
  H      2.505855   -0.863250   -1.592416

 Multiplicity           Mult            ....    1
 Number of Electrons    NEL             ....   58
 Basis Dimension        Dim             ....  916

ORBITAL ENERGIES
----------------

  NO   OCC          E(Eh)            E(eV)
   0   2.0000     -20.624503      -561.2213
   1   2.0000     -20.564488      -559.5882
   2   2.0000     -20.564314      -559.5834
   3   2.0000     -11.400061      -310.2114
   4   2.0000     -11.380978      -309.6922
   5   2.0000     -11.253071      -306.2116
   6   2.0000      -7.621336      -207.3871
   7   2.0000      -7.610423      -207.0901
   8   2.0000      -1.497760       -40.7561
   9   2.0000      -1.421488       -38.6806
  10   2.0000      -1.374703       -37.4076
  11   2.0000      -1.047044       -28.4915
  12   2.0000      -0.920816       -25.0567
  13   2.0000      -0.797333       -21.6965
  14   2.0000      -0.739063       -20.1109
  15   2.0000      -0.712951       -19.4004
  16   2.0000      -0.702218       -19.1083
  17   2.0000      -0.688495       -18.7349
  18   2.0000      -0.648103       -17.6358
  19   2.0000      -0.612939       -16.6789
  20   2.0000      -0.603339       -16.4177
  21   2.0000      -0.590001       -16.0547
  22   2.0000      -0.558829       -15.2065
  23   2.0000      -0.537828       -14.6350
  24   2.0000      -0.512779       -13.9534
  25   2.0000      -0.492968       -13.4143
  26   2.0000      -0.481597       -13.1049
  27   2.0000      -0.467412       -12.7189
  28   2.0000      -0.432012       -11.7557
  29   0.0000       0.019001         0.5170
  30   0.0000       0.026310         0.7159
  31   0.0000       0.028975         0.7884
  32   0.0000       0.032923         0.8959
  33   0.0000       0.035208         0.9581

MULLIKEN ATOMIC CHARGES
-----------------------
   0 B :    0.461608
   1 B :    0.434008
   2 C :    0.966036
   3 O :   -0.788484
   4 O :   -0.769161
   5 C :    0.889341
   6 O :   -0.704858
   7 C :   -0.768190
   8 H :    0.288434
   9 H :    0.317138
  10 H :    0.296103
  11 H :   -0.201510
  12 H :   -0.179110
  13 H :   -0.241354
Sum of atomic charges:   -0.0000000

LOEWDIN ATOMIC CHARGES
----------------------
   0 B :    0.504590
   1 B :   -0.052027
   2 C :   -0.974610
   3 O :    0.702738
   4 O :    0.785218
   5 C :   -1.062167
   6 O :    0.719297
   7 C :    0.873468
   8 H :   -0.295328
   9 H :   -0.316104
  10 H :   -0.302518
  11 H :   -0.203138
  12 H :   -0.205830
  13 H :   -0.173589

  Mayer bond orders larger than 0.100000
B(  0-B ,  1-B ) :   1.0601 B(  0-B , 11-H ) :   0.9732 B(  0-B , 12-H ) :   0.9810
B(  1-B ,  2-C ) :   0.8262 B(  1-B , 13-H ) :   0.8847 B(  2-C ,  3-O ) :   1.3939
B(  2-C ,  4-O ) :   0.8466 B(  4-O ,  5-C ) :   0.9234 B(  5-C ,  6-O ) :   1.4887
B(  5-C ,  7-C ) :   0.9558 B(  7-C ,  8-H ) :   0.9001 B(  7-C ,  9-H ) :   0.9501
B(  7-C , 10-H ) :   0.9119

MP2 TOTAL ENERGY:     -392.660329759 Eh
FINAL SINGLE POINT ENERGY      -392.660329758896

DIPOLE MOMENT
-------------
                                X             Y             Z
Electronic contribution:      3.46096       2.56982       0.05102
Nuclear contribution   :     -3.50876      -4.05368      -0.66864
                        -----------------------------------------
Total Dipole Moment    :     -0.04780      -1.48386      -0.61761
                        -----------------------------------------
Magnitude (a.u.)       :      1.60797
Magnitude (Debye)      :      4.08715

Rotational constants in cm-1:     0.136840     0.039741     0.038053
Rotational constants in MHz :  4102.372129  1191.399968  1140.808056

                             ****ORCA TERMINATED NORMALLY****
TOTAL RUN TIME: 0 days 1 hours 26 minutes 14 seconds 823 msec
