                         Program Version 5.0.4 -  RELEASE  -
|  1> ! ri-mp2 aug-cc-pvdz aug-cc-pvdz/c tightscf
|  2> %pal nprocs 16 end
|  3> %maxcore 3800
|  4> %base "DZ_Si-F_21_AB"
|  5>
|  6> *xyz 0 1
|  7> Si         1.064010    0.000000    0.341082
|  8> C         0.073575   -1.480399   -0.184890
|  9> F         2.510790    0.000000   -0.356520
| 10> C         0.073575    1.480399   -0.184890
| 11> C        -1.403194   -1.284206    0.197924
| 12> H         0.464719   -2.403991    0.245514
| 13> H         0.158952   -1.582833   -1.271336
| 14> C        -2.016140    0.000000   -0.359699
| 15> H        -1.502598   -1.275689    1.288341
| 16> H        -1.986382   -2.139944   -0.148487
| 17> C        -1.403194    1.284207    0.197924
| 18> H        -3.086937    0.000000   -0.145577
| 19> H        -1.921364    0.000000   -1.450833
| 20> H         0.158952    1.582832   -1.271335
| 21> H         0.464720    2.403991    0.245514
| 22> H        -1.986382    2.139944   -0.148488
| 23> H        -1.502599    1.275689    1.288341
| 24> H         1.297943   -0.000001    1.803662
| 25> *
| 26>
| 27> $new_job
| 28> ! ri-mp2 aug-cc-pvtz aug-cc-pvtz/c tightscf
| 29> %pal nprocs 16 end
| 30> %maxcore 3800
| 31> %base "TZ_Si-F_21_AB"
| 32>
| 33> *xyz 0 1
| 34> Si         1.064010    0.000000    0.341082
| 35> C         0.073575   -1.480399   -0.184890
| 36> F         2.510790    0.000000   -0.356520
| 37> C         0.073575    1.480399   -0.184890
| 38> C        -1.403194   -1.284206    0.197924
| 39> H         0.464719   -2.403991    0.245514
| 40> H         0.158952   -1.582833   -1.271336
| 41> C        -2.016140    0.000000   -0.359699
| 42> H        -1.502598   -1.275689    1.288341
| 43> H        -1.986382   -2.139944   -0.148487
| 44> C        -1.403194    1.284207    0.197924
| 45> H        -3.086937    0.000000   -0.145577
| 46> H        -1.921364    0.000000   -1.450833
| 47> H         0.158952    1.582832   -1.271335
| 48> H         0.464720    2.403991    0.245514
| 49> H        -1.986382    2.139944   -0.148488
| 50> H        -1.502599    1.275689    1.288341
| 51> H         1.297943   -0.000001    1.803662
| 52> *
| 53>
| 54> $new_job
| 55> ! ri-mp2 aug-cc-pvqz aug-cc-pvqz/c tightscf
| 56> %pal nprocs 16 end
| 57> %maxcore 3800
| 58> %base "QZ_Si-F_21_AB"
| 59>
| 60> *xyz 0 1
| 61> Si         1.064010    0.000000    0.341082
| 62> C         0.073575   -1.480399   -0.184890
| 63> F         2.510790    0.000000   -0.356520
| 64> C         0.073575    1.480399   -0.184890
| 65> C        -1.403194   -1.284206    0.197924
| 66> H         0.464719   -2.403991    0.245514
| 67> H         0.158952   -1.582833   -1.271336
| 68> C        -2.016140    0.000000   -0.359699
| 69> H        -1.502598   -1.275689    1.288341
| 70> H        -1.986382   -2.139944   -0.148487
| 71> C        -1.403194    1.284207    0.197924
| 72> H        -3.086937    0.000000   -0.145577
| 73> H        -1.921364    0.000000   -1.450833
| 74> H         0.158952    1.582832   -1.271335
| 75> H         0.464720    2.403991    0.245514
| 76> H        -1.986382    2.139944   -0.148488
| 77> H        -1.502599    1.275689    1.288341
| 78> H         1.297943   -0.000001    1.803662
| 79> *
| 80>
| 81>
| 82>
| 83>
| 84>                          ****END OF INPUT****
 Total Charge           Charge          ....    0
 Multiplicity           Mult            ....    1
 Number of Electrons    NEL             ....   64
MP2 TOTAL ENERGY:     -585.271329252 Eh
FINAL SINGLE POINT ENERGY      -585.271329252297
MP2 TOTAL ENERGY:     -585.585333012 Eh
FINAL SINGLE POINT ENERGY      -585.585333012260

CARTESIAN COORDINATES (ANGSTROEM)
---------------------------------
  Si     1.064010    0.000000    0.341082
  C      0.073575   -1.480399   -0.184890
  F      2.510790    0.000000   -0.356520
  C      0.073575    1.480399   -0.184890
  C     -1.403194   -1.284206    0.197924
  H      0.464719   -2.403991    0.245514
  H      0.158952   -1.582833   -1.271336
  C     -2.016140    0.000000   -0.359699
  H     -1.502598   -1.275689    1.288341
  H     -1.986382   -2.139944   -0.148487
  C     -1.403194    1.284207    0.197924
  H     -3.086937    0.000000   -0.145577
  H     -1.921364    0.000000   -1.450833
  H      0.158952    1.582832   -1.271335
  H      0.464720    2.403991    0.245514
  H     -1.986382    2.139944   -0.148488
  H     -1.502599    1.275689    1.288341
  H      1.297943   -0.000001    1.803662

 Multiplicity           Mult            ....    1
 Number of Electrons    NEL             ....   64
 Basis Dimension        Dim             .... 1070

ORBITAL ENERGIES
----------------

  NO   OCC          E(Eh)            E(eV)
   0   2.0000     -68.783742     -1871.7008
   1   2.0000     -26.266722      -714.7538
   2   2.0000     -11.227775      -305.5233
   3   2.0000     -11.227755      -305.5228
   4   2.0000     -11.221708      -305.3582
   5   2.0000     -11.205313      -304.9121
   6   2.0000     -11.205305      -304.9118
   7   2.0000      -6.129509      -166.7924
   8   2.0000      -4.236929      -115.2927
   9   2.0000      -4.235827      -115.2627
  10   2.0000      -4.235567      -115.2556
  11   2.0000      -1.568975       -42.6940
  12   2.0000      -1.096245       -29.8303
  13   2.0000      -1.010445       -27.4956
  14   2.0000      -0.940744       -25.5989
  15   2.0000      -0.834073       -22.6963
  16   2.0000      -0.785569       -21.3764
  17   2.0000      -0.731970       -19.9179
  18   2.0000      -0.655119       -17.8267
  19   2.0000      -0.653531       -17.7835
  20   2.0000      -0.648393       -17.6437
  21   2.0000      -0.627416       -17.0729
  22   2.0000      -0.604315       -16.4443
  23   2.0000      -0.569387       -15.4938
  24   2.0000      -0.548196       -14.9172
  25   2.0000      -0.545043       -14.8314
  26   2.0000      -0.501084       -13.6352
  27   2.0000      -0.487900       -13.2764
  28   2.0000      -0.477991       -13.0068
  29   2.0000      -0.470622       -12.8063
  30   2.0000      -0.434006       -11.8099
  31   2.0000      -0.403936       -10.9916
  32   0.0000       0.021994         0.5985
  33   0.0000       0.029649         0.8068
  34   0.0000       0.031451         0.8558
  35   0.0000       0.032735         0.8908
  36   0.0000       0.045355         1.2342

MULLIKEN ATOMIC CHARGES
-----------------------
   0 Si:    1.649317
   1 C :   -0.750106
   2 F :   -0.815862
   3 C :   -0.750106
   4 C :   -0.451237
   5 H :    0.230379
   6 H :    0.195087
   7 C :   -0.414996
   8 H :    0.214073
   9 H :    0.279172
  10 C :   -0.451238
  11 H :    0.249298
  12 H :    0.214374
  13 H :    0.195088
  14 H :    0.230379
  15 H :    0.279173
  16 H :    0.214073
  17 H :   -0.316868
Sum of atomic charges:   -0.0000000

LOEWDIN ATOMIC CHARGES
----------------------
   0 Si:    0.041348
   1 C :    0.570515
   2 F :    0.454275
   3 C :    0.570516
   4 C :    0.470338
   5 H :   -0.322978
   6 H :   -0.323366
   7 C :    0.509372
   8 H :   -0.275713
   9 H :   -0.265673
  10 C :    0.470339
  11 H :   -0.264190
  12 H :   -0.266027
  13 H :   -0.323367
  14 H :   -0.322977
  15 H :   -0.265674
  16 H :   -0.275713
  17 H :   -0.181026

  Mayer bond orders larger than 0.100000
B(  0-Si,  1-C ) :   0.8330 B(  0-Si,  2-F ) :   0.1804 B(  0-Si,  3-C ) :   0.8330
B(  0-Si, 17-H ) :   0.7470 B(  1-C ,  4-C ) :   0.9118 B(  1-C ,  5-H ) :   0.9859
B(  1-C ,  6-H ) :   0.9697 B(  3-C , 10-C ) :   0.9118 B(  3-C , 13-H ) :   0.9697
B(  3-C , 14-H ) :   0.9859 B(  4-C ,  7-C ) :   0.8567 B(  4-C ,  8-H ) :   0.9384
B(  4-C ,  9-H ) :   0.9128 B(  7-C , 10-C ) :   0.8567 B(  7-C , 11-H ) :   0.9526
B(  7-C , 12-H ) :   0.9357 B( 10-C , 15-H ) :   0.9128 B( 10-C , 16-H ) :   0.9384

MP2 TOTAL ENERGY:     -585.683235231 Eh
FINAL SINGLE POINT ENERGY      -585.683235230771

DIPOLE MOMENT
-------------
                                X             Y             Z
Electronic contribution:     11.35912       0.00000      -0.71672
Nuclear contribution   :    -12.18488      -0.00000       0.77948
                        -----------------------------------------
Total Dipole Moment    :     -0.82575       0.00000       0.06276
                        -----------------------------------------
Magnitude (a.u.)       :      0.82813
Magnitude (Debye)      :      2.10495

Rotational constants in cm-1:     0.118191     0.056987     0.042555
Rotational constants in MHz :  3543.266985  1708.425929  1275.761148

                             ****ORCA TERMINATED NORMALLY****
TOTAL RUN TIME: 0 days 0 hours 33 minutes 17 seconds 111 msec
