                         Program Version 5.0.4 -  RELEASE  -
|  1> ! ri-mp2 aug-cc-pvdz aug-cc-pvdz/c tightscf
|  2> %pal nprocs 16 end
|  3> %maxcore 3800
|  4> %base "DZ_S-S_26_AB"
|  5> %scf
|  6> STABPerform true
|  7> STABRestartUHFifUnstable true
|  8> end
|  9>
| 10> *xyz 0 1
| 11> C        -1.794213    0.330909    0.287961
| 12> S        -0.570885   -0.167053   -0.984551
| 13> S         0.845878   -1.211325    0.038351
| 14> C         2.145365    0.018808    0.430671
| 15> C        -2.472462   -0.865524    0.924506
| 16> C         1.649065    1.144204    1.319029
| 17> H        -1.744537   -1.529065    1.388713
| 18> H        -3.028923   -1.434140    0.178229
| 19> H         1.177433    0.762318    2.223440
| 20> H         0.926640    1.760472    0.782654
| 21> C        -2.782332    1.250049   -0.412727
| 22> H        -2.289226    2.126621   -0.832283
| 23> H        -3.538962    1.589278    0.295961
| 24> H        -3.294461    0.726424   -1.222000
| 25> C         2.833292    0.536187   -0.819537
| 26> H         3.236660   -0.280202   -1.416391
| 27> H         3.651406    1.207214   -0.550327
| 28> H         2.128831    1.094979   -1.436562
| 29> H         2.844204   -0.604615    0.996397
| 30> H         2.481394    1.788225    1.608933
| 31> H        -1.251801    0.893158    1.046804
| 32> H        -3.170835   -0.534413    1.696206
| 33> *
| 34>
| 35> $new_job
| 36> ! ri-mp2 aug-cc-pvtz aug-cc-pvtz/c tightscf
| 37> %pal nprocs 16 end
| 38> %maxcore 3800
| 39> %base "TZ_S-S_26_AB"
| 40>
| 41> *xyz 0 1
| 42> C        -1.794213    0.330909    0.287961
| 43> S        -0.570885   -0.167053   -0.984551
| 44> S         0.845878   -1.211325    0.038351
| 45> C         2.145365    0.018808    0.430671
| 46> C        -2.472462   -0.865524    0.924506
| 47> C         1.649065    1.144204    1.319029
| 48> H        -1.744537   -1.529065    1.388713
| 49> H        -3.028923   -1.434140    0.178229
| 50> H         1.177433    0.762318    2.223440
| 51> H         0.926640    1.760472    0.782654
| 52> C        -2.782332    1.250049   -0.412727
| 53> H        -2.289226    2.126621   -0.832283
| 54> H        -3.538962    1.589278    0.295961
| 55> H        -3.294461    0.726424   -1.222000
| 56> C         2.833292    0.536187   -0.819537
| 57> H         3.236660   -0.280202   -1.416391
| 58> H         3.651406    1.207214   -0.550327
| 59> H         2.128831    1.094979   -1.436562
| 60> H         2.844204   -0.604615    0.996397
| 61> H         2.481394    1.788225    1.608933
| 62> H        -1.251801    0.893158    1.046804
| 63> H        -3.170835   -0.534413    1.696206
| 64> *
| 65>
| 66> $new_job
| 67> ! ri-mp2 aug-cc-pvqz aug-cc-pvqz/c tightscf
| 68> %pal nprocs 16 end
| 69> %maxcore 3800
| 70> %base "QZ_S-S_26_AB"
| 71>
| 72> *xyz 0 1
| 73> C        -1.794213    0.330909    0.287961
| 74> S        -0.570885   -0.167053   -0.984551
| 75> S         0.845878   -1.211325    0.038351
| 76> C         2.145365    0.018808    0.430671
| 77> C        -2.472462   -0.865524    0.924506
| 78> C         1.649065    1.144204    1.319029
| 79> H        -1.744537   -1.529065    1.388713
| 80> H        -3.028923   -1.434140    0.178229
| 81> H         1.177433    0.762318    2.223440
| 82> H         0.926640    1.760472    0.782654
| 83> C        -2.782332    1.250049   -0.412727
| 84> H        -2.289226    2.126621   -0.832283
| 85> H        -3.538962    1.589278    0.295961
| 86> H        -3.294461    0.726424   -1.222000
| 87> C         2.833292    0.536187   -0.819537
| 88> H         3.236660   -0.280202   -1.416391
| 89> H         3.651406    1.207214   -0.550327
| 90> H         2.128831    1.094979   -1.436562
| 91> H         2.844204   -0.604615    0.996397
| 92> H         2.481394    1.788225    1.608933
| 93> H        -1.251801    0.893158    1.046804
| 94> H        -3.170835   -0.534413    1.696206
| 95> *
| 96>
| 97>
| 98>
| 99>
|100>                          ****END OF INPUT****
 Total Charge           Charge          ....    0
 Multiplicity           Mult            ....    1
 Number of Electrons    NEL             ....   82
MP2 TOTAL ENERGY:    -1031.659106311 Eh
FINAL SINGLE POINT ENERGY     -1031.659106310587
MP2 TOTAL ENERGY:    -1031.996160646 Eh
FINAL SINGLE POINT ENERGY     -1031.996160646379

CARTESIAN COORDINATES (ANGSTROEM)
---------------------------------
  C     -1.794213    0.330909    0.287961
  S     -0.570885   -0.167053   -0.984551
  S      0.845878   -1.211325    0.038351
  C      2.145365    0.018808    0.430671
  C     -2.472462   -0.865524    0.924506
  C      1.649065    1.144204    1.319029
  H     -1.744537   -1.529065    1.388713
  H     -3.028923   -1.434140    0.178229
  H      1.177433    0.762318    2.223440
  H      0.926640    1.760472    0.782654
  C     -2.782332    1.250049   -0.412727
  H     -2.289226    2.126621   -0.832283
  H     -3.538962    1.589278    0.295961
  H     -3.294461    0.726424   -1.222000
  C      2.833292    0.536187   -0.819537
  H      3.236660   -0.280202   -1.416391
  H      3.651406    1.207214   -0.550327
  H      2.128831    1.094979   -1.436562
  H      2.844204   -0.604615    0.996397
  H      2.481394    1.788225    1.608933
  H     -1.251801    0.893158    1.046804
  H     -3.170835   -0.534413    1.696206

 Multiplicity           Mult            ....    1
 Number of Electrons    NEL             ....   82
 Basis Dimension        Dim             .... 1292

ORBITAL ENERGIES
----------------

  NO   OCC          E(Eh)            E(eV)
   0   2.0000     -91.959024     -2502.3323
   1   2.0000     -91.958496     -2502.3179
   2   2.0000     -11.263408      -306.4929
   3   2.0000     -11.261166      -306.4319
   4   2.0000     -11.223643      -305.4109
   5   2.0000     -11.221225      -305.3451
   6   2.0000     -11.216054      -305.2044
   7   2.0000     -11.215142      -305.1795
   8   2.0000      -8.959981      -243.8135
   9   2.0000      -8.959517      -243.8008
  10   2.0000      -6.641450      -180.7230
  11   2.0000      -6.640859      -180.7069
  12   2.0000      -6.640065      -180.6853
  13   2.0000      -6.639666      -180.6745
  14   2.0000      -6.639417      -180.6677
  15   2.0000      -6.639001      -180.6564
  16   2.0000      -1.115317       -30.3493
  17   2.0000      -1.087667       -29.5969
  18   2.0000      -0.993326       -27.0298
  19   2.0000      -0.942030       -25.6339
  20   2.0000      -0.941362       -25.6157
  21   2.0000      -0.878373       -23.9018
  22   2.0000      -0.791593       -21.5403
  23   2.0000      -0.743771       -20.2390
  24   2.0000      -0.638200       -17.3663
  25   2.0000      -0.628203       -17.0943
  26   2.0000      -0.610921       -16.6240
  27   2.0000      -0.595558       -16.2059
  28   2.0000      -0.578337       -15.7373
  29   2.0000      -0.570739       -15.5306
  30   2.0000      -0.545522       -14.8444
  31   2.0000      -0.544934       -14.8284
  32   2.0000      -0.510078       -13.8799
  33   2.0000      -0.500085       -13.6080
  34   2.0000      -0.498118       -13.5545
  35   2.0000      -0.495951       -13.4955
  36   2.0000      -0.471073       -12.8185
  37   2.0000      -0.454232       -12.3603
  38   2.0000      -0.428560       -11.6617
  39   2.0000      -0.346937        -9.4406
  40   2.0000      -0.341532        -9.2936
  41   0.0000       0.024316         0.6617
  42   0.0000       0.028153         0.7661
  43   0.0000       0.031487         0.8568
  44   0.0000       0.033646         0.9155
  45   0.0000       0.042417         1.1542

MULLIKEN ATOMIC CHARGES
-----------------------
   0 C :    0.239106
   1 S :   -0.215713
   2 S :   -0.242463
   3 C :    0.115011
   4 C :   -1.012909
   5 C :   -0.972681
   6 H :    0.309994
   7 H :    0.258790
   8 H :    0.280018
   9 H :    0.293283
  10 C :   -0.987755
  11 H :    0.286232
  12 H :    0.306478
  13 H :    0.242074
  14 C :   -0.980450
  15 H :    0.293670
  16 H :    0.295317
  17 H :    0.260750
  18 H :    0.343148
  19 H :    0.317636
  20 H :    0.269466
  21 H :    0.300996
Sum of atomic charges:   -0.0000000

LOEWDIN ATOMIC CHARGES
----------------------
   0 C :   -0.329041
   1 S :    0.876971
   2 S :    0.883562
   3 C :   -0.323321
   4 C :    0.815697
   5 C :    0.821002
   6 H :   -0.333022
   7 H :   -0.296742
   8 H :   -0.291481
   9 H :   -0.324341
  10 C :    0.807996
  11 H :   -0.297121
  12 H :   -0.281348
  13 H :   -0.298846
  14 C :    0.811515
  15 H :   -0.299634
  16 H :   -0.282866
  17 H :   -0.323712
  18 H :   -0.387978
  19 H :   -0.277341
  20 H :   -0.390432
  21 H :   -0.279518

  Mayer bond orders larger than 0.100000
B(  0-C ,  1-S ) :   0.5985 B(  0-C ,  4-C ) :   0.6955 B(  0-C , 10-C ) :   0.6455
B(  0-C , 20-H ) :   0.8962 B(  1-S ,  2-S ) :   1.2535 B(  2-S ,  3-C ) :   0.6777
B(  3-C ,  5-C ) :   0.9193 B(  3-C , 14-C ) :   0.8260 B(  3-C , 18-H ) :   0.7721
B(  4-C ,  6-H ) :   0.9491 B(  4-C ,  7-H ) :   0.9967 B(  4-C , 10-C ) :   0.1384
B(  4-C , 21-H ) :   0.9267 B(  5-C ,  8-H ) :   0.9537 B(  5-C ,  9-H ) :   0.9083
B(  5-C , 19-H ) :   0.9224 B( 10-C , 11-H ) :   0.9732 B( 10-C , 12-H ) :   0.9492
B( 10-C , 13-H ) :   0.9829 B( 14-C , 15-H ) :   0.9739 B( 14-C , 16-H ) :   0.9141
B( 14-C , 17-H ) :   0.9561

MP2 TOTAL ENERGY:    -1032.099407916 Eh
FINAL SINGLE POINT ENERGY     -1032.099407915903

DIPOLE MOMENT
-------------
                                X             Y             Z
Electronic contribution:      1.94553      -7.12926      -4.29469
Nuclear contribution   :     -1.92701       7.79630       4.90699
                        -----------------------------------------
Total Dipole Moment    :      0.01852       0.66704       0.61231
                        -----------------------------------------
Magnitude (a.u.)       :      0.90565
Magnitude (Debye)      :      2.30198

Rotational constants in cm-1:     0.077944     0.027265     0.026341
Rotational constants in MHz :  2336.715754   817.397103   789.678425

                             ****ORCA TERMINATED NORMALLY****
TOTAL RUN TIME: 0 days 5 hours 10 minutes 3 seconds 691 msec
