                         Program Version 5.0.4 -  RELEASE  -
|  1> ! ri-mp2 aug-cc-pvdz aug-cc-pvdz/c tightscf
|  2> %pal nprocs 16 end
|  3> %maxcore 3800
|  4> %base "DZ_P-N_88_AB"
|  5> %scf
|  6> STABPerform true
|  7> STABRestartUHFifUnstable true
|  8> end
|  9>
| 10> *xyz 0 1
| 11> P        -0.643490    0.276735   -0.656007
| 12> N         0.888312   -0.588109   -0.302276
| 13> F         1.024757   -0.791371    1.078335
| 14> F         1.895261    0.344410   -0.553187
| 15> C        -0.713716    1.487242    0.710268
| 16> H         0.074329    2.226866    0.577829
| 17> H        -0.619466    1.025605    1.690759
| 18> H        -1.671739    2.004901    0.644977
| 19> C        -1.736468   -1.044220   -0.030271
| 20> H        -1.633650   -1.928789   -0.656989
| 21> H        -2.765461   -0.692732   -0.112663
| 22> H        -1.528901   -1.305592    1.005814
| 23> *
| 24>
| 25> $new_job
| 26> ! ri-mp2 aug-cc-pvtz aug-cc-pvtz/c tightscf
| 27> %pal nprocs 16 end
| 28> %maxcore 3800
| 29> %base "TZ_P-N_88_AB"
| 30>
| 31> *xyz 0 1
| 32> P        -0.643490    0.276735   -0.656007
| 33> N         0.888312   -0.588109   -0.302276
| 34> F         1.024757   -0.791371    1.078335
| 35> F         1.895261    0.344410   -0.553187
| 36> C        -0.713716    1.487242    0.710268
| 37> H         0.074329    2.226866    0.577829
| 38> H        -0.619466    1.025605    1.690759
| 39> H        -1.671739    2.004901    0.644977
| 40> C        -1.736468   -1.044220   -0.030271
| 41> H        -1.633650   -1.928789   -0.656989
| 42> H        -2.765461   -0.692732   -0.112663
| 43> H        -1.528901   -1.305592    1.005814
| 44> *
| 45>
| 46> $new_job
| 47> ! ri-mp2 aug-cc-pvqz aug-cc-pvqz/c tightscf
| 48> %pal nprocs 16 end
| 49> %maxcore 3800
| 50> %base "QZ_P-N_88_AB"
| 51>
| 52> *xyz 0 1
| 53> P        -0.643490    0.276735   -0.656007
| 54> N         0.888312   -0.588109   -0.302276
| 55> F         1.024757   -0.791371    1.078335
| 56> F         1.895261    0.344410   -0.553187
| 57> C        -0.713716    1.487242    0.710268
| 58> H         0.074329    2.226866    0.577829
| 59> H        -0.619466    1.025605    1.690759
| 60> H        -1.671739    2.004901    0.644977
| 61> C        -1.736468   -1.044220   -0.030271
| 62> H        -1.633650   -1.928789   -0.656989
| 63> H        -2.765461   -0.692732   -0.112663
| 64> H        -1.528901   -1.305592    1.005814
| 65> *
| 66>
| 67>
| 68>
| 69>
| 70>                          ****END OF INPUT****
 Total Charge           Charge          ....    0
 Multiplicity           Mult            ....    1
 Number of Electrons    NEL             ....   58
MP2 TOTAL ENERGY:     -674.202747262 Eh
FINAL SINGLE POINT ENERGY      -674.202747262249
MP2 TOTAL ENERGY:     -674.536959332 Eh
FINAL SINGLE POINT ENERGY      -674.536959332441

CARTESIAN COORDINATES (ANGSTROEM)
---------------------------------
  P     -0.643490    0.276735   -0.656007
  N      0.888312   -0.588109   -0.302276
  F      1.024757   -0.791371    1.078335
  F      1.895261    0.344410   -0.553187
  C     -0.713716    1.487242    0.710268
  H      0.074329    2.226866    0.577829
  H     -0.619466    1.025605    1.690759
  H     -1.671739    2.004901    0.644977
  C     -1.736468   -1.044220   -0.030271
  H     -1.633650   -1.928789   -0.656989
  H     -2.765461   -0.692732   -0.112663
  H     -1.528901   -1.305592    1.005814

 Multiplicity           Mult            ....    1
 Number of Electrons    NEL             ....   58
 Basis Dimension        Dim             ....  760

ORBITAL ENERGIES
----------------

  NO   OCC          E(Eh)            E(eV)
   0   2.0000     -79.982754     -2176.4414
   1   2.0000     -26.328865      -716.4448
   2   2.0000     -26.326504      -716.3806
   3   2.0000     -15.744493      -428.4294
   4   2.0000     -11.241176      -305.8879
   5   2.0000     -11.238360      -305.8113
   6   2.0000      -7.522517      -204.6981
   7   2.0000      -5.416660      -147.3948
   8   2.0000      -5.415696      -147.3686
   9   2.0000      -5.414710      -147.3418
  10   2.0000      -1.675254       -45.5860
  11   2.0000      -1.591277       -43.3008
  12   2.0000      -1.114403       -30.3244
  13   2.0000      -1.011740       -27.5308
  14   2.0000      -0.962746       -26.1977
  15   2.0000      -0.808566       -22.0022
  16   2.0000      -0.749985       -20.4081
  17   2.0000      -0.748904       -20.3787
  18   2.0000      -0.701520       -19.0893
  19   2.0000      -0.676985       -18.4217
  20   2.0000      -0.630847       -17.1662
  21   2.0000      -0.618543       -16.8314
  22   2.0000      -0.601685       -16.3727
  23   2.0000      -0.581514       -15.8238
  24   2.0000      -0.574172       -15.6240
  25   2.0000      -0.563436       -15.3319
  26   2.0000      -0.494164       -13.4469
  27   2.0000      -0.453982       -12.3535
  28   2.0000      -0.378976       -10.3125
  29   0.0000       0.023094         0.6284
  30   0.0000       0.031764         0.8644
  31   0.0000       0.038845         1.0570
  32   0.0000       0.041911         1.1404
  33   0.0000       0.053160         1.4465

MULLIKEN ATOMIC CHARGES
-----------------------
   0 P :    0.879314
   1 N :    0.266096
   2 F :   -0.431641
   3 F :   -0.427153
   4 C :   -1.094612
   5 H :    0.349192
   6 H :    0.300766
   7 H :    0.316486
   8 C :   -1.152113
   9 H :    0.362284
  10 H :    0.328577
  11 H :    0.302803
Sum of atomic charges:   -0.0000000

LOEWDIN ATOMIC CHARGES
----------------------
   0 P :    0.697637
   1 N :   -0.823446
   2 F :    0.418703
   3 F :    0.394282
   4 C :    0.754712
   5 H :   -0.365603
   6 H :   -0.371362
   7 H :   -0.362000
   8 C :    0.744520
   9 H :   -0.362046
  10 H :   -0.361144
  11 H :   -0.364253

  Mayer bond orders larger than 0.100000
B(  0-P ,  1-N ) :   0.6029 B(  0-P ,  4-C ) :   0.8875 B(  0-P ,  8-C ) :   0.9016
B(  1-N ,  2-F ) :   0.6817 B(  1-N ,  3-F ) :   0.6807 B(  4-C ,  5-H ) :   0.8855
B(  4-C ,  6-H ) :   0.9008 B(  4-C ,  7-H ) :   0.9081 B(  8-C ,  9-H ) :   0.8712
B(  8-C , 10-H ) :   0.9024 B(  8-C , 11-H ) :   0.9018

MP2 TOTAL ENERGY:     -674.643807454 Eh
FINAL SINGLE POINT ENERGY      -674.643807454270

DIPOLE MOMENT
-------------
                                X             Y             Z
Electronic contribution:      8.78404      -1.20516      -2.84207
Nuclear contribution   :    -10.03131       1.44984       3.13552
                        -----------------------------------------
Total Dipole Moment    :     -1.24727       0.24468       0.29346
                        -----------------------------------------
Magnitude (a.u.)       :      1.30448
Magnitude (Debye)      :      3.31574

Rotational constants in cm-1:     0.129218     0.075955     0.068033
Rotational constants in MHz :  3873.861489  2277.069663  2039.568031

                             ****ORCA TERMINATED NORMALLY****
TOTAL RUN TIME: 0 days 1 hours 1 minutes 52 seconds 824 msec
