                         Program Version 5.0.4 -  RELEASE  -
|  1> ! ri-mp2 aug-cc-pvdz aug-cc-pvdz/c tightscf
|  2> %pal nprocs 16 end
|  3> %maxcore 3800
|  4> %base "DZ_P-C_41_AB"
|  5> %scf
|  6> STABPerform true
|  7> STABRestartUHFifUnstable true
|  8> end
|  9>
| 10> *xyz 0 1
| 11> C         0.036356    0.585989   -0.029898
| 12> C        -1.047334   -0.478368   -0.004482
| 13> P         1.731431   -0.162905   -0.083757
| 14> H        -0.072266    1.253276    0.826131
| 15> H        -0.086216    1.189791   -0.930529
| 16> N        -2.365422    0.138857   -0.064404
| 17> H        -0.905870   -1.117912    0.878527
| 18> H        -0.938933   -1.123978   -0.878431
| 19> H        -2.543755    0.693191    0.763427
| 20> H        -3.094861   -0.558751   -0.126456
| 21> H         1.826725   -0.539456    1.277713
| 22> H         2.467537    1.029687    0.103082
| 23> *
| 24>
| 25> $new_job
| 26> ! ri-mp2 aug-cc-pvtz aug-cc-pvtz/c tightscf
| 27> %pal nprocs 16 end
| 28> %maxcore 3800
| 29> %base "TZ_P-C_41_AB"
| 30>
| 31> *xyz 0 1
| 32> C         0.036356    0.585989   -0.029898
| 33> C        -1.047334   -0.478368   -0.004482
| 34> P         1.731431   -0.162905   -0.083757
| 35> H        -0.072266    1.253276    0.826131
| 36> H        -0.086216    1.189791   -0.930529
| 37> N        -2.365422    0.138857   -0.064404
| 38> H        -0.905870   -1.117912    0.878527
| 39> H        -0.938933   -1.123978   -0.878431
| 40> H        -2.543755    0.693191    0.763427
| 41> H        -3.094861   -0.558751   -0.126456
| 42> H         1.826725   -0.539456    1.277713
| 43> H         2.467537    1.029687    0.103082
| 44> *
| 45>
| 46> $new_job
| 47> ! ri-mp2 aug-cc-pvqz aug-cc-pvqz/c tightscf
| 48> %pal nprocs 16 end
| 49> %maxcore 3800
| 50> %base "QZ_P-C_41_AB"
| 51>
| 52> *xyz 0 1
| 53> C         0.036356    0.585989   -0.029898
| 54> C        -1.047334   -0.478368   -0.004482
| 55> P         1.731431   -0.162905   -0.083757
| 56> H        -0.072266    1.253276    0.826131
| 57> H        -0.086216    1.189791   -0.930529
| 58> N        -2.365422    0.138857   -0.064404
| 59> H        -0.905870   -1.117912    0.878527
| 60> H        -0.938933   -1.123978   -0.878431
| 61> H        -2.543755    0.693191    0.763427
| 62> H        -3.094861   -0.558751   -0.126456
| 63> H         1.826725   -0.539456    1.277713
| 64> H         2.467537    1.029687    0.103082
| 65> *
| 66>
| 67>
| 68>
| 69>
| 70>                          ****END OF INPUT****
 Total Charge           Charge          ....    0
 Multiplicity           Mult            ....    1
 Number of Electrons    NEL             ....   42
MP2 TOTAL ENERGY:     -476.200372722 Eh
FINAL SINGLE POINT ENERGY      -476.200372721506
MP2 TOTAL ENERGY:     -476.373083630 Eh
FINAL SINGLE POINT ENERGY      -476.373083630131

CARTESIAN COORDINATES (ANGSTROEM)
---------------------------------
  C      0.036356    0.585989   -0.029898
  C     -1.047334   -0.478368   -0.004482
  P      1.731431   -0.162905   -0.083757
  H     -0.072266    1.253276    0.826131
  H     -0.086216    1.189791   -0.930529
  N     -2.365422    0.138857   -0.064404
  H     -0.905870   -1.117912    0.878527
  H     -0.938933   -1.123978   -0.878431
  H     -2.543755    0.693191    0.763427
  H     -3.094861   -0.558751   -0.126456
  H      1.826725   -0.539456    1.277713
  H      2.467537    1.029687    0.103082

 Multiplicity           Mult            ....    1
 Number of Electrons    NEL             ....   42
 Basis Dimension        Dim             ....  692

ORBITAL ENERGIES
----------------

  NO   OCC          E(Eh)            E(eV)
   0   2.0000     -79.933301     -2175.0957
   1   2.0000     -15.541699      -422.9111
   2   2.0000     -11.254898      -306.2613
   3   2.0000     -11.227640      -305.5196
   4   2.0000      -7.476320      -203.4410
   5   2.0000      -5.370324      -146.1339
   6   2.0000      -5.370138      -146.1289
   7   2.0000      -5.369109      -146.1009
   8   2.0000      -1.185357       -32.2552
   9   2.0000      -1.012817       -27.5601
  10   2.0000      -0.859053       -23.3760
  11   2.0000      -0.781852       -21.2753
  12   2.0000      -0.669611       -18.2210
  13   2.0000      -0.631192       -17.1756
  14   2.0000      -0.600510       -16.3407
  15   2.0000      -0.547669       -14.9028
  16   2.0000      -0.507237       -13.8026
  17   2.0000      -0.489630       -13.3235
  18   2.0000      -0.468697       -12.7539
  19   2.0000      -0.394715       -10.7408
  20   2.0000      -0.360378        -9.8064
  21   0.0000       0.024088         0.6555
  22   0.0000       0.032199         0.8762
  23   0.0000       0.036833         1.0023
  24   0.0000       0.038541         1.0488
  25   0.0000       0.052773         1.4360

MULLIKEN ATOMIC CHARGES
-----------------------
   0 C :   -0.751680
   1 C :   -0.137017
   2 P :    0.229470
   3 H :    0.282655
   4 H :    0.297687
   5 N :   -0.737170
   6 H :    0.230918
   7 H :    0.275872
   8 H :    0.268158
   9 H :    0.215677
  10 H :   -0.083890
  11 H :   -0.090680
Sum of atomic charges:    0.0000000

LOEWDIN ATOMIC CHARGES
----------------------
   0 C :    0.261566
   1 C :    0.238250
   2 P :    1.504630
   3 H :   -0.344706
   4 H :   -0.358863
   5 N :    1.277967
   6 H :   -0.290885
   7 H :   -0.315525
   8 H :   -0.514386
   9 H :   -0.508008
  10 H :   -0.470916
  11 H :   -0.479125

  Mayer bond orders larger than 0.100000
B(  0-C ,  1-C ) :   0.9436 B(  0-C ,  2-P ) :   0.8305 B(  0-C ,  3-H ) :   0.8936
B(  0-C ,  4-H ) :   0.8852 B(  1-C ,  5-N ) :   0.8901 B(  1-C ,  6-H ) :   0.9101
B(  1-C ,  7-H ) :   0.8761 B(  2-P , 10-H ) :   0.9315 B(  2-P , 11-H ) :   0.9555
B(  5-N ,  8-H ) :   0.8834 B(  5-N ,  9-H ) :   0.9665

MP2 TOTAL ENERGY:     -476.426642547 Eh
FINAL SINGLE POINT ENERGY      -476.426642547268

DIPOLE MOMENT
-------------
                                X             Y             Z
Electronic contribution:      4.75488      -0.99837      -1.43029
Nuclear contribution   :     -5.12830       1.00489       2.03971
                        -----------------------------------------
Total Dipole Moment    :     -0.37342       0.00653       0.60943
                        -----------------------------------------
Magnitude (a.u.)       :      0.71476
Magnitude (Debye)      :      1.81679

Rotational constants in cm-1:     0.795248     0.077620     0.074208
Rotational constants in MHz : 23840.933517  2326.996852  2224.707789

                             ****ORCA TERMINATED NORMALLY****
TOTAL RUN TIME: 0 days 0 hours 26 minutes 22 seconds 521 msec
