                         Program Version 5.0.4 -  RELEASE  -
|  1> ! ri-mp2 aug-cc-pvdz aug-cc-pvdz/c tightscf
|  2> %pal nprocs 16 end
|  3> %maxcore 3800
|  4> %base "DZ_B-F_66_AB"
|  5>
|  6> *xyz 0 1
|  7> F         2.921518   -0.687452   -0.000001
|  8> F         2.186635    1.426859    0.000000
|  9> B         1.884739    0.143613   -0.000000
| 10> C         0.452783   -0.430252   -0.000001
| 11> C        -0.708417    0.361227    0.000001
| 12> C        -1.964478   -0.234466    0.000001
| 13> H        -2.860482    0.366167    0.000003
| 14> C        -2.071210   -1.614735   -0.000002
| 15> C         0.300052   -1.816254   -0.000004
| 16> H         1.190434   -2.430995   -0.000006
| 17> C        -0.944559   -2.416513   -0.000006
| 18> H        -1.035514   -3.493491   -0.000008
| 19> H        -3.055778   -2.064481   -0.000003
| 20> O        -0.530679    1.696483    0.000006
| 21> C        -1.659730    2.541823    0.000006
| 22> H        -1.272532    3.556542    0.000006
| 23> H        -2.272207    2.388345    0.891671
| 24> H        -2.272206    2.388345   -0.891660
| 25> *
| 26>
| 27> $new_job
| 28> ! ri-mp2 aug-cc-pvtz aug-cc-pvtz/c tightscf
| 29> %pal nprocs 16 end
| 30> %maxcore 3800
| 31> %base "TZ_B-F_66_AB"
| 32>
| 33> *xyz 0 1
| 34> F         2.921518   -0.687452   -0.000001
| 35> F         2.186635    1.426859    0.000000
| 36> B         1.884739    0.143613   -0.000000
| 37> C         0.452783   -0.430252   -0.000001
| 38> C        -0.708417    0.361227    0.000001
| 39> C        -1.964478   -0.234466    0.000001
| 40> H        -2.860482    0.366167    0.000003
| 41> C        -2.071210   -1.614735   -0.000002
| 42> C         0.300052   -1.816254   -0.000004
| 43> H         1.190434   -2.430995   -0.000006
| 44> C        -0.944559   -2.416513   -0.000006
| 45> H        -1.035514   -3.493491   -0.000008
| 46> H        -3.055778   -2.064481   -0.000003
| 47> O        -0.530679    1.696483    0.000006
| 48> C        -1.659730    2.541823    0.000006
| 49> H        -1.272532    3.556542    0.000006
| 50> H        -2.272207    2.388345    0.891671
| 51> H        -2.272206    2.388345   -0.891660
| 52> *
| 53>
| 54> $new_job
| 55> ! ri-mp2 aug-cc-pvqz aug-cc-pvqz/c tightscf
| 56> %pal nprocs 16 end
| 57> %maxcore 3800
| 58> %base "QZ_B-F_66_AB"
| 59>
| 60> *xyz 0 1
| 61> F         2.921518   -0.687452   -0.000001
| 62> F         2.186635    1.426859    0.000000
| 63> B         1.884739    0.143613   -0.000000
| 64> C         0.452783   -0.430252   -0.000001
| 65> C        -0.708417    0.361227    0.000001
| 66> C        -1.964478   -0.234466    0.000001
| 67> H        -2.860482    0.366167    0.000003
| 68> C        -2.071210   -1.614735   -0.000002
| 69> C         0.300052   -1.816254   -0.000004
| 70> H         1.190434   -2.430995   -0.000006
| 71> C        -0.944559   -2.416513   -0.000006
| 72> H        -1.035514   -3.493491   -0.000008
| 73> H        -3.055778   -2.064481   -0.000003
| 74> O        -0.530679    1.696483    0.000006
| 75> C        -1.659730    2.541823    0.000006
| 76> H        -1.272532    3.556542    0.000006
| 77> H        -2.272207    2.388345    0.891671
| 78> H        -2.272206    2.388345   -0.891660
| 79> *
| 80>
| 81>
| 82>
| 83>
| 84>                          ****END OF INPUT****
 Total Charge           Charge          ....    0
 Multiplicity           Mult            ....    1
 Number of Electrons    NEL             ....   80
MP2 TOTAL ENERGY:     -569.393869773 Eh
FINAL SINGLE POINT ENERGY      -569.393869772925
MP2 TOTAL ENERGY:     -569.890345973 Eh
FINAL SINGLE POINT ENERGY      -569.890345973081

CARTESIAN COORDINATES (ANGSTROEM)
---------------------------------
  F      2.921518   -0.687452   -0.000001
  F      2.186635    1.426859    0.000000
  B      1.884739    0.143613   -0.000000
  C      0.452783   -0.430252   -0.000001
  C     -0.708417    0.361227    0.000001
  C     -1.964478   -0.234466    0.000001
  H     -2.860482    0.366167    0.000003
  C     -2.071210   -1.614735   -0.000002
  C      0.300052   -1.816254   -0.000004
  H      1.190434   -2.430995   -0.000006
  C     -0.944559   -2.416513   -0.000006
  H     -1.035514   -3.493491   -0.000008
  H     -3.055778   -2.064481   -0.000003
  O     -0.530679    1.696483    0.000006
  C     -1.659730    2.541823    0.000006
  H     -1.272532    3.556542    0.000006
  H     -2.272207    2.388345    0.891671
  H     -2.272206    2.388345   -0.891660

 Multiplicity           Mult            ....    1
 Number of Electrons    NEL             ....   80
 Basis Dimension        Dim             .... 1202

ORBITAL ENERGIES
----------------

  NO   OCC          E(Eh)            E(eV)
   0   2.0000     -26.293536      -715.4835
   1   2.0000     -26.290523      -715.4015
   2   2.0000     -20.591869      -560.3332
   3   2.0000     -11.318492      -307.9918
   4   2.0000     -11.290004      -307.2166
   5   2.0000     -11.255556      -306.2792
   6   2.0000     -11.251738      -306.1754
   7   2.0000     -11.235757      -305.7405
   8   2.0000     -11.230102      -305.5866
   9   2.0000     -11.219551      -305.2995
  10   2.0000      -7.691771      -209.3037
  11   2.0000      -1.627198       -44.2783
  12   2.0000      -1.593353       -43.3573
  13   2.0000      -1.428411       -38.8690
  14   2.0000      -1.163600       -31.6632
  15   2.0000      -1.039417       -28.2840
  16   2.0000      -1.029794       -28.0221
  17   2.0000      -0.954573       -25.9752
  18   2.0000      -0.855851       -23.2889
  19   2.0000      -0.823191       -22.4002
  20   2.0000      -0.800046       -21.7704
  21   2.0000      -0.745862       -20.2959
  22   2.0000      -0.740826       -20.1589
  23   2.0000      -0.706961       -19.2374
  24   2.0000      -0.697198       -18.9717
  25   2.0000      -0.678731       -18.4692
  26   2.0000      -0.667435       -18.1618
  27   2.0000      -0.659679       -17.9508
  28   2.0000      -0.641665       -17.4606
  29   2.0000      -0.635869       -17.3029
  30   2.0000      -0.622752       -16.9459
  31   2.0000      -0.591219       -16.0879
  32   2.0000      -0.575607       -15.6631
  33   2.0000      -0.539438       -14.6788
  34   2.0000      -0.530559       -14.4372
  35   2.0000      -0.521427       -14.1887
  36   2.0000      -0.482425       -13.1274
  37   2.0000      -0.480720       -13.0810
  38   2.0000      -0.359733        -9.7888
  39   2.0000      -0.326314        -8.8794
  40   0.0000       0.018974         0.5163
  41   0.0000       0.026313         0.7160
  42   0.0000       0.031233         0.8499
  43   0.0000       0.035668         0.9706
  44   0.0000       0.040851         1.1116

MULLIKEN ATOMIC CHARGES
-----------------------
   0 F :   -0.911438
   1 F :   -0.897975
   2 B :    1.822945
   3 C :    0.107912
   4 C :    1.337179
   5 C :   -0.470289
   6 H :    0.273896
   7 C :   -0.359280
   8 C :   -0.757881
   9 H :    0.217233
  10 C :   -0.353494
  11 H :    0.233147
  12 H :    0.270693
  13 O :   -0.841243
  14 C :   -0.612567
  15 H :    0.417939
  16 H :    0.261611
  17 H :    0.261611
Sum of atomic charges:   -0.0000000

LOEWDIN ATOMIC CHARGES
----------------------
   0 F :    0.833719
   1 F :    0.833763
   2 B :   -1.749867
   3 C :   -0.001840
   4 C :   -0.483743
   5 C :    0.335507
   6 H :   -0.364959
   7 C :    0.348516
   8 C :    0.295513
   9 H :   -0.332615
  10 C :    0.358852
  11 H :   -0.324354
  12 H :   -0.309243
  13 O :    0.888848
  14 C :    0.588830
  15 H :   -0.311389
  16 H :   -0.302770
  17 H :   -0.302770

  Mayer bond orders larger than 0.100000
B(  0-F ,  2-B ) :   0.1210 B(  0-F ,  3-C ) :  -0.1860 B(  0-F ,  8-C ) :   0.1162
B(  0-F ,  9-H ) :   0.1065 B(  1-F ,  2-B ) :   0.2482 B(  1-F ,  3-C ) :  -0.2434
B(  2-B ,  3-C ) :   0.9604 B(  2-B ,  8-C ) :   0.1044 B(  3-C ,  4-C ) :   0.9765
B(  3-C ,  5-C ) :  -0.2908 B(  3-C ,  8-C ) :   0.9397 B(  3-C ,  9-H ) :  -0.1516
B(  3-C , 10-C ) :  -0.2201 B(  3-C , 13-O ) :   0.2522 B(  4-C ,  5-C ) :   1.3489
B(  4-C ,  6-H ) :  -0.1017 B(  4-C ,  7-C ) :  -0.1862 B(  4-C ,  8-C ) :  -0.2648
B(  4-C , 14-C ) :  -0.1784 B(  5-C ,  6-H ) :   0.9879 B(  5-C ,  7-C ) :   1.0116
B(  5-C ,  8-C ) :   0.1136 B(  5-C , 10-C ) :  -0.1354 B(  5-C , 12-H ) :  -0.1486
B(  5-C , 13-O ) :   0.1856 B(  7-C ,  8-C ) :   0.1646 B(  7-C , 10-C ) :   1.1797
B(  7-C , 11-H ) :  -0.1171 B(  7-C , 12-H ) :   1.1058 B(  8-C ,  9-H ) :   1.0119
B(  8-C , 10-C ) :   1.3132 B(  8-C , 11-H ) :  -0.1533 B( 10-C , 11-H ) :   1.1515
B( 13-O , 14-C ) :   0.9347 B( 14-C , 15-H ) :   0.8458 B( 14-C , 16-H ) :   0.9094
B( 14-C , 17-H ) :   0.9094

MP2 TOTAL ENERGY:     -570.048550883 Eh
FINAL SINGLE POINT ENERGY      -570.048550883350

DIPOLE MOMENT
-------------
                                X             Y             Z
Electronic contribution:     15.97892       0.03309      -0.00000
Nuclear contribution   :    -17.48761      -0.10481       0.00000
                        -----------------------------------------
Total Dipole Moment    :     -1.50869      -0.07172       0.00000
                        -----------------------------------------
Magnitude (a.u.)       :      1.51040
Magnitude (Debye)      :      3.83912

Rotational constants in cm-1:     0.046235     0.035130     0.020038
Rotational constants in MHz :  1386.094658  1053.166822   600.735735

                             ****ORCA TERMINATED NORMALLY****
TOTAL RUN TIME: 0 days 0 hours 42 minutes 45 seconds 118 msec
