                         Program Version 5.0.4 -  RELEASE  -
|  1> ! ri-mp2 aug-cc-pvdz aug-cc-pvdz/c tightscf
|  2> %pal nprocs 16 end
|  3> %maxcore 3800
|  4> %base "DZ_P-S_19_AB"
|  5>
|  6> *xyz 0 1
|  7> C        -3.413274   -0.042152    0.016891
|  8> C        -2.894150    1.235537   -0.053917
|  9> C        -1.523752    1.386634   -0.081526
| 10> C        -2.615676   -1.166688    0.060978
| 11> C        -1.244724   -1.003969    0.029630
| 12> C        -0.694366    0.270030   -0.043257
| 13> H        -3.560517    2.083394   -0.086170
| 14> H        -1.078266    2.369055   -0.133873
| 15> H        -3.069502   -2.143454    0.121395
| 16> H        -0.607690   -1.875131    0.074806
| 17> C         0.774527    0.509698   -0.078378
| 18> S         1.781549   -0.916303   -0.399310
| 19> P         3.738853   -0.172129   -0.004557
| 20> O         4.696951   -1.126894   -0.529755
| 21> O         1.224173    1.626231    0.068377
| 22> N        -4.878485   -0.211847    0.049585
| 23> O        -5.556533    0.789943    0.004278
| 24> O        -5.307476   -1.341807    0.119718
| 25> O         3.772911    0.043215    1.567097
| 26> H         4.099706   -0.730141    2.042855
| 27> O         3.739464    1.278172   -0.563166
| 28> H         2.890649    1.736577   -0.343706
| 29> *
| 30>
| 31> $new_job
| 32> ! ri-mp2 aug-cc-pvtz aug-cc-pvtz/c tightscf
| 33> %pal nprocs 16 end
| 34> %maxcore 3800
| 35> %base "TZ_P-S_19_AB"
| 36>
| 37> *xyz 0 1
| 38> C        -3.413274   -0.042152    0.016891
| 39> C        -2.894150    1.235537   -0.053917
| 40> C        -1.523752    1.386634   -0.081526
| 41> C        -2.615676   -1.166688    0.060978
| 42> C        -1.244724   -1.003969    0.029630
| 43> C        -0.694366    0.270030   -0.043257
| 44> H        -3.560517    2.083394   -0.086170
| 45> H        -1.078266    2.369055   -0.133873
| 46> H        -3.069502   -2.143454    0.121395
| 47> H        -0.607690   -1.875131    0.074806
| 48> C         0.774527    0.509698   -0.078378
| 49> S         1.781549   -0.916303   -0.399310
| 50> P         3.738853   -0.172129   -0.004557
| 51> O         4.696951   -1.126894   -0.529755
| 52> O         1.224173    1.626231    0.068377
| 53> N        -4.878485   -0.211847    0.049585
| 54> O        -5.556533    0.789943    0.004278
| 55> O        -5.307476   -1.341807    0.119718
| 56> O         3.772911    0.043215    1.567097
| 57> H         4.099706   -0.730141    2.042855
| 58> O         3.739464    1.278172   -0.563166
| 59> H         2.890649    1.736577   -0.343706
| 60> *
| 61>
| 62> $new_job
| 63> ! ri-mp2 aug-cc-pvqz aug-cc-pvqz/c tightscf
| 64> %pal nprocs 16 end
| 65> %maxcore 3800
| 66> %base "QZ_P-S_19_AB"
| 67>
| 68> *xyz 0 1
| 69> C        -3.413274   -0.042152    0.016891
| 70> C        -2.894150    1.235537   -0.053917
| 71> C        -1.523752    1.386634   -0.081526
| 72> C        -2.615676   -1.166688    0.060978
| 73> C        -1.244724   -1.003969    0.029630
| 74> C        -0.694366    0.270030   -0.043257
| 75> H        -3.560517    2.083394   -0.086170
| 76> H        -1.078266    2.369055   -0.133873
| 77> H        -3.069502   -2.143454    0.121395
| 78> H        -0.607690   -1.875131    0.074806
| 79> C         0.774527    0.509698   -0.078378
| 80> S         1.781549   -0.916303   -0.399310
| 81> P         3.738853   -0.172129   -0.004557
| 82> O         4.696951   -1.126894   -0.529755
| 83> O         1.224173    1.626231    0.068377
| 84> N        -4.878485   -0.211847    0.049585
| 85> O        -5.556533    0.789943    0.004278
| 86> O        -5.307476   -1.341807    0.119718
| 87> O         3.772911    0.043215    1.567097
| 88> H         4.099706   -0.730141    2.042855
| 89> O         3.739464    1.278172   -0.563166
| 90> H         2.890649    1.736577   -0.343706
| 91> *
| 92>
| 93>
| 94>
| 95>
| 96>                          ****END OF INPUT****
 Total Charge           Charge          ....    0
 Multiplicity           Mult            ....    1
 Number of Electrons    NEL             ....  134
MP2 TOTAL ENERGY:    -1513.108962151 Eh
FINAL SINGLE POINT ENERGY     -1513.108962150964
MP2 TOTAL ENERGY:    -1513.882339140 Eh
FINAL SINGLE POINT ENERGY     -1513.882339140146

CARTESIAN COORDINATES (ANGSTROEM)
---------------------------------
  C     -3.413274   -0.042152    0.016891
  C     -2.894150    1.235537   -0.053917
  C     -1.523752    1.386634   -0.081526
  C     -2.615676   -1.166688    0.060978
  C     -1.244724   -1.003969    0.029630
  C     -0.694366    0.270030   -0.043257
  H     -3.560517    2.083394   -0.086170
  H     -1.078266    2.369055   -0.133873
  H     -3.069502   -2.143454    0.121395
  H     -0.607690   -1.875131    0.074806
  C      0.774527    0.509698   -0.078378
  S      1.781549   -0.916303   -0.399310
  P      3.738853   -0.172129   -0.004557
  O      4.696951   -1.126894   -0.529755
  O      1.224173    1.626231    0.068377
  N     -4.878485   -0.211847    0.049585
  O     -5.556533    0.789943    0.004278
  O     -5.307476   -1.341807    0.119718
  O      3.772911    0.043215    1.567097
  H      4.099706   -0.730141    2.042855
  O      3.739464    1.278172   -0.563166
  H      2.890649    1.736577   -0.343706

 Multiplicity           Mult            ....    1
 Number of Electrons    NEL             ....  134
 Basis Dimension        Dim             .... 1564

ORBITAL ENERGIES
----------------

  NO   OCC          E(Eh)            E(eV)
   0   2.0000     -92.007503     -2503.6514
   1   2.0000     -80.109174     -2179.8814
   2   2.0000     -20.623178      -561.1852
   3   2.0000     -20.619855      -561.0948
   4   2.0000     -20.619643      -561.0890
   5   2.0000     -20.608720      -560.7918
   6   2.0000     -20.608444      -560.7843
   7   2.0000     -20.530504      -558.6634
   8   2.0000     -15.872725      -431.9188
   9   2.0000     -11.421250      -310.7880
  10   2.0000     -11.338854      -308.5459
  11   2.0000     -11.305319      -307.6334
  12   2.0000     -11.297178      -307.4118
  13   2.0000     -11.294610      -307.3420
  14   2.0000     -11.293748      -307.3185
  15   2.0000     -11.291971      -307.2702
  16   2.0000      -9.012222      -245.2350
  17   2.0000      -7.629419      -207.6071
  18   2.0000      -6.693467      -182.1385
  19   2.0000      -6.692449      -182.1108
  20   2.0000      -6.691824      -182.0938
  21   2.0000      -5.527927      -150.4225
  22   2.0000      -5.527397      -150.4081
  23   2.0000      -5.526385      -150.3806
  24   2.0000      -1.638672       -44.5905
  25   2.0000      -1.470989       -40.0276
  26   2.0000      -1.455088       -39.5950
  27   2.0000      -1.429408       -38.8962
  28   2.0000      -1.404127       -38.2082
  29   2.0000      -1.326743       -36.1025
  30   2.0000      -1.235690       -33.6248
  31   2.0000      -1.138779       -30.9877
  32   2.0000      -1.086316       -29.5602
  33   2.0000      -1.066169       -29.0119
  34   2.0000      -0.998409       -27.1681
  35   2.0000      -0.899522       -24.4772
  36   2.0000      -0.887624       -24.1535
  37   2.0000      -0.857742       -23.3403
  38   2.0000      -0.821435       -22.3524
  39   2.0000      -0.809485       -22.0272
  40   2.0000      -0.775601       -21.1052
  41   2.0000      -0.754616       -20.5342
  42   2.0000      -0.748193       -20.3594
  43   2.0000      -0.733704       -19.9651
  44   2.0000      -0.715572       -19.4717
  45   2.0000      -0.690838       -18.7987
  46   2.0000      -0.679639       -18.4939
  47   2.0000      -0.665691       -18.1144
  48   2.0000      -0.660126       -17.9629
  49   2.0000      -0.653469       -17.7818
  50   2.0000      -0.630587       -17.1592
  51   2.0000      -0.617911       -16.8142
  52   2.0000      -0.607957       -16.5434
  53   2.0000      -0.598733       -16.2924
  54   2.0000      -0.570227       -15.5167
  55   2.0000      -0.559026       -15.2119
  56   2.0000      -0.558660       -15.2019
  57   2.0000      -0.522656       -14.2222
  58   2.0000      -0.516641       -14.0585
  59   2.0000      -0.516284       -14.0488
  60   2.0000      -0.496227       -13.5030
  61   2.0000      -0.476245       -12.9593
  62   2.0000      -0.470060       -12.7910
  63   2.0000      -0.469208       -12.7678
  64   2.0000      -0.432675       -11.7737
  65   2.0000      -0.406974       -11.0743
  66   2.0000      -0.395929       -10.7738
  67   0.0000      -0.006448        -0.1755
  68   0.0000       0.016009         0.4356
  69   0.0000       0.022725         0.6184
  70   0.0000       0.027324         0.7435
  71   0.0000       0.037729         1.0267

MULLIKEN ATOMIC CHARGES
-----------------------
   0 C :   -0.104015
   1 C :   -0.127926
   2 C :   -0.212828
   3 C :   -0.178582
   4 C :   -0.104569
   5 C :   -0.033481
   6 H :    0.361113
   7 H :    0.243701
   8 H :    0.338708
   9 H :    0.284322
  10 C :    0.718911
  11 S :   -0.024785
  12 P :    2.375898
  13 O :   -1.199421
  14 O :   -0.804808
  15 N :    0.786894
  16 O :   -0.606966
  17 O :   -0.606498
  18 O :   -0.892410
  19 H :    0.388979
  20 O :   -0.972806
  21 H :    0.370569
Sum of atomic charges:    0.0000000

LOEWDIN ATOMIC CHARGES
----------------------
   0 C :   -0.286486
   1 C :    0.348692
   2 C :    0.341825
   3 C :    0.344632
   4 C :    0.306683
   5 C :   -0.207289
   6 H :   -0.343629
   7 H :   -0.333453
   8 H :   -0.344017
   9 H :   -0.383951
  10 C :   -1.047942
  11 S :    1.232024
  12 P :   -1.019320
  13 O :    0.240494
  14 O :    0.795168
  15 N :   -0.836201
  16 O :    0.562286
  17 O :    0.561715
  18 O :    1.067226
  19 H :   -0.864672
  20 O :    1.059616
  21 H :   -1.193400

  Mayer bond orders larger than 0.100000
B(  0-C ,  1-C ) :   1.1444 B(  0-C ,  2-C ) :  -0.2044 B(  0-C ,  3-C ) :   1.2237
B(  0-C ,  4-C ) :  -0.2636 B(  0-C ,  6-H ) :  -0.1275 B(  0-C , 15-N ) :   0.8334
B(  0-C , 16-O ) :   0.3452 B(  0-C , 17-O ) :   0.2822 B(  1-C ,  2-C ) :   1.2907
B(  1-C ,  5-C ) :  -0.1957 B(  1-C ,  6-H ) :   0.8807 B(  1-C ,  7-H ) :  -0.1207
B(  1-C , 15-N ) :  -0.1425 B(  2-C ,  3-C ) :   0.1141 B(  2-C ,  5-C ) :   1.0821
B(  2-C ,  6-H ) :  -0.1090 B(  2-C ,  7-H ) :   1.0231 B(  2-C , 10-C ) :  -0.3101
B(  2-C , 14-O ) :  -0.1155 B(  3-C ,  4-C ) :   1.2368 B(  3-C ,  5-C ) :  -0.2184
B(  3-C ,  8-H ) :   0.9257 B(  3-C ,  9-H ) :  -0.1552 B(  3-C , 15-N ) :  -0.1300
B(  4-C ,  5-C ) :   1.0295 B(  4-C ,  8-H ) :  -0.1121 B(  4-C ,  9-H ) :   1.0209
B(  4-C , 10-C ) :  -0.4065 B(  5-C , 10-C ) :   0.8934 B(  5-C , 11-S ) :  -0.1354
B(  5-C , 14-O ) :   0.4596 B( 10-C , 11-S ) :   0.9391 B( 10-C , 14-O ) :   1.0465
B( 11-S , 12-P ) :   0.9297 B( 11-S , 13-O ) :  -0.1094 B( 12-P , 13-O ) :   1.3410
B( 12-P , 18-O ) :   0.6669 B( 12-P , 20-O ) :   0.6983 B( 13-O , 20-O ) :  -0.1092
B( 14-O , 21-H ) :   0.1464 B( 15-N , 16-O ) :   1.1751 B( 15-N , 17-O ) :   1.1884
B( 18-O , 19-H ) :   0.8938 B( 20-O , 21-H ) :   0.7990

MP2 TOTAL ENERGY:    -1514.137483609 Eh
FINAL SINGLE POINT ENERGY     -1514.137483608504

DIPOLE MOMENT
-------------
                                X             Y             Z
Electronic contribution:      4.36163      -1.51677      -0.81590
Nuclear contribution   :     -4.71412       1.57912       1.62837
                        -----------------------------------------
Total Dipole Moment    :     -0.35249       0.06235       0.81247
                        -----------------------------------------
Magnitude (a.u.)       :      0.88783
Magnitude (Debye)      :      2.25668

Rotational constants in cm-1:     0.054267     0.005384     0.005071
Rotational constants in MHz :  1626.871881   161.393541   152.028175

                             ****ORCA TERMINATED NORMALLY****
TOTAL RUN TIME: 0 days 1 hours 44 minutes 10 seconds 874 msec
