                         Program Version 5.0.4 -  RELEASE  -
|  1> ! ri-mp2 aug-cc-pvdz aug-cc-pvdz/c tightscf
|  2> %pal nprocs 16 end
|  3> %maxcore 3800
|  4> %base "DZ_B-B_17_A"
|  5> %scf
|  6> STABPerform true
|  7> STABRestartUHFifUnstable true
|  8> end
|  9>
| 10> *xyz 0 2
| 11> B         0.000000    0.813007    0.000000
| 12> F         1.280724    1.032602    0.000000
| 13> Cl        -0.678031   -0.785791    0.000000
| 14> *
| 15>
| 16> $new_job
| 17> ! ri-mp2 aug-cc-pvtz aug-cc-pvtz/c tightscf
| 18> %pal nprocs 16 end
| 19> %maxcore 3800
| 20> %base "TZ_B-B_17_A"
| 21>
| 22> *xyz 0 2
| 23> B         0.000000    0.813007    0.000000
| 24> F         1.280724    1.032602    0.000000
| 25> Cl        -0.678031   -0.785791    0.000000
| 26> *
| 27>
| 28> $new_job
| 29> ! ri-mp2 aug-cc-pvqz aug-cc-pvqz/c tightscf
| 30> %pal nprocs 16 end
| 31> %maxcore 3800
| 32> %base "QZ_B-B_17_A"
| 33>
| 34> *xyz 0 2
| 35> B         0.000000    0.813007    0.000000
| 36> F         1.280724    1.032602    0.000000
| 37> Cl        -0.678031   -0.785791    0.000000
| 38> *
| 39>
| 40>
| 41>
| 42>
| 43>                          ****END OF INPUT****
 Total Charge           Charge          ....    0
 Multiplicity           Mult            ....    2
 Number of Electrons    NEL             ....   31
MP2 TOTAL ENERGY:     -584.082035134 Eh
FINAL SINGLE POINT ENERGY      -584.082035133594
MP2 TOTAL ENERGY:     -584.247917151 Eh
FINAL SINGLE POINT ENERGY      -584.247917150505

CARTESIAN COORDINATES (ANGSTROEM)
---------------------------------
  B      0.000000    0.813007    0.000000
  F      1.280724    1.032602    0.000000
  Cl    -0.678031   -0.785791    0.000000

 Multiplicity           Mult            ....    2
 Number of Electrons    NEL             ....   31
 Basis Dimension        Dim             ....  244

ORBITAL ENERGIES
----------------
                 SPIN UP ORBITALS
  NO   OCC          E(Eh)            E(eV)
   0   1.0000    -104.858411     -2853.3424
   1   1.0000     -26.342590      -716.8183
   2   1.0000     -10.586114      -288.0628
   3   1.0000      -8.054764      -219.1813
   4   1.0000      -8.051264      -219.0860
   5   1.0000      -8.051073      -219.0808
   6   1.0000      -7.749037      -210.8620
   7   1.0000      -1.663536       -45.2671
   8   1.0000      -1.142374       -31.0856
   9   1.0000      -0.824695       -22.4411
  10   1.0000      -0.739981       -20.1359
  11   1.0000      -0.714568       -19.4444
  12   1.0000      -0.641792       -17.4640
  13   1.0000      -0.508953       -13.8493
  14   1.0000      -0.502365       -13.6700
  15   1.0000      -0.385978       -10.5030
  16   0.0000       0.037707         1.0261
  17   0.0000       0.040003         1.0885
  18   0.0000       0.041201         1.1211
  19   0.0000       0.043215         1.1759
  20   0.0000       0.082841         2.2542

                 SPIN DOWN ORBITALS
  NO   OCC          E(Eh)            E(eV)
   0   1.0000    -104.857010     -2853.3043
   1   1.0000     -26.339438      -716.7325
   2   1.0000     -10.584481      -288.0184
   3   1.0000      -8.050860      -219.0750
   4   1.0000      -8.050822      -219.0740
   5   1.0000      -8.048663      -219.0152
   6   1.0000      -7.726088      -210.2375
   7   1.0000      -1.654181       -45.0125
   8   1.0000      -1.129654       -30.7395
   9   1.0000      -0.810649       -22.0589
  10   1.0000      -0.715327       -19.4650
  11   1.0000      -0.714517       -19.4430
  12   1.0000      -0.604615       -16.4524
  13   1.0000      -0.502042       -13.6613
  14   1.0000      -0.493185       -13.4202
  15   0.0000       0.024140         0.6569
  16   0.0000       0.040098         1.0911
  17   0.0000       0.041318         1.1243
  18   0.0000       0.042128         1.1464
  19   0.0000       0.084156         2.2900

MULLIKEN ATOMIC CHARGES AND SPIN POPULATIONS
--------------------------------------------
   0 B :    0.784867    0.971159
   1 F :   -0.623834   -0.019732
   2 Cl:   -0.161033    0.048573
Sum of atomic charges         :   -0.0000000

LOEWDIN ATOMIC CHARGES AND SPIN POPULATIONS
-------------------------------------------
   0 B :   -1.663882    0.654753
   1 F :    0.602797    0.157737
   2 Cl:    1.061085    0.187510

  Mayer bond orders larger than 0.100000
B(  0-B ,  1-F ) :   0.5268 B(  0-B ,  2-Cl) :   1.1936

MP2 TOTAL ENERGY:     -584.302317776 Eh
FINAL SINGLE POINT ENERGY      -584.302317776431

DIPOLE MOMENT
-------------
                                X             Y             Z
Electronic contribution:      0.14402       0.55644       0.00000
Nuclear contribution   :     -0.26300      -0.49130       0.00000
                        -----------------------------------------
Total Dipole Moment    :     -0.11898       0.06514       0.00000
                        -----------------------------------------
Magnitude (a.u.)       :      0.13564
Magnitude (Debye)      :      0.34478

Rotational constants in cm-1:     3.872435     0.182453     0.174244
Rotational constants in MHz : 116092.694834  5469.813676  5223.694523

                             ****ORCA TERMINATED NORMALLY****
TOTAL RUN TIME: 0 days 0 hours 3 minutes 17 seconds 383 msec
