                         Program Version 5.0.4 -  RELEASE  -
|  1> ! ri-mp2 aug-cc-pvdz aug-cc-pvdz/c tightscf
|  2> %pal nprocs 16 end
|  3> %maxcore 3800
|  4> %base "DZ_P-C_44_AB"
|  5> %scf
|  6> STABPerform true
|  7> STABRestartUHFifUnstable true
|  8> end
|  9>
| 10> *xyz 0 1
| 11> P        -0.446885   -0.002275   -0.582853
| 12> C        -1.805737   -0.931304    0.235851
| 13> H        -1.754316   -0.869153    1.324878
| 14> H        -1.761538   -1.980064   -0.058126
| 15> H        -2.767755   -0.537476   -0.092073
| 16> C         0.987814   -0.704607    0.342759
| 17> C        -0.629050    1.612507    0.279304
| 18> H        -1.561760    2.083693   -0.031234
| 19> H         0.183214    2.281591   -0.002516
| 20> H        -0.636176    1.503170    1.366085
| 21> C         2.313495   -0.046341   -0.016722
| 22> H         1.025709   -1.768841    0.097915
| 23> H         0.802952   -0.633340    1.418714
| 24> H         2.506336   -0.110496   -1.088327
| 25> H         3.144013   -0.525716    0.502580
| 26> H         2.323459    1.009229    0.257748
| 27> *
| 28>
| 29> $new_job
| 30> ! ri-mp2 aug-cc-pvtz aug-cc-pvtz/c tightscf
| 31> %pal nprocs 16 end
| 32> %maxcore 3800
| 33> %base "TZ_P-C_44_AB"
| 34>
| 35> *xyz 0 1
| 36> P        -0.446885   -0.002275   -0.582853
| 37> C        -1.805737   -0.931304    0.235851
| 38> H        -1.754316   -0.869153    1.324878
| 39> H        -1.761538   -1.980064   -0.058126
| 40> H        -2.767755   -0.537476   -0.092073
| 41> C         0.987814   -0.704607    0.342759
| 42> C        -0.629050    1.612507    0.279304
| 43> H        -1.561760    2.083693   -0.031234
| 44> H         0.183214    2.281591   -0.002516
| 45> H        -0.636176    1.503170    1.366085
| 46> C         2.313495   -0.046341   -0.016722
| 47> H         1.025709   -1.768841    0.097915
| 48> H         0.802952   -0.633340    1.418714
| 49> H         2.506336   -0.110496   -1.088327
| 50> H         3.144013   -0.525716    0.502580
| 51> H         2.323459    1.009229    0.257748
| 52> *
| 53>
| 54> $new_job
| 55> ! ri-mp2 aug-cc-pvqz aug-cc-pvqz/c tightscf
| 56> %pal nprocs 16 end
| 57> %maxcore 3800
| 58> %base "QZ_P-C_44_AB"
| 59>
| 60> *xyz 0 1
| 61> P        -0.446885   -0.002275   -0.582853
| 62> C        -1.805737   -0.931304    0.235851
| 63> H        -1.754316   -0.869153    1.324878
| 64> H        -1.761538   -1.980064   -0.058126
| 65> H        -2.767755   -0.537476   -0.092073
| 66> C         0.987814   -0.704607    0.342759
| 67> C        -0.629050    1.612507    0.279304
| 68> H        -1.561760    2.083693   -0.031234
| 69> H         0.183214    2.281591   -0.002516
| 70> H        -0.636176    1.503170    1.366085
| 71> C         2.313495   -0.046341   -0.016722
| 72> H         1.025709   -1.768841    0.097915
| 73> H         0.802952   -0.633340    1.418714
| 74> H         2.506336   -0.110496   -1.088327
| 75> H         3.144013   -0.525716    0.502580
| 76> H         2.323459    1.009229    0.257748
| 77> *
| 78>
| 79>
| 80>
| 81>
| 82>                          ****END OF INPUT****
 Total Charge           Charge          ....    0
 Multiplicity           Mult            ....    1
 Number of Electrons    NEL             ....   50
MP2 TOTAL ENERGY:     -499.374714472 Eh
FINAL SINGLE POINT ENERGY      -499.374714471548
MP2 TOTAL ENERGY:     -499.581499519 Eh
FINAL SINGLE POINT ENERGY      -499.581499518661

CARTESIAN COORDINATES (ANGSTROEM)
---------------------------------
  P     -0.446885   -0.002275   -0.582853
  C     -1.805737   -0.931304    0.235851
  H     -1.754316   -0.869153    1.324878
  H     -1.761538   -1.980064   -0.058126
  H     -2.767755   -0.537476   -0.092073
  C      0.987814   -0.704607    0.342759
  C     -0.629050    1.612507    0.279304
  H     -1.561760    2.083693   -0.031234
  H      0.183214    2.281591   -0.002516
  H     -0.636176    1.503170    1.366085
  C      2.313495   -0.046341   -0.016722
  H      1.025709   -1.768841    0.097915
  H      0.802952   -0.633340    1.418714
  H      2.506336   -0.110496   -1.088327
  H      3.144013   -0.525716    0.502580
  H      2.323459    1.009229    0.257748

 Multiplicity           Mult            ....    1
 Number of Electrons    NEL             ....   50
 Basis Dimension        Dim             ....  910

ORBITAL ENERGIES
----------------

  NO   OCC          E(Eh)            E(eV)
   0   2.0000     -79.921647     -2174.7786
   1   2.0000     -11.219925      -305.3097
   2   2.0000     -11.215532      -305.1901
   3   2.0000     -11.214916      -305.1734
   4   2.0000     -11.214705      -305.1676
   5   2.0000      -7.463343      -203.0879
   6   2.0000      -5.357545      -145.7862
   7   2.0000      -5.357461      -145.7839
   8   2.0000      -5.356354      -145.7538
   9   2.0000      -1.046273       -28.4705
  10   2.0000      -0.984324       -26.7848
  11   2.0000      -0.933599       -25.4045
  12   2.0000      -0.850062       -23.1314
  13   2.0000      -0.709821       -19.3152
  14   2.0000      -0.618544       -16.8314
  15   2.0000      -0.593438       -16.1483
  16   2.0000      -0.579646       -15.7730
  17   2.0000      -0.568410       -15.4672
  18   2.0000      -0.549484       -14.9522
  19   2.0000      -0.543011       -14.7761
  20   2.0000      -0.514872       -14.0104
  21   2.0000      -0.496316       -13.5054
  22   2.0000      -0.450800       -12.2669
  23   2.0000      -0.433226       -11.7887
  24   2.0000      -0.325811        -8.8658
  25   0.0000       0.027446         0.7469
  26   0.0000       0.030777         0.8375
  27   0.0000       0.032468         0.8835
  28   0.0000       0.037686         1.0255
  29   0.0000       0.048470         1.3189

MULLIKEN ATOMIC CHARGES
-----------------------
   0 P :    0.691224
   1 C :   -1.194906
   2 H :    0.278370
   3 H :    0.336730
   4 H :    0.352778
   5 C :   -0.660452
   6 C :   -1.223891
   7 H :    0.359330
   8 H :    0.350735
   9 H :    0.278218
  10 C :   -0.861969
  11 H :    0.301244
  12 H :    0.229886
  13 H :    0.241658
  14 H :    0.281844
  15 H :    0.239201
Sum of atomic charges:   -0.0000000

LOEWDIN ATOMIC CHARGES
----------------------
   0 P :    0.953716
   1 C :    0.773345
   2 H :   -0.348215
   3 H :   -0.357856
   4 H :   -0.358759
   5 C :    0.353960
   6 C :    0.776964
   7 H :   -0.356716
   8 H :   -0.362249
   9 H :   -0.344078
  10 C :    0.848544
  11 H :   -0.346793
  12 H :   -0.339923
  13 H :   -0.299133
  14 H :   -0.285448
  15 H :   -0.307361

  Mayer bond orders larger than 0.100000
B(  0-P ,  1-C ) :   0.8875 B(  0-P ,  5-C ) :   0.7982 B(  0-P ,  6-C ) :   0.8764
B(  1-C ,  2-H ) :   0.9044 B(  1-C ,  3-H ) :   0.8925 B(  1-C ,  4-H ) :   0.8912
B(  5-C , 10-C ) :   0.8946 B(  5-C , 11-H ) :   0.8632 B(  5-C , 12-H ) :   0.9046
B(  6-C ,  7-H ) :   0.8903 B(  6-C ,  8-H ) :   0.8879 B(  6-C ,  9-H ) :   0.8985
B( 10-C , 13-H ) :   0.9468 B( 10-C , 14-H ) :   0.9768 B( 10-C , 15-H ) :   0.9478

MP2 TOTAL ENERGY:     -499.642794276 Eh
FINAL SINGLE POINT ENERGY      -499.642794276115

DIPOLE MOMENT
-------------
                                X             Y             Z
Electronic contribution:     -2.00307      -0.49606      -3.87546
Nuclear contribution   :      2.01107       0.47393       4.42989
                        -----------------------------------------
Total Dipole Moment    :      0.00801      -0.02213       0.55444
                        -----------------------------------------
Magnitude (a.u.)       :      0.55493
Magnitude (Debye)      :      1.41053

Rotational constants in cm-1:     0.187438     0.090179     0.071485
Rotational constants in MHz :  5619.255568  2703.490422  2143.079592

                             ****ORCA TERMINATED NORMALLY****
TOTAL RUN TIME: 0 days 1 hours 6 minutes 19 seconds 949 msec
