                         Program Version 5.0.4 -  RELEASE  -
|  1> ! ri-mp2 aug-cc-pvdz aug-cc-pvdz/c tightscf
|  2> %pal nprocs 16 end
|  3> %maxcore 3800
|  4> %base "DZ_Si-Si_153_A"
|  5> %scf
|  6> STABPerform true
|  7> STABRestartUHFifUnstable true
|  8> end
|  9>
| 10> *xyz 0 2
| 11> Si         1.148124   -1.180578   -0.058638
| 12> B         0.139083    0.548205   -0.002736
| 13> H         2.601277   -1.132685    0.209772
| 14> H         0.575795   -2.457846    0.422836
| 15> O        -1.210743    0.606490   -0.007521
| 16> C         0.921145    1.906635    0.013261
| 17> H         1.853485    1.872777   -0.552110
| 18> H         1.196896    2.149692    1.044664
| 19> H         0.306715    2.726489   -0.361845
| 20> C        -2.050692   -0.532458    0.005125
| 21> H        -3.067525   -0.197911   -0.187280
| 22> H        -2.015234   -1.025979    0.977323
| 23> H        -1.757331   -1.244446   -0.768895
| 24> *
| 25>
| 26> $new_job
| 27> ! ri-mp2 aug-cc-pvtz aug-cc-pvtz/c tightscf
| 28> %pal nprocs 16 end
| 29> %maxcore 3800
| 30> %base "TZ_Si-Si_153_A"
| 31>
| 32> *xyz 0 2
| 33> Si         1.148124   -1.180578   -0.058638
| 34> B         0.139083    0.548205   -0.002736
| 35> H         2.601277   -1.132685    0.209772
| 36> H         0.575795   -2.457846    0.422836
| 37> O        -1.210743    0.606490   -0.007521
| 38> C         0.921145    1.906635    0.013261
| 39> H         1.853485    1.872777   -0.552110
| 40> H         1.196896    2.149692    1.044664
| 41> H         0.306715    2.726489   -0.361845
| 42> C        -2.050692   -0.532458    0.005125
| 43> H        -3.067525   -0.197911   -0.187280
| 44> H        -2.015234   -1.025979    0.977323
| 45> H        -1.757331   -1.244446   -0.768895
| 46> *
| 47>
| 48> $new_job
| 49> ! ri-mp2 aug-cc-pvqz aug-cc-pvqz/c tightscf
| 50> %pal nprocs 16 end
| 51> %maxcore 3800
| 52> %base "QZ_Si-Si_153_A"
| 53>
| 54> *xyz 0 2
| 55> Si         1.148124   -1.180578   -0.058638
| 56> B         0.139083    0.548205   -0.002736
| 57> H         2.601277   -1.132685    0.209772
| 58> H         0.575795   -2.457846    0.422836
| 59> O        -1.210743    0.606490   -0.007521
| 60> C         0.921145    1.906635    0.013261
| 61> H         1.853485    1.872777   -0.552110
| 62> H         1.196896    2.149692    1.044664
| 63> H         0.306715    2.726489   -0.361845
| 64> C        -2.050692   -0.532458    0.005125
| 65> H        -3.067525   -0.197911   -0.187280
| 66> H        -2.015234   -1.025979    0.977323
| 67> H        -1.757331   -1.244446   -0.768895
| 68> *
| 69>
| 70>
| 71>
| 72>
| 73>                          ****END OF INPUT****
 Total Charge           Charge          ....    0
 Multiplicity           Mult            ....    2
 Number of Electrons    NEL             ....   47
MP2 TOTAL ENERGY:     -469.562745307 Eh
FINAL SINGLE POINT ENERGY      -469.562745306549
MP2 TOTAL ENERGY:     -469.762190907 Eh
FINAL SINGLE POINT ENERGY      -469.762190907453

CARTESIAN COORDINATES (ANGSTROEM)
---------------------------------
  Si     1.148124   -1.180578   -0.058638
  B      0.139083    0.548205   -0.002736
  H      2.601277   -1.132685    0.209772
  H      0.575795   -2.457846    0.422836
  O     -1.210743    0.606490   -0.007521
  C      0.921145    1.906635    0.013261
  H      1.853485    1.872777   -0.552110
  H      1.196896    2.149692    1.044664
  H      0.306715    2.726489   -0.361845
  C     -2.050692   -0.532458    0.005125
  H     -3.067525   -0.197911   -0.187280
  H     -2.015234   -1.025979    0.977323
  H     -1.757331   -1.244446   -0.768895

 Multiplicity           Mult            ....    2
 Number of Electrons    NEL             ....   47
 Basis Dimension        Dim             ....  772

ORBITAL ENERGIES
----------------
                 SPIN UP ORBITALS
  NO   OCC          E(Eh)            E(eV)
   0   1.0000     -68.760325     -1871.0636
   1   1.0000     -20.568392      -559.6944
   2   1.0000     -11.282909      -307.0236
   3   1.0000     -11.189762      -304.4889
   4   1.0000      -7.619171      -207.3282
   5   1.0000      -6.113631      -166.3604
   6   1.0000      -4.227286      -115.0303
   7   1.0000      -4.216872      -114.7469
   8   1.0000      -4.216131      -114.7268
   9   1.0000      -1.379852       -37.5477
  10   1.0000      -0.966428       -26.2978
  11   1.0000      -0.928646       -25.2697
  12   1.0000      -0.745413       -20.2837
  13   1.0000      -0.692574       -18.8459
  14   1.0000      -0.644175       -17.5289
  15   1.0000      -0.637672       -17.3519
  16   1.0000      -0.564144       -15.3511
  17   1.0000      -0.548305       -14.9201
  18   1.0000      -0.520908       -14.1746
  19   1.0000      -0.511467       -13.9177
  20   1.0000      -0.480024       -13.0621
  21   1.0000      -0.477023       -12.9804
  22   1.0000      -0.402685       -10.9576
  23   1.0000      -0.302964        -8.2441
  24   0.0000       0.023762         0.6466
  25   0.0000       0.032378         0.8811
  26   0.0000       0.034452         0.9375
  27   0.0000       0.037110         1.0098
  28   0.0000       0.047057         1.2805

                 SPIN DOWN ORBITALS
  NO   OCC          E(Eh)            E(eV)
   0   1.0000     -68.755182     -1870.9236
   1   1.0000     -20.567694      -559.6754
   2   1.0000     -11.282919      -307.0238
   3   1.0000     -11.189847      -304.4912
   4   1.0000      -7.619839      -207.3464
   5   1.0000      -6.106274      -166.1602
   6   1.0000      -4.213125      -114.6450
   7   1.0000      -4.212701      -114.6334
   8   1.0000      -4.204952      -114.4226
   9   1.0000      -1.378210       -37.5030
  10   1.0000      -0.966112       -26.2892
  11   1.0000      -0.928235       -25.2586
  12   1.0000      -0.727431       -19.7944
  13   1.0000      -0.669641       -18.2218
  14   1.0000      -0.640623       -17.4322
  15   1.0000      -0.633842       -17.2477
  16   1.0000      -0.561650       -15.2833
  17   1.0000      -0.546527       -14.8718
  18   1.0000      -0.520564       -14.1653
  19   1.0000      -0.511488       -13.9183
  20   1.0000      -0.479175       -13.0390
  21   1.0000      -0.472768       -12.8647
  22   1.0000      -0.396277       -10.7832
  23   0.0000       0.022069         0.6005
  24   0.0000       0.024716         0.6726
  25   0.0000       0.032868         0.8944
  26   0.0000       0.034685         0.9438
  27   0.0000       0.043815         1.1923

MULLIKEN ATOMIC CHARGES AND SPIN POPULATIONS
--------------------------------------------
   0 Si:    0.608810    1.096114
   1 B :    0.847081   -0.021696
   2 H :   -0.289418   -0.036186
   3 H :   -0.260673   -0.036106
   4 O :   -1.235365   -0.002210
   5 C :   -0.968887   -0.000681
   6 H :    0.294080   -0.002523
   7 H :    0.274510   -0.002561
   8 H :    0.309412    0.002987
   9 C :   -0.650436   -0.001582
  10 H :    0.465649    0.000116
  11 H :    0.319065    0.000008
  12 H :    0.286173    0.004321
Sum of atomic charges         :    0.0000000

LOEWDIN ATOMIC CHARGES AND SPIN POPULATIONS
-------------------------------------------
   0 Si:    1.215160    0.459580
   1 B :   -1.010973    0.199231
   2 H :   -0.353511    0.125674
   3 H :   -0.347174    0.126583
   4 O :    0.908224    0.020321
   5 C :    0.956830    0.027964
   6 H :   -0.330848    0.003300
   7 H :   -0.311957    0.005029
   8 H :   -0.316923    0.001358
   9 C :    0.540121    0.017640
  10 H :   -0.307980    0.000192
  11 H :   -0.305885    0.003209
  12 H :   -0.335084    0.009918

  Mayer bond orders larger than 0.100000
B(  0-Si,  1-B ) :   0.9573 B(  0-Si,  2-H ) :   0.8373 B(  0-Si,  3-H ) :   0.8652
B(  1-B ,  4-O ) :   0.3479 B(  1-B ,  5-C ) :   0.9354 B(  4-O ,  9-C ) :   0.9027
B(  5-C ,  6-H ) :   0.9304 B(  5-C ,  7-H ) :   0.9083 B(  5-C ,  8-H ) :   0.8760
B(  9-C , 10-H ) :   0.7816 B(  9-C , 11-H ) :   0.8882 B(  9-C , 12-H ) :   0.8943

MP2 TOTAL ENERGY:     -469.823925950 Eh
FINAL SINGLE POINT ENERGY      -469.823925949581

DIPOLE MOMENT
-------------
                                X             Y             Z
Electronic contribution:      0.20687      -0.56186      -0.71091
Nuclear contribution   :     -0.51429       0.33446       0.80181
                        -----------------------------------------
Total Dipole Moment    :     -0.30742      -0.22740       0.09090
                        -----------------------------------------
Magnitude (a.u.)       :      0.39304
Magnitude (Debye)      :      0.99903

Rotational constants in cm-1:     0.137305     0.108464     0.062131
Rotational constants in MHz :  4116.295822  3251.674493  1862.653531

                             ****ORCA TERMINATED NORMALLY****
TOTAL RUN TIME: 0 days 1 hours 48 minutes 22 seconds 967 msec
