                         Program Version 5.0.4 -  RELEASE  -
|  1> ! ri-mp2 aug-cc-pvdz aug-cc-pvdz/c tightscf
|  2> %pal nprocs 16 end
|  3> %maxcore 3800
|  4> %base "DZ_B-Cl_70_AB"
|  5>
|  6> *xyz 0 1
|  7> Cl         2.085470   -1.732008    0.798068
|  8> Cl         3.223409    0.570149   -0.706600
|  9> C         0.445319    0.534854    0.004973
| 10> B         1.809980   -0.189277    0.008962
| 11> C        -0.835605   -0.104800   -0.078080
| 12> C        -1.000603   -1.479956   -0.361894
| 13> H        -0.131579   -2.098618   -0.518579
| 14> C        -2.240337   -2.041799   -0.451992
| 15> H        -2.334832   -3.096762   -0.672514
| 16> C        -3.396345   -1.264371   -0.266817
| 17> H        -4.373047   -1.723782   -0.337525
| 18> C        -3.277692    0.067582   -0.011128
| 19> H        -4.157996    0.684525    0.118412
| 20> C        -2.007608    0.678528    0.079797
| 21> C        -1.893380    2.067034    0.310625
| 22> H        -2.799251    2.646551    0.438709
| 23> C        -0.674377    2.668689    0.356237
| 24> H        -0.591685    3.734306    0.521088
| 25> C         0.487563    1.899728    0.188721
| 26> H         1.445937    2.398825    0.227988
| 27> *
| 28>
| 29> $new_job
| 30> ! ri-mp2 aug-cc-pvtz aug-cc-pvtz/c tightscf
| 31> %pal nprocs 16 end
| 32> %maxcore 3800
| 33> %base "TZ_B-Cl_70_AB"
| 34>
| 35> *xyz 0 1
| 36> Cl         2.085470   -1.732008    0.798068
| 37> Cl         3.223409    0.570149   -0.706600
| 38> C         0.445319    0.534854    0.004973
| 39> B         1.809980   -0.189277    0.008962
| 40> C        -0.835605   -0.104800   -0.078080
| 41> C        -1.000603   -1.479956   -0.361894
| 42> H        -0.131579   -2.098618   -0.518579
| 43> C        -2.240337   -2.041799   -0.451992
| 44> H        -2.334832   -3.096762   -0.672514
| 45> C        -3.396345   -1.264371   -0.266817
| 46> H        -4.373047   -1.723782   -0.337525
| 47> C        -3.277692    0.067582   -0.011128
| 48> H        -4.157996    0.684525    0.118412
| 49> C        -2.007608    0.678528    0.079797
| 50> C        -1.893380    2.067034    0.310625
| 51> H        -2.799251    2.646551    0.438709
| 52> C        -0.674377    2.668689    0.356237
| 53> H        -0.591685    3.734306    0.521088
| 54> C         0.487563    1.899728    0.188721
| 55> H         1.445937    2.398825    0.227988
| 56> *
| 57>
| 58> $new_job
| 59> ! ri-mp2 aug-cc-pvqz aug-cc-pvqz/c tightscf
| 60> %pal nprocs 16 end
| 61> %maxcore 3800
| 62> %base "QZ_B-Cl_70_AB"
| 63>
| 64> *xyz 0 1
| 65> Cl         2.085470   -1.732008    0.798068
| 66> Cl         3.223409    0.570149   -0.706600
| 67> C         0.445319    0.534854    0.004973
| 68> B         1.809980   -0.189277    0.008962
| 69> C        -0.835605   -0.104800   -0.078080
| 70> C        -1.000603   -1.479956   -0.361894
| 71> H        -0.131579   -2.098618   -0.518579
| 72> C        -2.240337   -2.041799   -0.451992
| 73> H        -2.334832   -3.096762   -0.672514
| 74> C        -3.396345   -1.264371   -0.266817
| 75> H        -4.373047   -1.723782   -0.337525
| 76> C        -3.277692    0.067582   -0.011128
| 77> H        -4.157996    0.684525    0.118412
| 78> C        -2.007608    0.678528    0.079797
| 79> C        -1.893380    2.067034    0.310625
| 80> H        -2.799251    2.646551    0.438709
| 81> C        -0.674377    2.668689    0.356237
| 82> H        -0.591685    3.734306    0.521088
| 83> C         0.487563    1.899728    0.188721
| 84> H         1.445937    2.398825    0.227988
| 85> *
| 86>
| 87>
| 88>
| 89>
| 90>                          ****END OF INPUT****
 Total Charge           Charge          ....    0
 Multiplicity           Mult            ....    1
 Number of Electrons    NEL             ....  106
MP2 TOTAL ENERGY:    -1328.316043741 Eh
FINAL SINGLE POINT ENERGY     -1328.316043741304
MP2 TOTAL ENERGY:    -1328.784993045 Eh
FINAL SINGLE POINT ENERGY     -1328.784993045288

CARTESIAN COORDINATES (ANGSTROEM)
---------------------------------
  Cl     2.085470   -1.732008    0.798068
  Cl     3.223409    0.570149   -0.706600
  C      0.445319    0.534854    0.004973
  B      1.809980   -0.189277    0.008962
  C     -0.835605   -0.104800   -0.078080
  C     -1.000603   -1.479956   -0.361894
  H     -0.131579   -2.098618   -0.518579
  C     -2.240337   -2.041799   -0.451992
  H     -2.334832   -3.096762   -0.672514
  C     -3.396345   -1.264371   -0.266817
  H     -4.373047   -1.723782   -0.337525
  C     -3.277692    0.067582   -0.011128
  H     -4.157996    0.684525    0.118412
  C     -2.007608    0.678528    0.079797
  C     -1.893380    2.067034    0.310625
  H     -2.799251    2.646551    0.438709
  C     -0.674377    2.668689    0.356237
  H     -0.591685    3.734306    0.521088
  C      0.487563    1.899728    0.188721
  H      1.445937    2.398825    0.227988

 Multiplicity           Mult            ....    1
 Number of Electrons    NEL             ....  106
 Basis Dimension        Dim             .... 1370

ORBITAL ENERGIES
----------------

  NO   OCC          E(Eh)            E(eV)
   0   2.0000    -104.836688     -2852.7513
   1   2.0000    -104.835534     -2852.7199
   2   2.0000     -11.257869      -306.3422
   3   2.0000     -11.254754      -306.2574
   4   2.0000     -11.252935      -306.2079
   5   2.0000     -11.249692      -306.1197
   6   2.0000     -11.242200      -305.9158
   7   2.0000     -11.241509      -305.8970
   8   2.0000     -11.240887      -305.8801
   9   2.0000     -11.238871      -305.8252
  10   2.0000     -11.236872      -305.7708
  11   2.0000     -11.235341      -305.7292
  12   2.0000     -10.564777      -287.4822
  13   2.0000     -10.563507      -287.4476
  14   2.0000      -8.031576      -218.5503
  15   2.0000      -8.030541      -218.5221
  16   2.0000      -8.030323      -218.5162
  17   2.0000      -8.030281      -218.5151
  18   2.0000      -8.029276      -218.4877
  19   2.0000      -8.029035      -218.4812
  20   2.0000      -7.707937      -209.7436
  21   2.0000      -1.193160       -32.4675
  22   2.0000      -1.143829       -31.1252
  23   2.0000      -1.124493       -30.5990
  24   2.0000      -1.095216       -29.8023
  25   2.0000      -1.062631       -28.9157
  26   2.0000      -1.022494       -27.8235
  27   2.0000      -0.996323       -27.1113
  28   2.0000      -0.868195       -23.6248
  29   2.0000      -0.850211       -23.1354
  30   2.0000      -0.828834       -22.5537
  31   2.0000      -0.724884       -19.7251
  32   2.0000      -0.717034       -19.5115
  33   2.0000      -0.692756       -18.8508
  34   2.0000      -0.669663       -18.2225
  35   2.0000      -0.630293       -17.1512
  36   2.0000      -0.622340       -16.9347
  37   2.0000      -0.598740       -16.2925
  38   2.0000      -0.587546       -15.9879
  39   2.0000      -0.577698       -15.7200
  40   2.0000      -0.566953       -15.4276
  41   2.0000      -0.544180       -14.8079
  42   2.0000      -0.534397       -14.5417
  43   2.0000      -0.516440       -14.0530
  44   2.0000      -0.502053       -13.6615
  45   2.0000      -0.498068       -13.5531
  46   2.0000      -0.464565       -12.6415
  47   2.0000      -0.462236       -12.5781
  48   2.0000      -0.452327       -12.3084
  49   2.0000      -0.446966       -12.1626
  50   2.0000      -0.395813       -10.7706
  51   2.0000      -0.332038        -9.0352
  52   2.0000      -0.304199        -8.2777
  53   0.0000       0.020108         0.5472
  54   0.0000       0.024799         0.6748
  55   0.0000       0.028726         0.7817
  56   0.0000       0.037225         1.0129
  57   0.0000       0.038297         1.0421

MULLIKEN ATOMIC CHARGES
-----------------------
   0 Cl:   -0.307710
   1 Cl:   -0.311184
   2 C :    0.180730
   3 B :    0.738273
   4 C :    0.933770
   5 C :   -0.535834
   6 H :    0.254481
   7 C :   -0.481579
   8 H :    0.216031
   9 C :   -0.414414
  10 H :    0.293219
  11 C :   -0.515105
  12 H :    0.168446
  13 C :    0.875947
  14 C :   -0.700915
  15 H :    0.220622
  16 C :   -0.313729
  17 H :    0.235616
  18 C :   -0.824683
  19 H :    0.288019
Sum of atomic charges:    0.0000000

LOEWDIN ATOMIC CHARGES
----------------------
   0 Cl:    1.332562
   1 Cl:    1.305193
   2 C :   -0.116742
   3 B :   -2.313946
   4 C :   -0.134162
   5 C :    0.321626
   6 H :   -0.422107
   7 C :    0.362530
   8 H :   -0.316094
   9 C :    0.358634
  10 H :   -0.319258
  11 C :    0.354102
  12 H :   -0.318702
  13 C :   -0.107141
  14 C :    0.366242
  15 H :   -0.311401
  16 C :    0.382717
  17 H :   -0.316456
  18 C :    0.269718
  19 H :   -0.377313

  Mayer bond orders larger than 0.100000
B(  0-Cl,  3-B ) :   0.9712 B(  1-Cl,  3-B ) :   0.8648 B(  2-C ,  3-B ) :   1.1782
B(  2-C ,  4-C ) :   0.5879 B(  2-C ,  5-C ) :  -0.2199 B(  2-C , 13-C ) :  -0.5531
B(  2-C , 16-C ) :  -0.2684 B(  2-C , 18-C ) :   0.9965 B(  2-C , 19-H ) :  -0.1299
B(  4-C ,  5-C ) :   0.6906 B(  4-C ,  6-H ) :  -0.1875 B(  4-C ,  7-C ) :  -0.3701
B(  4-C , 11-C ) :  -0.4481 B(  4-C , 13-C ) :   0.8840 B(  4-C , 16-C ) :   0.1681
B(  5-C ,  6-H ) :   1.0279 B(  5-C ,  7-C ) :   1.3018 B(  5-C ,  8-H ) :  -0.1967
B(  5-C , 11-C ) :   0.1622 B(  5-C , 13-C ) :  -0.2017 B(  7-C ,  8-H ) :   1.1912
B(  7-C ,  9-C ) :   1.1739 B(  7-C , 11-C ) :   0.1217 B(  9-C , 10-H ) :   1.0923
B(  9-C , 11-C ) :   1.2928 B(  9-C , 13-C ) :  -0.2766 B( 10-H , 11-C ) :  -0.1906
B( 11-C , 12-H ) :   1.1653 B( 11-C , 13-C ) :   0.7163 B( 11-C , 14-C ) :  -0.1356
B( 12-H , 13-C ) :  -0.1759 B( 13-C , 14-C ) :   0.5420 B( 13-C , 15-H ) :  -0.1561
B( 13-C , 16-C ) :  -0.4182 B( 14-C , 15-H ) :   1.0627 B( 14-C , 16-C ) :   1.3941
B( 14-C , 17-H ) :  -0.1975 B( 14-C , 18-C ) :   0.3828 B( 16-C , 17-H ) :   1.1979
B( 16-C , 18-C ) :   1.1015 B( 17-H , 18-C ) :  -0.1876 B( 18-C , 19-H ) :   1.0517

MP2 TOTAL ENERGY:    -1328.937494784 Eh
FINAL SINGLE POINT ENERGY     -1328.937494783958

DIPOLE MOMENT
-------------
                                X             Y             Z
Electronic contribution:     20.03145      -3.76427       0.35483
Nuclear contribution   :    -20.96348       4.15511      -0.34358
                        -----------------------------------------
Total Dipole Moment    :     -0.93203       0.39084       0.01125
                        -----------------------------------------
Magnitude (a.u.)       :      1.01072
Magnitude (Debye)      :      2.56905

Rotational constants in cm-1:     0.033899     0.015209     0.011189
Rotational constants in MHz :  1016.264292   455.963137   335.448787

                             ****ORCA TERMINATED NORMALLY****
TOTAL RUN TIME: 0 days 1 hours 22 minutes 11 seconds 440 msec
