                         Program Version 5.0.4 -  RELEASE  -
|  1> ! ri-mp2 aug-cc-pvdz aug-cc-pvdz/c tightscf
|  2> %pal nprocs 16 end
|  3> %maxcore 3800
|  4> %base "DZ_B-P_29_AB"
|  5> %scf
|  6> STABPerform true
|  7> STABRestartUHFifUnstable true
|  8> end
|  9>
| 10> *xyz 0 1
| 11> B        -1.670854    0.901705    0.070398
| 12> C         1.082271    0.027012    0.020996
| 13> N         2.166658    0.398750    0.058972
| 14> P        -0.568697   -0.589900   -0.140539
| 15> H        -1.338361    1.950958   -0.366192
| 16> H        -2.758214    0.718599    0.508097
| 17> H        -0.678935   -1.282911    1.075404
| 18> *
| 19>
| 20> $new_job
| 21> ! ri-mp2 aug-cc-pvtz aug-cc-pvtz/c tightscf
| 22> %pal nprocs 16 end
| 23> %maxcore 3800
| 24> %base "TZ_B-P_29_AB"
| 25>
| 26> *xyz 0 1
| 27> B        -1.670854    0.901705    0.070398
| 28> C         1.082271    0.027012    0.020996
| 29> N         2.166658    0.398750    0.058972
| 30> P        -0.568697   -0.589900   -0.140539
| 31> H        -1.338361    1.950958   -0.366192
| 32> H        -2.758214    0.718599    0.508097
| 33> H        -0.678935   -1.282911    1.075404
| 34> *
| 35>
| 36> $new_job
| 37> ! ri-mp2 aug-cc-pvqz aug-cc-pvqz/c tightscf
| 38> %pal nprocs 16 end
| 39> %maxcore 3800
| 40> %base "QZ_B-P_29_AB"
| 41>
| 42> *xyz 0 1
| 43> B        -1.670854    0.901705    0.070398
| 44> C         1.082271    0.027012    0.020996
| 45> N         2.166658    0.398750    0.058972
| 46> P        -0.568697   -0.589900   -0.140539
| 47> H        -1.338361    1.950958   -0.366192
| 48> H        -2.758214    0.718599    0.508097
| 49> H        -0.678935   -1.282911    1.075404
| 50> *
| 51>
| 52>
| 53>
| 54>
| 55>                          ****END OF INPUT****
 Total Charge           Charge          ....    0
 Multiplicity           Mult            ....    1
 Number of Electrons    NEL             ....   36
MP2 TOTAL ENERGY:     -459.962757819 Eh
FINAL SINGLE POINT ENERGY      -459.962757818890
MP2 TOTAL ENERGY:     -460.104051690 Eh
FINAL SINGLE POINT ENERGY      -460.104051689696

CARTESIAN COORDINATES (ANGSTROEM)
---------------------------------
  B     -1.670854    0.901705    0.070398
  C      1.082271    0.027012    0.020996
  N      2.166658    0.398750    0.058972
  P     -0.568697   -0.589900   -0.140539
  H     -1.338361    1.950958   -0.366192
  H     -2.758214    0.718599    0.508097
  H     -0.678935   -1.282911    1.075404

 Multiplicity           Mult            ....    1
 Number of Electrons    NEL             ....   36
 Basis Dimension        Dim             ....  462

ORBITAL ENERGIES
----------------

  NO   OCC          E(Eh)            E(eV)
   0   2.0000     -79.984211     -2176.4810
   1   2.0000     -15.581645      -423.9981
   2   2.0000     -11.274857      -306.8044
   3   2.0000      -7.648123      -208.1160
   4   2.0000      -7.529320      -204.8832
   5   2.0000      -5.424050      -147.5959
   6   2.0000      -5.423088      -147.5697
   7   2.0000      -5.423060      -147.5690
   8   2.0000      -1.230172       -33.4747
   9   2.0000      -0.941219       -25.6119
  10   2.0000      -0.729378       -19.8474
  11   2.0000      -0.652019       -17.7423
  12   2.0000      -0.571097       -15.5403
  13   2.0000      -0.536716       -14.6048
  14   2.0000      -0.529333       -14.4039
  15   2.0000      -0.509312       -13.8591
  16   2.0000      -0.472097       -12.8464
  17   2.0000      -0.388216       -10.5639
  18   0.0000       0.019959         0.5431
  19   0.0000       0.020416         0.5556
  20   0.0000       0.029578         0.8049
  21   0.0000       0.035910         0.9772
  22   0.0000       0.044154         1.2015

MULLIKEN ATOMIC CHARGES
-----------------------
   0 B :    0.275711
   1 C :   -0.164794
   2 N :   -0.498654
   3 P :    0.695483
   4 H :   -0.127447
   5 H :   -0.173566
   6 H :   -0.006734
Sum of atomic charges:    0.0000000

LOEWDIN ATOMIC CHARGES
----------------------
   0 B :    0.105797
   1 C :   -0.612424
   2 N :    0.294559
   3 P :    1.190891
   4 H :   -0.248543
   5 H :   -0.259788
   6 H :   -0.470492

  Mayer bond orders larger than 0.100000
B(  0-B ,  3-P ) :   1.1686 B(  0-B ,  4-H ) :   0.9353 B(  0-B ,  5-H ) :   0.9515
B(  1-C ,  2-N ) :   2.5946 B(  1-C ,  3-P ) :   0.6719 B(  3-P ,  6-H ) :   0.9334

MP2 TOTAL ENERGY:     -460.150175680 Eh
FINAL SINGLE POINT ENERGY      -460.150175680082

DIPOLE MOMENT
-------------
                                X             Y             Z
Electronic contribution:      1.27422      -1.44380      -0.99718
Nuclear contribution   :     -2.74429       1.16862       1.23599
                        -----------------------------------------
Total Dipole Moment    :     -1.47007      -0.27518       0.23882
                        -----------------------------------------
Magnitude (a.u.)       :      1.51455
Magnitude (Debye)      :      3.84968

Rotational constants in cm-1:     0.562798     0.127655     0.106837
Rotational constants in MHz : 16872.271010  3826.994515  3202.892862

                             ****ORCA TERMINATED NORMALLY****
TOTAL RUN TIME: 0 days 0 hours 7 minutes 43 seconds 768 msec
