                         Program Version 5.0.4 -  RELEASE  -
|  1> ! ri-mp2 aug-cc-pvdz aug-cc-pvdz/c tightscf
|  2> %pal nprocs 16 end
|  3> %maxcore 3800
|  4> %base "DZ_P-N_31_AB"
|  5>
|  6> *xyz 0 1
|  7> C         0.277455   -0.309443    0.586837
|  8> C         0.996208   -1.278219   -0.107543
|  9> C         2.254103   -1.005742   -0.612160
| 10> C         2.820434    0.247262   -0.436982
| 11> C         2.117790    1.220075    0.251288
| 12> C         0.858448    0.942357    0.758805
| 13> N        -2.057317    1.166956   -0.914203
| 14> H         2.797594   -1.775966   -1.143598
| 15> H         3.805076    0.460574   -0.830680
| 16> H         2.552495    2.199861    0.400479
| 17> H         0.319217    1.706094    1.305568
| 18> H         0.561133   -2.259692   -0.251979
| 19> C        -1.105259   -0.585461    1.082083
| 20> P        -2.451547   -0.298884   -0.175288
| 21> H        -1.338665    0.035004    1.948371
| 22> H        -1.211337   -1.626781    1.395231
| 23> H        -1.902743   -1.179394   -1.138428
| 24> H        -1.098447    1.408934   -1.114660
| 25> H        -2.624971    1.960963   -0.675528
| 26> *
| 27>
| 28> $new_job
| 29> ! ri-mp2 aug-cc-pvtz aug-cc-pvtz/c tightscf
| 30> %pal nprocs 16 end
| 31> %maxcore 3800
| 32> %base "TZ_P-N_31_AB"
| 33>
| 34> *xyz 0 1
| 35> C         0.277455   -0.309443    0.586837
| 36> C         0.996208   -1.278219   -0.107543
| 37> C         2.254103   -1.005742   -0.612160
| 38> C         2.820434    0.247262   -0.436982
| 39> C         2.117790    1.220075    0.251288
| 40> C         0.858448    0.942357    0.758805
| 41> N        -2.057317    1.166956   -0.914203
| 42> H         2.797594   -1.775966   -1.143598
| 43> H         3.805076    0.460574   -0.830680
| 44> H         2.552495    2.199861    0.400479
| 45> H         0.319217    1.706094    1.305568
| 46> H         0.561133   -2.259692   -0.251979
| 47> C        -1.105259   -0.585461    1.082083
| 48> P        -2.451547   -0.298884   -0.175288
| 49> H        -1.338665    0.035004    1.948371
| 50> H        -1.211337   -1.626781    1.395231
| 51> H        -1.902743   -1.179394   -1.138428
| 52> H        -1.098447    1.408934   -1.114660
| 53> H        -2.624971    1.960963   -0.675528
| 54> *
| 55>
| 56> $new_job
| 57> ! ri-mp2 aug-cc-pvqz aug-cc-pvqz/c tightscf
| 58> %pal nprocs 16 end
| 59> %maxcore 3800
| 60> %base "QZ_P-N_31_AB"
| 61>
| 62> *xyz 0 1
| 63> C         0.277455   -0.309443    0.586837
| 64> C         0.996208   -1.278219   -0.107543
| 65> C         2.254103   -1.005742   -0.612160
| 66> C         2.820434    0.247262   -0.436982
| 67> C         2.117790    1.220075    0.251288
| 68> C         0.858448    0.942357    0.758805
| 69> N        -2.057317    1.166956   -0.914203
| 70> H         2.797594   -1.775966   -1.143598
| 71> H         3.805076    0.460574   -0.830680
| 72> H         2.552495    2.199861    0.400479
| 73> H         0.319217    1.706094    1.305568
| 74> H         0.561133   -2.259692   -0.251979
| 75> C        -1.105259   -0.585461    1.082083
| 76> P        -2.451547   -0.298884   -0.175288
| 77> H        -1.338665    0.035004    1.948371
| 78> H        -1.211337   -1.626781    1.395231
| 79> H        -1.902743   -1.179394   -1.138428
| 80> H        -1.098447    1.408934   -1.114660
| 81> H        -2.624971    1.960963   -0.675528
| 82> *
| 83>
| 84>
| 85>
| 86>
| 87>                          ****END OF INPUT****
 Total Charge           Charge          ....    0
 Multiplicity           Mult            ....    1
 Number of Electrons    NEL             ....   74
MP2 TOTAL ENERGY:     -667.401671759 Eh
FINAL SINGLE POINT ENERGY      -667.401671759327
MP2 TOTAL ENERGY:     -667.741241089 Eh
FINAL SINGLE POINT ENERGY      -667.741241089368

CARTESIAN COORDINATES (ANGSTROEM)
---------------------------------
  C      0.277455   -0.309443    0.586837
  C      0.996208   -1.278219   -0.107543
  C      2.254103   -1.005742   -0.612160
  C      2.820434    0.247262   -0.436982
  C      2.117790    1.220075    0.251288
  C      0.858448    0.942357    0.758805
  N     -2.057317    1.166956   -0.914203
  H      2.797594   -1.775966   -1.143598
  H      3.805076    0.460574   -0.830680
  H      2.552495    2.199861    0.400479
  H      0.319217    1.706094    1.305568
  H      0.561133   -2.259692   -0.251979
  C     -1.105259   -0.585461    1.082083
  P     -2.451547   -0.298884   -0.175288
  H     -1.338665    0.035004    1.948371
  H     -1.211337   -1.626781    1.395231
  H     -1.902743   -1.179394   -1.138428
  H     -1.098447    1.408934   -1.114660
  H     -2.624971    1.960963   -0.675528

 Multiplicity           Mult            ....    1
 Number of Electrons    NEL             ....   74
 Basis Dimension        Dim             .... 1184

ORBITAL ENERGIES
----------------

  NO   OCC          E(Eh)            E(eV)
   0   2.0000     -79.949765     -2175.5437
   1   2.0000     -15.544142      -422.9776
   2   2.0000     -11.243860      -305.9610
   3   2.0000     -11.235548      -305.7348
   4   2.0000     -11.234880      -305.7166
   5   2.0000     -11.230971      -305.6103
   6   2.0000     -11.230487      -305.5971
   7   2.0000     -11.230272      -305.5912
   8   2.0000     -11.228947      -305.5552
   9   2.0000      -7.488048      -203.7601
  10   2.0000      -5.382287      -146.4595
  11   2.0000      -5.381894      -146.4488
  12   2.0000      -5.381259      -146.4315
  13   2.0000      -1.168456       -31.7953
  14   2.0000      -1.155771       -31.4501
  15   2.0000      -1.054718       -28.7003
  16   2.0000      -1.019865       -27.7519
  17   2.0000      -0.948523       -25.8106
  18   2.0000      -0.832794       -22.6615
  19   2.0000      -0.817008       -22.2319
  20   2.0000      -0.773946       -21.0602
  21   2.0000      -0.700313       -19.0565
  22   2.0000      -0.672466       -18.2987
  23   2.0000      -0.645954       -17.5773
  24   2.0000      -0.637773       -17.3547
  25   2.0000      -0.590945       -16.0804
  26   2.0000      -0.581721       -15.8294
  27   2.0000      -0.575811       -15.6686
  28   2.0000      -0.556531       -15.1440
  29   2.0000      -0.520906       -14.1746
  30   2.0000      -0.500507       -13.6195
  31   2.0000      -0.494296       -13.4505
  32   2.0000      -0.487995       -13.2790
  33   2.0000      -0.399655       -10.8752
  34   2.0000      -0.366316        -9.9680
  35   2.0000      -0.342249        -9.3131
  36   2.0000      -0.316467        -8.6115
  37   0.0000       0.023153         0.6300
  38   0.0000       0.027500         0.7483
  39   0.0000       0.029433         0.8009
  40   0.0000       0.036662         0.9976
  41   0.0000       0.041060         1.1173

MULLIKEN ATOMIC CHARGES
-----------------------
   0 C :    0.465460
   1 C :   -0.495984
   2 C :   -0.339989
   3 C :   -0.363804
   4 C :   -0.295556
   5 C :   -0.418922
   6 N :   -0.983739
   7 H :    0.232836
   8 H :    0.334888
   9 H :    0.225991
  10 H :    0.296313
  11 H :    0.291356
  12 C :   -0.471632
  13 P :    0.651170
  14 H :    0.157756
  15 H :    0.262110
  16 H :   -0.095038
  17 H :    0.320208
  18 H :    0.226579
Sum of atomic charges:   -0.0000000

LOEWDIN ATOMIC CHARGES
----------------------
   0 C :   -0.176941
   1 C :    0.322576
   2 C :    0.342968
   3 C :    0.334493
   4 C :    0.341528
   5 C :    0.315228
   6 N :    1.015005
   7 H :   -0.318942
   8 H :   -0.323835
   9 H :   -0.319036
  10 H :   -0.315413
  11 H :   -0.316871
  12 C :    0.334055
  13 P :    1.123846
  14 H :   -0.367206
  15 H :   -0.365725
  16 H :   -0.415010
  17 H :   -0.604509
  18 H :   -0.606213

  Mayer bond orders larger than 0.100000
B(  0-C ,  1-C ) :   1.0713 B(  0-C ,  2-C ) :  -0.2912 B(  0-C ,  4-C ) :  -0.3235
B(  0-C ,  5-C ) :   1.0318 B(  0-C , 12-C ) :   0.7642 B(  1-C ,  2-C ) :   1.3602
B(  1-C ,  4-C ) :   0.1541 B(  1-C ,  7-H ) :  -0.1334 B(  1-C , 11-H ) :   0.9729
B(  1-C , 12-C ) :  -0.1785 B(  2-C ,  3-C ) :   1.1250 B(  2-C ,  5-C ) :   0.1417
B(  2-C ,  7-H ) :   1.1438 B(  3-C ,  4-C ) :   1.1287 B(  3-C ,  8-H ) :   0.9928
B(  3-C ,  9-H ) :  -0.1120 B(  4-C ,  5-C ) :   1.3640 B(  4-C ,  9-H ) :   1.1621
B(  5-C ,  9-H ) :  -0.1338 B(  5-C , 10-H ) :   0.9742 B(  5-C , 12-C ) :  -0.1460
B(  6-N , 13-P ) :   0.7764 B(  6-N , 17-H ) :   0.8938 B(  6-N , 18-H ) :   1.0263
B( 12-C , 13-P ) :   0.7909 B( 12-C , 14-H ) :   1.0667 B( 12-C , 15-H ) :   0.9945
B( 13-P , 16-H ) :   0.9402

MP2 TOTAL ENERGY:     -667.848007552 Eh
FINAL SINGLE POINT ENERGY      -667.848007551678

DIPOLE MOMENT
-------------
                                X             Y             Z
Electronic contribution:     -3.66146      -0.89779       0.12274
Nuclear contribution   :      4.17724       1.21969       0.05628
                        -----------------------------------------
Total Dipole Moment    :      0.51578       0.32190       0.17902
                        -----------------------------------------
Magnitude (a.u.)       :      0.63379
Magnitude (Debye)      :      1.61097

Rotational constants in cm-1:     0.097650     0.028337     0.025886
Rotational constants in MHz :  2927.463554   849.531062   776.034505

                             ****ORCA TERMINATED NORMALLY****
TOTAL RUN TIME: 0 days 0 hours 39 minutes 51 seconds 505 msec
