                         Program Version 5.0.4 -  RELEASE  -
|  1> ! ri-mp2 aug-cc-pvdz aug-cc-pvdz/c tightscf
|  2> %pal nprocs 16 end
|  3> %maxcore 3800
|  4> %base "DZ_P-S_3_A"
|  5> %scf
|  6> STABPerform true
|  7> STABRestartUHFifUnstable true
|  8> end
|  9>
| 10> *xyz 0 2
| 11> S         2.170605   -0.272328   -0.000023
| 12> O         0.600171   -0.747164   -0.000035
| 13> C        -0.366580    0.239260    0.000010
| 14> Cl        -1.930356   -0.553527   -0.000003
| 15> F        -0.250872    1.017202   -1.073972
| 16> F        -0.250851    1.017127    1.074043
| 17> *
| 18>
| 19> $new_job
| 20> ! ri-mp2 aug-cc-pvtz aug-cc-pvtz/c tightscf
| 21> %pal nprocs 16 end
| 22> %maxcore 3800
| 23> %base "TZ_P-S_3_A"
| 24>
| 25> *xyz 0 2
| 26> S         2.170605   -0.272328   -0.000023
| 27> O         0.600171   -0.747164   -0.000035
| 28> C        -0.366580    0.239260    0.000010
| 29> Cl        -1.930356   -0.553527   -0.000003
| 30> F        -0.250872    1.017202   -1.073972
| 31> F        -0.250851    1.017127    1.074043
| 32> *
| 33>
| 34> $new_job
| 35> ! ri-mp2 aug-cc-pvqz aug-cc-pvqz/c tightscf
| 36> %pal nprocs 16 end
| 37> %maxcore 3800
| 38> %base "QZ_P-S_3_A"
| 39>
| 40> *xyz 0 2
| 41> S         2.170605   -0.272328   -0.000023
| 42> O         0.600171   -0.747164   -0.000035
| 43> C        -0.366580    0.239260    0.000010
| 44> Cl        -1.930356   -0.553527   -0.000003
| 45> F        -0.250872    1.017202   -1.073972
| 46> F        -0.250851    1.017127    1.074043
| 47> *
| 48>
| 49>
| 50>
| 51>
| 52>                          ****END OF INPUT****
 Total Charge           Charge          ....    0
 Multiplicity           Mult            ....    2
 Number of Electrons    NEL             ....   65
MP2 TOTAL ENERGY:    -1169.629278750 Eh
FINAL SINGLE POINT ENERGY     -1169.629278749988
MP2 TOTAL ENERGY:    -1169.999690125 Eh
FINAL SINGLE POINT ENERGY     -1169.999690125219

CARTESIAN COORDINATES (ANGSTROEM)
---------------------------------
  S      2.170605   -0.272328   -0.000023
  O      0.600171   -0.747164   -0.000035
  C     -0.366580    0.239260    0.000010
  Cl    -1.930356   -0.553527   -0.000003
  F     -0.250872    1.017202   -1.073972
  F     -0.250851    1.017127    1.074043

 Multiplicity           Mult            ....    2
 Number of Electrons    NEL             ....   65
 Basis Dimension        Dim             ....  488

ORBITAL ENERGIES
----------------
                 SPIN UP ORBITALS
  NO   OCC          E(Eh)            E(eV)
   0   1.0000    -104.873881     -2853.7634
   1   1.0000     -92.049634     -2504.7979
   2   1.0000     -26.358305      -717.2459
   3   1.0000     -26.358282      -717.2453
   4   1.0000     -20.664186      -562.3011
   5   1.0000     -11.553825      -314.3956
   6   1.0000     -10.600137      -288.4444
   7   1.0000      -9.046295      -246.1622
   8   1.0000      -8.067192      -219.5195
   9   1.0000      -8.065199      -219.4652
  10   1.0000      -8.065170      -219.4644
  11   1.0000      -6.741272      -183.4393
  12   1.0000      -6.723599      -182.9584
  13   1.0000      -6.721163      -182.8922
  14   1.0000      -1.735099       -47.2144
  15   1.0000      -1.658763       -45.1372
  16   1.0000      -1.478257       -40.2254
  17   1.0000      -1.177823       -32.0502
  18   1.0000      -1.017118       -27.6772
  19   1.0000      -0.929690       -25.2981
  20   1.0000      -0.839187       -22.8354
  21   1.0000      -0.813435       -22.1347
  22   1.0000      -0.793167       -21.5832
  23   1.0000      -0.725370       -19.7383
  24   1.0000      -0.698083       -18.9958
  25   1.0000      -0.682070       -18.5601
  26   1.0000      -0.642757       -17.4903
  27   1.0000      -0.638447       -17.3730
  28   1.0000      -0.579800       -15.7772
  29   1.0000      -0.499325       -13.5873
  30   1.0000      -0.495836       -13.4924
  31   1.0000      -0.456807       -12.4303
  32   1.0000      -0.413038       -11.2393
  33   0.0000       0.042202         1.1484
  34   0.0000       0.049203         1.3389
  35   0.0000       0.064871         1.7652
  36   0.0000       0.065024         1.7694
  37   0.0000       0.073891         2.0107

                 SPIN DOWN ORBITALS
  NO   OCC          E(Eh)            E(eV)
   0   1.0000    -104.873898     -2853.7638
   1   1.0000     -92.040613     -2504.5524
   2   1.0000     -26.358255      -717.2446
   3   1.0000     -26.358233      -717.2440
   4   1.0000     -20.658752      -562.1532
   5   1.0000     -11.554074      -314.4023
   6   1.0000     -10.600156      -288.4449
   7   1.0000      -9.036352      -245.8916
   8   1.0000      -8.067253      -219.5211
   9   1.0000      -8.065207      -219.4654
  10   1.0000      -8.065189      -219.4649
  11   1.0000      -6.719833      -182.8559
  12   1.0000      -6.716046      -182.7529
  13   1.0000      -6.699557      -182.3042
  14   1.0000      -1.734675       -47.2029
  15   1.0000      -1.658571       -45.1320
  16   1.0000      -1.463531       -39.8247
  17   1.0000      -1.175913       -31.9982
  18   1.0000      -0.981255       -26.7013
  19   1.0000      -0.906135       -24.6572
  20   1.0000      -0.834944       -22.7200
  21   1.0000      -0.807852       -21.9828
  22   1.0000      -0.777586       -21.1592
  23   1.0000      -0.721069       -19.6213
  24   1.0000      -0.681748       -18.5513
  25   1.0000      -0.680874       -18.5275
  26   1.0000      -0.631581       -17.1862
  27   1.0000      -0.588742       -16.0205
  28   1.0000      -0.573512       -15.6060
  29   1.0000      -0.497810       -13.5461
  30   1.0000      -0.495220       -13.4756
  31   1.0000      -0.395524       -10.7628
  32   0.0000      -0.000245        -0.0067
  33   0.0000       0.044571         1.2129
  34   0.0000       0.049412         1.3446
  35   0.0000       0.065295         1.7768
  36   0.0000       0.071691         1.9508

MULLIKEN ATOMIC CHARGES AND SPIN POPULATIONS
--------------------------------------------
   0 S :    0.312853    0.968880
   1 O :   -0.591529    0.032346
   2 C :    1.406258   -0.005575
   3 Cl:   -0.079568   -0.001152
   4 F :   -0.524007    0.002751
   5 F :   -0.524007    0.002751
Sum of atomic charges         :    0.0000000

LOEWDIN ATOMIC CHARGES AND SPIN POPULATIONS
-------------------------------------------
   0 S :    0.644177    0.774435
   1 O :   -0.077172    0.204548
   2 C :   -2.975859    0.017744
   3 Cl:    1.072868   -0.001022
   4 F :    0.667993    0.002148
   5 F :    0.667993    0.002148

  Mayer bond orders larger than 0.100000
B(  0-S ,  1-O ) :   0.8482 B(  1-O ,  2-C ) :   0.8801 B(  2-C ,  3-Cl) :   1.0047
B(  2-C ,  4-F ) :   0.5823 B(  2-C ,  5-F ) :   0.5823

MP2 TOTAL ENERGY:    -1170.121981344 Eh
FINAL SINGLE POINT ENERGY     -1170.121981343969

DIPOLE MOMENT
-------------
                                X             Y             Z
Electronic contribution:     -2.66819       1.04757       0.00006
Nuclear contribution   :      2.92540      -1.11593      -0.00006
                        -----------------------------------------
Total Dipole Moment    :      0.25722      -0.06837      -0.00000
                        -----------------------------------------
Magnitude (a.u.)       :      0.26615
Magnitude (Debye)      :      0.67649

Rotational constants in cm-1:     0.159060     0.050070     0.047485
Rotational constants in MHz :  4768.485684  1501.048758  1423.558843

                             ****ORCA TERMINATED NORMALLY****
TOTAL RUN TIME: 0 days 0 hours 15 minutes 55 seconds 601 msec
