                         Program Version 5.0.4 -  RELEASE  -
|  1> ! ri-mp2 aug-cc-pvdz aug-cc-pvdz/c tightscf
|  2> %pal nprocs 16 end
|  3> %maxcore 3800
|  4> %base "DZ_Si-F_23_AB"
|  5>
|  6> *xyz 0 1
|  7> C        -1.487097    0.000000    0.000000
|  8> C        -0.844912    1.230133    0.000001
|  9> C         0.529973    1.427247    0.000003
| 10> C        -0.844913   -1.230133    0.000001
| 11> C         0.529973   -1.427247    0.000003
| 12> Si         1.549824    0.000000    0.000012
| 13> F        -2.823205    0.000000   -0.000002
| 14> F        -1.619211    2.308833   -0.000003
| 15> F         0.971317    2.695666   -0.000001
| 16> F         3.119474    0.000000   -0.000015
| 17> F        -1.619212   -2.308833   -0.000003
| 18> F         0.971316   -2.695666   -0.000001
| 19> *
| 20>
| 21> $new_job
| 22> ! ri-mp2 aug-cc-pvtz aug-cc-pvtz/c tightscf
| 23> %pal nprocs 16 end
| 24> %maxcore 3800
| 25> %base "TZ_Si-F_23_AB"
| 26>
| 27> *xyz 0 1
| 28> C        -1.487097    0.000000    0.000000
| 29> C        -0.844912    1.230133    0.000001
| 30> C         0.529973    1.427247    0.000003
| 31> C        -0.844913   -1.230133    0.000001
| 32> C         0.529973   -1.427247    0.000003
| 33> Si         1.549824    0.000000    0.000012
| 34> F        -2.823205    0.000000   -0.000002
| 35> F        -1.619211    2.308833   -0.000003
| 36> F         0.971317    2.695666   -0.000001
| 37> F         3.119474    0.000000   -0.000015
| 38> F        -1.619212   -2.308833   -0.000003
| 39> F         0.971316   -2.695666   -0.000001
| 40> *
| 41>
| 42> $new_job
| 43> ! ri-mp2 aug-cc-pvqz aug-cc-pvqz/c tightscf
| 44> %pal nprocs 16 end
| 45> %maxcore 3800
| 46> %base "QZ_Si-F_23_AB"
| 47>
| 48> *xyz 0 1
| 49> C        -1.487097    0.000000    0.000000
| 50> C        -0.844912    1.230133    0.000001
| 51> C         0.529973    1.427247    0.000003
| 52> C        -0.844913   -1.230133    0.000001
| 53> C         0.529973   -1.427247    0.000003
| 54> Si         1.549824    0.000000    0.000012
| 55> F        -2.823205    0.000000   -0.000002
| 56> F        -1.619211    2.308833   -0.000003
| 57> F         0.971317    2.695666   -0.000001
| 58> F         3.119474    0.000000   -0.000015
| 59> F        -1.619212   -2.308833   -0.000003
| 60> F         0.971316   -2.695666   -0.000001
| 61> *
| 62>
| 63>
| 64>
| 65>
| 66>                          ****END OF INPUT****
 Total Charge           Charge          ....    0
 Multiplicity           Mult            ....    1
 Number of Electrons    NEL             ....   98
MP2 TOTAL ENERGY:    -1076.871311904 Eh
FINAL SINGLE POINT ENERGY     -1076.871311903795
MP2 TOTAL ENERGY:    -1077.559464965 Eh
FINAL SINGLE POINT ENERGY     -1077.559464965052

CARTESIAN COORDINATES (ANGSTROEM)
---------------------------------
  C     -1.487097    0.000000    0.000000
  C     -0.844912    1.230133    0.000001
  C      0.529973    1.427247    0.000003
  C     -0.844913   -1.230133    0.000001
  C      0.529973   -1.427247    0.000003
  Si     1.549824    0.000000    0.000012
  F     -2.823205    0.000000   -0.000002
  F     -1.619211    2.308833   -0.000003
  F      0.971317    2.695666   -0.000001
  F      3.119474    0.000000   -0.000015
  F     -1.619212   -2.308833   -0.000003
  F      0.971316   -2.695666   -0.000001

 Multiplicity           Mult            ....    1
 Number of Electrons    NEL             ....   98
 Basis Dimension        Dim             ....  964

ORBITAL ENERGIES
----------------

  NO   OCC          E(Eh)            E(eV)
   0   2.0000     -68.871836     -1874.0979
   1   2.0000     -26.361543      -717.3341
   2   2.0000     -26.350679      -717.0384
   3   2.0000     -26.350678      -717.0384
   4   2.0000     -26.338800      -716.7152
   5   2.0000     -26.338800      -716.7152
   6   2.0000     -26.334272      -716.5920
   7   2.0000     -11.388415      -309.8945
   8   2.0000     -11.388402      -309.8942
   9   2.0000     -11.354939      -308.9836
  10   2.0000     -11.353344      -308.9402
  11   2.0000     -11.353336      -308.9400
  12   2.0000      -6.220617      -169.2716
  13   2.0000      -4.328566      -117.7863
  14   2.0000      -4.327240      -117.7502
  15   2.0000      -4.326156      -117.7207
  16   2.0000      -1.682940       -45.7951
  17   2.0000      -1.677861       -45.6569
  18   2.0000      -1.664099       -45.2824
  19   2.0000      -1.655888       -45.0590
  20   2.0000      -1.652969       -44.9796
  21   2.0000      -1.648040       -44.8454
  22   2.0000      -1.175119       -31.9766
  23   2.0000      -1.073076       -29.1999
  24   2.0000      -1.000541       -27.2261
  25   2.0000      -0.910557       -24.7775
  26   2.0000      -0.870546       -23.6887
  27   2.0000      -0.817304       -22.2400
  28   2.0000      -0.810219       -22.0472
  29   2.0000      -0.806630       -21.9495
  30   2.0000      -0.767618       -20.8879
  31   2.0000      -0.764450       -20.8018
  32   2.0000      -0.760994       -20.7077
  33   2.0000      -0.743786       -20.2394
  34   2.0000      -0.742618       -20.2077
  35   2.0000      -0.737775       -20.0759
  36   2.0000      -0.734115       -19.9763
  37   2.0000      -0.721231       -19.6257
  38   2.0000      -0.718950       -19.5636
  39   2.0000      -0.714488       -19.4422
  40   2.0000      -0.706821       -19.2336
  41   2.0000      -0.687763       -18.7150
  42   2.0000      -0.679714       -18.4960
  43   2.0000      -0.620438       -16.8830
  44   2.0000      -0.609682       -16.5903
  45   2.0000      -0.551045       -14.9947
  46   2.0000      -0.512731       -13.9521
  47   2.0000      -0.391386       -10.6501
  48   2.0000      -0.331687        -9.0257
  49   0.0000       0.013772         0.3747
  50   0.0000       0.030262         0.8235
  51   0.0000       0.033695         0.9169
  52   0.0000       0.035734         0.9724
  53   0.0000       0.060155         1.6369

MULLIKEN ATOMIC CHARGES
-----------------------
   0 C :    0.516873
   1 C :    0.722080
   2 C :    0.222779
   3 C :    0.722080
   4 C :    0.222779
   5 Si:    1.829902
   6 F :   -0.719350
   7 F :   -0.686144
   8 F :   -0.709466
   9 F :   -0.725924
  10 F :   -0.686144
  11 F :   -0.709466
Sum of atomic charges:    0.0000000

LOEWDIN ATOMIC CHARGES
----------------------
   0 C :   -0.862976
   1 C :   -0.916029
   2 C :   -0.768985
   3 C :   -0.916029
   4 C :   -0.768985
   5 Si:    0.005980
   6 F :    0.779781
   7 F :    0.808755
   8 F :    0.692777
   9 F :    0.444179
  10 F :    0.808755
  11 F :    0.692777

  Mayer bond orders larger than 0.100000
B(  0-C ,  1-C ) :   1.4931 B(  0-C ,  3-C ) :   1.4932 B(  0-C ,  6-F ) :   0.1631
B(  1-C ,  2-C ) :   1.4994 B(  1-C ,  7-F ) :   0.1766 B(  2-C ,  5-Si) :   1.0936
B(  2-C ,  8-F ) :   0.2735 B(  2-C ,  9-F ) :  -0.1178 B(  3-C ,  4-C ) :   1.4994
B(  3-C , 10-F ) :   0.1766 B(  4-C ,  5-Si) :   1.0936 B(  4-C ,  9-F ) :  -0.1178
B(  4-C , 11-F ) :   0.2735 B(  5-Si,  9-F ) :   0.6430

MP2 TOTAL ENERGY:    -1077.788635968 Eh
FINAL SINGLE POINT ENERGY     -1077.788635967933

DIPOLE MOMENT
-------------
                                X             Y             Z
Electronic contribution:      0.04726       0.00000      -0.00000
Nuclear contribution   :      0.81316       0.00000       0.00002
                        -----------------------------------------
Total Dipole Moment    :      0.86042       0.00000       0.00002
                        -----------------------------------------
Magnitude (a.u.)       :      0.86042
Magnitude (Debye)      :      2.18702

Rotational constants in cm-1:     0.029893     0.028588     0.014613
Rotational constants in MHz :   896.170423   857.044087   438.085333

                             ****ORCA TERMINATED NORMALLY****
TOTAL RUN TIME: 0 days 0 hours 27 minutes 13 seconds 409 msec
