                         Program Version 5.0.4 -  RELEASE  -
|  1> ! ri-mp2 aug-cc-pvdz aug-cc-pvdz/c tightscf
|  2> %pal nprocs 16 end
|  3> %maxcore 3800
|  4> %base "DZ_B-F_16_AB"
|  5> %scf
|  6> STABPerform true
|  7> STABRestartUHFifUnstable true
|  8> end
|  9>
| 10> *xyz 0 1
| 11> F        -1.996243    1.127791   -0.242997
| 12> F        -1.996319   -1.127624   -0.242966
| 13> B        -1.337058    0.000062   -0.192197
| 14> C         0.245315   -0.000002   -0.020029
| 15> Cl         0.977749   -1.447621   -0.717909
| 16> Cl         0.464749   -0.000133    1.756486
| 17> Cl         0.977881    1.447648   -0.717704
| 18> *
| 19>
| 20> $new_job
| 21> ! ri-mp2 aug-cc-pvtz aug-cc-pvtz/c tightscf
| 22> %pal nprocs 16 end
| 23> %maxcore 3800
| 24> %base "TZ_B-F_16_AB"
| 25>
| 26> *xyz 0 1
| 27> F        -1.996243    1.127791   -0.242997
| 28> F        -1.996319   -1.127624   -0.242966
| 29> B        -1.337058    0.000062   -0.192197
| 30> C         0.245315   -0.000002   -0.020029
| 31> Cl         0.977749   -1.447621   -0.717909
| 32> Cl         0.464749   -0.000133    1.756486
| 33> Cl         0.977881    1.447648   -0.717704
| 34> *
| 35>
| 36> $new_job
| 37> ! ri-mp2 aug-cc-pvqz aug-cc-pvqz/c tightscf
| 38> %pal nprocs 16 end
| 39> %maxcore 3800
| 40> %base "QZ_B-F_16_AB"
| 41>
| 42> *xyz 0 1
| 43> F        -1.996243    1.127791   -0.242997
| 44> F        -1.996319   -1.127624   -0.242966
| 45> B        -1.337058    0.000062   -0.192197
| 46> C         0.245315   -0.000002   -0.020029
| 47> Cl         0.977749   -1.447621   -0.717909
| 48> Cl         0.464749   -0.000133    1.756486
| 49> Cl         0.977881    1.447648   -0.717704
| 50> *
| 51>
| 52>
| 53>
| 54>
| 55>                          ****END OF INPUT****
 Total Charge           Charge          ....    0
 Multiplicity           Mult            ....    1
 Number of Electrons    NEL             ....   80
MP2 TOTAL ENERGY:    -1641.143707961 Eh
FINAL SINGLE POINT ENERGY     -1641.143707961376
MP2 TOTAL ENERGY:    -1641.551694126 Eh
FINAL SINGLE POINT ENERGY     -1641.551694125530

CARTESIAN COORDINATES (ANGSTROEM)
---------------------------------
  F     -1.996243    1.127791   -0.242997
  F     -1.996319   -1.127624   -0.242966
  B     -1.337058    0.000062   -0.192197
  C      0.245315   -0.000002   -0.020029
  Cl     0.977749   -1.447621   -0.717909
  Cl     0.464749   -0.000133    1.756486
  Cl     0.977881    1.447648   -0.717704

 Multiplicity           Mult            ....    1
 Number of Electrons    NEL             ....   80
 Basis Dimension        Dim             ....  572

ORBITAL ENERGIES
----------------

  NO   OCC          E(Eh)            E(eV)
   0   2.0000    -104.877878     -2853.8721
   1   2.0000    -104.873044     -2853.7406
   2   2.0000    -104.873044     -2853.7406
   3   2.0000     -26.342573      -716.8178
   4   2.0000     -26.342556      -716.8174
   5   2.0000     -11.431912      -311.0782
   6   2.0000     -10.603395      -288.5330
   7   2.0000     -10.598733      -288.4062
   8   2.0000     -10.598724      -288.4059
   9   2.0000      -8.070327      -219.6048
  10   2.0000      -8.068358      -219.5512
  11   2.0000      -8.068353      -219.5511
  12   2.0000      -8.065739      -219.4799
  13   2.0000      -8.065736      -219.4798
  14   2.0000      -8.063747      -219.4257
  15   2.0000      -8.063746      -219.4257
  16   2.0000      -8.063687      -219.4241
  17   2.0000      -8.063686      -219.4241
  18   2.0000      -7.755091      -211.0268
  19   2.0000      -1.678572       -45.6763
  20   2.0000      -1.647680       -44.8356
  21   2.0000      -1.251680       -34.0599
  22   2.0000      -1.125684       -30.6314
  23   2.0000      -1.123581       -30.5742
  24   2.0000      -0.901306       -24.5258
  25   2.0000      -0.837816       -22.7981
  26   2.0000      -0.797021       -21.6881
  27   2.0000      -0.754093       -20.5199
  28   2.0000      -0.746914       -20.3246
  29   2.0000      -0.689942       -18.7743
  30   2.0000      -0.686576       -18.6827
  31   2.0000      -0.643285       -17.5047
  32   2.0000      -0.635234       -17.2856
  33   2.0000      -0.630442       -17.1552
  34   2.0000      -0.516596       -14.0573
  35   2.0000      -0.514795       -14.0083
  36   2.0000      -0.477449       -12.9920
  37   2.0000      -0.475161       -12.9298
  38   2.0000      -0.461125       -12.5478
  39   2.0000      -0.460485       -12.5304
  40   0.0000       0.033066         0.8998
  41   0.0000       0.036603         0.9960
  42   0.0000       0.039516         1.0753
  43   0.0000       0.042550         1.1579
  44   0.0000       0.067118         1.8264

MULLIKEN ATOMIC CHARGES
-----------------------
   0 F :   -0.805995
   1 F :   -0.805996
   2 B :    1.863845
   3 C :    0.318686
   4 Cl:   -0.191566
   5 Cl:   -0.187412
   6 Cl:   -0.191562
Sum of atomic charges:   -0.0000000

LOEWDIN ATOMIC CHARGES
----------------------
   0 F :    0.817071
   1 F :    0.817071
   2 B :   -2.375706
   3 C :   -2.385865
   4 Cl:    1.038590
   5 Cl:    1.050253
   6 Cl:    1.038586

  Mayer bond orders larger than 0.100000
B(  0-F ,  2-B ) :   0.3774 B(  1-F ,  2-B ) :   0.3774 B(  2-B ,  3-C ) :   0.7875
B(  3-C ,  4-Cl) :   0.8053 B(  3-C ,  5-Cl) :   0.8575 B(  3-C ,  6-Cl) :   0.8053

MP2 TOTAL ENERGY:    -1641.685727867 Eh
FINAL SINGLE POINT ENERGY     -1641.685727866915

DIPOLE MOMENT
-------------
                                X             Y             Z
Electronic contribution:     -1.34997       0.00006      -0.20385
Nuclear contribution   :      1.39994      -0.00006       0.15795
                        -----------------------------------------
Total Dipole Moment    :      0.04997       0.00000      -0.04591
                        -----------------------------------------
Magnitude (a.u.)       :      0.06786
Magnitude (Debye)      :      0.17248

Rotational constants in cm-1:     0.048795     0.042627     0.037983
Rotational constants in MHz :  1462.851266  1277.928166  1138.701766

                             ****ORCA TERMINATED NORMALLY****
TOTAL RUN TIME: 0 days 0 hours 27 minutes 34 seconds 816 msec
