                         Program Version 5.0.4 -  RELEASE  -
|  1> ! ri-mp2 aug-cc-pvdz aug-cc-pvdz/c tightscf
|  2> %pal nprocs 16 end
|  3> %maxcore 3800
|  4> %base "DZ_Si-Si_69_A"
|  5> %scf
|  6> STABPerform true
|  7> STABRestartUHFifUnstable true
|  8> end
|  9>
| 10> *xyz 0 2
| 11> Si         1.376465   -0.244131   -0.000001
| 12> C        -0.514226    0.131706    0.000003
| 13> H         1.945376    0.381859   -1.214591
| 14> H         1.945381    0.381860    1.214586
| 15> O        -0.827646    1.304919    0.000006
| 16> N        -1.417798   -0.870940   -0.000004
| 17> H        -1.129060   -1.832110   -0.000011
| 18> H        -2.401094   -0.646777   -0.000004
| 19> *
| 20>
| 21> $new_job
| 22> ! ri-mp2 aug-cc-pvtz aug-cc-pvtz/c tightscf
| 23> %pal nprocs 16 end
| 24> %maxcore 3800
| 25> %base "TZ_Si-Si_69_A"
| 26>
| 27> *xyz 0 2
| 28> Si         1.376465   -0.244131   -0.000001
| 29> C        -0.514226    0.131706    0.000003
| 30> H         1.945376    0.381859   -1.214591
| 31> H         1.945381    0.381860    1.214586
| 32> O        -0.827646    1.304919    0.000006
| 33> N        -1.417798   -0.870940   -0.000004
| 34> H        -1.129060   -1.832110   -0.000011
| 35> H        -2.401094   -0.646777   -0.000004
| 36> *
| 37>
| 38> $new_job
| 39> ! ri-mp2 aug-cc-pvqz aug-cc-pvqz/c tightscf
| 40> %pal nprocs 16 end
| 41> %maxcore 3800
| 42> %base "QZ_Si-Si_69_A"
| 43>
| 44> *xyz 0 2
| 45> Si         1.376465   -0.244131   -0.000001
| 46> C        -0.514226    0.131706    0.000003
| 47> H         1.945376    0.381859   -1.214591
| 48> H         1.945381    0.381860    1.214586
| 49> O        -0.827646    1.304919    0.000006
| 50> N        -1.417798   -0.870940   -0.000004
| 51> H        -1.129060   -1.832110   -0.000011
| 52> H        -2.401094   -0.646777   -0.000004
| 53> *
| 54>
| 55>
| 56>
| 57>
| 58>                          ****END OF INPUT****
 Total Charge           Charge          ....    0
 Multiplicity           Mult            ....    2
 Number of Electrons    NEL             ....   39
MP2 TOTAL ENERGY:     -459.024358158 Eh
FINAL SINGLE POINT ENERGY      -459.024358158455
MP2 TOTAL ENERGY:     -459.200535486 Eh
FINAL SINGLE POINT ENERGY      -459.200535486290

CARTESIAN COORDINATES (ANGSTROEM)
---------------------------------
  Si     1.376465   -0.244131   -0.000001
  C     -0.514226    0.131706    0.000003
  H      1.945376    0.381859   -1.214591
  H      1.945381    0.381860    1.214586
  O     -0.827646    1.304919    0.000006
  N     -1.417798   -0.870940   -0.000004
  H     -1.129060   -1.832110   -0.000011
  H     -2.401094   -0.646777   -0.000004

 Multiplicity           Mult            ....    2
 Number of Electrons    NEL             ....   39
 Basis Dimension        Dim             ....  508

ORBITAL ENERGIES
----------------
                 SPIN UP ORBITALS
  NO   OCC          E(Eh)            E(eV)
   0   1.0000     -68.796597     -1872.0506
   1   1.0000     -20.530033      -558.6506
   2   1.0000     -15.594498      -424.3479
   3   1.0000     -11.344378      -308.6962
   4   1.0000      -6.146882      -167.2652
   5   1.0000      -4.259640      -115.9107
   6   1.0000      -4.249534      -115.6357
   7   1.0000      -4.249528      -115.6355
   8   1.0000      -1.391322       -37.8598
   9   1.0000      -1.221310       -33.2335
  10   1.0000      -0.843638       -22.9566
  11   1.0000      -0.765863       -20.8402
  12   1.0000      -0.709688       -19.3116
  13   1.0000      -0.646924       -17.6037
  14   1.0000      -0.582454       -15.8494
  15   1.0000      -0.562143       -15.2967
  16   1.0000      -0.497025       -13.5247
  17   1.0000      -0.427123       -11.6226
  18   1.0000      -0.423673       -11.5287
  19   1.0000      -0.343163        -9.3379
  20   0.0000       0.018069         0.4917
  21   0.0000       0.032704         0.8899
  22   0.0000       0.037276         1.0143
  23   0.0000       0.042139         1.1467
  24   0.0000       0.050197         1.3659

                 SPIN DOWN ORBITALS
  NO   OCC          E(Eh)            E(eV)
   0   1.0000     -68.791041     -1871.8994
   1   1.0000     -20.527639      -558.5854
   2   1.0000     -15.594721      -424.3539
   3   1.0000     -11.343139      -308.6625
   4   1.0000      -6.138376      -167.0337
   5   1.0000      -4.246046      -115.5408
   6   1.0000      -4.245885      -115.5364
   7   1.0000      -4.237317      -115.3033
   8   1.0000      -1.386120       -37.7182
   9   1.0000      -1.220638       -33.2152
  10   1.0000      -0.834354       -22.7039
  11   1.0000      -0.754901       -20.5419
  12   1.0000      -0.694062       -18.8864
  13   1.0000      -0.632544       -17.2124
  14   1.0000      -0.580660       -15.8006
  15   1.0000      -0.550097       -14.9689
  16   1.0000      -0.487860       -13.2753
  17   1.0000      -0.423155       -11.5146
  18   1.0000      -0.399763       -10.8781
  19   0.0000       0.012071         0.3285
  20   0.0000       0.026967         0.7338
  21   0.0000       0.035585         0.9683
  22   0.0000       0.037823         1.0292
  23   0.0000       0.048925         1.3313

MULLIKEN ATOMIC CHARGES AND SPIN POPULATIONS
--------------------------------------------
   0 Si:    0.679525    0.928765
   1 C :    0.515227    0.026105
   2 H :   -0.170075    0.015055
   3 H :   -0.170075    0.015055
   4 O :   -0.752212    0.034611
   5 N :   -0.711139   -0.011532
   6 H :    0.333646   -0.004094
   7 H :    0.275104   -0.003964
Sum of atomic charges         :    0.0000000

LOEWDIN ATOMIC CHARGES AND SPIN POPULATIONS
-------------------------------------------
   0 Si:    1.039055    0.548163
   1 C :   -0.985451    0.132823
   2 H :   -0.355828    0.121766
   3 H :   -0.355828    0.121766
   4 O :    0.571202    0.039213
   5 N :    1.135184    0.019356
   6 H :   -0.541228    0.017481
   7 H :   -0.507107   -0.000567

  Mayer bond orders larger than 0.100000
B(  0-Si,  1-C ) :   0.7734 B(  0-Si,  2-H ) :   0.9046 B(  0-Si,  3-H ) :   0.9046
B(  1-C ,  4-O ) :   1.5162 B(  1-C ,  5-N ) :   1.1554 B(  4-O ,  5-N ) :   0.1364
B(  5-N ,  6-H ) :   0.9010 B(  5-N ,  7-H ) :   0.9348

MP2 TOTAL ENERGY:     -459.259264408 Eh
FINAL SINGLE POINT ENERGY      -459.259264407969

DIPOLE MOMENT
-------------
                                X             Y             Z
Electronic contribution:     -0.28043       0.15323       0.00001
Nuclear contribution   :      0.25260      -1.66466      -0.00002
                        -----------------------------------------
Total Dipole Moment    :     -0.02783      -1.51143      -0.00001
                        -----------------------------------------
Magnitude (a.u.)       :      1.51169
Magnitude (Debye)      :      3.84240

Rotational constants in cm-1:     0.363316     0.148407     0.109436
Rotational constants in MHz : 10891.947708  4449.143377  3280.799811

                             ****ORCA TERMINATED NORMALLY****
TOTAL RUN TIME: 0 days 0 hours 29 minutes 26 seconds 847 msec
