                         Program Version 5.0.4 -  RELEASE  -
|  1> ! ri-mp2 aug-cc-pvdz aug-cc-pvdz/c tightscf
|  2> %pal nprocs 16 end
|  3> %maxcore 3800
|  4> %base "DZ_B-B_53_A"
|  5> %scf
|  6> STABPerform true
|  7> STABRestartUHFifUnstable true
|  8> end
|  9>
| 10> *xyz 0 2
| 11> B         1.587349    0.941369    0.000012
| 12> S         0.679615   -0.546291   -0.000007
| 13> C        -0.952234   -0.023831   -0.000000
| 14> N        -2.052788    0.299948    0.000005
| 15> H         1.272325    2.077157    0.000017
| 16> *
| 17>
| 18> $new_job
| 19> ! ri-mp2 aug-cc-pvtz aug-cc-pvtz/c tightscf
| 20> %pal nprocs 16 end
| 21> %maxcore 3800
| 22> %base "TZ_B-B_53_A"
| 23>
| 24> *xyz 0 2
| 25> B         1.587349    0.941369    0.000012
| 26> S         0.679615   -0.546291   -0.000007
| 27> C        -0.952234   -0.023831   -0.000000
| 28> N        -2.052788    0.299948    0.000005
| 29> H         1.272325    2.077157    0.000017
| 30> *
| 31>
| 32> $new_job
| 33> ! ri-mp2 aug-cc-pvqz aug-cc-pvqz/c tightscf
| 34> %pal nprocs 16 end
| 35> %maxcore 3800
| 36> %base "QZ_B-B_53_A"
| 37>
| 38> *xyz 0 2
| 39> B         1.587349    0.941369    0.000012
| 40> S         0.679615   -0.546291   -0.000007
| 41> C        -0.952234   -0.023831   -0.000000
| 42> N        -2.052788    0.299948    0.000005
| 43> H         1.272325    2.077157    0.000017
| 44> *
| 45>
| 46>
| 47>
| 48>
| 49>                          ****END OF INPUT****
 Total Charge           Charge          ....    0
 Multiplicity           Mult            ....    2
 Number of Electrons    NEL             ....   35
MP2 TOTAL ENERGY:     -515.546061544 Eh
FINAL SINGLE POINT ENERGY      -515.546061543982
MP2 TOTAL ENERGY:     -515.689817427 Eh
FINAL SINGLE POINT ENERGY      -515.689817426743

CARTESIAN COORDINATES (ANGSTROEM)
---------------------------------
  B      1.587349    0.941369    0.000012
  S      0.679615   -0.546291   -0.000007
  C     -0.952234   -0.023831   -0.000000
  N     -2.052788    0.299948    0.000005
  H      1.272325    2.077157    0.000017

 Multiplicity           Mult            ....    2
 Number of Electrons    NEL             ....   35
 Basis Dimension        Dim             ....  370

ORBITAL ENERGIES
----------------
                 SPIN UP ORBITALS
  NO   OCC          E(Eh)            E(eV)
   0   1.0000     -92.033975     -2504.3718
   1   1.0000     -15.592014      -424.2803
   2   1.0000     -11.306992      -307.6789
   3   1.0000      -9.036981      -245.9088
   4   1.0000      -7.689805      -209.2502
   5   1.0000      -6.718017      -182.8065
   6   1.0000      -6.716646      -182.7692
   7   1.0000      -6.716188      -182.7568
   8   1.0000      -1.246834       -33.9281
   9   1.0000      -1.080509       -29.4021
  10   1.0000      -0.768843       -20.9213
  11   1.0000      -0.662357       -18.0236
  12   1.0000      -0.579562       -15.7707
  13   1.0000      -0.554508       -15.0889
  14   1.0000      -0.544274       -14.8104
  15   1.0000      -0.476976       -12.9792
  16   1.0000      -0.427246       -11.6259
  17   1.0000      -0.387092       -10.5333
  18   0.0000       0.021622         0.5884
  19   0.0000       0.024018         0.6536
  20   0.0000       0.032790         0.8923
  21   0.0000       0.039737         1.0813
  22   0.0000       0.053199         1.4476

                 SPIN DOWN ORBITALS
  NO   OCC          E(Eh)            E(eV)
   0   1.0000     -92.034292     -2504.3804
   1   1.0000     -15.592516      -424.2939
   2   1.0000     -11.303695      -307.5892
   3   1.0000      -9.036866      -245.9056
   4   1.0000      -7.670173      -208.7160
   5   1.0000      -6.719358      -182.8430
   6   1.0000      -6.717358      -182.7886
   7   1.0000      -6.717061      -182.7805
   8   1.0000      -1.245284       -33.8859
   9   1.0000      -1.071183       -29.1484
  10   1.0000      -0.730382       -19.8747
  11   1.0000      -0.643590       -17.5130
  12   1.0000      -0.577464       -15.7136
  13   1.0000      -0.544994       -14.8300
  14   1.0000      -0.544221       -14.8090
  15   1.0000      -0.469981       -12.7888
  16   1.0000      -0.428971       -11.6729
  17   0.0000       0.016945         0.4611
  18   0.0000       0.030144         0.8203
  19   0.0000       0.032587         0.8867
  20   0.0000       0.039155         1.0655
  21   0.0000       0.052853         1.4382

MULLIKEN ATOMIC CHARGES AND SPIN POPULATIONS
--------------------------------------------
   0 B :    0.236663    1.039899
   1 S :    0.455368   -0.089668
   2 C :   -0.080908    0.096033
   3 N :   -0.460174   -0.023612
   4 H :   -0.150949   -0.022652
Sum of atomic charges         :   -0.0000000

LOEWDIN ATOMIC CHARGES AND SPIN POPULATIONS
-------------------------------------------
   0 B :   -0.248746    0.590136
   1 S :    1.190283    0.200026
   2 C :   -0.882870    0.040115
   3 N :    0.275776   -0.003330
   4 H :   -0.334444    0.173052

  Mayer bond orders larger than 0.100000
B(  0-B ,  1-S ) :   1.3207 B(  0-B ,  4-H ) :   0.9326 B(  1-S ,  2-C ) :   0.8219
B(  2-C ,  3-N ) :   2.6475

MP2 TOTAL ENERGY:     -515.737763733 Eh
FINAL SINGLE POINT ENERGY      -515.737763733184

DIPOLE MOMENT
-------------
                                X             Y             Z
Electronic contribution:      1.22023      -1.30560      -0.00001
Nuclear contribution   :     -0.03741       1.25756       0.00001
                        -----------------------------------------
Total Dipole Moment    :      1.18281      -0.04804      -0.00000
                        -----------------------------------------
Magnitude (a.u.)       :      1.18379
Magnitude (Debye)      :      3.00895

Rotational constants in cm-1:     0.682083     0.148374     0.121865
Rotational constants in MHz : 20448.322677  4448.134738  3653.407106

                             ****ORCA TERMINATED NORMALLY****
TOTAL RUN TIME: 0 days 0 hours 9 minutes 4 seconds 249 msec
