                         Program Version 5.0.4 -  RELEASE  -
|  1> ! ri-mp2 aug-cc-pvdz aug-cc-pvdz/c tightscf
|  2> %pal nprocs 16 end
|  3> %maxcore 3800
|  4> %base "DZ_B-Cl_24_A"
|  5> %scf
|  6> STABPerform true
|  7> STABRestartUHFifUnstable true
|  8> end
|  9>
| 10> *xyz 0 2
| 11> Cl        -1.901399   -0.041932   -0.126874
| 12> B        -0.410749   -0.047947    0.678412
| 13> C         1.027501    0.099962    0.103457
| 14> O         1.498935    1.189681   -0.102763
| 15> O         1.703532   -1.043817   -0.079737
| 16> H         2.592786   -0.814097   -0.395947
| 17> *
| 18>
| 19> $new_job
| 20> ! ri-mp2 aug-cc-pvtz aug-cc-pvtz/c tightscf
| 21> %pal nprocs 16 end
| 22> %maxcore 3800
| 23> %base "TZ_B-Cl_24_A"
| 24>
| 25> *xyz 0 2
| 26> Cl        -1.901399   -0.041932   -0.126874
| 27> B        -0.410749   -0.047947    0.678412
| 28> C         1.027501    0.099962    0.103457
| 29> O         1.498935    1.189681   -0.102763
| 30> O         1.703532   -1.043817   -0.079737
| 31> H         2.592786   -0.814097   -0.395947
| 32> *
| 33>
| 34> $new_job
| 35> ! ri-mp2 aug-cc-pvqz aug-cc-pvqz/c tightscf
| 36> %pal nprocs 16 end
| 37> %maxcore 3800
| 38> %base "QZ_B-Cl_24_A"
| 39>
| 40> *xyz 0 2
| 41> Cl        -1.901399   -0.041932   -0.126874
| 42> B        -0.410749   -0.047947    0.678412
| 43> C         1.027501    0.099962    0.103457
| 44> O         1.498935    1.189681   -0.102763
| 45> O         1.703532   -1.043817   -0.079737
| 46> H         2.592786   -0.814097   -0.395947
| 47> *
| 48>
| 49>
| 50>
| 51>
| 52>                          ****END OF INPUT****
 Total Charge           Charge          ....    0
 Multiplicity           Mult            ....    2
 Number of Electrons    NEL             ....   45
MP2 TOTAL ENERGY:     -673.108403757 Eh
FINAL SINGLE POINT ENERGY      -673.108403756592
MP2 TOTAL ENERGY:     -673.341411094 Eh
FINAL SINGLE POINT ENERGY      -673.341411094200

CARTESIAN COORDINATES (ANGSTROEM)
---------------------------------
  Cl    -1.901399   -0.041932   -0.126874
  B     -0.410749   -0.047947    0.678412
  C      1.027501    0.099962    0.103457
  O      1.498935    1.189681   -0.102763
  O      1.703532   -1.043817   -0.079737
  H      2.592786   -0.814097   -0.395947

 Multiplicity           Mult            ....    2
 Number of Electrons    NEL             ....   45
 Basis Dimension        Dim             ....  450

ORBITAL ENERGIES
----------------
                 SPIN UP ORBITALS
  NO   OCC          E(Eh)            E(eV)
   0   1.0000    -104.874099     -2853.7693
   1   1.0000     -20.627032      -561.2901
   2   1.0000     -20.568925      -559.7089
   3   1.0000     -11.387186      -309.8611
   4   1.0000     -10.601503      -288.4816
   5   1.0000      -8.069080      -219.5708
   6   1.0000      -8.067186      -219.5193
   7   1.0000      -8.066659      -219.5050
   8   1.0000      -7.711993      -209.8540
   9   1.0000      -1.482269       -40.3346
  10   1.0000      -1.382449       -37.6184
  11   1.0000      -1.158955       -31.5368
  12   1.0000      -0.908374       -24.7181
  13   1.0000      -0.753567       -20.5056
  14   1.0000      -0.720141       -19.5960
  15   1.0000      -0.655841       -17.8463
  16   1.0000      -0.651931       -17.7400
  17   1.0000      -0.596558       -16.2332
  18   1.0000      -0.540950       -14.7200
  19   1.0000      -0.521114       -14.1802
  20   1.0000      -0.511751       -13.9255
  21   1.0000      -0.475345       -12.9348
  22   1.0000      -0.366096        -9.9620
  23   0.0000       0.025267         0.6876
  24   0.0000       0.034661         0.9432
  25   0.0000       0.037345         1.0162
  26   0.0000       0.038818         1.0563
  27   0.0000       0.053908         1.4669

                 SPIN DOWN ORBITALS
  NO   OCC          E(Eh)            E(eV)
   0   1.0000    -104.873425     -2853.7510
   1   1.0000     -20.627272      -561.2966
   2   1.0000     -20.564362      -559.5847
   3   1.0000     -11.387426      -309.8676
   4   1.0000     -10.600720      -288.4603
   5   1.0000      -8.067956      -219.5402
   6   1.0000      -8.067068      -219.5161
   7   1.0000      -8.064569      -219.4481
   8   1.0000      -7.691909      -209.3075
   9   1.0000      -1.480057       -40.2744
  10   1.0000      -1.375080       -37.4178
  11   1.0000      -1.150886       -31.3172
  12   1.0000      -0.896525       -24.3957
  13   1.0000      -0.738244       -20.0887
  14   1.0000      -0.716622       -19.5003
  15   1.0000      -0.649251       -17.6670
  16   1.0000      -0.633292       -17.2328
  17   1.0000      -0.588774       -16.0214
  18   1.0000      -0.520862       -14.1734
  19   1.0000      -0.511460       -13.9175
  20   1.0000      -0.486687       -13.2434
  21   1.0000      -0.461893       -12.5688
  22   0.0000       0.023548         0.6408
  23   0.0000       0.030407         0.8274
  24   0.0000       0.038521         1.0482
  25   0.0000       0.039663         1.0793
  26   0.0000       0.049693         1.3522

MULLIKEN ATOMIC CHARGES AND SPIN POPULATIONS
--------------------------------------------
   0 Cl:   -0.165854    0.026735
   1 B :    0.431568    0.966727
   2 C :    0.775658   -0.085031
   3 O :   -0.711479    0.097728
   4 O :   -0.664513   -0.005101
   5 H :    0.334619   -0.001057
Sum of atomic charges         :   -0.0000000

LOEWDIN ATOMIC CHARGES AND SPIN POPULATIONS
-------------------------------------------
   0 Cl:    1.234817    0.175525
   1 B :   -1.141166    0.563782
   2 C :   -1.106436    0.169311
   3 O :    0.638411    0.081972
   4 O :    1.189087    0.009675
   5 H :   -0.814712   -0.000264

  Mayer bond orders larger than 0.100000
B(  0-Cl,  1-B ) :   1.2683 B(  1-B ,  2-C ) :   0.8974 B(  2-C ,  3-O ) :   1.5756
B(  2-C ,  4-O ) :   0.9221 B(  4-O ,  5-H ) :   0.9024

MP2 TOTAL ENERGY:     -673.420775176 Eh
FINAL SINGLE POINT ENERGY      -673.420775176375

DIPOLE MOMENT
-------------
                                X             Y             Z
Electronic contribution:     -5.28112       0.02996       0.66238
Nuclear contribution   :      5.27236      -0.66030      -0.70734
                        -----------------------------------------
Total Dipole Moment    :     -0.00876      -0.63034      -0.04496
                        -----------------------------------------
Magnitude (a.u.)       :      0.63201
Magnitude (Debye)      :      1.60643

Rotational constants in cm-1:     0.358604     0.070950     0.061878
Rotational constants in MHz : 10750.670169  2127.016664  1855.043133

                             ****ORCA TERMINATED NORMALLY****
TOTAL RUN TIME: 0 days 0 hours 17 minutes 51 seconds 606 msec
