                         Program Version 5.0.4 -  RELEASE  -
|  1> ! ri-mp2 aug-cc-pvdz aug-cc-pvdz/c tightscf
|  2> %pal nprocs 16 end
|  3> %maxcore 3800
|  4> %base "DZ_B-Si_1_AB"
|  5> %scf
|  6> STABPerform true
|  7> STABRestartUHFifUnstable true
|  8> end
|  9>
| 10> *xyz 0 1
| 11> B        -1.220326    1.608890    0.140781
| 12> Si        -1.329237   -0.372082   -0.146798
| 13> C         1.714844    0.935149    0.008249
| 14> C         0.298186   -1.143270    0.423053
| 15> C         1.532850   -0.551053   -0.257695
| 16> H         0.251918   -2.220466    0.248377
| 17> H         0.375677   -1.010818    1.506280
| 18> H         1.478333   -0.722771   -1.335987
| 19> H         2.425673   -1.079221    0.086664
| 20> H         1.754159    1.146406    1.077413
| 21> H         0.897894    1.531012   -0.422317
| 22> H         2.630213    1.316439   -0.444946
| 23> H        -1.285413    2.409257   -0.739295
| 24> H        -1.083485    2.034137    1.246153
| 25> H        -1.563509   -0.744428   -1.565311
| 26> H        -2.445795   -0.939805    0.652592
| 27> *
| 28>
| 29> $new_job
| 30> ! ri-mp2 aug-cc-pvtz aug-cc-pvtz/c tightscf
| 31> %pal nprocs 16 end
| 32> %maxcore 3800
| 33> %base "TZ_B-Si_1_AB"
| 34>
| 35> *xyz 0 1
| 36> B        -1.220326    1.608890    0.140781
| 37> Si        -1.329237   -0.372082   -0.146798
| 38> C         1.714844    0.935149    0.008249
| 39> C         0.298186   -1.143270    0.423053
| 40> C         1.532850   -0.551053   -0.257695
| 41> H         0.251918   -2.220466    0.248377
| 42> H         0.375677   -1.010818    1.506280
| 43> H         1.478333   -0.722771   -1.335987
| 44> H         2.425673   -1.079221    0.086664
| 45> H         1.754159    1.146406    1.077413
| 46> H         0.897894    1.531012   -0.422317
| 47> H         2.630213    1.316439   -0.444946
| 48> H        -1.285413    2.409257   -0.739295
| 49> H        -1.083485    2.034137    1.246153
| 50> H        -1.563509   -0.744428   -1.565311
| 51> H        -2.445795   -0.939805    0.652592
| 52> *
| 53>
| 54> $new_job
| 55> ! ri-mp2 aug-cc-pvqz aug-cc-pvqz/c tightscf
| 56> %pal nprocs 16 end
| 57> %maxcore 3800
| 58> %base "QZ_B-Si_1_AB"
| 59>
| 60> *xyz 0 1
| 61> B        -1.220326    1.608890    0.140781
| 62> Si        -1.329237   -0.372082   -0.146798
| 63> C         1.714844    0.935149    0.008249
| 64> C         0.298186   -1.143270    0.423053
| 65> C         1.532850   -0.551053   -0.257695
| 66> H         0.251918   -2.220466    0.248377
| 67> H         0.375677   -1.010818    1.506280
| 68> H         1.478333   -0.722771   -1.335987
| 69> H         2.425673   -1.079221    0.086664
| 70> H         1.754159    1.146406    1.077413
| 71> H         0.897894    1.531012   -0.422317
| 72> H         2.630213    1.316439   -0.444946
| 73> H        -1.285413    2.409257   -0.739295
| 74> H        -1.083485    2.034137    1.246153
| 75> H        -1.563509   -0.744428   -1.565311
| 76> H        -2.445795   -0.939805    0.652592
| 77> *
| 78>
| 79>
| 80>
| 81>
| 82>                          ****END OF INPUT****
 Total Charge           Charge          ....    0
 Multiplicity           Mult            ....    1
 Number of Electrons    NEL             ....   48
MP2 TOTAL ENERGY:     -434.249644896 Eh
FINAL SINGLE POINT ENERGY      -434.249644895905
MP2 TOTAL ENERGY:     -434.428690782 Eh
FINAL SINGLE POINT ENERGY      -434.428690781611

CARTESIAN COORDINATES (ANGSTROEM)
---------------------------------
  B     -1.220326    1.608890    0.140781
  Si    -1.329237   -0.372082   -0.146798
  C      1.714844    0.935149    0.008249
  C      0.298186   -1.143270    0.423053
  C      1.532850   -0.551053   -0.257695
  H      0.251918   -2.220466    0.248377
  H      0.375677   -1.010818    1.506280
  H      1.478333   -0.722771   -1.335987
  H      2.425673   -1.079221    0.086664
  H      1.754159    1.146406    1.077413
  H      0.897894    1.531012   -0.422317
  H      2.630213    1.316439   -0.444946
  H     -1.285413    2.409257   -0.739295
  H     -1.083485    2.034137    1.246153
  H     -1.563509   -0.744428   -1.565311
  H     -2.445795   -0.939805    0.652592

 Multiplicity           Mult            ....    1
 Number of Electrons    NEL             ....   48
 Basis Dimension        Dim             ....  910

ORBITAL ENERGIES
----------------

  NO   OCC          E(Eh)            E(eV)
   0   2.0000     -68.742511     -1870.5788
   1   2.0000     -11.227214      -305.5080
   2   2.0000     -11.224279      -305.4282
   3   2.0000     -11.206652      -304.9485
   4   2.0000      -7.601650      -206.8514
   5   2.0000      -6.094337      -165.8353
   6   2.0000      -4.200696      -114.3067
   7   2.0000      -4.200358      -114.2975
   8   2.0000      -4.200209      -114.2935
   9   2.0000      -1.064564       -28.9683
  10   2.0000      -0.934185       -25.4205
  11   2.0000      -0.814690       -22.1688
  12   2.0000      -0.723186       -19.6789
  13   2.0000      -0.645468       -17.5641
  14   2.0000      -0.620725       -16.8908
  15   2.0000      -0.609690       -16.5905
  16   2.0000      -0.560187       -15.2435
  17   2.0000      -0.514992       -14.0137
  18   2.0000      -0.505580       -13.7575
  19   2.0000      -0.490587       -13.3495
  20   2.0000      -0.480442       -13.0735
  21   2.0000      -0.452606       -12.3160
  22   2.0000      -0.428098       -11.6491
  23   2.0000      -0.396292       -10.7837
  24   0.0000       0.023904         0.6505
  25   0.0000       0.028525         0.7762
  26   0.0000       0.030430         0.8280
  27   0.0000       0.032186         0.8758
  28   0.0000       0.043102         1.1729

MULLIKEN ATOMIC CHARGES
-----------------------
   0 B :    0.281404
   1 Si:    0.806731
   2 C :   -0.827471
   3 C :   -0.581190
   4 C :   -0.398502
   5 H :    0.255151
   6 H :    0.192367
   7 H :    0.260600
   8 H :    0.284470
   9 H :    0.198611
  10 H :    0.313381
  11 H :    0.268333
  12 H :   -0.246525
  13 H :   -0.246298
  14 H :   -0.235824
  15 H :   -0.325238
Sum of atomic charges:    0.0000000

LOEWDIN ATOMIC CHARGES
----------------------
   0 B :    0.297343
   1 Si:    0.882060
   2 C :    0.894999
   3 C :    0.494921
   4 C :    0.455910
   5 H :   -0.331171
   6 H :   -0.332348
   7 H :   -0.279262
   8 H :   -0.272298
   9 H :   -0.260951
  10 H :   -0.388454
  11 H :   -0.256120
  12 H :   -0.222590
  13 H :   -0.221740
  14 H :   -0.226906
  15 H :   -0.233395

  Mayer bond orders larger than 0.100000
B(  0-B ,  1-Si) :   1.0379 B(  0-B , 12-H ) :   0.8471 B(  0-B , 13-H ) :   0.8160
B(  1-Si,  3-C ) :   0.7789 B(  1-Si, 14-H ) :   0.7853 B(  1-Si, 15-H ) :   0.7492
B(  2-C ,  4-C ) :   0.9798 B(  2-C ,  9-H ) :   0.9567 B(  2-C , 10-H ) :   0.9005
B(  2-C , 11-H ) :   0.9830 B(  3-C ,  4-C ) :   0.9076 B(  3-C ,  5-H ) :   0.9668
B(  3-C ,  6-H ) :   0.9454 B(  4-C ,  7-H ) :   0.8772 B(  4-C ,  8-H ) :   0.8704

MP2 TOTAL ENERGY:     -434.482634924 Eh
FINAL SINGLE POINT ENERGY      -434.482634923851

DIPOLE MOMENT
-------------
                                X             Y             Z
Electronic contribution:     -4.31619      -0.49971      -0.13316
Nuclear contribution   :      4.71578       0.46729       0.21494
                        -----------------------------------------
Total Dipole Moment    :      0.39958      -0.03242       0.08178
                        -----------------------------------------
Magnitude (a.u.)       :      0.40915
Magnitude (Debye)      :      1.03998

Rotational constants in cm-1:     0.167305     0.096214     0.068251
Rotational constants in MHz :  5015.666015  2884.433068  2046.115003

                             ****ORCA TERMINATED NORMALLY****
TOTAL RUN TIME: 0 days 1 hours 28 minutes 35 seconds 822 msec
