                         Program Version 5.0.4 -  RELEASE  -
|  1> ! ri-mp2 aug-cc-pvdz aug-cc-pvdz/c tightscf
|  2> %pal nprocs 16 end
|  3> %maxcore 3800
|  4> %base "DZ_B-Cl_37_A"
|  5> %scf
|  6> STABPerform true
|  7> STABRestartUHFifUnstable true
|  8> end
|  9>
| 10> *xyz 0 2
| 11> Cl        -2.357363    0.111386   -0.000001
| 12> B        -0.836668    0.844908   -0.000005
| 13> S         0.753073   -0.147405    0.000001
| 14> O         0.802043   -0.857777   -1.252506
| 15> C         2.065385    1.036317   -0.000006
| 16> O         0.802042   -0.857762    1.252516
| 17> H         1.997970    1.644387   -0.898623
| 18> H         2.988415    0.457996   -0.000002
| 19> H         1.997969    1.644398    0.898604
| 20> *
| 21>
| 22> $new_job
| 23> ! ri-mp2 aug-cc-pvtz aug-cc-pvtz/c tightscf
| 24> %pal nprocs 16 end
| 25> %maxcore 3800
| 26> %base "TZ_B-Cl_37_A"
| 27>
| 28> *xyz 0 2
| 29> Cl        -2.357363    0.111386   -0.000001
| 30> B        -0.836668    0.844908   -0.000005
| 31> S         0.753073   -0.147405    0.000001
| 32> O         0.802043   -0.857777   -1.252506
| 33> C         2.065385    1.036317   -0.000006
| 34> O         0.802042   -0.857762    1.252516
| 35> H         1.997970    1.644387   -0.898623
| 36> H         2.988415    0.457996   -0.000002
| 37> H         1.997969    1.644398    0.898604
| 38> *
| 39>
| 40> $new_job
| 41> ! ri-mp2 aug-cc-pvqz aug-cc-pvqz/c tightscf
| 42> %pal nprocs 16 end
| 43> %maxcore 3800
| 44> %base "QZ_B-Cl_37_A"
| 45>
| 46> *xyz 0 2
| 47> Cl        -2.357363    0.111386   -0.000001
| 48> B        -0.836668    0.844908   -0.000005
| 49> S         0.753073   -0.147405    0.000001
| 50> O         0.802043   -0.857777   -1.252506
| 51> C         2.065385    1.036317   -0.000006
| 52> O         0.802042   -0.857762    1.252516
| 53> H         1.997970    1.644387   -0.898623
| 54> H         2.988415    0.457996   -0.000002
| 55> H         1.997969    1.644398    0.898604
| 56> *
| 57>
| 58>
| 59>
| 60>
| 61>                          ****END OF INPUT****
 Total Charge           Charge          ....    0
 Multiplicity           Mult            ....    2
 Number of Electrons    NEL             ....   63
MP2 TOTAL ENERGY:    -1071.875866089 Eh
FINAL SINGLE POINT ENERGY     -1071.875866089182
MP2 TOTAL ENERGY:    -1072.210211068 Eh
FINAL SINGLE POINT ENERGY     -1072.210211068137

CARTESIAN COORDINATES (ANGSTROEM)
---------------------------------
  Cl    -2.357363    0.111386   -0.000001
  B     -0.836668    0.844908   -0.000005
  S      0.753073   -0.147405    0.000001
  O      0.802043   -0.857777   -1.252506
  C      2.065385    1.036317   -0.000006
  O      0.802042   -0.857762    1.252516
  H      1.997970    1.644387   -0.898623
  H      2.988415    0.457996   -0.000002
  H      1.997969    1.644398    0.898604

 Multiplicity           Mult            ....    2
 Number of Electrons    NEL             ....   63
 Basis Dimension        Dim             ....  626

ORBITAL ENERGIES
----------------
                 SPIN UP ORBITALS
  NO   OCC          E(Eh)            E(eV)
   0   1.0000    -104.883958     -2854.0376
   1   1.0000     -92.170679     -2508.0917
   2   1.0000     -20.552734      -559.2683
   3   1.0000     -20.552716      -559.2678
   4   1.0000     -11.279889      -306.9414
   5   1.0000     -10.611326      -288.7489
   6   1.0000      -9.143563      -248.8090
   7   1.0000      -8.078980      -219.8402
   8   1.0000      -8.076950      -219.7850
   9   1.0000      -8.076338      -219.7683
  10   1.0000      -7.739945      -210.6146
  11   1.0000      -6.829224      -185.8326
  12   1.0000      -6.827910      -185.7969
  13   1.0000      -6.827578      -185.7878
  14   1.0000      -1.464324       -39.8463
  15   1.0000      -1.353030       -36.8178
  16   1.0000      -1.170126       -31.8407
  17   1.0000      -1.057545       -28.7773
  18   1.0000      -0.886188       -24.1144
  19   1.0000      -0.744743       -20.2655
  20   1.0000      -0.678325       -18.4582
  21   1.0000      -0.665210       -18.1013
  22   1.0000      -0.661323       -17.9955
  23   1.0000      -0.613724       -16.7003
  24   1.0000      -0.607307       -16.5257
  25   1.0000      -0.546521       -14.8716
  26   1.0000      -0.537548       -14.6274
  27   1.0000      -0.515258       -14.0209
  28   1.0000      -0.509405       -13.8616
  29   1.0000      -0.483362       -13.1529
  30   1.0000      -0.469685       -12.7808
  31   1.0000      -0.379052       -10.3145
  32   0.0000       0.017778         0.4838
  33   0.0000       0.019089         0.5194
  34   0.0000       0.031347         0.8530
  35   0.0000       0.038763         1.0548
  36   0.0000       0.039124         1.0646

                 SPIN DOWN ORBITALS
  NO   OCC          E(Eh)            E(eV)
   0   1.0000    -104.883275     -2854.0190
   1   1.0000     -92.169982     -2508.0727
   2   1.0000     -20.551504      -559.2348
   3   1.0000     -20.551484      -559.2343
   4   1.0000     -11.280149      -306.9485
   5   1.0000     -10.610547      -288.7277
   6   1.0000      -9.142533      -248.7810
   7   1.0000      -8.077648      -219.8040
   8   1.0000      -8.076894      -219.7835
   9   1.0000      -8.074317      -219.7133
  10   1.0000      -7.719272      -210.0521
  11   1.0000      -6.827591      -185.7882
  12   1.0000      -6.827342      -185.7814
  13   1.0000      -6.826776      -185.7660
  14   1.0000      -1.460479       -39.7417
  15   1.0000      -1.349210       -36.7139
  16   1.0000      -1.162105       -31.6225
  17   1.0000      -1.056916       -28.7602
  18   1.0000      -0.870641       -23.6914
  19   1.0000      -0.732332       -19.9278
  20   1.0000      -0.673698       -18.3323
  21   1.0000      -0.663043       -18.0423
  22   1.0000      -0.643973       -17.5234
  23   1.0000      -0.610691       -16.6178
  24   1.0000      -0.601382       -16.3644
  25   1.0000      -0.536406       -14.5963
  26   1.0000      -0.520268       -14.1572
  27   1.0000      -0.505358       -13.7515
  28   1.0000      -0.501283       -13.6406
  29   1.0000      -0.483212       -13.1489
  30   1.0000      -0.443341       -12.0639
  31   0.0000       0.011129         0.3028
  32   0.0000       0.028991         0.7889
  33   0.0000       0.031882         0.8676
  34   0.0000       0.037774         1.0279
  35   0.0000       0.041714         1.1351

MULLIKEN ATOMIC CHARGES AND SPIN POPULATIONS
--------------------------------------------
   0 Cl:   -0.130272    0.020982
   1 B :    0.200107    0.962854
   2 S :    2.318232    0.002003
   3 O :   -1.204945    0.023621
   4 C :   -1.055553   -0.027458
   5 O :   -1.204945    0.023621
   6 H :    0.355605   -0.001294
   7 H :    0.366166   -0.003035
   8 H :    0.355605   -0.001294
Sum of atomic charges         :    0.0000000

LOEWDIN ATOMIC CHARGES AND SPIN POPULATIONS
-------------------------------------------
   0 Cl:    1.240346    0.168585
   1 B :   -1.226913    0.594975
   2 S :   -0.319869    0.142635
   3 O :    0.273614    0.027429
   4 C :    0.761935    0.026270
   5 O :    0.273614    0.027429
   6 H :   -0.335497    0.006879
   7 H :   -0.331734   -0.001082
   8 H :   -0.335496    0.006879

  Mayer bond orders larger than 0.100000
B(  0-Cl,  1-B ) :   1.2741 B(  1-B ,  2-S ) :   0.8587 B(  2-S ,  3-O ) :   1.0254
B(  2-S ,  4-C ) :   0.9692 B(  2-S ,  5-O ) :   1.0254 B(  4-C ,  6-H ) :   0.8737
B(  4-C ,  7-H ) :   0.8375 B(  4-C ,  8-H ) :   0.8737

MP2 TOTAL ENERGY:    -1072.320761314 Eh
FINAL SINGLE POINT ENERGY     -1072.320761313902

DIPOLE MOMENT
-------------
                                X             Y             Z
Electronic contribution:    -10.32431      -1.03138       0.00001
Nuclear contribution   :     10.41377       2.72219      -0.00001
                        -----------------------------------------
Total Dipole Moment    :      0.08946       1.69081      -0.00001
                        -----------------------------------------
Magnitude (a.u.)       :      1.69317
Magnitude (Debye)      :      4.30370

Rotational constants in cm-1:     0.164620     0.046623     0.046463
Rotational constants in MHz :  4935.197552  1397.733667  1392.923287

                             ****ORCA TERMINATED NORMALLY****
TOTAL RUN TIME: 0 days 1 hours 3 minutes 16 seconds 767 msec
