                         Program Version 5.0.4 -  RELEASE  -
|  1> ! ri-mp2 aug-cc-pvdz aug-cc-pvdz/c tightscf
|  2> %pal nprocs 16 end
|  3> %maxcore 3800
|  4> %base "DZ_S-F_11_A"
|  5> %scf
|  6> STABPerform true
|  7> STABRestartUHFifUnstable true
|  8> end
|  9>
| 10> *xyz 0 2
| 11> S        -1.654923   -0.000008   -0.102032
| 12> Si         0.400270   -0.000002    0.344767
| 13> F         1.128740   -1.258823   -0.277553
| 14> F         1.128705    1.258842   -0.277547
| 15> H         0.557988   -0.000015    1.801667
| 16> *
| 17>
| 18> $new_job
| 19> ! ri-mp2 aug-cc-pvtz aug-cc-pvtz/c tightscf
| 20> %pal nprocs 16 end
| 21> %maxcore 3800
| 22> %base "TZ_S-F_11_A"
| 23>
| 24> *xyz 0 2
| 25> S        -1.654923   -0.000008   -0.102032
| 26> Si         0.400270   -0.000002    0.344767
| 27> F         1.128740   -1.258823   -0.277553
| 28> F         1.128705    1.258842   -0.277547
| 29> H         0.557988   -0.000015    1.801667
| 30> *
| 31>
| 32> $new_job
| 33> ! ri-mp2 aug-cc-pvqz aug-cc-pvqz/c tightscf
| 34> %pal nprocs 16 end
| 35> %maxcore 3800
| 36> %base "QZ_S-F_11_A"
| 37>
| 38> *xyz 0 2
| 39> S        -1.654923   -0.000008   -0.102032
| 40> Si         0.400270   -0.000002    0.344767
| 41> F         1.128740   -1.258823   -0.277553
| 42> F         1.128705    1.258842   -0.277547
| 43> H         0.557988   -0.000015    1.801667
| 44> *
| 45>
| 46>
| 47>
| 48>
| 49>                          ****END OF INPUT****
 Total Charge           Charge          ....    0
 Multiplicity           Mult            ....    2
 Number of Electrons    NEL             ....   49
MP2 TOTAL ENERGY:     -886.696825803 Eh
FINAL SINGLE POINT ENERGY      -886.696825803181
MP2 TOTAL ENERGY:     -886.957891620 Eh
FINAL SINGLE POINT ENERGY      -886.957891619599

CARTESIAN COORDINATES (ANGSTROEM)
---------------------------------
  S     -1.654923   -0.000008   -0.102032
  Si     0.400270   -0.000002    0.344767
  F      1.128740   -1.258823   -0.277553
  F      1.128705    1.258842   -0.277547
  H      0.557988   -0.000015    1.801667

 Multiplicity           Mult            ....    2
 Number of Electrons    NEL             ....   49
 Basis Dimension        Dim             ....  374

ORBITAL ENERGIES
----------------
                 SPIN UP ORBITALS
  NO   OCC          E(Eh)            E(eV)
   0   1.0000     -91.998142     -2503.3967
   1   1.0000     -68.881570     -1874.3628
   2   1.0000     -26.308883      -715.9011
   3   1.0000     -26.308874      -715.9008
   4   1.0000      -9.001669      -244.9479
   5   1.0000      -6.697230      -182.2409
   6   1.0000      -6.678819      -181.7399
   7   1.0000      -6.677915      -181.7153
   8   1.0000      -6.218226      -169.2065
   9   1.0000      -4.326331      -117.7255
  10   1.0000      -4.325925      -117.7144
  11   1.0000      -4.325415      -117.7005
  12   1.0000      -1.624873       -44.2150
  13   1.0000      -1.604516       -43.6611
  14   1.0000      -1.005766       -27.3683
  15   1.0000      -0.804001       -21.8780
  16   1.0000      -0.734101       -19.9759
  17   1.0000      -0.715665       -19.4742
  18   1.0000      -0.704655       -19.1746
  19   1.0000      -0.677584       -18.4380
  20   1.0000      -0.659961       -17.9584
  21   1.0000      -0.596871       -16.2417
  22   1.0000      -0.498863       -13.5748
  23   1.0000      -0.481667       -13.1068
  24   1.0000      -0.427752       -11.6397
  25   0.0000       0.030926         0.8415
  26   0.0000       0.038181         1.0390
  27   0.0000       0.041624         1.1326
  28   0.0000       0.043060         1.1717
  29   0.0000       0.068636         1.8677

                 SPIN DOWN ORBITALS
  NO   OCC          E(Eh)            E(eV)
   0   1.0000     -91.989436     -2503.1598
   1   1.0000     -68.881828     -1874.3698
   2   1.0000     -26.308852      -715.9003
   3   1.0000     -26.308843      -715.9000
   4   1.0000      -8.992129      -244.6883
   5   1.0000      -6.674154      -181.6130
   6   1.0000      -6.672849      -181.5774
   7   1.0000      -6.657476      -181.1591
   8   1.0000      -6.218612      -169.2170
   9   1.0000      -4.326556      -117.7316
  10   1.0000      -4.326490      -117.7298
  11   1.0000      -4.325730      -117.7091
  12   1.0000      -1.624697       -44.2103
  13   1.0000      -1.604364       -43.6570
  14   1.0000      -0.917351       -24.9624
  15   1.0000      -0.795967       -21.6594
  16   1.0000      -0.733930       -19.9713
  17   1.0000      -0.714004       -19.4290
  18   1.0000      -0.701890       -19.0994
  19   1.0000      -0.677495       -18.4356
  20   1.0000      -0.659861       -17.9557
  21   1.0000      -0.585378       -15.9289
  22   1.0000      -0.477959       -13.0059
  23   1.0000      -0.407804       -11.0969
  24   0.0000      -0.031527        -0.8579
  25   0.0000       0.031568         0.8590
  26   0.0000       0.038700         1.0531
  27   0.0000       0.043191         1.1753
  28   0.0000       0.044349         1.2068

MULLIKEN ATOMIC CHARGES AND SPIN POPULATIONS
--------------------------------------------
   0 S :   -0.358307    1.048097
   1 Si:    1.882696   -0.069058
   2 F :   -0.676393    0.003471
   3 F :   -0.676393    0.003471
   4 H :   -0.171603    0.014020
Sum of atomic charges         :   -0.0000000

LOEWDIN ATOMIC CHARGES AND SPIN POPULATIONS
-------------------------------------------
   0 S :    0.784887    0.760128
   1 Si:   -1.197893    0.215883
   2 F :    0.368588    0.002658
   3 F :    0.368588    0.002658
   4 H :   -0.324170    0.018673

  Mayer bond orders larger than 0.100000
B(  0-S ,  1-Si) :   0.8385 B(  1-Si,  2-F ) :   0.4650 B(  1-Si,  3-F ) :   0.4650
B(  1-Si,  4-H ) :   0.9608

MP2 TOTAL ENERGY:     -887.045552297 Eh
FINAL SINGLE POINT ENERGY      -887.045552296565

DIPOLE MOMENT
-------------
                                X             Y             Z
Electronic contribution:      1.25826       0.00003      -1.71974
Nuclear contribution   :     -1.52650      -0.00003       2.16452
                        -----------------------------------------
Total Dipole Moment    :     -0.26824      -0.00001       0.44478
                        -----------------------------------------
Magnitude (a.u.)       :      0.51941
Magnitude (Debye)      :      1.32022

Rotational constants in cm-1:     0.240792     0.111776     0.083774
Rotational constants in MHz :  7218.771573  3350.964846  2511.471108

                             ****ORCA TERMINATED NORMALLY****
TOTAL RUN TIME: 0 days 0 hours 9 minutes 3 seconds 650 msec
