                         Program Version 5.0.4 -  RELEASE  -
|  1> ! ri-mp2 aug-cc-pvdz aug-cc-pvdz/c tightscf
|  2> %pal nprocs 16 end
|  3> %maxcore 3800
|  4> %base "DZ_Si-Cl_79_A"
|  5> %scf
|  6> STABPerform true
|  7> STABRestartUHFifUnstable true
|  8> end
|  9>
| 10> *xyz 0 2
| 11> Si        -0.562767    0.542670   -0.136114
| 12> F        -1.575897   -0.673338    0.058554
| 13> Cl         1.344835   -0.178370    0.023623
| 14> H        -0.800383    1.494941    0.977014
| 15> *
| 16>
| 17> $new_job
| 18> ! ri-mp2 aug-cc-pvtz aug-cc-pvtz/c tightscf
| 19> %pal nprocs 16 end
| 20> %maxcore 3800
| 21> %base "TZ_Si-Cl_79_A"
| 22>
| 23> *xyz 0 2
| 24> Si        -0.562767    0.542670   -0.136114
| 25> F        -1.575897   -0.673338    0.058554
| 26> Cl         1.344835   -0.178370    0.023623
| 27> H        -0.800383    1.494941    0.977014
| 28> *
| 29>
| 30> $new_job
| 31> ! ri-mp2 aug-cc-pvqz aug-cc-pvqz/c tightscf
| 32> %pal nprocs 16 end
| 33> %maxcore 3800
| 34> %base "QZ_Si-Cl_79_A"
| 35>
| 36> *xyz 0 2
| 37> Si        -0.562767    0.542670   -0.136114
| 38> F        -1.575897   -0.673338    0.058554
| 39> Cl         1.344835   -0.178370    0.023623
| 40> H        -0.800383    1.494941    0.977014
| 41> *
| 42>
| 43>
| 44>
| 45>
| 46>                          ****END OF INPUT****
 Total Charge           Charge          ....    0
 Multiplicity           Mult            ....    2
 Number of Electrons    NEL             ....   41
MP2 TOTAL ENERGY:     -848.970783894 Eh
FINAL SINGLE POINT ENERGY      -848.970783893767
MP2 TOTAL ENERGY:     -849.153201724 Eh
FINAL SINGLE POINT ENERGY      -849.153201724377

CARTESIAN COORDINATES (ANGSTROEM)
---------------------------------
  Si    -0.562767    0.542670   -0.136114
  F     -1.575897   -0.673338    0.058554
  Cl     1.344835   -0.178370    0.023623
  H     -0.800383    1.494941    0.977014

 Multiplicity           Mult            ....    2
 Number of Electrons    NEL             ....   41
 Basis Dimension        Dim             ....  294

ORBITAL ENERGIES
----------------
                 SPIN UP ORBITALS
  NO   OCC          E(Eh)            E(eV)
   0   1.0000    -104.845517     -2852.9916
   1   1.0000     -68.872759     -1874.1231
   2   1.0000     -26.305048      -715.7967
   3   1.0000     -10.572856      -287.7020
   4   1.0000      -8.040917      -218.8045
   5   1.0000      -8.038437      -218.7370
   6   1.0000      -8.038118      -218.7283
   7   1.0000      -6.213078      -169.0665
   8   1.0000      -4.323969      -117.6612
   9   1.0000      -4.316525      -117.4586
  10   1.0000      -4.315301      -117.4253
  11   1.0000      -1.610243       -43.8169
  12   1.0000      -1.118047       -30.4236
  13   1.0000      -0.787049       -21.4167
  14   1.0000      -0.694480       -18.8978
  15   1.0000      -0.687739       -18.7143
  16   1.0000      -0.646658       -17.5965
  17   1.0000      -0.544044       -14.8042
  18   1.0000      -0.502260       -13.6672
  19   1.0000      -0.486114       -13.2278
  20   1.0000      -0.372517       -10.1367
  21   0.0000       0.030847         0.8394
  22   0.0000       0.039726         1.0810
  23   0.0000       0.040652         1.1062
  24   0.0000       0.044084         1.1996
  25   0.0000       0.075437         2.0527

                 SPIN DOWN ORBITALS
  NO   OCC          E(Eh)            E(eV)
   0   1.0000    -104.844395     -2852.9610
   1   1.0000     -68.866742     -1873.9593
   2   1.0000     -26.301985      -715.7134
   3   1.0000     -10.571630      -287.6687
   4   1.0000      -8.038267      -218.7324
   5   1.0000      -8.037555      -218.7130
   6   1.0000      -8.035972      -218.6699
   7   1.0000      -6.203010      -168.7925
   8   1.0000      -4.312641      -117.3529
   9   1.0000      -4.311879      -117.3322
  10   1.0000      -4.303474      -117.1035
  11   1.0000      -1.601653       -43.5832
  12   1.0000      -1.109030       -30.1782
  13   1.0000      -0.766760       -20.8646
  14   1.0000      -0.685614       -18.6565
  15   1.0000      -0.673464       -18.3259
  16   1.0000      -0.618709       -16.8359
  17   1.0000      -0.523754       -14.2521
  18   1.0000      -0.487750       -13.2724
  19   1.0000      -0.480061       -13.0631
  20   0.0000       0.015424         0.4197
  21   0.0000       0.035682         0.9710
  22   0.0000       0.041063         1.1174
  23   0.0000       0.042080         1.1450
  24   0.0000       0.053409         1.4533

MULLIKEN ATOMIC CHARGES AND SPIN POPULATIONS
--------------------------------------------
   0 Si:    1.370602    0.861805
   1 F :   -0.682233   -0.001324
   2 Cl:   -0.493991    0.046813
   3 H :   -0.194378    0.092705
Sum of atomic charges         :    0.0000000

LOEWDIN ATOMIC CHARGES AND SPIN POPULATIONS
-------------------------------------------
   0 Si:   -0.554138    0.609230
   1 F :    0.248218    0.105433
   2 Cl:    0.724385    0.140647
   3 H :   -0.418465    0.144690

  Mayer bond orders larger than 0.100000
B(  0-Si,  1-F ) :   0.4077 B(  0-Si,  2-Cl) :   0.7481 B(  0-Si,  3-H ) :   0.9350

MP2 TOTAL ENERGY:     -849.215170890 Eh
FINAL SINGLE POINT ENERGY      -849.215170890228

DIPOLE MOMENT
-------------
                                X             Y             Z
Electronic contribution:      0.94532      -1.62606      -0.90210
Nuclear contribution   :     -1.04506       2.19557       0.82365
                        -----------------------------------------
Total Dipole Moment    :     -0.09974       0.56951      -0.07844
                        -----------------------------------------
Magnitude (a.u.)       :      0.58348
Magnitude (Debye)      :      1.48308

Rotational constants in cm-1:     0.776286     0.137846     0.119427
Rotational constants in MHz : 23272.467542  4132.521271  3580.322332

                             ****ORCA TERMINATED NORMALLY****
TOTAL RUN TIME: 0 days 0 hours 5 minutes 30 seconds 176 msec
