                         Program Version 5.0.4 -  RELEASE  -
|  1> ! ri-mp2 aug-cc-pvdz aug-cc-pvdz/c tightscf
|  2> %pal nprocs 16 end
|  3> %maxcore 3800
|  4> %base "DZ_B-Si_62_AB"
|  5> %scf
|  6> STABPerform true
|  7> STABRestartUHFifUnstable true
|  8> end
|  9>
| 10> *xyz 0 1
| 11> C        -1.785847    0.050605   -0.513963
| 12> B         1.319571    0.162905    0.014993
| 13> O         1.231078    1.525287   -0.002364
| 14> O         2.555998   -0.393735    0.033806
| 15> C        -2.684320    0.580070    0.307229
| 16> H        -3.486861    1.218466   -0.045764
| 17> H        -2.664875    0.387608    1.374659
| 18> H         3.263355    0.263054    0.039832
| 19> H         0.329639    1.859830   -0.016359
| 20> Si        -0.343027   -1.000864    0.039770
| 21> H        -1.878297    0.282788   -1.573089
| 22> H        -0.209419   -2.183329   -0.841812
| 23> H        -0.624625   -1.467303    1.419659
| 24> *
| 25>
| 26> $new_job
| 27> ! ri-mp2 aug-cc-pvtz aug-cc-pvtz/c tightscf
| 28> %pal nprocs 16 end
| 29> %maxcore 3800
| 30> %base "TZ_B-Si_62_AB"
| 31>
| 32> *xyz 0 1
| 33> C        -1.785847    0.050605   -0.513963
| 34> B         1.319571    0.162905    0.014993
| 35> O         1.231078    1.525287   -0.002364
| 36> O         2.555998   -0.393735    0.033806
| 37> C        -2.684320    0.580070    0.307229
| 38> H        -3.486861    1.218466   -0.045764
| 39> H        -2.664875    0.387608    1.374659
| 40> H         3.263355    0.263054    0.039832
| 41> H         0.329639    1.859830   -0.016359
| 42> Si        -0.343027   -1.000864    0.039770
| 43> H        -1.878297    0.282788   -1.573089
| 44> H        -0.209419   -2.183329   -0.841812
| 45> H        -0.624625   -1.467303    1.419659
| 46> *
| 47>
| 48> $new_job
| 49> ! ri-mp2 aug-cc-pvqz aug-cc-pvqz/c tightscf
| 50> %pal nprocs 16 end
| 51> %maxcore 3800
| 52> %base "QZ_B-Si_62_AB"
| 53>
| 54> *xyz 0 1
| 55> C        -1.785847    0.050605   -0.513963
| 56> B         1.319571    0.162905    0.014993
| 57> O         1.231078    1.525287   -0.002364
| 58> O         2.555998   -0.393735    0.033806
| 59> C        -2.684320    0.580070    0.307229
| 60> H        -3.486861    1.218466   -0.045764
| 61> H        -2.664875    0.387608    1.374659
| 62> H         3.263355    0.263054    0.039832
| 63> H         0.329639    1.859830   -0.016359
| 64> Si        -0.343027   -1.000864    0.039770
| 65> H        -1.878297    0.282788   -1.573089
| 66> H        -0.209419   -2.183329   -0.841812
| 67> H        -0.624625   -1.467303    1.419659
| 68> *
| 69>
| 70>
| 71>
| 72>
| 73>                          ****END OF INPUT****
 Total Charge           Charge          ....    0
 Multiplicity           Mult            ....    1
 Number of Electrons    NEL             ....   54
MP2 TOTAL ENERGY:     -544.133394880 Eh
FINAL SINGLE POINT ENERGY      -544.133394879891
MP2 TOTAL ENERGY:     -544.396101665 Eh
FINAL SINGLE POINT ENERGY      -544.396101664515

CARTESIAN COORDINATES (ANGSTROEM)
---------------------------------
  C     -1.785847    0.050605   -0.513963
  B      1.319571    0.162905    0.014993
  O      1.231078    1.525287   -0.002364
  O      2.555998   -0.393735    0.033806
  C     -2.684320    0.580070    0.307229
  H     -3.486861    1.218466   -0.045764
  H     -2.664875    0.387608    1.374659
  H      3.263355    0.263054    0.039832
  H      0.329639    1.859830   -0.016359
  Si    -0.343027   -1.000864    0.039770
  H     -1.878297    0.282788   -1.573089
  H     -0.209419   -2.183329   -0.841812
  H     -0.624625   -1.467303    1.419659

 Multiplicity           Mult            ....    1
 Number of Electrons    NEL             ....   54
 Basis Dimension        Dim             ....  806

ORBITAL ENERGIES
----------------

  NO   OCC          E(Eh)            E(eV)
   0   2.0000     -68.753127     -1870.8677
   1   2.0000     -20.572789      -559.8140
   2   2.0000     -20.566619      -559.6461
   3   2.0000     -11.243492      -305.9510
   4   2.0000     -11.223681      -305.4119
   5   2.0000      -7.636733      -207.8061
   6   2.0000      -6.104694      -166.1172
   7   2.0000      -4.211089      -114.5896
   8   2.0000      -4.210897      -114.5843
   9   2.0000      -4.210549      -114.5749
  10   2.0000      -1.388319       -37.7781
  11   2.0000      -1.347482       -36.6669
  12   2.0000      -1.044287       -28.4165
  13   2.0000      -0.804476       -21.8909
  14   2.0000      -0.773618       -21.0512
  15   2.0000      -0.739263       -20.1164
  16   2.0000      -0.696000       -18.9391
  17   2.0000      -0.631969       -17.1967
  18   2.0000      -0.609440       -16.5837
  19   2.0000      -0.577188       -15.7061
  20   2.0000      -0.567796       -15.4505
  21   2.0000      -0.563919       -15.3450
  22   2.0000      -0.504199       -13.7200
  23   2.0000      -0.473987       -12.8978
  24   2.0000      -0.457170       -12.4402
  25   2.0000      -0.427709       -11.6386
  26   2.0000      -0.376644       -10.2490
  27   0.0000       0.021876         0.5953
  28   0.0000       0.029913         0.8140
  29   0.0000       0.032469         0.8835
  30   0.0000       0.035301         0.9606
  31   0.0000       0.045018         1.2250

MULLIKEN ATOMIC CHARGES
-----------------------
   0 C :   -0.677106
   1 B :    1.350543
   2 O :   -1.097575
   3 O :   -1.041138
   4 C :   -0.837797
   5 H :    0.379266
   6 H :    0.388914
   7 H :    0.334706
   8 H :    0.388284
   9 Si:    0.699648
  10 H :    0.427824
  11 H :   -0.166081
  12 H :   -0.149487
Sum of atomic charges:   -0.0000000

LOEWDIN ATOMIC CHARGES
----------------------
   0 C :    0.286329
   1 B :   -1.196510
   2 O :    1.311631
   3 O :    1.273958
   4 C :    0.693526
   5 H :   -0.348435
   6 H :   -0.370893
   7 H :   -0.807884
   8 H :   -0.835885
   9 Si:    0.876522
  10 H :   -0.405879
  11 H :   -0.244127
  12 H :   -0.232352

  Mayer bond orders larger than 0.100000
B(  0-C ,  4-C ) :   1.8613 B(  0-C ,  9-Si) :   0.6820 B(  0-C , 10-H ) :   0.7927
B(  1-B ,  2-O ) :   0.4444 B(  1-B ,  3-O ) :   0.4600 B(  1-B ,  9-Si) :   0.7277
B(  2-O ,  3-O ) :  -0.1325 B(  2-O ,  8-H ) :   0.8882 B(  3-O ,  7-H ) :   0.9293
B(  3-O ,  9-Si) :  -0.1098 B(  4-C ,  5-H ) :   0.8875 B(  4-C ,  6-H ) :   0.8378
B(  9-Si, 11-H ) :   0.7451 B(  9-Si, 12-H ) :   0.7581

MP2 TOTAL ENERGY:     -544.481352527 Eh
FINAL SINGLE POINT ENERGY      -544.481352526563

DIPOLE MOMENT
-------------
                                X             Y             Z
Electronic contribution:      5.82880       0.30410      -0.39403
Nuclear contribution   :     -6.21977       0.30676       0.34125
                        -----------------------------------------
Total Dipole Moment    :     -0.39097       0.61086      -0.05277
                        -----------------------------------------
Magnitude (a.u.)       :      0.72718
Magnitude (Debye)      :      1.84834

Rotational constants in cm-1:     0.175736     0.052485     0.042777
Rotational constants in MHz :  5268.426411  1573.474816  1282.415610

                             ****ORCA TERMINATED NORMALLY****
TOTAL RUN TIME: 0 days 0 hours 56 minutes 11 seconds 357 msec
