                         Program Version 5.0.4 -  RELEASE  -
|  1> ! ri-mp2 aug-cc-pvdz aug-cc-pvdz/c tightscf
|  2> %pal nprocs 16 end
|  3> %maxcore 3800
|  4> %base "DZ_P-F_3_AB"
|  5>
|  6> *xyz 0 1
|  7> C        -0.995400    2.305993   -0.543738
|  8> H        -1.863431    2.962525   -0.559188
|  9> H        -0.515553    2.353308   -1.523463
| 10> H        -0.280070    2.697317    0.179835
| 11> F         1.617120   -1.427811   -1.224747
| 12> O         1.830048    1.545598    1.088953
| 13> P         1.152719    0.105004   -1.024636
| 14> C         2.747720   -0.648024    1.299718
| 15> H         3.139595   -0.283099    2.246307
| 16> H         3.562811   -0.974676    0.652262
| 17> H         2.108306   -1.516899    1.463105
| 18> C        -0.518919   -0.177922   -0.346631
| 19> C         1.965999    0.440757    0.629789
| 20> C        -1.399168    0.901001   -0.200532
| 21> C        -0.926735   -1.465278   -0.015301
| 22> H        -0.245688   -2.293888   -0.150964
| 23> C        -3.074728   -0.636457    0.624689
| 24> H        -4.074873   -0.805318    1.001225
| 25> C        -2.672061    0.644258    0.290188
| 26> H        -3.362529    1.470122    0.406764
| 27> C        -2.200938   -1.696975    0.469160
| 28> H        -2.508436   -2.703040    0.720693
| 29> *
| 30>
| 31> $new_job
| 32> ! ri-mp2 aug-cc-pvtz aug-cc-pvtz/c tightscf
| 33> %pal nprocs 16 end
| 34> %maxcore 3800
| 35> %base "TZ_P-F_3_AB"
| 36>
| 37> *xyz 0 1
| 38> C        -0.995400    2.305993   -0.543738
| 39> H        -1.863431    2.962525   -0.559188
| 40> H        -0.515553    2.353308   -1.523463
| 41> H        -0.280070    2.697317    0.179835
| 42> F         1.617120   -1.427811   -1.224747
| 43> O         1.830048    1.545598    1.088953
| 44> P         1.152719    0.105004   -1.024636
| 45> C         2.747720   -0.648024    1.299718
| 46> H         3.139595   -0.283099    2.246307
| 47> H         3.562811   -0.974676    0.652262
| 48> H         2.108306   -1.516899    1.463105
| 49> C        -0.518919   -0.177922   -0.346631
| 50> C         1.965999    0.440757    0.629789
| 51> C        -1.399168    0.901001   -0.200532
| 52> C        -0.926735   -1.465278   -0.015301
| 53> H        -0.245688   -2.293888   -0.150964
| 54> C        -3.074728   -0.636457    0.624689
| 55> H        -4.074873   -0.805318    1.001225
| 56> C        -2.672061    0.644258    0.290188
| 57> H        -3.362529    1.470122    0.406764
| 58> C        -2.200938   -1.696975    0.469160
| 59> H        -2.508436   -2.703040    0.720693
| 60> *
| 61>
| 62> $new_job
| 63> ! ri-mp2 aug-cc-pvqz aug-cc-pvqz/c tightscf
| 64> %pal nprocs 16 end
| 65> %maxcore 3800
| 66> %base "QZ_P-F_3_AB"
| 67>
| 68> *xyz 0 1
| 69> C        -0.995400    2.305993   -0.543738
| 70> H        -1.863431    2.962525   -0.559188
| 71> H        -0.515553    2.353308   -1.523463
| 72> H        -0.280070    2.697317    0.179835
| 73> F         1.617120   -1.427811   -1.224747
| 74> O         1.830048    1.545598    1.088953
| 75> P         1.152719    0.105004   -1.024636
| 76> C         2.747720   -0.648024    1.299718
| 77> H         3.139595   -0.283099    2.246307
| 78> H         3.562811   -0.974676    0.652262
| 79> H         2.108306   -1.516899    1.463105
| 80> C        -0.518919   -0.177922   -0.346631
| 81> C         1.965999    0.440757    0.629789
| 82> C        -1.399168    0.901001   -0.200532
| 83> C        -0.926735   -1.465278   -0.015301
| 84> H        -0.245688   -2.293888   -0.150964
| 85> C        -3.074728   -0.636457    0.624689
| 86> H        -4.074873   -0.805318    1.001225
| 87> C        -2.672061    0.644258    0.290188
| 88> H        -3.362529    1.470122    0.406764
| 89> C        -2.200938   -1.696975    0.469160
| 90> H        -2.508436   -2.703040    0.720693
| 91> *
| 92>
| 93>
| 94>
| 95>
| 96>                          ****END OF INPUT****
 Total Charge           Charge          ....    0
 Multiplicity           Mult            ....    1
 Number of Electrons    NEL             ....   96
MP2 TOTAL ENERGY:     -863.516574415 Eh
FINAL SINGLE POINT ENERGY      -863.516574414546
MP2 TOTAL ENERGY:     -864.014994242 Eh
FINAL SINGLE POINT ENERGY      -864.014994241694

CARTESIAN COORDINATES (ANGSTROEM)
---------------------------------
  C     -0.995400    2.305993   -0.543738
  H     -1.863431    2.962525   -0.559188
  H     -0.515553    2.353308   -1.523463
  H     -0.280070    2.697317    0.179835
  F      1.617120   -1.427811   -1.224747
  O      1.830048    1.545598    1.088953
  P      1.152719    0.105004   -1.024636
  C      2.747720   -0.648024    1.299718
  H      3.139595   -0.283099    2.246307
  H      3.562811   -0.974676    0.652262
  H      2.108306   -1.516899    1.463105
  C     -0.518919   -0.177922   -0.346631
  C      1.965999    0.440757    0.629789
  C     -1.399168    0.901001   -0.200532
  C     -0.926735   -1.465278   -0.015301
  H     -0.245688   -2.293888   -0.150964
  C     -3.074728   -0.636457    0.624689
  H     -4.074873   -0.805318    1.001225
  C     -2.672061    0.644258    0.290188
  H     -3.362529    1.470122    0.406764
  C     -2.200938   -1.696975    0.469160
  H     -2.508436   -2.703040    0.720693

 Multiplicity           Mult            ....    1
 Number of Electrons    NEL             ....   96
 Basis Dimension        Dim             .... 1424

ORBITAL ENERGIES
----------------

  NO   OCC          E(Eh)            E(eV)
   0   2.0000     -80.009937     -2177.1811
   1   2.0000     -26.303473      -715.7539
   2   2.0000     -20.562127      -559.5239
   3   2.0000     -11.340239      -308.5836
   4   2.0000     -11.255496      -306.2776
   5   2.0000     -11.247482      -306.0595
   6   2.0000     -11.245778      -306.0132
   7   2.0000     -11.243223      -305.9436
   8   2.0000     -11.240105      -305.8588
   9   2.0000     -11.236963      -305.7733
  10   2.0000     -11.235488      -305.7332
  11   2.0000     -11.222325      -305.3750
  12   2.0000      -7.545175      -205.3147
  13   2.0000      -5.439478      -148.0157
  14   2.0000      -5.437941      -147.9739
  15   2.0000      -5.437101      -147.9510
  16   2.0000      -1.611173       -43.8423
  17   2.0000      -1.407550       -38.3014
  18   2.0000      -1.172651       -31.9094
  19   2.0000      -1.060639       -28.8615
  20   2.0000      -1.039352       -28.2822
  21   2.0000      -1.022881       -27.8340
  22   2.0000      -0.945615       -25.7315
  23   2.0000      -0.899332       -24.4721
  24   2.0000      -0.829159       -22.5626
  25   2.0000      -0.807484       -21.9727
  26   2.0000      -0.757660       -20.6170
  27   2.0000      -0.714961       -19.4551
  28   2.0000      -0.702178       -19.1072
  29   2.0000      -0.685310       -18.6482
  30   2.0000      -0.669035       -18.2054
  31   2.0000      -0.648029       -17.6338
  32   2.0000      -0.634613       -17.2687
  33   2.0000      -0.626684       -17.0529
  34   2.0000      -0.611497       -16.6397
  35   2.0000      -0.593189       -16.1415
  36   2.0000      -0.581976       -15.8364
  37   2.0000      -0.580632       -15.7998
  38   2.0000      -0.556830       -15.1521
  39   2.0000      -0.545966       -14.8565
  40   2.0000      -0.518479       -14.1085
  41   2.0000      -0.509200       -13.8560
  42   2.0000      -0.504315       -13.7231
  43   2.0000      -0.499648       -13.5961
  44   2.0000      -0.423172       -11.5151
  45   2.0000      -0.391025       -10.6403
  46   2.0000      -0.342262        -9.3134
  47   2.0000      -0.329078        -8.9547
  48   0.0000       0.022197         0.6040
  49   0.0000       0.026827         0.7300
  50   0.0000       0.029859         0.8125
  51   0.0000       0.035802         0.9742
  52   0.0000       0.040225         1.0946

MULLIKEN ATOMIC CHARGES
-----------------------
   0 C :   -0.874342
   1 H :    0.338333
   2 H :    0.209396
   3 H :    0.264948
   4 F :   -0.821315
   5 O :   -0.888030
   6 P :    1.207270
   7 C :   -1.003871
   8 H :    0.374101
   9 H :    0.292406
  10 H :    0.256638
  11 C :   -0.202717
  12 C :    0.621160
  13 C :    0.735588
  14 C :   -0.482707
  15 H :    0.360540
  16 C :   -0.310459
  17 H :    0.293910
  18 C :   -0.537012
  19 H :    0.232017
  20 C :   -0.317519
  21 H :    0.251665
Sum of atomic charges:    0.0000000

LOEWDIN ATOMIC CHARGES
----------------------
   0 C :    0.873435
   1 H :   -0.299887
   2 H :   -0.314754
   3 H :   -0.312849
   4 F :    0.354613
   5 O :    0.664505
   6 P :    0.415205
   7 C :    0.827562
   8 H :   -0.317911
   9 H :   -0.309633
  10 H :   -0.313927
  11 C :   -0.264247
  12 C :   -0.808540
  13 C :   -0.156708
  14 C :    0.249552
  15 H :   -0.376461
  16 C :    0.351585
  17 H :   -0.315144
  18 C :    0.346543
  19 H :   -0.320462
  20 C :    0.347605
  21 H :   -0.320082

  Mayer bond orders larger than 0.100000
B(  0-C ,  1-H ) :   0.9602 B(  0-C ,  2-H ) :   1.0761 B(  0-C ,  3-H ) :   0.9780
B(  0-C , 13-C ) :   0.5473 B(  0-C , 18-C ) :  -0.1257 B(  1-H , 13-C ) :  -0.1061
B(  2-H , 13-C ) :  -0.1293 B(  4-F ,  6-P ) :   0.3921 B(  4-F , 11-C ) :  -0.2277
B(  5-O ,  7-C ) :   0.1040 B(  5-O , 12-C ) :   1.1514 B(  6-P , 11-C ) :   0.7426
B(  6-P , 12-C ) :   0.7087 B(  6-P , 13-C ) :  -0.1005 B(  7-C ,  8-H ) :   0.9150
B(  7-C ,  9-H ) :   0.9326 B(  7-C , 10-H ) :   0.9332 B(  7-C , 12-C ) :   0.9448
B( 11-C , 13-C ) :   1.0190 B( 11-C , 14-C ) :   0.7702 B( 11-C , 18-C ) :  -0.2445
B( 11-C , 20-C ) :  -0.3290 B( 13-C , 16-C ) :  -0.2975 B( 13-C , 18-C ) :   0.9552
B( 14-C , 15-H ) :   0.8873 B( 14-C , 18-C ) :   0.1236 B( 14-C , 20-C ) :   1.2736
B( 14-C , 21-H ) :  -0.1677 B( 16-C , 17-H ) :   1.1039 B( 16-C , 18-C ) :   1.2143
B( 16-C , 20-C ) :   1.1645 B( 17-H , 18-C ) :  -0.1987 B( 17-H , 20-C ) :  -0.1051
B( 18-C , 19-H ) :   1.0507 B( 20-C , 21-H ) :   1.1248

MP2 TOTAL ENERGY:     -864.175193483 Eh
FINAL SINGLE POINT ENERGY      -864.175193482689

DIPOLE MOMENT
-------------
                                X             Y             Z
Electronic contribution:      6.15630      -2.78295      -6.31272
Nuclear contribution   :     -6.56551       2.19390       6.50014
                        -----------------------------------------
Total Dipole Moment    :     -0.40921      -0.58905       0.18742
                        -----------------------------------------
Magnitude (a.u.)       :      0.74132
Magnitude (Debye)      :      1.88429

Rotational constants in cm-1:     0.042156     0.021524     0.018245
Rotational constants in MHz :  1263.792808   645.268244   546.957691

                             ****ORCA TERMINATED NORMALLY****
TOTAL RUN TIME: 0 days 1 hours 22 minutes 24 seconds 109 msec
