                         Program Version 5.0.4 -  RELEASE  -
|  1> ! ri-mp2 aug-cc-pvdz aug-cc-pvdz/c tightscf
|  2> %pal nprocs 16 end
|  3> %maxcore 3800
|  4> %base "DZ_B-F_59_AB"
|  5>
|  6> *xyz 0 1
|  7> F         1.113268    1.135623   -0.060453
|  8> B         0.461235    0.000000    0.043011
|  9> F         1.113270   -1.135622   -0.060455
| 10> N        -0.930109   -0.000004    0.443621
| 11> N        -1.869269    0.000005   -0.346824
| 12> H        -2.749368   -0.000016    0.195536
| 13> *
| 14>
| 15> $new_job
| 16> ! ri-mp2 aug-cc-pvtz aug-cc-pvtz/c tightscf
| 17> %pal nprocs 16 end
| 18> %maxcore 3800
| 19> %base "TZ_B-F_59_AB"
| 20>
| 21> *xyz 0 1
| 22> F         1.113268    1.135623   -0.060453
| 23> B         0.461235    0.000000    0.043011
| 24> F         1.113270   -1.135622   -0.060455
| 25> N        -0.930109   -0.000004    0.443621
| 26> N        -1.869269    0.000005   -0.346824
| 27> H        -2.749368   -0.000016    0.195536
| 28> *
| 29>
| 30> $new_job
| 31> ! ri-mp2 aug-cc-pvqz aug-cc-pvqz/c tightscf
| 32> %pal nprocs 16 end
| 33> %maxcore 3800
| 34> %base "QZ_B-F_59_AB"
| 35>
| 36> *xyz 0 1
| 37> F         1.113268    1.135623   -0.060453
| 38> B         0.461235    0.000000    0.043011
| 39> F         1.113270   -1.135622   -0.060455
| 40> N        -0.930109   -0.000004    0.443621
| 41> N        -1.869269    0.000005   -0.346824
| 42> H        -2.749368   -0.000016    0.195536
| 43> *
| 44>
| 45>
| 46>
| 47>
| 48>                          ****END OF INPUT****
 Total Charge           Charge          ....    0
 Multiplicity           Mult            ....    1
 Number of Electrons    NEL             ....   38
MP2 TOTAL ENERGY:     -333.976010406 Eh
FINAL SINGLE POINT ENERGY      -333.976010406168
MP2 TOTAL ENERGY:     -334.261745298 Eh
FINAL SINGLE POINT ENERGY      -334.261745298438

CARTESIAN COORDINATES (ANGSTROEM)
---------------------------------
  F      1.113268    1.135623   -0.060453
  B      0.461235    0.000000    0.043011
  F      1.113270   -1.135622   -0.060455
  N     -0.930109   -0.000004    0.443621
  N     -1.869269    0.000005   -0.346824
  H     -2.749368   -0.000016    0.195536

 Multiplicity           Mult            ....    1
 Number of Electrons    NEL             ....   38
 Basis Dimension        Dim             ....  446

ORBITAL ENERGIES
----------------

  NO   OCC          E(Eh)            E(eV)
   0   2.0000     -26.328375      -716.4315
   1   2.0000     -26.328359      -716.4311
   2   2.0000     -15.660357      -426.1400
   3   2.0000     -15.633220      -425.4016
   4   2.0000      -7.740107      -210.6190
   5   2.0000      -1.662312       -45.2338
   6   2.0000      -1.632390       -44.4196
   7   2.0000      -1.383678       -37.6518
   8   2.0000      -0.982935       -26.7470
   9   2.0000      -0.829342       -22.5675
  10   2.0000      -0.783028       -21.3073
  11   2.0000      -0.756499       -20.5854
  12   2.0000      -0.735190       -20.0056
  13   2.0000      -0.679026       -18.4772
  14   2.0000      -0.677157       -18.4264
  15   2.0000      -0.671630       -18.2760
  16   2.0000      -0.647581       -17.6216
  17   2.0000      -0.543368       -14.7858
  18   2.0000      -0.405435       -11.0325
  19   0.0000       0.026384         0.7179
  20   0.0000       0.038509         1.0479
  21   0.0000       0.040110         1.0914
  22   0.0000       0.042117         1.1461
  23   0.0000       0.060703         1.6518

MULLIKEN ATOMIC CHARGES
-----------------------
   0 F :   -0.733197
   1 B :    1.754480
   2 F :   -0.733197
   3 N :   -0.256755
   4 N :   -0.339496
   5 H :    0.308165
Sum of atomic charges:    0.0000000

LOEWDIN ATOMIC CHARGES
----------------------
   0 F :    0.801619
   1 B :   -1.992259
   2 F :    0.801619
   3 N :    0.352664
   4 N :    0.709720
   5 H :   -0.673363

  Mayer bond orders larger than 0.100000
B(  0-F ,  1-B ) :   0.4844 B(  1-B ,  2-F ) :   0.4844 B(  1-B ,  3-N ) :   0.8629
B(  3-N ,  4-N ) :   1.8869 B(  4-N ,  5-H ) :   0.8863

MP2 TOTAL ENERGY:     -334.354559090 Eh
FINAL SINGLE POINT ENERGY      -334.354559090057

DIPOLE MOMENT
-------------
                                X             Y             Z
Electronic contribution:      4.29893       0.00001      -0.08324
Nuclear contribution   :     -4.89335      -0.00002       0.25754
                        -----------------------------------------
Total Dipole Moment    :     -0.59442      -0.00001       0.17430
                        -----------------------------------------
Magnitude (a.u.)       :      0.61944
Magnitude (Debye)      :      1.57450

Rotational constants in cm-1:     0.314290     0.137786     0.101118
Rotational constants in MHz :  9422.172718  4130.708212  3031.454435

                             ****ORCA TERMINATED NORMALLY****
TOTAL RUN TIME: 0 days 0 hours 1 minutes 34 seconds 712 msec
