                         Program Version 5.0.4 -  RELEASE  -
|  1> ! ri-mp2 aug-cc-pvdz aug-cc-pvdz/c tightscf
|  2> %pal nprocs 16 end
|  3> %maxcore 3800
|  4> %base "DZ_P-F_9_A"
|  5> %scf
|  6> STABPerform true
|  7> STABRestartUHFifUnstable true
|  8> end
|  9>
| 10> *xyz 0 2
| 11> F        -1.709841   -1.757633   -0.236411
| 12> F        -2.507160    0.450442   -0.725842
| 13> O         1.130149    2.728624   -0.194969
| 14> C        -0.092345    2.100153   -0.600077
| 15> H        -0.205994    2.072235   -1.684392
| 16> H        -0.964024    2.590099   -0.158589
| 17> C         0.309503    0.776281    0.082391
| 18> P        -2.261819   -0.480614    0.547985
| 19> C        -0.676848    0.231091    1.108056
| 20> H        -0.959617    1.031199    1.799306
| 21> H        -0.217112   -0.547060    1.727317
| 22> C         1.454078    1.631958    0.670300
| 23> H         1.315243    1.894885    1.723162
| 24> H         2.468472    1.268226    0.516284
| 25> C         0.808416   -0.258572   -0.930915
| 26> P         1.546331   -1.804712   -0.283904
| 27> F         2.872958   -1.179485    0.390292
| 28> H         1.546906    0.219268   -1.581400
| 29> H        -0.013181   -0.583349   -1.574048
| 30> *
| 31>
| 32> $new_job
| 33> ! ri-mp2 aug-cc-pvtz aug-cc-pvtz/c tightscf
| 34> %pal nprocs 16 end
| 35> %maxcore 3800
| 36> %base "TZ_P-F_9_A"
| 37>
| 38> *xyz 0 2
| 39> F        -1.709841   -1.757633   -0.236411
| 40> F        -2.507160    0.450442   -0.725842
| 41> O         1.130149    2.728624   -0.194969
| 42> C        -0.092345    2.100153   -0.600077
| 43> H        -0.205994    2.072235   -1.684392
| 44> H        -0.964024    2.590099   -0.158589
| 45> C         0.309503    0.776281    0.082391
| 46> P        -2.261819   -0.480614    0.547985
| 47> C        -0.676848    0.231091    1.108056
| 48> H        -0.959617    1.031199    1.799306
| 49> H        -0.217112   -0.547060    1.727317
| 50> C         1.454078    1.631958    0.670300
| 51> H         1.315243    1.894885    1.723162
| 52> H         2.468472    1.268226    0.516284
| 53> C         0.808416   -0.258572   -0.930915
| 54> P         1.546331   -1.804712   -0.283904
| 55> F         2.872958   -1.179485    0.390292
| 56> H         1.546906    0.219268   -1.581400
| 57> H        -0.013181   -0.583349   -1.574048
| 58> *
| 59>
| 60> $new_job
| 61> ! ri-mp2 aug-cc-pvqz aug-cc-pvqz/c tightscf
| 62> %pal nprocs 16 end
| 63> %maxcore 3800
| 64> %base "QZ_P-F_9_A"
| 65>
| 66> *xyz 0 2
| 67> F        -1.709841   -1.757633   -0.236411
| 68> F        -2.507160    0.450442   -0.725842
| 69> O         1.130149    2.728624   -0.194969
| 70> C        -0.092345    2.100153   -0.600077
| 71> H        -0.205994    2.072235   -1.684392
| 72> H        -0.964024    2.590099   -0.158589
| 73> C         0.309503    0.776281    0.082391
| 74> P        -2.261819   -0.480614    0.547985
| 75> C        -0.676848    0.231091    1.108056
| 76> H        -0.959617    1.031199    1.799306
| 77> H        -0.217112   -0.547060    1.727317
| 78> C         1.454078    1.631958    0.670300
| 79> H         1.315243    1.894885    1.723162
| 80> H         2.468472    1.268226    0.516284
| 81> C         0.808416   -0.258572   -0.930915
| 82> P         1.546331   -1.804712   -0.283904
| 83> F         2.872958   -1.179485    0.390292
| 84> H         1.546906    0.219268   -1.581400
| 85> H        -0.013181   -0.583349   -1.574048
| 86> *
| 87>
| 88>
| 89>
| 90>
| 91>                          ****END OF INPUT****
 Total Charge           Charge          ....    0
 Multiplicity           Mult            ....    2
 Number of Electrons    NEL             ....  103
MP2 TOTAL ENERGY:    -1250.489146917 Eh
FINAL SINGLE POINT ENERGY     -1250.489146917491
MP2 TOTAL ENERGY:    -1251.069577524 Eh
FINAL SINGLE POINT ENERGY     -1251.069577524393

CARTESIAN COORDINATES (ANGSTROEM)
---------------------------------
  F     -1.709841   -1.757633   -0.236411
  F     -2.507160    0.450442   -0.725842
  O      1.130149    2.728624   -0.194969
  C     -0.092345    2.100153   -0.600077
  H     -0.205994    2.072235   -1.684392
  H     -0.964024    2.590099   -0.158589
  C      0.309503    0.776281    0.082391
  P     -2.261819   -0.480614    0.547985
  C     -0.676848    0.231091    1.108056
  H     -0.959617    1.031199    1.799306
  H     -0.217112   -0.547060    1.727317
  C      1.454078    1.631958    0.670300
  H      1.315243    1.894885    1.723162
  H      2.468472    1.268226    0.516284
  C      0.808416   -0.258572   -0.930915
  P      1.546331   -1.804712   -0.283904
  F      2.872958   -1.179485    0.390292
  H      1.546906    0.219268   -1.581400
  H     -0.013181   -0.583349   -1.574048

 Multiplicity           Mult            ....    2
 Number of Electrons    NEL             ....  103
 Basis Dimension        Dim             .... 1256

ORBITAL ENERGIES
----------------
                 SPIN UP ORBITALS
  NO   OCC          E(Eh)            E(eV)
   0   1.0000     -80.070939     -2178.8410
   1   1.0000     -80.007820     -2177.1235
   2   1.0000     -26.324025      -716.3131
   3   1.0000     -26.323887      -716.3094
   4   1.0000     -26.302445      -715.7259
   5   1.0000     -20.556203      -559.3627
   6   1.0000     -11.286680      -307.1262
   7   1.0000     -11.285349      -307.0900
   8   1.0000     -11.271145      -306.7034
   9   1.0000     -11.257641      -306.3360
  10   1.0000     -11.247508      -306.0603
  11   1.0000      -7.598326      -206.7610
  12   1.0000      -7.544101      -205.2854
  13   1.0000      -5.492459      -149.4574
  14   1.0000      -5.491521      -149.4319
  15   1.0000      -5.489423      -149.3748
  16   1.0000      -5.448600      -148.2639
  17   1.0000      -5.434737      -147.8867
  18   1.0000      -5.431996      -147.8121
  19   1.0000      -1.651965       -44.9522
  20   1.0000      -1.618493       -44.0414
  21   1.0000      -1.610772       -43.8313
  22   1.0000      -1.395498       -37.9734
  23   1.0000      -1.118261       -30.4294
  24   1.0000      -1.007541       -27.4166
  25   1.0000      -0.950367       -25.8608
  26   1.0000      -0.948863       -25.8199
  27   1.0000      -0.864381       -23.5210
  28   1.0000      -0.830074       -22.5875
  29   1.0000      -0.762083       -20.7373
  30   1.0000      -0.759018       -20.6539
  31   1.0000      -0.737938       -20.0803
  32   1.0000      -0.729230       -19.8434
  33   1.0000      -0.705477       -19.1970
  34   1.0000      -0.696786       -18.9605
  35   1.0000      -0.694687       -18.9034
  36   1.0000      -0.689417       -18.7600
  37   1.0000      -0.674651       -18.3582
  38   1.0000      -0.664308       -18.0767
  39   1.0000      -0.639051       -17.3895
  40   1.0000      -0.622764       -16.9463
  41   1.0000      -0.599755       -16.3202
  42   1.0000      -0.588329       -16.0092
  43   1.0000      -0.577861       -15.7244
  44   1.0000      -0.556762       -15.1503
  45   1.0000      -0.528004       -14.3677
  46   1.0000      -0.486553       -13.2398
  47   1.0000      -0.480210       -13.0672
  48   1.0000      -0.432602       -11.7717
  49   1.0000      -0.410107       -11.1596
  50   1.0000      -0.398077       -10.8322
  51   1.0000      -0.356168        -9.6918
  52   0.0000       0.023389         0.6365
  53   0.0000       0.029882         0.8131
  54   0.0000       0.033328         0.9069
  55   0.0000       0.035853         0.9756
  56   0.0000       0.045834         1.2472

                 SPIN DOWN ORBITALS
  NO   OCC          E(Eh)            E(eV)
   0   1.0000     -80.070943     -2178.8411
   1   1.0000     -80.000780     -2176.9319
   2   1.0000     -26.324022      -716.3131
   3   1.0000     -26.323792      -716.3068
   4   1.0000     -26.298265      -715.6122
   5   1.0000     -20.556177      -559.3620
   6   1.0000     -11.286734      -307.1276
   7   1.0000     -11.285438      -307.0924
   8   1.0000     -11.269989      -306.6720
   9   1.0000     -11.257484      -306.3317
  10   1.0000     -11.248505      -306.0874
  11   1.0000      -7.598331      -206.7611
  12   1.0000      -7.535360      -205.0476
  13   1.0000      -5.492463      -149.4575
  14   1.0000      -5.491530      -149.4321
  15   1.0000      -5.489429      -149.3750
  16   1.0000      -5.431181      -147.7900
  17   1.0000      -5.429133      -147.7342
  18   1.0000      -5.414193      -147.3277
  19   1.0000      -1.651853       -44.9492
  20   1.0000      -1.618370       -44.0381
  21   1.0000      -1.599607       -43.5275
  22   1.0000      -1.395378       -37.9702
  23   1.0000      -1.115454       -30.3530
  24   1.0000      -1.002911       -27.2906
  25   1.0000      -0.950258       -25.8578
  26   1.0000      -0.941464       -25.6185
  27   1.0000      -0.863229       -23.4897
  28   1.0000      -0.800557       -21.7843
  29   1.0000      -0.760331       -20.6897
  30   1.0000      -0.758425       -20.6378
  31   1.0000      -0.737619       -20.0716
  32   1.0000      -0.728471       -19.8227
  33   1.0000      -0.698219       -18.9995
  34   1.0000      -0.694257       -18.8917
  35   1.0000      -0.686299       -18.6752
  36   1.0000      -0.677911       -18.4469
  37   1.0000      -0.663906       -18.0658
  38   1.0000      -0.657851       -17.9010
  39   1.0000      -0.631864       -17.1939
  40   1.0000      -0.606856       -16.5134
  41   1.0000      -0.595069       -16.1926
  42   1.0000      -0.588096       -16.0029
  43   1.0000      -0.577069       -15.7028
  44   1.0000      -0.552099       -15.0234
  45   1.0000      -0.521556       -14.1923
  46   1.0000      -0.481457       -13.1011
  47   1.0000      -0.475722       -12.9451
  48   1.0000      -0.429757       -11.6943
  49   1.0000      -0.398399       -10.8410
  50   1.0000      -0.397092       -10.8054
  51   0.0000       0.023302         0.6341
  52   0.0000       0.029000         0.7891
  53   0.0000       0.033556         0.9131
  54   0.0000       0.035873         0.9761
  55   0.0000       0.039698         1.0802

MULLIKEN ATOMIC CHARGES AND SPIN POPULATIONS
--------------------------------------------
   0 F :   -0.741810   -0.000236
   1 F :   -0.757694    0.000133
   2 O :   -0.985573    0.000955
   3 C :   -0.359507    0.000971
   4 H :    0.378928   -0.000155
   5 H :    0.276235    0.000615
   6 C :    1.057593    0.010502
   7 P :    1.458408   -0.000441
   8 C :   -0.714285    0.002994
   9 H :    0.212676   -0.001888
  10 H :    0.139719   -0.006493
  11 C :   -0.338959   -0.006376
  12 H :    0.291377    0.001387
  13 H :    0.359223   -0.001962
  14 C :   -0.624218   -0.086910
  15 P :    0.696269    1.053450
  16 F :   -0.740766    0.003122
  17 H :    0.217230    0.029433
  18 H :    0.175155    0.000900
Sum of atomic charges         :   -0.0000000

LOEWDIN ATOMIC CHARGES AND SPIN POPULATIONS
-------------------------------------------
   0 F :    0.322032    0.003030
   1 F :    0.331167    0.000032
   2 O :    0.895222    0.000369
   3 C :    0.157641    0.002330
   4 H :   -0.277348    0.000211
   5 H :   -0.290279    0.000279
   6 C :   -0.447095    0.024605
   7 P :   -0.025549    0.004589
   8 C :    0.307028    0.020691
   9 H :   -0.375415    0.001282
  10 H :   -0.380896    0.023843
  11 C :    0.177774    0.002052
  12 H :   -0.276250    0.000048
  13 H :   -0.312478   -0.000199
  14 C :    0.217783    0.157695
  15 P :    0.574375    0.588828
  16 F :    0.190085    0.134763
  17 H :   -0.366319    0.023709
  18 H :   -0.421476    0.011842

  Mayer bond orders larger than 0.100000
B(  0-F ,  7-P ) :   0.5190 B(  0-F ,  8-C ) :  -0.1548 B(  1-F ,  6-C ) :  -0.1783
B(  1-F ,  7-P ) :   0.5023 B(  2-O ,  3-C ) :   0.7618 B(  2-O ,  6-C ) :  -0.1693
B(  2-O , 11-C ) :   0.8499 B(  3-C ,  4-H ) :   0.8459 B(  3-C ,  5-H ) :   0.9773
B(  3-C ,  6-C ) :   0.5306 B(  3-C , 11-C ) :   0.2302 B(  6-C ,  8-C ) :   0.4734
B(  6-C ,  9-H ) :  -0.1136 B(  6-C , 10-H ) :  -0.1328 B(  6-C , 11-C ) :   0.6246
B(  6-C , 14-C ) :   0.5764 B(  6-C , 17-H ) :  -0.1099 B(  7-P ,  8-C ) :   0.8006
B(  8-C ,  9-H ) :   1.0342 B(  8-C , 10-H ) :   1.0905 B( 11-C , 12-H ) :   0.9397
B( 11-C , 13-H ) :   0.8842 B( 14-C , 15-P ) :   0.7829 B( 14-C , 16-F ) :  -0.1366
B( 14-C , 17-H ) :   1.0274 B( 14-C , 18-H ) :   1.0414 B( 15-P , 16-F ) :   0.4875

MP2 TOTAL ENERGY:    -1251.257070412 Eh
FINAL SINGLE POINT ENERGY     -1251.257070412392

DIPOLE MOMENT
-------------
                                X             Y             Z
Electronic contribution:     -5.25001     -12.08146      -0.61585
Nuclear contribution   :      4.76057      12.02300       1.02687
                        -----------------------------------------
Total Dipole Moment    :     -0.48944      -0.05847       0.41102
                        -----------------------------------------
Magnitude (a.u.)       :      0.64180
Magnitude (Debye)      :      1.63133

Rotational constants in cm-1:     0.033335     0.023552     0.015844
Rotational constants in MHz :   999.366360   706.076063   474.993992

                             ****ORCA TERMINATED NORMALLY****
TOTAL RUN TIME: 0 days 16 hours 18 minutes 58 seconds 204 msec
