                         Program Version 5.0.4 -  RELEASE  -
|  1> ! ri-mp2 aug-cc-pvdz aug-cc-pvdz/c tightscf
|  2> %pal nprocs 16 end
|  3> %maxcore 3800
|  4> %base "DZ_P-O_3_B"
|  5> %scf
|  6> STABPerform true
|  7> STABRestartUHFifUnstable true
|  8> end
|  9>
| 10> *xyz 0 2
| 11> Cl         0.000000    0.000000    0.500657
| 12> O         0.000000    0.000000   -1.063895
| 13> *
| 14>
| 15> $new_job
| 16> ! ri-mp2 aug-cc-pvtz aug-cc-pvtz/c tightscf
| 17> %pal nprocs 16 end
| 18> %maxcore 3800
| 19> %base "TZ_P-O_3_B"
| 20>
| 21> *xyz 0 2
| 22> Cl         0.000000    0.000000    0.500657
| 23> O         0.000000    0.000000   -1.063895
| 24> *
| 25>
| 26> $new_job
| 27> ! ri-mp2 aug-cc-pvqz aug-cc-pvqz/c tightscf
| 28> %pal nprocs 16 end
| 29> %maxcore 3800
| 30> %base "QZ_P-O_3_B"
| 31>
| 32> *xyz 0 2
| 33> Cl         0.000000    0.000000    0.500657
| 34> O         0.000000    0.000000   -1.063895
| 35> *
| 36>
| 37>
| 38>
| 39>
| 40>                          ****END OF INPUT****
 Total Charge           Charge          ....    0
 Multiplicity           Mult            ....    2
 Number of Electrons    NEL             ....   25
MP2 TOTAL ENERGY:     -534.574610243 Eh
FINAL SINGLE POINT ENERGY      -534.574610242623
MP2 TOTAL ENERGY:     -534.699394945 Eh
FINAL SINGLE POINT ENERGY      -534.699394945065

CARTESIAN COORDINATES (ANGSTROEM)
---------------------------------
  Cl     0.000000    0.000000    0.500657
  O      0.000000    0.000000   -1.063895

 Multiplicity           Mult            ....    2
 Number of Electrons    NEL             ....   25
 Basis Dimension        Dim             ....  164

ORBITAL ENERGIES
----------------
                 SPIN UP ORBITALS
  NO   OCC          E(Eh)            E(eV)
   0   1.0000    -104.918458     -2854.9764
   1   1.0000     -20.696568      -563.1822
   2   1.0000     -10.639277      -289.5094
   3   1.0000      -8.107783      -220.6240
   4   1.0000      -8.104651      -220.5388
   5   1.0000      -8.103181      -220.4988
   6   1.0000      -1.486813       -40.4582
   7   1.0000      -1.064298       -28.9610
   8   1.0000      -0.742800       -20.2126
   9   1.0000      -0.671603       -18.2752
  10   1.0000      -0.669802       -18.2262
  11   1.0000      -0.489828       -13.3289
  12   1.0000      -0.456040       -12.4095
  13   0.0000       0.059080         1.6077
  14   0.0000       0.080615         2.1936
  15   0.0000       0.090835         2.4717
  16   0.0000       0.093130         2.5342
  17   0.0000       0.145164         3.9501

                 SPIN DOWN ORBITALS
  NO   OCC          E(Eh)            E(eV)
   0   1.0000    -104.917307     -2854.9451
   1   1.0000     -20.656351      -562.0879
   2   1.0000     -10.638096      -289.4773
   3   1.0000      -8.107668      -220.6209
   4   1.0000      -8.102601      -220.4830
   5   1.0000      -8.099396      -220.3958
   6   1.0000      -1.378831       -37.5199
   7   1.0000      -1.005352       -27.3570
   8   1.0000      -0.643291       -17.5048
   9   1.0000      -0.631936       -17.1958
  10   1.0000      -0.526184       -14.3182
  11   1.0000      -0.437843       -11.9143
  12   0.0000       0.046864         1.2752
  13   0.0000       0.061763         1.6806
  14   0.0000       0.082085         2.2337
  15   0.0000       0.091717         2.4957
  16   0.0000       0.093085         2.5330

MULLIKEN ATOMIC CHARGES AND SPIN POPULATIONS
--------------------------------------------
   0 Cl:    0.402977    0.050621
   1 O :   -0.402977    0.949379
Sum of atomic charges         :    0.0000000

LOEWDIN ATOMIC CHARGES AND SPIN POPULATIONS
-------------------------------------------
   0 Cl:    0.413154    0.203112
   1 O :   -0.413154    0.796888

  Mayer bond orders larger than 0.100000
B(  0-Cl,  1-O ) :   1.1650

MP2 TOTAL ENERGY:     -534.740644124 Eh
FINAL SINGLE POINT ENERGY      -534.740644124329

DIPOLE MOMENT
-------------
                                X             Y             Z
Electronic contribution:      0.00000      -0.00000       0.98782
Nuclear contribution   :      0.00000       0.00000      -0.66892
                        -----------------------------------------
Total Dipole Moment    :      0.00000      -0.00000       0.31890
                        -----------------------------------------
Magnitude (a.u.)       :      0.31890
Magnitude (Debye)      :      0.81057

Rotational constants in cm-1:     0.000000     0.624703     0.624703
Rotational constants in MHz :     0.000000 18728.113456 18728.113456

                             ****ORCA TERMINATED NORMALLY****
TOTAL RUN TIME: 0 days 0 hours 11 minutes 18 seconds 884 msec
