                         Program Version 5.0.4 -  RELEASE  -
|  1> ! ri-mp2 aug-cc-pvdz aug-cc-pvdz/c tightscf
|  2> %pal nprocs 16 end
|  3> %maxcore 3800
|  4> %base "DZ_B-Cl_17_A"
|  5> %scf
|  6> STABPerform true
|  7> STABRestartUHFifUnstable true
|  8> end
|  9>
| 10> *xyz 0 2
| 11> Cl         1.514479   -0.210357   -0.000003
| 12> B         0.250338    0.966680   -0.000008
| 13> C        -1.273939    0.700542    0.000009
| 14> C        -1.736988   -0.757118    0.000000
| 15> H        -1.685184    1.240246    0.861204
| 16> H        -1.368377   -1.287351   -0.877918
| 17> H        -2.825139   -0.823659    0.000017
| 18> H        -1.368348   -1.287371    0.877895
| 19> H        -1.685215    1.240267   -0.861157
| 20> *
| 21>
| 22> $new_job
| 23> ! ri-mp2 aug-cc-pvtz aug-cc-pvtz/c tightscf
| 24> %pal nprocs 16 end
| 25> %maxcore 3800
| 26> %base "TZ_B-Cl_17_A"
| 27>
| 28> *xyz 0 2
| 29> Cl         1.514479   -0.210357   -0.000003
| 30> B         0.250338    0.966680   -0.000008
| 31> C        -1.273939    0.700542    0.000009
| 32> C        -1.736988   -0.757118    0.000000
| 33> H        -1.685184    1.240246    0.861204
| 34> H        -1.368377   -1.287351   -0.877918
| 35> H        -2.825139   -0.823659    0.000017
| 36> H        -1.368348   -1.287371    0.877895
| 37> H        -1.685215    1.240267   -0.861157
| 38> *
| 39>
| 40> $new_job
| 41> ! ri-mp2 aug-cc-pvqz aug-cc-pvqz/c tightscf
| 42> %pal nprocs 16 end
| 43> %maxcore 3800
| 44> %base "QZ_B-Cl_17_A"
| 45>
| 46> *xyz 0 2
| 47> Cl         1.514479   -0.210357   -0.000003
| 48> B         0.250338    0.966680   -0.000008
| 49> C        -1.273939    0.700542    0.000009
| 50> C        -1.736988   -0.757118    0.000000
| 51> H        -1.685184    1.240246    0.861204
| 52> H        -1.368377   -1.287351   -0.877918
| 53> H        -2.825139   -0.823659    0.000017
| 54> H        -1.368348   -1.287371    0.877895
| 55> H        -1.685215    1.240267   -0.861157
| 56> *
| 57>
| 58>
| 59>
| 60>
| 61>                          ****END OF INPUT****
 Total Charge           Charge          ....    0
 Multiplicity           Mult            ....    2
 Number of Electrons    NEL             ....   39
MP2 TOTAL ENERGY:     -563.339463610 Eh
FINAL SINGLE POINT ENERGY      -563.339463609593
MP2 TOTAL ENERGY:     -563.495604308 Eh
FINAL SINGLE POINT ENERGY      -563.495604307760

CARTESIAN COORDINATES (ANGSTROEM)
---------------------------------
  Cl     1.514479   -0.210357   -0.000003
  B      0.250338    0.966680   -0.000008
  C     -1.273939    0.700542    0.000009
  C     -1.736988   -0.757118    0.000000
  H     -1.685184    1.240246    0.861204
  H     -1.368377   -1.287351   -0.877918
  H     -2.825139   -0.823659    0.000017
  H     -1.368348   -1.287371    0.877895
  H     -1.685215    1.240267   -0.861157

 Multiplicity           Mult            ....    2
 Number of Electrons    NEL             ....   39
 Basis Dimension        Dim             ....  554

ORBITAL ENERGIES
----------------
                 SPIN UP ORBITALS
  NO   OCC          E(Eh)            E(eV)
   0   1.0000    -104.838739     -2852.8071
   1   1.0000     -11.222060      -305.3678
   2   1.0000     -11.219909      -305.3092
   3   1.0000     -10.566478      -287.5285
   4   1.0000      -8.034212      -218.6220
   5   1.0000      -8.032037      -218.5629
   6   1.0000      -8.031767      -218.5555
   7   1.0000      -7.668969      -208.6833
   8   1.0000      -1.124207       -30.5912
   9   1.0000      -1.035546       -28.1786
  10   1.0000      -0.868004       -23.6196
  11   1.0000      -0.665007       -18.0958
  12   1.0000      -0.613982       -16.7073
  13   1.0000      -0.591511       -16.0958
  14   1.0000      -0.546839       -14.8802
  15   1.0000      -0.504812       -13.7366
  16   1.0000      -0.503799       -13.7091
  17   1.0000      -0.482805       -13.1378
  18   1.0000      -0.477980       -13.0065
  19   1.0000      -0.330245        -8.9864
  20   0.0000       0.024069         0.6550
  21   0.0000       0.033742         0.9182
  22   0.0000       0.034703         0.9443
  23   0.0000       0.035462         0.9650
  24   0.0000       0.052477         1.4280

                 SPIN DOWN ORBITALS
  NO   OCC          E(Eh)            E(eV)
   0   1.0000    -104.837939     -2852.7854
   1   1.0000     -11.220849      -305.3348
   2   1.0000     -11.218695      -305.2762
   3   1.0000     -10.565527      -287.5026
   4   1.0000      -8.032488      -218.5751
   5   1.0000      -8.031917      -218.5596
   6   1.0000      -8.029753      -218.5007
   7   1.0000      -7.649126      -208.1433
   8   1.0000      -1.114930       -30.3388
   9   1.0000      -1.030185       -28.0328
  10   1.0000      -0.860437       -23.4137
  11   1.0000      -0.642555       -17.4848
  12   1.0000      -0.612788       -16.6748
  13   1.0000      -0.573998       -15.6193
  14   1.0000      -0.529066       -14.3966
  15   1.0000      -0.503335       -13.6965
  16   1.0000      -0.488394       -13.2899
  17   1.0000      -0.483868       -13.1667
  18   1.0000      -0.461260       -12.5515
  19   0.0000       0.022771         0.6196
  20   0.0000       0.032983         0.8975
  21   0.0000       0.034148         0.9292
  22   0.0000       0.035350         0.9619
  23   0.0000       0.052192         1.4202

MULLIKEN ATOMIC CHARGES AND SPIN POPULATIONS
--------------------------------------------
   0 Cl:   -0.277096    0.017822
   1 B :    0.305177    0.999056
   2 C :   -0.504642   -0.035504
   3 C :   -0.840600    0.043366
   4 H :    0.278511   -0.010864
   5 H :    0.239597   -0.003862
   6 H :    0.280941    0.004712
   7 H :    0.239596   -0.003862
   8 H :    0.278515   -0.010864
Sum of atomic charges         :   -0.0000000

LOEWDIN ATOMIC CHARGES AND SPIN POPULATIONS
-------------------------------------------
   0 Cl:    1.230982    0.172927
   1 B :   -0.963993    0.572544
   2 C :    0.459656    0.161009
   3 C :    0.840423    0.024822
   4 H :   -0.338365    0.027691
   5 H :   -0.302741    0.004039
   6 H :   -0.284855    0.005237
   7 H :   -0.302742    0.004039
   8 H :   -0.338366    0.027691

  Mayer bond orders larger than 0.100000
B(  0-Cl,  1-B ) :   1.0671 B(  1-B ,  2-C ) :   0.9611 B(  2-C ,  3-C ) :   0.9941
B(  2-C ,  4-H ) :   0.8678 B(  2-C ,  8-H ) :   0.8678 B(  3-C ,  5-H ) :   0.9459
B(  3-C ,  6-H ) :   0.9246 B(  3-C ,  7-H ) :   0.9459

MP2 TOTAL ENERGY:     -563.545345872 Eh
FINAL SINGLE POINT ENERGY      -563.545345871979

DIPOLE MOMENT
-------------
                                X             Y             Z
Electronic contribution:     10.39980       1.35555      -0.00004
Nuclear contribution   :    -10.98861      -1.35733       0.00005
                        -----------------------------------------
Total Dipole Moment    :     -0.58881      -0.00177       0.00001
                        -----------------------------------------
Magnitude (a.u.)       :      0.58881
Magnitude (Debye)      :      1.49663

Rotational constants in cm-1:     0.487746     0.107591     0.091050
Rotational constants in MHz : 14622.257081  3225.503189  2729.613353

                             ****ORCA TERMINATED NORMALLY****
TOTAL RUN TIME: 0 days 0 hours 39 minutes 58 seconds 861 msec
