                         Program Version 5.0.4 -  RELEASE  -
|  1> ! ri-mp2 aug-cc-pvdz aug-cc-pvdz/c tightscf
|  2> %pal nprocs 16 end
|  3> %maxcore 3800
|  4> %base "DZ_Si-Cl_56_A"
|  5> %scf
|  6> STABPerform true
|  7> STABRestartUHFifUnstable true
|  8> end
|  9>
| 10> *xyz 0 2
| 11> Si        -1.945485    0.336173   -0.060060
| 12> C        -0.236129   -0.527681   -0.018706
| 13> N         0.920401    0.180211   -0.025901
| 14> C         0.970377    1.619294   -0.047396
| 15> O        -0.267929   -1.748013    0.006725
| 16> H        -0.019892    2.035730   -0.221144
| 17> H         1.621455    1.962925   -0.854279
| 18> H         1.352327    2.018966    0.895973
| 19> C         2.189678   -0.509630    0.050908
| 20> H         2.814913   -0.249265   -0.805995
| 21> H         2.003094   -1.578740    0.052148
| 22> H         2.722086   -0.233812    0.964548
| 23> H        -2.131096    1.293975    1.058393
| 24> H        -2.969030   -0.725460   -0.030135
| 25> *
| 26>
| 27> $new_job
| 28> ! ri-mp2 aug-cc-pvtz aug-cc-pvtz/c tightscf
| 29> %pal nprocs 16 end
| 30> %maxcore 3800
| 31> %base "TZ_Si-Cl_56_A"
| 32>
| 33> *xyz 0 2
| 34> Si        -1.945485    0.336173   -0.060060
| 35> C        -0.236129   -0.527681   -0.018706
| 36> N         0.920401    0.180211   -0.025901
| 37> C         0.970377    1.619294   -0.047396
| 38> O        -0.267929   -1.748013    0.006725
| 39> H        -0.019892    2.035730   -0.221144
| 40> H         1.621455    1.962925   -0.854279
| 41> H         1.352327    2.018966    0.895973
| 42> C         2.189678   -0.509630    0.050908
| 43> H         2.814913   -0.249265   -0.805995
| 44> H         2.003094   -1.578740    0.052148
| 45> H         2.722086   -0.233812    0.964548
| 46> H        -2.131096    1.293975    1.058393
| 47> H        -2.969030   -0.725460   -0.030135
| 48> *
| 49>
| 50> $new_job
| 51> ! ri-mp2 aug-cc-pvqz aug-cc-pvqz/c tightscf
| 52> %pal nprocs 16 end
| 53> %maxcore 3800
| 54> %base "QZ_Si-Cl_56_A"
| 55>
| 56> *xyz 0 2
| 57> Si        -1.945485    0.336173   -0.060060
| 58> C        -0.236129   -0.527681   -0.018706
| 59> N         0.920401    0.180211   -0.025901
| 60> C         0.970377    1.619294   -0.047396
| 61> O        -0.267929   -1.748013    0.006725
| 62> H        -0.019892    2.035730   -0.221144
| 63> H         1.621455    1.962925   -0.854279
| 64> H         1.352327    2.018966    0.895973
| 65> C         2.189678   -0.509630    0.050908
| 66> H         2.814913   -0.249265   -0.805995
| 67> H         2.003094   -1.578740    0.052148
| 68> H         2.722086   -0.233812    0.964548
| 69> H        -2.131096    1.293975    1.058393
| 70> H        -2.969030   -0.725460   -0.030135
| 71> *
| 72>
| 73>
| 74>
| 75>
| 76>                          ****END OF INPUT****
 Total Charge           Charge          ....    0
 Multiplicity           Mult            ....    2
 Number of Electrons    NEL             ....   55
MP2 TOTAL ENERGY:     -537.382647069 Eh
FINAL SINGLE POINT ENERGY      -537.382647069414
MP2 TOTAL ENERGY:     -537.635820051 Eh
FINAL SINGLE POINT ENERGY      -537.635820050556

CARTESIAN COORDINATES (ANGSTROEM)
---------------------------------
  Si    -1.945485    0.336173   -0.060060
  C     -0.236129   -0.527681   -0.018706
  N      0.920401    0.180211   -0.025901
  C      0.970377    1.619294   -0.047396
  O     -0.267929   -1.748013    0.006725
  H     -0.019892    2.035730   -0.221144
  H      1.621455    1.962925   -0.854279
  H      1.352327    2.018966    0.895973
  C      2.189678   -0.509630    0.050908
  H      2.814913   -0.249265   -0.805995
  H      2.003094   -1.578740    0.052148
  H      2.722086   -0.233812    0.964548
  H     -2.131096    1.293975    1.058393
  H     -2.969030   -0.725460   -0.030135

 Multiplicity           Mult            ....    2
 Number of Electrons    NEL             ....   55
 Basis Dimension        Dim             ....  852

ORBITAL ENERGIES
----------------
                 SPIN UP ORBITALS
  NO   OCC          E(Eh)            E(eV)
   0   1.0000     -68.790945     -1871.8968
   1   1.0000     -20.520294      -558.3856
   2   1.0000     -15.591052      -424.2541
   3   1.0000     -11.334860      -308.4372
   4   1.0000     -11.275652      -306.8261
   5   1.0000     -11.255923      -306.2892
   6   1.0000      -6.141700      -167.1242
   7   1.0000      -4.254639      -115.7746
   8   1.0000      -4.244501      -115.4987
   9   1.0000      -4.244211      -115.4909
  10   1.0000      -1.383574       -37.6490
  11   1.0000      -1.255700       -34.1693
  12   1.0000      -0.987064       -26.8594
  13   1.0000      -0.947751       -25.7896
  14   1.0000      -0.791965       -21.5505
  15   1.0000      -0.725548       -19.7432
  16   1.0000      -0.663254       -18.0480
  17   1.0000      -0.660733       -17.9795
  18   1.0000      -0.645391       -17.5620
  19   1.0000      -0.572973       -15.5914
  20   1.0000      -0.568238       -15.4625
  21   1.0000      -0.547507       -14.8984
  22   1.0000      -0.541852       -14.7445
  23   1.0000      -0.540945       -14.7199
  24   1.0000      -0.493735       -13.4352
  25   1.0000      -0.412230       -11.2173
  26   1.0000      -0.381055       -10.3690
  27   1.0000      -0.334456        -9.1010
  28   0.0000       0.020713         0.5636
  29   0.0000       0.030028         0.8171
  30   0.0000       0.033912         0.9228
  31   0.0000       0.036181         0.9845
  32   0.0000       0.048149         1.3102

                 SPIN DOWN ORBITALS
  NO   OCC          E(Eh)            E(eV)
   0   1.0000     -68.785238     -1871.7415
   1   1.0000     -20.517478      -558.3090
   2   1.0000     -15.591104      -424.2555
   3   1.0000     -11.334884      -308.4379
   4   1.0000     -11.275421      -306.8198
   5   1.0000     -11.255923      -306.2892
   6   1.0000      -6.133042      -166.8886
   7   1.0000      -4.240626      -115.3933
   8   1.0000      -4.240443      -115.3883
   9   1.0000      -4.231861      -115.1548
  10   1.0000      -1.378463       -37.5099
  11   1.0000      -1.254365       -34.1330
  12   1.0000      -0.986392       -26.8411
  13   1.0000      -0.946459       -25.7544
  14   1.0000      -0.774435       -21.0735
  15   1.0000      -0.714142       -19.4328
  16   1.0000      -0.662652       -18.0317
  17   1.0000      -0.657666       -17.8960
  18   1.0000      -0.629054       -17.1174
  19   1.0000      -0.571255       -15.5446
  20   1.0000      -0.567906       -15.4535
  21   1.0000      -0.545222       -14.8362
  22   1.0000      -0.540042       -14.6953
  23   1.0000      -0.528383       -14.3780
  24   1.0000      -0.485856       -13.2208
  25   1.0000      -0.396401       -10.7866
  26   1.0000      -0.374165       -10.1815
  27   0.0000       0.017159         0.4669
  28   0.0000       0.024238         0.6595
  29   0.0000       0.031314         0.8521
  30   0.0000       0.036107         0.9825
  31   0.0000       0.039883         1.0853

MULLIKEN ATOMIC CHARGES AND SPIN POPULATIONS
--------------------------------------------
   0 Si:    0.795418    0.953169
   1 C :    0.830272   -0.009231
   2 N :   -0.421510   -0.011292
   3 C :   -0.873140    0.004545
   4 O :   -0.869592    0.053502
   5 H :    0.316238    0.000502
   6 H :    0.305175    0.000327
   7 H :    0.318576   -0.001912
   8 C :   -0.833582    0.001499
   9 H :    0.292439    0.000789
  10 H :    0.340250   -0.000265
  11 H :    0.286574   -0.000236
  12 H :   -0.193069    0.000543
  13 H :   -0.294050    0.008059
Sum of atomic charges         :   -0.0000000

LOEWDIN ATOMIC CHARGES AND SPIN POPULATIONS
-------------------------------------------
   0 Si:    1.059803    0.512231
   1 C :   -0.942001    0.127979
   2 N :    0.319209    0.009084
   3 C :    0.711917    0.019776
   4 O :    0.613028    0.046336
   5 H :   -0.397700    0.035140
   6 H :   -0.275313    0.001073
   7 H :   -0.265892    0.000777
   8 C :    0.751710    0.000616
   9 H :   -0.277920    0.000693
  10 H :   -0.362194    0.000253
  11 H :   -0.273605   -0.000202
  12 H :   -0.319317    0.123374
  13 H :   -0.341726    0.122871

  Mayer bond orders larger than 0.100000
B(  0-Si,  1-C ) :   0.7524 B(  0-Si, 12-H ) :   0.8833 B(  0-Si, 13-H ) :   0.8799
B(  1-C ,  2-N ) :   1.3587 B(  1-C ,  4-O ) :   1.2999 B(  2-N ,  3-C ) :   0.7944
B(  2-N ,  4-O ) :   0.2281 B(  2-N ,  8-C ) :   0.7826 B(  3-C ,  5-H ) :   0.8996
B(  3-C ,  6-H ) :   0.9372 B(  3-C ,  7-H ) :   0.9378 B(  8-C ,  9-H ) :   0.9557
B(  8-C , 10-H ) :   0.8850 B(  8-C , 11-H ) :   0.9595

MP2 TOTAL ENERGY:     -537.716765758 Eh
FINAL SINGLE POINT ENERGY      -537.716765758264

DIPOLE MOMENT
-------------
                                X             Y             Z
Electronic contribution:     -4.99165      -3.10139      -1.07102
Nuclear contribution   :      5.57276       4.52583       1.07461
                        -----------------------------------------
Total Dipole Moment    :      0.58111       1.42444       0.00359
                        -----------------------------------------
Magnitude (a.u.)       :      1.53841
Magnitude (Debye)      :      3.91034

Rotational constants in cm-1:     0.150844     0.073125     0.050567
Rotational constants in MHz :  4522.183154  2192.226201  1515.960285

                             ****ORCA TERMINATED NORMALLY****
TOTAL RUN TIME: 0 days 2 hours 39 minutes 13 seconds 198 msec
