                         Program Version 5.0.4 -  RELEASE  -
|  1> ! ri-mp2 aug-cc-pvdz aug-cc-pvdz/c tightscf
|  2> %pal nprocs 16 end
|  3> %maxcore 3800
|  4> %base "DZ_P-S_28_AB"
|  5> %scf
|  6> STABPerform true
|  7> STABRestartUHFifUnstable true
|  8> end
|  9>
| 10> *xyz 0 1
| 11> S        -0.761224    1.202623   -0.293113
| 12> P        -2.391290   -0.067367    0.017229
| 13> O        -3.415835    0.807832    0.570659
| 14> O        -1.863621   -1.314595    0.809225
| 15> O         0.391664    0.083373   -0.820023
| 16> C         1.533452   -0.051577   -0.094061
| 17> Cl         2.489171   -1.275952   -0.916618
| 18> Cl         1.221162   -0.595936    1.599616
| 19> Cl         2.441779    1.476734   -0.003876
| 20> H        -1.199922   -1.121713    1.485392
| 21> O        -2.753841   -0.798352   -1.332893
| 22> H        -3.404672   -0.308747   -1.850485
| 23> *
| 24>
| 25> $new_job
| 26> ! ri-mp2 aug-cc-pvtz aug-cc-pvtz/c tightscf
| 27> %pal nprocs 16 end
| 28> %maxcore 3800
| 29> %base "TZ_P-S_28_AB"
| 30>
| 31> *xyz 0 1
| 32> S        -0.761224    1.202623   -0.293113
| 33> P        -2.391290   -0.067367    0.017229
| 34> O        -3.415835    0.807832    0.570659
| 35> O        -1.863621   -1.314595    0.809225
| 36> O         0.391664    0.083373   -0.820023
| 37> C         1.533452   -0.051577   -0.094061
| 38> Cl         2.489171   -1.275952   -0.916618
| 39> Cl         1.221162   -0.595936    1.599616
| 40> Cl         2.441779    1.476734   -0.003876
| 41> H        -1.199922   -1.121713    1.485392
| 42> O        -2.753841   -0.798352   -1.332893
| 43> H        -3.404672   -0.308747   -1.850485
| 44> *
| 45>
| 46> $new_job
| 47> ! ri-mp2 aug-cc-pvqz aug-cc-pvqz/c tightscf
| 48> %pal nprocs 16 end
| 49> %maxcore 3800
| 50> %base "QZ_P-S_28_AB"
| 51>
| 52> *xyz 0 1
| 53> S        -0.761224    1.202623   -0.293113
| 54> P        -2.391290   -0.067367    0.017229
| 55> O        -3.415835    0.807832    0.570659
| 56> O        -1.863621   -1.314595    0.809225
| 57> O         0.391664    0.083373   -0.820023
| 58> C         1.533452   -0.051577   -0.094061
| 59> Cl         2.489171   -1.275952   -0.916618
| 60> Cl         1.221162   -0.595936    1.599616
| 61> Cl         2.441779    1.476734   -0.003876
| 62> H        -1.199922   -1.121713    1.485392
| 63> O        -2.753841   -0.798352   -1.332893
| 64> H        -3.404672   -0.308747   -1.850485
| 65> *
| 66>
| 67>
| 68>
| 69>
| 70>                          ****END OF INPUT****
 Total Charge           Charge          ....    0
 Multiplicity           Mult            ....    1
 Number of Electrons    NEL             ....  122
MP2 TOTAL ENERGY:    -2456.986267464 Eh
FINAL SINGLE POINT ENERGY     -2456.986267464275
MP2 TOTAL ENERGY:    -2457.584222284 Eh
FINAL SINGLE POINT ENERGY     -2457.584222283649

CARTESIAN COORDINATES (ANGSTROEM)
---------------------------------
  S     -0.761224    1.202623   -0.293113
  P     -2.391290   -0.067367    0.017229
  O     -3.415835    0.807832    0.570659
  O     -1.863621   -1.314595    0.809225
  O      0.391664    0.083373   -0.820023
  C      1.533452   -0.051577   -0.094061
  Cl     2.489171   -1.275952   -0.916618
  Cl     1.221162   -0.595936    1.599616
  Cl     2.441779    1.476734   -0.003876
  H     -1.199922   -1.121713    1.485392
  O     -2.753841   -0.798352   -1.332893
  H     -3.404672   -0.308747   -1.850485

 Multiplicity           Mult            ....    1
 Number of Electrons    NEL             ....  122
 Basis Dimension        Dim             ....  912

ORBITAL ENERGIES
----------------

  NO   OCC          E(Eh)            E(eV)
   0   2.0000    -104.882643     -2854.0018
   1   2.0000    -104.878573     -2853.8911
   2   2.0000    -104.877761     -2853.8690
   3   2.0000     -92.047256     -2504.7332
   4   2.0000     -80.111798     -2179.9528
   5   2.0000     -20.661903      -562.2390
   6   2.0000     -20.625811      -561.2568
   7   2.0000     -20.625362      -561.2446
   8   2.0000     -20.533542      -558.7461
   9   2.0000     -11.512871      -313.2811
  10   2.0000     -10.608780      -288.6796
  11   2.0000     -10.604520      -288.5637
  12   2.0000     -10.603793      -288.5439
  13   2.0000      -9.045205      -246.1325
  14   2.0000      -8.075665      -219.7500
  15   2.0000      -8.073877      -219.7014
  16   2.0000      -8.073805      -219.6994
  17   2.0000      -8.071525      -219.6374
  18   2.0000      -8.070732      -219.6158
  19   2.0000      -8.069420      -219.5801
  20   2.0000      -8.069411      -219.5798
  21   2.0000      -8.068754      -219.5620
  22   2.0000      -8.068722      -219.5611
  23   2.0000      -7.632100      -207.6800
  24   2.0000      -6.726453      -183.0361
  25   2.0000      -6.724587      -182.9853
  26   2.0000      -6.723632      -182.9593
  27   2.0000      -5.530565      -150.4943
  28   2.0000      -5.530213      -150.4847
  29   2.0000      -5.529002      -150.4518
  30   2.0000      -1.491403       -40.5831
  31   2.0000      -1.468868       -39.9699
  32   2.0000      -1.412551       -38.4375
  33   2.0000      -1.329863       -36.1874
  34   2.0000      -1.232950       -33.5503
  35   2.0000      -1.136252       -30.9190
  36   2.0000      -1.132453       -30.8156
  37   2.0000      -1.025417       -27.9030
  38   2.0000      -0.886629       -24.1264
  39   2.0000      -0.844278       -22.9740
  40   2.0000      -0.759680       -20.6720
  41   2.0000      -0.742767       -20.2117
  42   2.0000      -0.719126       -19.5684
  43   2.0000      -0.713381       -19.4121
  44   2.0000      -0.685117       -18.6430
  45   2.0000      -0.666090       -18.1252
  46   2.0000      -0.634579       -17.2678
  47   2.0000      -0.608910       -16.5693
  48   2.0000      -0.592595       -16.1253
  49   2.0000      -0.578697       -15.7472
  50   2.0000      -0.573334       -15.6012
  51   2.0000      -0.530119       -14.4253
  52   2.0000      -0.519954       -14.1487
  53   2.0000      -0.509962       -13.8768
  54   2.0000      -0.503359       -13.6971
  55   2.0000      -0.497604       -13.5405
  56   2.0000      -0.481985       -13.1155
  57   2.0000      -0.479655       -13.0521
  58   2.0000      -0.467040       -12.7088
  59   2.0000      -0.460151       -12.5213
  60   2.0000      -0.417513       -11.3611
  61   0.0000       0.025203         0.6858
  62   0.0000       0.033826         0.9205
  63   0.0000       0.044164         1.2018
  64   0.0000       0.047922         1.3040
  65   0.0000       0.062852         1.7103

MULLIKEN ATOMIC CHARGES
-----------------------
   0 S :    0.204982
   1 P :    2.308556
   2 O :   -1.135229
   3 O :   -0.874365
   4 O :   -0.607738
   5 C :    0.758604
   6 Cl:   -0.172851
   7 Cl:   -0.216678
   8 Cl:   -0.194279
   9 H :    0.393856
  10 O :   -0.863407
  11 H :    0.398549
Sum of atomic charges:   -0.0000000

LOEWDIN ATOMIC CHARGES
----------------------
   0 S :    0.744743
   1 P :   -1.083095
   2 O :    0.233714
   3 O :    1.055236
   4 O :    0.018901
   5 C :   -3.086623
   6 Cl:    0.991642
   7 Cl:    1.015505
   8 Cl:    0.958934
   9 H :   -1.040145
  10 O :    1.058261
  11 H :   -0.867072

  Mayer bond orders larger than 0.100000
B(  0-S ,  1-P ) :   0.9387 B(  0-S ,  4-O ) :   0.6694 B(  1-P ,  2-O ) :   1.3336
B(  1-P ,  3-O ) :   0.7076 B(  1-P , 10-O ) :   0.7074 B(  3-O ,  9-H ) :   0.8487
B(  4-O ,  5-C ) :   0.8733 B(  5-C ,  6-Cl) :   0.7635 B(  5-C ,  7-Cl) :   0.8168
B(  5-C ,  8-Cl) :   0.8017 B( 10-O , 11-H ) :   0.8956

MP2 TOTAL ENERGY:    -2457.782279830 Eh
FINAL SINGLE POINT ENERGY     -2457.782279830348

DIPOLE MOMENT
-------------
                                X             Y             Z
Electronic contribution:     10.96793       0.64448       0.89234
Nuclear contribution   :    -10.39582      -0.79396      -1.25597
                        -----------------------------------------
Total Dipole Moment    :      0.57211      -0.14948      -0.36363
                        -----------------------------------------
Magnitude (a.u.)       :      0.69417
Magnitude (Debye)      :      1.76444

Rotational constants in cm-1:     0.039406     0.013270     0.012670
Rotational constants in MHz :  1181.349408   397.810351   379.842846

                             ****ORCA TERMINATED NORMALLY****
TOTAL RUN TIME: 0 days 1 hours 53 minutes 20 seconds 475 msec
