                         Program Version 5.0.4 -  RELEASE  -
|  1> ! ri-mp2 aug-cc-pvdz aug-cc-pvdz/c tightscf
|  2> %pal nprocs 16 end
|  3> %maxcore 3800
|  4> %base "DZ_S-Cl_9_AB"
|  5>
|  6> *xyz 0 1
|  7> Cl         2.628462   -0.042499    0.000044
|  8> S         1.112042    1.318813    0.000002
|  9> Si        -0.530978   -0.020439   -0.000009
| 10> Cl        -0.554600   -1.205057   -1.639980
| 11> Cl        -0.554656   -1.205015    1.639993
| 12> Cl        -2.128559    1.228168   -0.000052
| 13> *
| 14>
| 15> $new_job
| 16> ! ri-mp2 aug-cc-pvtz aug-cc-pvtz/c tightscf
| 17> %pal nprocs 16 end
| 18> %maxcore 3800
| 19> %base "TZ_S-Cl_9_AB"
| 20>
| 21> *xyz 0 1
| 22> Cl         2.628462   -0.042499    0.000044
| 23> S         1.112042    1.318813    0.000002
| 24> Si        -0.530978   -0.020439   -0.000009
| 25> Cl        -0.554600   -1.205057   -1.639980
| 26> Cl        -0.554656   -1.205015    1.639993
| 27> Cl        -2.128559    1.228168   -0.000052
| 28> *
| 29>
| 30> $new_job
| 31> ! ri-mp2 aug-cc-pvqz aug-cc-pvqz/c tightscf
| 32> %pal nprocs 16 end
| 33> %maxcore 3800
| 34> %base "QZ_S-Cl_9_AB"
| 35>
| 36> *xyz 0 1
| 37> Cl         2.628462   -0.042499    0.000044
| 38> S         1.112042    1.318813    0.000002
| 39> Si        -0.530978   -0.020439   -0.000009
| 40> Cl        -0.554600   -1.205057   -1.639980
| 41> Cl        -0.554656   -1.205015    1.639993
| 42> Cl        -2.128559    1.228168   -0.000052
| 43> *
| 44>
| 45>
| 46>
| 47>
| 48>                          ****END OF INPUT****
 Total Charge           Charge          ....    0
 Multiplicity           Mult            ....    1
 Number of Electrons    NEL             ....   98
MP2 TOTAL ENERGY:    -2525.470200888 Eh
FINAL SINGLE POINT ENERGY     -2525.470200887824
MP2 TOTAL ENERGY:    -2525.811421801 Eh
FINAL SINGLE POINT ENERGY     -2525.811421801126

CARTESIAN COORDINATES (ANGSTROEM)
---------------------------------
  Cl     2.628462   -0.042499    0.000044
  S      1.112042    1.318813    0.000002
  Si    -0.530978   -0.020439   -0.000009
  Cl    -0.554600   -1.205057   -1.639980
  Cl    -0.554656   -1.205015    1.639993
  Cl    -2.128559    1.228168   -0.000052

 Multiplicity           Mult            ....    1
 Number of Electrons    NEL             ....   98
 Basis Dimension        Dim             ....  504

ORBITAL ENERGIES
----------------

  NO   OCC          E(Eh)            E(eV)
   0   2.0000    -104.875965     -2853.8201
   1   2.0000    -104.864023     -2853.4951
   2   2.0000    -104.859914     -2853.3833
   3   2.0000    -104.859914     -2853.3833
   4   2.0000     -92.026372     -2504.1649
   5   2.0000     -68.931432     -1875.7196
   6   2.0000     -10.599926      -288.4386
   7   2.0000     -10.591542      -288.2105
   8   2.0000     -10.587471      -288.0997
   9   2.0000     -10.587464      -288.0995
  10   2.0000      -9.026479      -245.6230
  11   2.0000      -8.066956      -219.5130
  12   2.0000      -8.064861      -219.4560
  13   2.0000      -8.064709      -219.4519
  14   2.0000      -8.058307      -219.2777
  15   2.0000      -8.057077      -219.2442
  16   2.0000      -8.057045      -219.2433
  17   2.0000      -8.054242      -219.1671
  18   2.0000      -8.054241      -219.1670
  19   2.0000      -8.052980      -219.1327
  20   2.0000      -8.052979      -219.1327
  21   2.0000      -8.052960      -219.1322
  22   2.0000      -8.052959      -219.1322
  23   2.0000      -6.707604      -182.5232
  24   2.0000      -6.706101      -182.4823
  25   2.0000      -6.705119      -182.4556
  26   2.0000      -6.264615      -170.4688
  27   2.0000      -4.372305      -118.9765
  28   2.0000      -4.371827      -118.9635
  29   2.0000      -4.371537      -118.9556
  30   2.0000      -1.174179       -31.9510
  31   2.0000      -1.152398       -31.3583
  32   2.0000      -1.121871       -30.5277
  33   2.0000      -1.118097       -30.4250
  34   2.0000      -0.944231       -25.6938
  35   2.0000      -0.713479       -19.4147
  36   2.0000      -0.602791       -16.4028
  37   2.0000      -0.594861       -16.1870
  38   2.0000      -0.594355       -16.1732
  39   2.0000      -0.549918       -14.9640
  40   2.0000      -0.539425       -14.6785
  41   2.0000      -0.516539       -14.0557
  42   2.0000      -0.513078       -13.9616
  43   2.0000      -0.510928       -13.9030
  44   2.0000      -0.489002       -13.3064
  45   2.0000      -0.487423       -13.2635
  46   2.0000      -0.475185       -12.9305
  47   2.0000      -0.444759       -12.1025
  48   2.0000      -0.395930       -10.7738
  49   0.0000       0.031488         0.8568
  50   0.0000       0.035134         0.9560
  51   0.0000       0.040805         1.1104
  52   0.0000       0.043236         1.1765
  53   0.0000       0.053560         1.4574

MULLIKEN ATOMIC CHARGES
-----------------------
   0 Cl:   -0.271696
   1 S :   -0.113903
   2 Si:    2.085141
   3 Cl:   -0.553351
   4 Cl:   -0.553351
   5 Cl:   -0.592840
Sum of atomic charges:    0.0000000

LOEWDIN ATOMIC CHARGES
----------------------
   0 Cl:    0.430712
   1 S :    0.118979
   2 Si:   -3.092364
   3 Cl:    0.849136
   4 Cl:    0.849135
   5 Cl:    0.844403

  Mayer bond orders larger than 0.100000
B(  0-Cl,  1-S ) :   0.9515 B(  1-S ,  2-Si) :   0.8329 B(  2-Si,  3-Cl) :   0.6198
B(  2-Si,  4-Cl) :   0.6198 B(  2-Si,  5-Cl) :   0.5602

MP2 TOTAL ENERGY:    -2525.926593003 Eh
FINAL SINGLE POINT ENERGY     -2525.926593002650

DIPOLE MOMENT
-------------
                                X             Y             Z
Electronic contribution:     -0.89745      -1.46299       0.00000
Nuclear contribution   :      0.79258       1.56043      -0.00001
                        -----------------------------------------
Total Dipole Moment    :     -0.10487       0.09744      -0.00001
                        -----------------------------------------
Magnitude (a.u.)       :      0.14315
Magnitude (Debye)      :      0.36386

Rotational constants in cm-1:     0.041835     0.025325     0.024531
Rotational constants in MHz :  1254.185497   759.215462   735.414902

                             ****ORCA TERMINATED NORMALLY****
TOTAL RUN TIME: 0 days 0 hours 4 minutes 2 seconds 642 msec
