                         Program Version 5.0.4 -  RELEASE  -
|  1> ! ri-mp2 aug-cc-pvdz aug-cc-pvdz/c tightscf
|  2> %pal nprocs 16 end
|  3> %maxcore 3800
|  4> %base "DZ_B-Cl_77_A"
|  5> %scf
|  6> STABPerform true
|  7> STABRestartUHFifUnstable true
|  8> end
|  9>
| 10> *xyz 0 2
| 11> F        -2.712791   -0.989466   -0.308622
| 12> C        -1.302352    0.918026   -0.176061
| 13> C        -2.340967    0.107948    0.489619
| 14> H        -3.245667    0.691191    0.659766
| 15> H        -1.975983   -0.304048    1.431173
| 16> N        -0.023417    0.563577   -0.116042
| 17> B         1.168468    0.210681   -0.049816
| 18> Cl         2.788038   -0.257648    0.040378
| 19> H        -1.578389    1.743787   -0.819737
| 20> *
| 21>
| 22> $new_job
| 23> ! ri-mp2 aug-cc-pvtz aug-cc-pvtz/c tightscf
| 24> %pal nprocs 16 end
| 25> %maxcore 3800
| 26> %base "TZ_B-Cl_77_A"
| 27>
| 28> *xyz 0 2
| 29> F        -2.712791   -0.989466   -0.308622
| 30> C        -1.302352    0.918026   -0.176061
| 31> C        -2.340967    0.107948    0.489619
| 32> H        -3.245667    0.691191    0.659766
| 33> H        -1.975983   -0.304048    1.431173
| 34> N        -0.023417    0.563577   -0.116042
| 35> B         1.168468    0.210681   -0.049816
| 36> Cl         2.788038   -0.257648    0.040378
| 37> H        -1.578389    1.743787   -0.819737
| 38> *
| 39>
| 40> $new_job
| 41> ! ri-mp2 aug-cc-pvqz aug-cc-pvqz/c tightscf
| 42> %pal nprocs 16 end
| 43> %maxcore 3800
| 44> %base "QZ_B-Cl_77_A"
| 45>
| 46> *xyz 0 2
| 47> F        -2.712791   -0.989466   -0.308622
| 48> C        -1.302352    0.918026   -0.176061
| 49> C        -2.340967    0.107948    0.489619
| 50> H        -3.245667    0.691191    0.659766
| 51> H        -1.975983   -0.304048    1.431173
| 52> N        -0.023417    0.563577   -0.116042
| 53> B         1.168468    0.210681   -0.049816
| 54> Cl         2.788038   -0.257648    0.040378
| 55> H        -1.578389    1.743787   -0.819737
| 56> *
| 57>
| 58>
| 59>
| 60>
| 61>                          ****END OF INPUT****
 Total Charge           Charge          ....    0
 Multiplicity           Mult            ....    2
 Number of Electrons    NEL             ....   53
MP2 TOTAL ENERGY:     -716.445727188 Eh
FINAL SINGLE POINT ENERGY      -716.445727188355
MP2 TOTAL ENERGY:     -716.722724785 Eh
FINAL SINGLE POINT ENERGY      -716.722724785192

CARTESIAN COORDINATES (ANGSTROEM)
---------------------------------
  F     -2.712791   -0.989466   -0.308622
  C     -1.302352    0.918026   -0.176061
  C     -2.340967    0.107948    0.489619
  H     -3.245667    0.691191    0.659766
  H     -1.975983   -0.304048    1.431173
  N     -0.023417    0.563577   -0.116042
  B      1.168468    0.210681   -0.049816
  Cl     2.788038   -0.257648    0.040378
  H     -1.578389    1.743787   -0.819737

 Multiplicity           Mult            ....    2
 Number of Electrons    NEL             ....   53
 Basis Dimension        Dim             ....  622

ORBITAL ENERGIES
----------------
                 SPIN UP ORBITALS
  NO   OCC          E(Eh)            E(eV)
   0   1.0000    -104.878701     -2853.8946
   1   1.0000     -26.266914      -714.7591
   2   1.0000     -15.561454      -423.4487
   3   1.0000     -11.309343      -307.7429
   4   1.0000     -11.280945      -306.9701
   5   1.0000     -10.605624      -288.5937
   6   1.0000      -8.072200      -219.6557
   7   1.0000      -8.071768      -219.6440
   8   1.0000      -8.071224      -219.6292
   9   1.0000      -7.674106      -208.8231
  10   1.0000      -1.577751       -42.9328
  11   1.0000      -1.210798       -32.9475
  12   1.0000      -1.155713       -31.4485
  13   1.0000      -1.014539       -27.6070
  14   1.0000      -0.875072       -23.8119
  15   1.0000      -0.728109       -19.8128
  16   1.0000      -0.696254       -18.9460
  17   1.0000      -0.685563       -18.6551
  18   1.0000      -0.654150       -17.8003
  19   1.0000      -0.641206       -17.4481
  20   1.0000      -0.565343       -15.3838
  21   1.0000      -0.558608       -15.2005
  22   1.0000      -0.531823       -14.4716
  23   1.0000      -0.522684       -14.2230
  24   1.0000      -0.503478       -13.7003
  25   1.0000      -0.411969       -11.2103
  26   1.0000      -0.309254        -8.4152
  27   0.0000       0.022944         0.6243
  28   0.0000       0.032813         0.8929
  29   0.0000       0.034164         0.9297
  30   0.0000       0.040365         1.0984
  31   0.0000       0.048834         1.3288

                 SPIN DOWN ORBITALS
  NO   OCC          E(Eh)            E(eV)
   0   1.0000    -104.878565     -2853.8908
   1   1.0000     -26.263676      -714.6710
   2   1.0000     -15.570778      -423.7024
   3   1.0000     -11.312057      -307.8167
   4   1.0000     -11.258983      -306.3725
   5   1.0000     -10.605475      -288.5896
   6   1.0000      -8.073086      -219.6798
   7   1.0000      -8.071008      -219.6233
   8   1.0000      -8.070381      -219.6062
   9   1.0000      -7.667850      -208.6528
  10   1.0000      -1.568076       -42.6695
  11   1.0000      -1.207016       -32.8446
  12   1.0000      -1.154018       -31.4024
  13   1.0000      -0.993566       -27.0363
  14   1.0000      -0.848774       -23.0963
  15   1.0000      -0.717953       -19.5365
  16   1.0000      -0.689354       -18.7583
  17   1.0000      -0.663749       -18.0615
  18   1.0000      -0.647053       -17.6072
  19   1.0000      -0.637474       -17.3465
  20   1.0000      -0.560049       -15.2397
  21   1.0000      -0.535849       -14.5812
  22   1.0000      -0.528784       -14.3889
  23   1.0000      -0.519683       -14.1413
  24   1.0000      -0.474668       -12.9164
  25   1.0000      -0.422588       -11.4992
  26   0.0000       0.023331         0.6349
  27   0.0000       0.033036         0.8990
  28   0.0000       0.034249         0.9320
  29   0.0000       0.040016         1.0889
  30   0.0000       0.048931         1.3315

MULLIKEN ATOMIC CHARGES AND SPIN POPULATIONS
--------------------------------------------
   0 F :   -0.665741    0.036154
   1 C :   -0.353895    0.996696
   2 C :    0.137468   -0.102584
   3 H :    0.300034    0.004709
   4 H :    0.288925    0.011721
   5 N :   -0.563968   -0.219177
   6 B :    0.596395    0.320290
   7 Cl:   -0.244485    0.017167
   8 H :    0.505266   -0.064976
Sum of atomic charges         :    0.0000000

LOEWDIN ATOMIC CHARGES AND SPIN POPULATIONS
-------------------------------------------
   0 F :    0.722770    0.042980
   1 C :    0.060225    0.383801
   2 C :   -0.072837    0.106882
   3 H :   -0.361790    0.012643
   4 H :   -0.365079    0.011620
   5 N :    0.458858    0.109518
   6 B :   -1.375489    0.148941
   7 Cl:    1.285136    0.063597
   8 H :   -0.351794    0.120018

  Mayer bond orders larger than 0.100000
B(  0-F ,  1-C ) :   0.1045 B(  0-F ,  2-C ) :   0.3882 B(  1-C ,  2-C ) :   1.0780
B(  1-C ,  5-N ) :   0.7876 B(  1-C ,  8-H ) :   0.7518 B(  2-C ,  3-H ) :   0.9292
B(  2-C ,  4-H ) :   0.8868 B(  2-C ,  5-N ) :  -0.1049 B(  5-N ,  6-B ) :   2.0551
B(  5-N ,  7-Cl) :   0.1221 B(  6-B ,  7-Cl) :   1.0295

MP2 TOTAL ENERGY:     -716.814257680 Eh
FINAL SINGLE POINT ENERGY      -716.814257679948

DIPOLE MOMENT
-------------
                                X             Y             Z
Electronic contribution:      8.90929      -2.49408      -1.05749
Nuclear contribution   :     -8.47442       3.09928       1.45841
                        -----------------------------------------
Total Dipole Moment    :      0.43486       0.60520       0.40091
                        -----------------------------------------
Magnitude (a.u.)       :      0.84623
Magnitude (Debye)      :      2.15094

Rotational constants in cm-1:     0.350851     0.031151     0.029448
Rotational constants in MHz : 10518.259113   933.888422   882.818048

                             ****ORCA TERMINATED NORMALLY****
TOTAL RUN TIME: 0 days 1 hours 6 minutes 3 seconds 669 msec
