                         Program Version 5.0.4 -  RELEASE  -
|  1> ! ri-mp2 aug-cc-pvdz aug-cc-pvdz/c tightscf
|  2> %pal nprocs 16 end
|  3> %maxcore 3800
|  4> %base "DZ_Si-Cl_34_AB"
|  5> %scf
|  6> STABPerform true
|  7> STABRestartUHFifUnstable true
|  8> end
|  9>
| 10> *xyz 0 1
| 11> C        -1.744286    0.000443   -0.001873
| 12> Si         0.016220    0.000007    0.529312
| 13> N        -2.848810    0.000668   -0.306762
| 14> Cl         0.885815    1.669500   -0.212968
| 15> Cl         0.884951   -1.669937   -0.212962
| 16> H         0.077298   -0.000004    1.989025
| 17> *
| 18>
| 19> $new_job
| 20> ! ri-mp2 aug-cc-pvtz aug-cc-pvtz/c tightscf
| 21> %pal nprocs 16 end
| 22> %maxcore 3800
| 23> %base "TZ_Si-Cl_34_AB"
| 24>
| 25> *xyz 0 1
| 26> C        -1.744286    0.000443   -0.001873
| 27> Si         0.016220    0.000007    0.529312
| 28> N        -2.848810    0.000668   -0.306762
| 29> Cl         0.885815    1.669500   -0.212968
| 30> Cl         0.884951   -1.669937   -0.212962
| 31> H         0.077298   -0.000004    1.989025
| 32> *
| 33>
| 34> $new_job
| 35> ! ri-mp2 aug-cc-pvqz aug-cc-pvqz/c tightscf
| 36> %pal nprocs 16 end
| 37> %maxcore 3800
| 38> %base "QZ_Si-Cl_34_AB"
| 39>
| 40> *xyz 0 1
| 41> C        -1.744286    0.000443   -0.001873
| 42> Si         0.016220    0.000007    0.529312
| 43> N        -2.848810    0.000668   -0.306762
| 44> Cl         0.885815    1.669500   -0.212968
| 45> Cl         0.884951   -1.669937   -0.212962
| 46> H         0.077298   -0.000004    1.989025
| 47> *
| 48>
| 49>
| 50>
| 51>
| 52>                          ****END OF INPUT****
 Total Charge           Charge          ....    0
 Multiplicity           Mult            ....    1
 Number of Electrons    NEL             ....   62
MP2 TOTAL ENERGY:    -1301.626701687 Eh
FINAL SINGLE POINT ENERGY     -1301.626701687373
MP2 TOTAL ENERGY:    -1301.864230942 Eh
FINAL SINGLE POINT ENERGY     -1301.864230942450

CARTESIAN COORDINATES (ANGSTROEM)
---------------------------------
  C     -1.744286    0.000443   -0.001873
  Si     0.016220    0.000007    0.529312
  N     -2.848810    0.000668   -0.306762
  Cl     0.885815    1.669500   -0.212968
  Cl     0.884951   -1.669937   -0.212962
  H      0.077298   -0.000004    1.989025

 Multiplicity           Mult            ....    1
 Number of Electrons    NEL             ....   62
 Basis Dimension        Dim             ....  458

ORBITAL ENERGIES
----------------

  NO   OCC          E(Eh)            E(eV)
   0   2.0000    -104.866705     -2853.5681
   1   2.0000    -104.866705     -2853.5681
   2   2.0000     -68.906641     -1875.0450
   3   2.0000     -15.604725      -424.6262
   4   2.0000     -11.272411      -306.7379
   5   2.0000     -10.594233      -288.2837
   6   2.0000     -10.594228      -288.2836
   7   2.0000      -8.061013      -219.3513
   8   2.0000      -8.061011      -219.3513
   9   2.0000      -8.059779      -219.3177
  10   2.0000      -8.059779      -219.3177
  11   2.0000      -8.059755      -219.3171
  12   2.0000      -8.059754      -219.3171
  13   2.0000      -6.245627      -169.9521
  14   2.0000      -4.353105      -118.4540
  15   2.0000      -4.352890      -118.4482
  16   2.0000      -4.351877      -118.4206
  17   2.0000      -1.245525       -33.8925
  18   2.0000      -1.154966       -31.4282
  19   2.0000      -1.125295       -30.6208
  20   2.0000      -0.815321       -22.1860
  21   2.0000      -0.662322       -18.0227
  22   2.0000      -0.594748       -16.1839
  23   2.0000      -0.589185       -16.0325
  24   2.0000      -0.581429       -15.8215
  25   2.0000      -0.519341       -14.1320
  26   2.0000      -0.517123       -14.0716
  27   2.0000      -0.497434       -13.5359
  28   2.0000      -0.497056       -13.5256
  29   2.0000      -0.492021       -13.3886
  30   2.0000      -0.485885       -13.2216
  31   0.0000       0.027301         0.7429
  32   0.0000       0.034432         0.9369
  33   0.0000       0.035575         0.9680
  34   0.0000       0.040122         1.0918
  35   0.0000       0.063662         1.7323

MULLIKEN ATOMIC CHARGES
-----------------------
   0 C :   -0.111351
   1 Si:    1.754837
   2 N :   -0.463009
   3 Cl:   -0.506650
   4 Cl:   -0.506650
   5 H :   -0.167176
Sum of atomic charges:    0.0000000

LOEWDIN ATOMIC CHARGES
----------------------
   0 C :   -0.476045
   1 Si:   -1.311996
   2 N :    0.298840
   3 Cl:    0.914626
   4 Cl:    0.914629
   5 H :   -0.340054

  Mayer bond orders larger than 0.100000
B(  0-C ,  1-Si) :   0.7619 B(  0-C ,  2-N ) :   2.6831 B(  1-Si,  3-Cl) :   0.6461
B(  1-Si,  4-Cl) :   0.6461 B(  1-Si,  5-H ) :   0.9126

MP2 TOTAL ENERGY:    -1301.944383324 Eh
FINAL SINGLE POINT ENERGY     -1301.944383323944

DIPOLE MOMENT
-------------
                                X             Y             Z
Electronic contribution:      3.24100      -0.00078      -1.76900
Nuclear contribution   :     -2.28576       0.00058       2.36955
                        -----------------------------------------
Total Dipole Moment    :      0.95524      -0.00020       0.60055
                        -----------------------------------------
Magnitude (a.u.)       :      1.12834
Magnitude (Debye)      :      2.86800

Rotational constants in cm-1:     0.078767     0.075898     0.041783
Rotational constants in MHz :  2361.364125  2275.368351  1252.629386

                             ****ORCA TERMINATED NORMALLY****
TOTAL RUN TIME: 0 days 0 hours 7 minutes 16 seconds 13 msec
