                         Program Version 5.0.4 -  RELEASE  -
|  1> ! ri-mp2 aug-cc-pvdz aug-cc-pvdz/c tightscf
|  2> %pal nprocs 16 end
|  3> %maxcore 3800
|  4> %base "DZ_Si-S_31_AB"
|  5> %scf
|  6> STABPerform true
|  7> STABRestartUHFifUnstable true
|  8> end
|  9>
| 10> *xyz 0 1
| 11> S         0.711375   -0.226417   -0.000002
| 12> Si        -1.243638    0.828061    0.000002
| 13> C         2.000486    0.996508   -0.000009
| 14> O         0.806851   -0.950504   -1.248989
| 15> O         0.806860   -0.950499    1.248988
| 16> H         1.924049    1.601942   -0.900186
| 17> H         2.935743    0.437716   -0.000011
| 18> H         1.924055    1.601946    0.900167
| 19> C        -2.487022   -0.541745    0.000009
| 20> H        -2.357374   -1.165317   -0.884030
| 21> H        -3.501870   -0.143172    0.000008
| 22> H        -2.357373   -1.165311    0.884052
| 23> H        -1.264397    1.670729   -1.211752
| 24> H        -1.264390    1.670735    1.211753
| 25> *
| 26>
| 27> $new_job
| 28> ! ri-mp2 aug-cc-pvtz aug-cc-pvtz/c tightscf
| 29> %pal nprocs 16 end
| 30> %maxcore 3800
| 31> %base "TZ_Si-S_31_AB"
| 32>
| 33> *xyz 0 1
| 34> S         0.711375   -0.226417   -0.000002
| 35> Si        -1.243638    0.828061    0.000002
| 36> C         2.000486    0.996508   -0.000009
| 37> O         0.806851   -0.950504   -1.248989
| 38> O         0.806860   -0.950499    1.248988
| 39> H         1.924049    1.601942   -0.900186
| 40> H         2.935743    0.437716   -0.000011
| 41> H         1.924055    1.601946    0.900167
| 42> C        -2.487022   -0.541745    0.000009
| 43> H        -2.357374   -1.165317   -0.884030
| 44> H        -3.501870   -0.143172    0.000008
| 45> H        -2.357373   -1.165311    0.884052
| 46> H        -1.264397    1.670729   -1.211752
| 47> H        -1.264390    1.670735    1.211753
| 48> *
| 49>
| 50> $new_job
| 51> ! ri-mp2 aug-cc-pvqz aug-cc-pvqz/c tightscf
| 52> %pal nprocs 16 end
| 53> %maxcore 3800
| 54> %base "QZ_Si-S_31_AB"
| 55>
| 56> *xyz 0 1
| 57> S         0.711375   -0.226417   -0.000002
| 58> Si        -1.243638    0.828061    0.000002
| 59> C         2.000486    0.996508   -0.000009
| 60> O         0.806851   -0.950504   -1.248989
| 61> O         0.806860   -0.950499    1.248988
| 62> H         1.924049    1.601942   -0.900186
| 63> H         2.935743    0.437716   -0.000011
| 64> H         1.924055    1.601946    0.900167
| 65> C        -2.487022   -0.541745    0.000009
| 66> H        -2.357374   -1.165317   -0.884030
| 67> H        -3.501870   -0.143172    0.000008
| 68> H        -2.357373   -1.165311    0.884052
| 69> H        -1.264397    1.670729   -1.211752
| 70> H        -1.264390    1.670735    1.211753
| 71> *
| 72>
| 73>
| 74>
| 75>
| 76>                          ****END OF INPUT****
 Total Charge           Charge          ....    0
 Multiplicity           Mult            ....    1
 Number of Electrons    NEL             ....   66
MP2 TOTAL ENERGY:     -917.499495576 Eh
FINAL SINGLE POINT ENERGY      -917.499495575702
MP2 TOTAL ENERGY:     -917.835753573 Eh
FINAL SINGLE POINT ENERGY      -917.835753572937

CARTESIAN COORDINATES (ANGSTROEM)
---------------------------------
  S      0.711375   -0.226417   -0.000002
  Si    -1.243638    0.828061    0.000002
  C      2.000486    0.996508   -0.000009
  O      0.806851   -0.950504   -1.248989
  O      0.806860   -0.950499    1.248988
  H      1.924049    1.601942   -0.900186
  H      2.935743    0.437716   -0.000011
  H      1.924055    1.601946    0.900167
  C     -2.487022   -0.541745    0.000009
  H     -2.357374   -1.165317   -0.884030
  H     -3.501870   -0.143172    0.000008
  H     -2.357373   -1.165311    0.884052
  H     -1.264397    1.670729   -1.211752
  H     -1.264390    1.670735    1.211753

 Multiplicity           Mult            ....    1
 Number of Electrons    NEL             ....   66
 Basis Dimension        Dim             ....  856

ORBITAL ENERGIES
----------------

  NO   OCC          E(Eh)            E(eV)
   0   2.0000     -92.145146     -2507.3969
   1   2.0000     -68.810238     -1872.4218
   2   2.0000     -20.531944      -558.7026
   3   2.0000     -20.531924      -558.7021
   4   2.0000     -11.267945      -306.6164
   5   2.0000     -11.229297      -305.5647
   6   2.0000      -9.119142      -248.1445
   7   2.0000      -6.804052      -185.1477
   8   2.0000      -6.803364      -185.1290
   9   2.0000      -6.803335      -185.1282
  10   2.0000      -6.159916      -167.6198
  11   2.0000      -4.266515      -116.0978
  12   2.0000      -4.265713      -116.0760
  13   2.0000      -4.265319      -116.0652
  14   2.0000      -1.438863       -39.1535
  15   2.0000      -1.328267       -36.1440
  16   2.0000      -1.039604       -28.2891
  17   2.0000      -0.976686       -26.5770
  18   2.0000      -0.849061       -23.1041
  19   2.0000      -0.732439       -19.9307
  20   2.0000      -0.660554       -17.9746
  21   2.0000      -0.647234       -17.6121
  22   2.0000      -0.646632       -17.5957
  23   2.0000      -0.597759       -16.2658
  24   2.0000      -0.594472       -16.1764
  25   2.0000      -0.588883       -16.0243
  26   2.0000      -0.571672       -15.5560
  27   2.0000      -0.513636       -13.9767
  28   2.0000      -0.490795       -13.3552
  29   2.0000      -0.490618       -13.3504
  30   2.0000      -0.483279       -13.1507
  31   2.0000      -0.462221       -12.5777
  32   2.0000      -0.401419       -10.9232
  33   0.0000       0.017641         0.4800
  34   0.0000       0.026901         0.7320
  35   0.0000       0.035985         0.9792
  36   0.0000       0.036983         1.0063
  37   0.0000       0.045991         1.2515

MULLIKEN ATOMIC CHARGES
-----------------------
   0 S :    2.123483
   1 Si:    1.183310
   2 C :   -1.094345
   3 O :   -1.274681
   4 O :   -1.274680
   5 H :    0.363303
   6 H :    0.360088
   7 H :    0.363302
   8 C :   -1.015812
   9 H :    0.245639
  10 H :    0.309245
  11 H :    0.245639
  12 H :   -0.267245
  13 H :   -0.267246
Sum of atomic charges:    0.0000000

LOEWDIN ATOMIC CHARGES
----------------------
   0 S :   -0.283180
   1 Si:    0.700976
   2 C :    0.756720
   3 O :    0.236019
   4 O :    0.236019
   5 H :   -0.338729
   6 H :   -0.338050
   7 H :   -0.338728
   8 C :    0.896485
   9 H :   -0.353509
  10 H :   -0.353094
  11 H :   -0.353509
  12 H :   -0.233710
  13 H :   -0.233709

  Mayer bond orders larger than 0.100000
B(  0-S ,  1-Si) :   0.5993 B(  0-S ,  2-C ) :   0.8785 B(  0-S ,  3-O ) :   0.9789
B(  0-S ,  4-O ) :   0.9789 B(  1-Si,  8-C ) :   0.9112 B(  1-Si, 12-H ) :   0.8082
B(  1-Si, 13-H ) :   0.8082 B(  2-C ,  5-H ) :   0.8731 B(  2-C ,  6-H ) :   0.8406
B(  2-C ,  7-H ) :   0.8731 B(  8-C ,  9-H ) :   0.9453 B(  8-C , 10-H ) :   0.9285
B(  8-C , 11-H ) :   0.9453

MP2 TOTAL ENERGY:     -917.943739948 Eh
FINAL SINGLE POINT ENERGY      -917.943739948432

DIPOLE MOMENT
-------------
                                X             Y             Z
Electronic contribution:      3.17818      -2.67475      -0.00001
Nuclear contribution   :     -3.87391       4.42612       0.00000
                        -----------------------------------------
Total Dipole Moment    :     -0.69572       1.75137      -0.00000
                        -----------------------------------------
Magnitude (a.u.)       :      1.88449
Magnitude (Debye)      :      4.79000

Rotational constants in cm-1:     0.125380     0.055774     0.051945
Rotational constants in MHz :  3758.802202  1672.067898  1557.266909

                             ****ORCA TERMINATED NORMALLY****
TOTAL RUN TIME: 0 days 1 hours 6 minutes 10 seconds 564 msec
