                         Program Version 5.0.4 -  RELEASE  -
|  1> ! ri-mp2 aug-cc-pvdz aug-cc-pvdz/c tightscf
|  2> %pal nprocs 16 end
|  3> %maxcore 3800
|  4> %base "DZ_S-Cl_65_A"
|  5> %scf
|  6> STABPerform true
|  7> STABRestartUHFifUnstable true
|  8> end
|  9>
| 10> *xyz 0 2
| 11> S         1.677760   -0.490354   -0.007853
| 12> C         0.053375    0.240046    0.331208
| 13> O        -0.846024   -0.547858   -0.369906
| 14> O         0.026487    1.577969   -0.038065
| 15> C        -2.188403   -0.418182    0.072697
| 16> H        -2.284751   -0.732161    1.115839
| 17> H        -2.788194   -1.070371   -0.556086
| 18> H        -2.536103    0.611008   -0.030376
| 19> H         0.295214    1.635848   -0.964582
| 20> H        -0.163852    0.229275    1.401194
| 21> *
| 22>
| 23> $new_job
| 24> ! ri-mp2 aug-cc-pvtz aug-cc-pvtz/c tightscf
| 25> %pal nprocs 16 end
| 26> %maxcore 3800
| 27> %base "TZ_S-Cl_65_A"
| 28>
| 29> *xyz 0 2
| 30> S         1.677760   -0.490354   -0.007853
| 31> C         0.053375    0.240046    0.331208
| 32> O        -0.846024   -0.547858   -0.369906
| 33> O         0.026487    1.577969   -0.038065
| 34> C        -2.188403   -0.418182    0.072697
| 35> H        -2.284751   -0.732161    1.115839
| 36> H        -2.788194   -1.070371   -0.556086
| 37> H        -2.536103    0.611008   -0.030376
| 38> H         0.295214    1.635848   -0.964582
| 39> H        -0.163852    0.229275    1.401194
| 40> *
| 41>
| 42> $new_job
| 43> ! ri-mp2 aug-cc-pvqz aug-cc-pvqz/c tightscf
| 44> %pal nprocs 16 end
| 45> %maxcore 3800
| 46> %base "QZ_S-Cl_65_A"
| 47>
| 48> *xyz 0 2
| 49> S         1.677760   -0.490354   -0.007853
| 50> C         0.053375    0.240046    0.331208
| 51> O        -0.846024   -0.547858   -0.369906
| 52> O         0.026487    1.577969   -0.038065
| 53> C        -2.188403   -0.418182    0.072697
| 54> H        -2.284751   -0.732161    1.115839
| 55> H        -2.788194   -1.070371   -0.556086
| 56> H        -2.536103    0.611008   -0.030376
| 57> H         0.295214    1.635848   -0.964582
| 58> H        -0.163852    0.229275    1.401194
| 59> *
| 60>
| 61>
| 62>
| 63>
| 64>                          ****END OF INPUT****
 Total Charge           Charge          ....    0
 Multiplicity           Mult            ....    2
 Number of Electrons    NEL             ....   49
MP2 TOTAL ENERGY:     -626.703109289 Eh
FINAL SINGLE POINT ENERGY      -626.703109289256
MP2 TOTAL ENERGY:     -626.951844661 Eh
FINAL SINGLE POINT ENERGY      -626.951844660975

CARTESIAN COORDINATES (ANGSTROEM)
---------------------------------
  S      1.677760   -0.490354   -0.007853
  C      0.053375    0.240046    0.331208
  O     -0.846024   -0.547858   -0.369906
  O      0.026487    1.577969   -0.038065
  C     -2.188403   -0.418182    0.072697
  H     -2.284751   -0.732161    1.115839
  H     -2.788194   -1.070371   -0.556086
  H     -2.536103    0.611008   -0.030376
  H      0.295214    1.635848   -0.964582
  H     -0.163852    0.229275    1.401194

 Multiplicity           Mult            ....    2
 Number of Electrons    NEL             ....   49
 Basis Dimension        Dim             ....  634

ORBITAL ENERGIES
----------------
                 SPIN UP ORBITALS
  NO   OCC          E(Eh)            E(eV)
   0   1.0000     -91.976456     -2502.8066
   1   1.0000     -20.583704      -560.1111
   2   1.0000     -20.583326      -560.1008
   3   1.0000     -11.376517      -309.5708
   4   1.0000     -11.285188      -307.0856
   5   1.0000      -8.979150      -244.3351
   6   1.0000      -6.675205      -181.6416
   7   1.0000      -6.656367      -181.1290
   8   1.0000      -6.654934      -181.0900
   9   1.0000      -1.444876       -39.3171
  10   1.0000      -1.367834       -37.2207
  11   1.0000      -1.037792       -28.2398
  12   1.0000      -0.941137       -25.6096
  13   1.0000      -0.865105       -23.5407
  14   1.0000      -0.724947       -19.7268
  15   1.0000      -0.701379       -19.0855
  16   1.0000      -0.660752       -17.9800
  17   1.0000      -0.619788       -16.8653
  18   1.0000      -0.604018       -16.4362
  19   1.0000      -0.562155       -15.2970
  20   1.0000      -0.503391       -13.6980
  21   1.0000      -0.475864       -12.9489
  22   1.0000      -0.460438       -12.5292
  23   1.0000      -0.444762       -12.1026
  24   1.0000      -0.386849       -10.5267
  25   0.0000       0.025945         0.7060
  26   0.0000       0.035446         0.9645
  27   0.0000       0.038277         1.0416
  28   0.0000       0.044288         1.2051
  29   0.0000       0.055044         1.4978

                 SPIN DOWN ORBITALS
  NO   OCC          E(Eh)            E(eV)
   0   1.0000     -91.967154     -2502.5535
   1   1.0000     -20.582986      -560.0915
   2   1.0000     -20.582115      -560.0678
   3   1.0000     -11.377640      -309.6013
   4   1.0000     -11.285058      -307.0820
   5   1.0000      -8.968893      -244.0560
   6   1.0000      -6.651196      -180.9882
   7   1.0000      -6.649528      -180.9429
   8   1.0000      -6.633319      -180.5018
   9   1.0000      -1.442540       -39.2535
  10   1.0000      -1.365298       -37.1517
  11   1.0000      -1.006616       -27.3914
  12   1.0000      -0.914789       -24.8927
  13   1.0000      -0.835232       -22.7278
  14   1.0000      -0.719953       -19.5909
  15   1.0000      -0.700248       -19.0547
  16   1.0000      -0.647637       -17.6231
  17   1.0000      -0.611656       -16.6440
  18   1.0000      -0.601998       -16.3812
  19   1.0000      -0.558464       -15.1966
  20   1.0000      -0.501257       -13.6399
  21   1.0000      -0.466620       -12.6974
  22   1.0000      -0.450613       -12.2618
  23   1.0000      -0.366862        -9.9828
  24   0.0000       0.013629         0.3709
  25   0.0000       0.026024         0.7082
  26   0.0000       0.035604         0.9688
  27   0.0000       0.039711         1.0806
  28   0.0000       0.044717         1.2168

MULLIKEN ATOMIC CHARGES AND SPIN POPULATIONS
--------------------------------------------
   0 S :   -0.130275    1.113259
   1 C :    0.620050   -0.118342
   2 O :   -0.729343   -0.004585
   3 O :   -0.795530    0.006489
   4 C :   -0.591555    0.002020
   5 H :    0.273723   -0.000661
   6 H :    0.390208   -0.000873
   7 H :    0.284708   -0.000413
   8 H :    0.373017   -0.002384
   9 H :    0.304997    0.005489
Sum of atomic charges         :   -0.0000000

LOEWDIN ATOMIC CHARGES AND SPIN POPULATIONS
-------------------------------------------
   0 S :    1.017724    0.758925
   1 C :   -1.251674    0.180251
   2 O :    0.751814    0.029611
   3 O :    1.183780    0.016708
   4 C :    0.567870    0.003364
   5 H :   -0.312495    0.000119
   6 H :   -0.324936    0.000408
   7 H :   -0.313885    0.000553
   8 H :   -0.843708    0.003497
   9 H :   -0.474491    0.006565

  Mayer bond orders larger than 0.100000
B(  0-S ,  1-C ) :   0.7921 B(  1-C ,  2-O ) :   0.7880 B(  1-C ,  3-O ) :   0.6589
B(  1-C ,  9-H ) :   0.8573 B(  2-O ,  4-C ) :   0.8512 B(  3-O ,  8-H ) :   0.8265
B(  4-C ,  5-H ) :   0.9134 B(  4-C ,  6-H ) :   0.8610 B(  4-C ,  7-H ) :   0.9120

MP2 TOTAL ENERGY:     -627.032145670 Eh
FINAL SINGLE POINT ENERGY      -627.032145669551

DIPOLE MOMENT
-------------
                                X             Y             Z
Electronic contribution:      6.77276      -0.64336      -0.87576
Nuclear contribution   :     -7.45373       0.69668       0.94852
                        -----------------------------------------
Total Dipole Moment    :     -0.68098       0.05333       0.07276
                        -----------------------------------------
Magnitude (a.u.)       :      0.68693
Magnitude (Debye)      :      1.74602

Rotational constants in cm-1:     0.248231     0.090396     0.070720
Rotational constants in MHz :  7441.764840  2710.012601  2120.137816

                             ****ORCA TERMINATED NORMALLY****
TOTAL RUN TIME: 0 days 1 hours 2 minutes 18 seconds 995 msec
