                         Program Version 5.0.4 -  RELEASE  -
|  1> ! ri-mp2 aug-cc-pvdz aug-cc-pvdz/c tightscf
|  2> %pal nprocs 16 end
|  3> %maxcore 3800
|  4> %base "DZ_B-Si_11_AB"
|  5>
|  6> *xyz 0 1
|  7> C        -2.052822   -1.525932    0.107875
|  8> C        -3.353286   -1.125447    0.187189
|  9> C        -3.676730    0.245025    0.152037
| 10> C        -2.692710    1.181780    0.038443
| 11> C        -1.336897    0.796857   -0.045925
| 12> C        -1.011468   -0.578957   -0.010606
| 13> H        -1.799085   -2.578356    0.134138
| 14> H        -4.143452   -1.858868    0.277349
| 15> H        -4.712524    0.550974    0.215682
| 16> H        -2.938299    2.236057    0.011192
| 17> C         0.346587   -0.962978   -0.096021
| 18> C         1.354430   -0.043067   -0.211074
| 19> C        -0.288634    1.738329   -0.163232
| 20> C         1.007894    1.333087   -0.240003
| 21> H        -0.535758    2.792520   -0.188931
| 22> H         1.789798    2.078488   -0.323939
| 23> B         4.336141    0.326060    1.013483
| 24> H         0.574895   -2.022639   -0.069458
| 25> Si         3.141084   -0.582875   -0.313404
| 26> H         4.103722    1.429503    1.398729
| 27> H         5.335404   -0.186636    1.409785
| 28> H         3.179454   -2.061629   -0.219712
| 29> H         3.711787   -0.201652   -1.636686
| 30> *
| 31>
| 32> $new_job
| 33> ! ri-mp2 aug-cc-pvtz aug-cc-pvtz/c tightscf
| 34> %pal nprocs 16 end
| 35> %maxcore 3800
| 36> %base "TZ_B-Si_11_AB"
| 37>
| 38> *xyz 0 1
| 39> C        -2.052822   -1.525932    0.107875
| 40> C        -3.353286   -1.125447    0.187189
| 41> C        -3.676730    0.245025    0.152037
| 42> C        -2.692710    1.181780    0.038443
| 43> C        -1.336897    0.796857   -0.045925
| 44> C        -1.011468   -0.578957   -0.010606
| 45> H        -1.799085   -2.578356    0.134138
| 46> H        -4.143452   -1.858868    0.277349
| 47> H        -4.712524    0.550974    0.215682
| 48> H        -2.938299    2.236057    0.011192
| 49> C         0.346587   -0.962978   -0.096021
| 50> C         1.354430   -0.043067   -0.211074
| 51> C        -0.288634    1.738329   -0.163232
| 52> C         1.007894    1.333087   -0.240003
| 53> H        -0.535758    2.792520   -0.188931
| 54> H         1.789798    2.078488   -0.323939
| 55> B         4.336141    0.326060    1.013483
| 56> H         0.574895   -2.022639   -0.069458
| 57> Si         3.141084   -0.582875   -0.313404
| 58> H         4.103722    1.429503    1.398729
| 59> H         5.335404   -0.186636    1.409785
| 60> H         3.179454   -2.061629   -0.219712
| 61> H         3.711787   -0.201652   -1.636686
| 62> *
| 63>
| 64> $new_job
| 65> ! ri-mp2 aug-cc-pvqz aug-cc-pvqz/c tightscf
| 66> %pal nprocs 16 end
| 67> %maxcore 3800
| 68> %base "QZ_B-Si_11_AB"
| 69>
| 70> *xyz 0 1
| 71> C        -2.052822   -1.525932    0.107875
| 72> C        -3.353286   -1.125447    0.187189
| 73> C        -3.676730    0.245025    0.152037
| 74> C        -2.692710    1.181780    0.038443
| 75> C        -1.336897    0.796857   -0.045925
| 76> C        -1.011468   -0.578957   -0.010606
| 77> H        -1.799085   -2.578356    0.134138
| 78> H        -4.143452   -1.858868    0.277349
| 79> H        -4.712524    0.550974    0.215682
| 80> H        -2.938299    2.236057    0.011192
| 81> C         0.346587   -0.962978   -0.096021
| 82> C         1.354430   -0.043067   -0.211074
| 83> C        -0.288634    1.738329   -0.163232
| 84> C         1.007894    1.333087   -0.240003
| 85> H        -0.535758    2.792520   -0.188931
| 86> H         1.789798    2.078488   -0.323939
| 87> B         4.336141    0.326060    1.013483
| 88> H         0.574895   -2.022639   -0.069458
| 89> Si         3.141084   -0.582875   -0.313404
| 90> H         4.103722    1.429503    1.398729
| 91> H         5.335404   -0.186636    1.409785
| 92> H         3.179454   -2.061629   -0.219712
| 93> H         3.711787   -0.201652   -1.636686
| 94> *
| 95>
| 96>
| 97>
| 98>
| 99>                          ****END OF INPUT****
 Total Charge           Charge          ....    0
 Multiplicity           Mult            ....    1
 Number of Electrons    NEL             ....   90
MP2 TOTAL ENERGY:     -700.249364432 Eh
FINAL SINGLE POINT ENERGY      -700.249364432166
MP2 TOTAL ENERGY:     -700.641725443 Eh
FINAL SINGLE POINT ENERGY      -700.641725443081

CARTESIAN COORDINATES (ANGSTROEM)
---------------------------------
  C     -2.052822   -1.525932    0.107875
  C     -3.353286   -1.125447    0.187189
  C     -3.676730    0.245025    0.152037
  C     -2.692710    1.181780    0.038443
  C     -1.336897    0.796857   -0.045925
  C     -1.011468   -0.578957   -0.010606
  H     -1.799085   -2.578356    0.134138
  H     -4.143452   -1.858868    0.277349
  H     -4.712524    0.550974    0.215682
  H     -2.938299    2.236057    0.011192
  C      0.346587   -0.962978   -0.096021
  C      1.354430   -0.043067   -0.211074
  C     -0.288634    1.738329   -0.163232
  C      1.007894    1.333087   -0.240003
  H     -0.535758    2.792520   -0.188931
  H      1.789798    2.078488   -0.323939
  B      4.336141    0.326060    1.013483
  H      0.574895   -2.022639   -0.069458
  Si     3.141084   -0.582875   -0.313404
  H      4.103722    1.429503    1.398729
  H      5.335404   -0.186636    1.409785
  H      3.179454   -2.061629   -0.219712
  H      3.711787   -0.201652   -1.636686

 Multiplicity           Mult            ....    1
 Number of Electrons    NEL             ....   90
 Basis Dimension        Dim             .... 1470

ORBITAL ENERGIES
----------------

  NO   OCC          E(Eh)            E(eV)
   0   2.0000     -68.753339     -1870.8735
   1   2.0000     -11.243343      -305.9469
   2   2.0000     -11.241047      -305.8844
   3   2.0000     -11.239142      -305.8326
   4   2.0000     -11.236782      -305.7684
   5   2.0000     -11.236403      -305.7581
   6   2.0000     -11.236355      -305.7568
   7   2.0000     -11.234961      -305.7188
   8   2.0000     -11.234245      -305.6994
   9   2.0000     -11.234043      -305.6938
  10   2.0000     -11.221922      -305.3640
  11   2.0000      -7.608784      -207.0455
  12   2.0000      -6.104802      -166.1201
  13   2.0000      -4.211261      -114.5942
  14   2.0000      -4.210982      -114.5866
  15   2.0000      -4.210610      -114.5765
  16   2.0000      -1.183687       -32.2097
  17   2.0000      -1.114788       -30.3349
  18   2.0000      -1.055403       -28.7190
  19   2.0000      -1.012278       -27.5455
  20   2.0000      -0.986116       -26.8336
  21   2.0000      -0.857304       -23.3284
  22   2.0000      -0.840910       -22.8823
  23   2.0000      -0.817193       -22.2369
  24   2.0000      -0.745688       -20.2912
  25   2.0000      -0.706616       -19.2280
  26   2.0000      -0.698426       -19.0051
  27   2.0000      -0.674386       -18.3510
  28   2.0000      -0.637342       -17.3430
  29   2.0000      -0.625312       -17.0156
  30   2.0000      -0.604878       -16.4596
  31   2.0000      -0.589139       -16.0313
  32   2.0000      -0.583348       -15.8737
  33   2.0000      -0.543177       -14.7806
  34   2.0000      -0.540921       -14.7192
  35   2.0000      -0.514409       -13.9978
  36   2.0000      -0.502784       -13.6814
  37   2.0000      -0.481409       -13.0998
  38   2.0000      -0.477481       -12.9929
  39   2.0000      -0.455120       -12.3845
  40   2.0000      -0.445250       -12.1159
  41   2.0000      -0.412844       -11.2340
  42   2.0000      -0.388468       -10.5707
  43   2.0000      -0.321913        -8.7597
  44   2.0000      -0.294509        -8.0140
  45   0.0000       0.021117         0.5746
  46   0.0000       0.025503         0.6940
  47   0.0000       0.026118         0.7107
  48   0.0000       0.028335         0.7710
  49   0.0000       0.033666         0.9161

MULLIKEN ATOMIC CHARGES
-----------------------
   0 C :   -0.626486
   1 C :   -0.430730
   2 C :   -0.411446
   3 C :   -0.516495
   4 C :    0.820120
   5 C :    0.976006
   6 H :    0.169014
   7 H :    0.269603
   8 H :    0.265722
   9 H :    0.185730
  10 C :   -0.445771
  11 C :   -0.079689
  12 C :   -0.441216
  13 C :   -0.549649
  14 H :    0.145592
  15 H :    0.257103
  16 B :    0.246210
  17 H :    0.180219
  18 Si:    0.877846
  19 H :   -0.144241
  20 H :   -0.258552
  21 H :   -0.292708
  22 H :   -0.196183
Sum of atomic charges:   -0.0000000

LOEWDIN ATOMIC CHARGES
----------------------
   0 C :    0.357679
   1 C :    0.352127
   2 C :    0.351345
   3 C :    0.356031
   4 C :   -0.112895
   5 C :   -0.107954
   6 H :   -0.316548
   7 H :   -0.322242
   8 H :   -0.321296
   9 H :   -0.318339
  10 C :    0.272803
  11 C :   -0.103337
  12 C :    0.365070
  13 C :    0.272580
  14 H :   -0.315249
  15 H :   -0.335423
  16 B :    0.379784
  17 H :   -0.345693
  18 Si:    0.850188
  19 H :   -0.247178
  20 H :   -0.256940
  21 H :   -0.228971
  22 H :   -0.225541

  Mayer bond orders larger than 0.100000
B(  0-C ,  1-C ) :   1.3625 B(  0-C ,  3-C ) :   0.1767 B(  0-C ,  4-C ) :  -0.3268
B(  0-C ,  5-C ) :   0.7414 B(  0-C ,  6-H ) :   1.1761 B(  0-C ,  7-H ) :  -0.1641
B(  0-C , 10-C ) :  -0.3890 B(  1-C ,  2-C ) :   1.1288 B(  1-C ,  5-C ) :  -0.3249
B(  1-C ,  7-H ) :   1.1141 B(  2-C ,  3-C ) :   1.3218 B(  2-C ,  4-C ) :  -0.3318
B(  2-C ,  8-H ) :   1.1332 B(  3-C ,  4-C ) :   0.6425 B(  3-C ,  5-C ) :  -0.3381
B(  3-C ,  8-H ) :  -0.2003 B(  3-C ,  9-H ) :   1.1146 B(  4-C ,  5-C ) :   1.0355
B(  4-C ,  9-H ) :  -0.1744 B(  4-C , 10-C ) :  -0.1479 B(  4-C , 12-C ) :   0.7704
B(  4-C , 13-C ) :  -0.2244 B(  4-C , 14-H ) :  -0.1203 B(  5-C ,  6-H ) :  -0.1936
B(  5-C , 10-C ) :   0.6207 B(  5-C , 11-C ) :  -0.5892 B(  5-C , 12-C ) :  -0.3049
B(  5-C , 17-H ) :  -0.2109 B( 10-C , 11-C ) :   0.8035 B( 10-C , 12-C ) :   0.1809
B( 10-C , 13-C ) :   0.2062 B( 10-C , 17-H ) :   1.0229 B( 10-C , 18-Si) :  -0.3357
B( 11-C , 12-C ) :  -0.2092 B( 11-C , 13-C ) :   0.9473 B( 11-C , 15-H ) :  -0.1219
B( 11-C , 16-B ) :  -0.2305 B( 11-C , 17-H ) :  -0.1437 B( 11-C , 18-Si) :   1.0172
B( 11-C , 21-H ) :  -0.1786 B( 12-C , 13-C ) :   1.1876 B( 12-C , 14-H ) :   1.1890
B( 12-C , 15-H ) :  -0.1647 B( 13-C , 14-H ) :  -0.2319 B( 13-C , 15-H ) :   1.0271
B( 13-C , 16-B ) :   0.1001 B( 16-B , 18-Si) :   0.8544 B( 16-B , 19-H ) :   0.8998
B( 16-B , 20-H ) :   0.8985 B( 18-Si, 21-H ) :   0.6370 B( 18-Si, 22-H ) :   0.7334

MP2 TOTAL ENERGY:     -700.766374303 Eh
FINAL SINGLE POINT ENERGY      -700.766374303128

DIPOLE MOMENT
-------------
                                X             Y             Z
Electronic contribution:     -1.15106       0.13909      -0.05949
Nuclear contribution   :      0.87565      -0.04928       0.20919
                        -----------------------------------------
Total Dipole Moment    :     -0.27541       0.08981       0.14969
                        -----------------------------------------
Magnitude (a.u.)       :      0.32608
Magnitude (Debye)      :      0.82882

Rotational constants in cm-1:     0.078949     0.014858     0.012955
Rotational constants in MHz :  2366.837328   445.429740   388.369728

                             ****ORCA TERMINATED NORMALLY****
TOTAL RUN TIME: 0 days 1 hours 30 minutes 6 seconds 816 msec
