                         Program Version 5.0.4 -  RELEASE  -
|  1> ! ri-mp2 aug-cc-pvdz aug-cc-pvdz/c tightscf
|  2> %pal nprocs 16 end
|  3> %maxcore 3800
|  4> %base "DZ_Si-Cl_4_A"
|  5> %scf
|  6> STABPerform true
|  7> STABRestartUHFifUnstable true
|  8> end
|  9>
| 10> *xyz 0 2
| 11> Si        -3.060195   -0.115989    0.000000
| 12> C        -1.372039    0.705849   -0.000001
| 13> C        -0.203857   -0.284357    0.000000
| 14> H        -1.303938    1.359884    0.873508
| 15> H        -1.303938    1.359882   -0.873511
| 16> C         1.156357    0.399835   -0.000001
| 17> H        -0.276004   -0.938721   -0.873632
| 18> H        -0.276004   -0.938719    0.873634
| 19> C         2.322358   -0.576994    0.000001
| 20> H         1.230256    1.053967    0.874845
| 21> H         1.230256    1.053965   -0.874847
| 22> C         3.676479    0.114775    0.000000
| 23> H         2.244013   -1.229998   -0.874065
| 24> H         2.244013   -1.229996    0.874068
| 25> H         3.792840    0.749489   -0.880546
| 26> H         4.494491   -0.606178    0.000001
| 27> H         3.792840    0.749491    0.880544
| 28> H        -3.250945   -0.956928    1.209375
| 29> H        -3.250944   -0.956934   -1.209371
| 30> *
| 31>
| 32> $new_job
| 33> ! ri-mp2 aug-cc-pvtz aug-cc-pvtz/c tightscf
| 34> %pal nprocs 16 end
| 35> %maxcore 3800
| 36> %base "TZ_Si-Cl_4_A"
| 37>
| 38> *xyz 0 2
| 39> Si        -3.060195   -0.115989    0.000000
| 40> C        -1.372039    0.705849   -0.000001
| 41> C        -0.203857   -0.284357    0.000000
| 42> H        -1.303938    1.359884    0.873508
| 43> H        -1.303938    1.359882   -0.873511
| 44> C         1.156357    0.399835   -0.000001
| 45> H        -0.276004   -0.938721   -0.873632
| 46> H        -0.276004   -0.938719    0.873634
| 47> C         2.322358   -0.576994    0.000001
| 48> H         1.230256    1.053967    0.874845
| 49> H         1.230256    1.053965   -0.874847
| 50> C         3.676479    0.114775    0.000000
| 51> H         2.244013   -1.229998   -0.874065
| 52> H         2.244013   -1.229996    0.874068
| 53> H         3.792840    0.749489   -0.880546
| 54> H         4.494491   -0.606178    0.000001
| 55> H         3.792840    0.749491    0.880544
| 56> H        -3.250945   -0.956928    1.209375
| 57> H        -3.250944   -0.956934   -1.209371
| 58> *
| 59>
| 60> $new_job
| 61> ! ri-mp2 aug-cc-pvqz aug-cc-pvqz/c tightscf
| 62> %pal nprocs 16 end
| 63> %maxcore 3800
| 64> %base "QZ_Si-Cl_4_A"
| 65>
| 66> *xyz 0 2
| 67> Si        -3.060195   -0.115989    0.000000
| 68> C        -1.372039    0.705849   -0.000001
| 69> C        -0.203857   -0.284357    0.000000
| 70> H        -1.303938    1.359884    0.873508
| 71> H        -1.303938    1.359882   -0.873511
| 72> C         1.156357    0.399835   -0.000001
| 73> H        -0.276004   -0.938721   -0.873632
| 74> H        -0.276004   -0.938719    0.873634
| 75> C         2.322358   -0.576994    0.000001
| 76> H         1.230256    1.053967    0.874845
| 77> H         1.230256    1.053965   -0.874847
| 78> C         3.676479    0.114775    0.000000
| 79> H         2.244013   -1.229998   -0.874065
| 80> H         2.244013   -1.229996    0.874068
| 81> H         3.792840    0.749489   -0.880546
| 82> H         4.494491   -0.606178    0.000001
| 83> H         3.792840    0.749491    0.880544
| 84> H        -3.250945   -0.956928    1.209375
| 85> H        -3.250944   -0.956934   -1.209371
| 86> *
| 87>
| 88>
| 89>
| 90>
| 91>                          ****END OF INPUT****
 Total Charge           Charge          ....    0
 Multiplicity           Mult            ....    2
 Number of Electrons    NEL             ....   57
MP2 TOTAL ENERGY:     -486.668142653 Eh
FINAL SINGLE POINT ENERGY      -486.668142652618
MP2 TOTAL ENERGY:     -486.894751483 Eh
FINAL SINGLE POINT ENERGY      -486.894751482789

CARTESIAN COORDINATES (ANGSTROEM)
---------------------------------
  Si    -3.060195   -0.115989    0.000000
  C     -1.372039    0.705849   -0.000001
  C     -0.203857   -0.284357    0.000000
  H     -1.303938    1.359884    0.873508
  H     -1.303938    1.359882   -0.873511
  C      1.156357    0.399835   -0.000001
  H     -0.276004   -0.938721   -0.873632
  H     -0.276004   -0.938719    0.873634
  C      2.322358   -0.576994    0.000001
  H      1.230256    1.053967    0.874845
  H      1.230256    1.053965   -0.874847
  C      3.676479    0.114775    0.000000
  H      2.244013   -1.229998   -0.874065
  H      2.244013   -1.229996    0.874068
  H      3.792840    0.749489   -0.880546
  H      4.494491   -0.606178    0.000001
  H      3.792840    0.749491    0.880544
  H     -3.250945   -0.956928    1.209375
  H     -3.250944   -0.956934   -1.209371

 Multiplicity           Mult            ....    2
 Number of Electrons    NEL             ....   57
 Basis Dimension        Dim             .... 1082

ORBITAL ENERGIES
----------------
                 SPIN UP ORBITALS
  NO   OCC          E(Eh)            E(eV)
   0   1.0000     -68.768552     -1871.2874
   1   1.0000     -11.223708      -305.4126
   2   1.0000     -11.215682      -305.1942
   3   1.0000     -11.214766      -305.1693
   4   1.0000     -11.212568      -305.1095
   5   1.0000     -11.209652      -305.0301
   6   1.0000      -6.119159      -166.5108
   7   1.0000      -4.231932      -115.1567
   8   1.0000      -4.222092      -114.8890
   9   1.0000      -4.221733      -114.8792
  10   1.0000      -1.087481       -29.5919
  11   1.0000      -1.021656       -27.8007
  12   1.0000      -0.925110       -25.1735
  13   1.0000      -0.827430       -22.5155
  14   1.0000      -0.791551       -21.5392
  15   1.0000      -0.693248       -18.8642
  16   1.0000      -0.654241       -17.8028
  17   1.0000      -0.602473       -16.3941
  18   1.0000      -0.589565       -16.0429
  19   1.0000      -0.564977       -15.3738
  20   1.0000      -0.537256       -14.6195
  21   1.0000      -0.516109       -14.0440
  22   1.0000      -0.491548       -13.3757
  23   1.0000      -0.486507       -13.2385
  24   1.0000      -0.469593       -12.7783
  25   1.0000      -0.466642       -12.6980
  26   1.0000      -0.464238       -12.6326
  27   1.0000      -0.428233       -11.6528
  28   1.0000      -0.318124        -8.6566
  29   0.0000       0.024446         0.6652
  30   0.0000       0.028950         0.7878
  31   0.0000       0.031871         0.8673
  32   0.0000       0.032681         0.8893
  33   0.0000       0.041306         1.1240

                 SPIN DOWN ORBITALS
  NO   OCC          E(Eh)            E(eV)
   0   1.0000     -68.762906     -1871.1338
   1   1.0000     -11.222751      -305.3866
   2   1.0000     -11.215617      -305.1924
   3   1.0000     -11.214486      -305.1617
   4   1.0000     -11.212053      -305.0955
   5   1.0000     -11.209627      -305.0295
   6   1.0000      -6.110510      -166.2754
   7   1.0000      -4.218312      -114.7861
   8   1.0000      -4.217962      -114.7766
   9   1.0000      -4.209646      -114.5503
  10   1.0000      -1.085972       -29.5508
  11   1.0000      -1.019414       -27.7397
  12   1.0000      -0.922388       -25.0995
  13   1.0000      -0.824406       -22.4332
  14   1.0000      -0.790944       -21.5227
  15   1.0000      -0.656156       -17.8549
  16   1.0000      -0.653742       -17.7892
  17   1.0000      -0.601712       -16.3734
  18   1.0000      -0.586298       -15.9540
  19   1.0000      -0.561143       -15.2695
  20   1.0000      -0.536241       -14.5919
  21   1.0000      -0.513302       -13.9677
  22   1.0000      -0.488031       -13.2800
  23   1.0000      -0.485044       -13.1987
  24   1.0000      -0.465429       -12.6650
  25   1.0000      -0.464204       -12.6316
  26   1.0000      -0.462857       -12.5950
  27   1.0000      -0.419408       -11.4127
  28   0.0000       0.023796         0.6475
  29   0.0000       0.026650         0.7252
  30   0.0000       0.031356         0.8532
  31   0.0000       0.032759         0.8914
  32   0.0000       0.038173         1.0387

MULLIKEN ATOMIC CHARGES AND SPIN POPULATIONS
--------------------------------------------
   0 Si:    0.450694    0.996329
   1 C :   -0.641231   -0.051014
   2 C :   -0.353278    0.029809
   3 H :    0.226287    0.002939
   4 H :    0.226248    0.002949
   5 C :   -0.288871    0.007373
   6 H :    0.261210    0.000507
   7 H :    0.261276    0.000499
   8 C :   -0.465071   -0.000701
   9 H :    0.239024   -0.001105
  10 H :    0.239184   -0.001107
  11 C :   -0.897343    0.000697
  12 H :    0.229648   -0.000326
  13 H :    0.229576   -0.000321
  14 H :    0.226899    0.000038
  15 H :    0.267148    0.000195
  16 H :    0.226938    0.000039
  17 H :   -0.219173    0.006601
  18 H :   -0.219164    0.006600
Sum of atomic charges         :    0.0000000

LOEWDIN ATOMIC CHARGES AND SPIN POPULATIONS
-------------------------------------------
   0 Si:    1.106251    0.540651
   1 C :    0.419851    0.136432
   2 C :    0.420131    0.020892
   3 H :   -0.357760    0.014122
   4 H :   -0.357760    0.014122
   5 C :    0.498483    0.004626
   6 H :   -0.284332    0.006553
   7 H :   -0.284331    0.006553
   8 C :    0.503861    0.001077
   9 H :   -0.267872    0.000381
  10 H :   -0.267873    0.000381
  11 C :    0.925510    0.000363
  12 H :   -0.270805    0.000067
  13 H :   -0.270805    0.000067
  14 H :   -0.284237    0.000067
  15 H :   -0.283184    0.000148
  16 H :   -0.284238    0.000067
  17 H :   -0.330445    0.126715
  18 H :   -0.330445    0.126715

  Mayer bond orders larger than 0.100000
B(  0-Si,  1-C ) :   0.9191 B(  0-Si,  2-C ) :  -0.1283 B(  0-Si, 17-H ) :   0.8447
B(  0-Si, 18-H ) :   0.8447 B(  1-C ,  2-C ) :   0.9455 B(  1-C ,  3-H ) :   0.9208
B(  1-C ,  4-H ) :   0.9208 B(  2-C ,  5-C ) :   0.9801 B(  2-C ,  6-H ) :   0.8387
B(  2-C ,  7-H ) :   0.8388 B(  5-C ,  8-C ) :   0.9061 B(  5-C ,  9-H ) :   0.8674
B(  5-C , 10-H ) :   0.8674 B(  8-C , 11-C ) :   1.0129 B(  8-C , 12-H ) :   0.8811
B(  8-C , 13-H ) :   0.8812 B(  8-C , 15-H ) :  -0.1007 B( 11-C , 14-H ) :   0.9548
B( 11-C , 15-H ) :   1.0213 B( 11-C , 16-H ) :   0.9548

MP2 TOTAL ENERGY:     -486.962879542 Eh
FINAL SINGLE POINT ENERGY      -486.962879541608

DIPOLE MOMENT
-------------
                                X             Y             Z
Electronic contribution:     -9.72518       0.66903      -0.00000
Nuclear contribution   :     10.10045      -0.55379       0.00000
                        -----------------------------------------
Total Dipole Moment    :      0.37526       0.11524      -0.00000
                        -----------------------------------------
Magnitude (a.u.)       :      0.39256
Magnitude (Debye)      :      0.99781

Rotational constants in cm-1:     0.441233     0.026905     0.026200
Rotational constants in MHz : 13227.842630   806.582845   785.445005

                             ****ORCA TERMINATED NORMALLY****
TOTAL RUN TIME: 0 days 5 hours 46 minutes 52 seconds 484 msec
