                         Program Version 5.0.4 -  RELEASE  -
|  1> ! ri-mp2 aug-cc-pvdz aug-cc-pvdz/c tightscf
|  2> %pal nprocs 16 end
|  3> %maxcore 3800
|  4> %base "DZ_Si-Si_123_AB"
|  5> %scf
|  6> STABPerform true
|  7> STABRestartUHFifUnstable true
|  8> end
|  9>
| 10> *xyz 0 1
| 11> Si        -2.490729   -0.877728   -0.000005
| 12> Si        -1.154361    1.039399   -0.000011
| 13> H        -3.916046   -0.479310    0.000037
| 14> H        -2.207471   -1.683530    1.206788
| 15> H        -2.207533   -1.683494   -1.206837
| 16> N         0.500700    0.567804   -0.000034
| 17> H        -1.383680    1.866428    1.202165
| 18> H        -1.383708    1.866436   -1.202176
| 19> C         1.600620    0.134286   -0.000004
| 20> S         3.063817   -0.433142    0.000032
| 21> *
| 22>
| 23> $new_job
| 24> ! ri-mp2 aug-cc-pvtz aug-cc-pvtz/c tightscf
| 25> %pal nprocs 16 end
| 26> %maxcore 3800
| 27> %base "TZ_Si-Si_123_AB"
| 28>
| 29> *xyz 0 1
| 30> Si        -2.490729   -0.877728   -0.000005
| 31> Si        -1.154361    1.039399   -0.000011
| 32> H        -3.916046   -0.479310    0.000037
| 33> H        -2.207471   -1.683530    1.206788
| 34> H        -2.207533   -1.683494   -1.206837
| 35> N         0.500700    0.567804   -0.000034
| 36> H        -1.383680    1.866428    1.202165
| 37> H        -1.383708    1.866436   -1.202176
| 38> C         1.600620    0.134286   -0.000004
| 39> S         3.063817   -0.433142    0.000032
| 40> *
| 41>
| 42> $new_job
| 43> ! ri-mp2 aug-cc-pvqz aug-cc-pvqz/c tightscf
| 44> %pal nprocs 16 end
| 45> %maxcore 3800
| 46> %base "QZ_Si-Si_123_AB"
| 47>
| 48> *xyz 0 1
| 49> Si        -2.490729   -0.877728   -0.000005
| 50> Si        -1.154361    1.039399   -0.000011
| 51> H        -3.916046   -0.479310    0.000037
| 52> H        -2.207471   -1.683530    1.206788
| 53> H        -2.207533   -1.683494   -1.206837
| 54> N         0.500700    0.567804   -0.000034
| 55> H        -1.383680    1.866428    1.202165
| 56> H        -1.383708    1.866436   -1.202176
| 57> C         1.600620    0.134286   -0.000004
| 58> S         3.063817   -0.433142    0.000032
| 59> *
| 60>
| 61>
| 62>
| 63>
| 64>                          ****END OF INPUT****
 Total Charge           Charge          ....    0
 Multiplicity           Mult            ....    1
 Number of Electrons    NEL             ....   62
MP2 TOTAL ENERGY:    -1071.296549845 Eh
FINAL SINGLE POINT ENERGY     -1071.296549845039
MP2 TOTAL ENERGY:    -1071.501243090 Eh
FINAL SINGLE POINT ENERGY     -1071.501243090459

CARTESIAN COORDINATES (ANGSTROEM)
---------------------------------
  Si    -2.490729   -0.877728   -0.000005
  Si    -1.154361    1.039399   -0.000011
  H     -3.916046   -0.479310    0.000037
  H     -2.207471   -1.683530    1.206788
  H     -2.207533   -1.683494   -1.206837
  N      0.500700    0.567804   -0.000034
  H     -1.383680    1.866428    1.202165
  H     -1.383708    1.866436   -1.202176
  C      1.600620    0.134286   -0.000004
  S      3.063817   -0.433142    0.000032

 Multiplicity           Mult            ....    1
 Number of Electrons    NEL             ....   62
 Basis Dimension        Dim             ....  642

ORBITAL ENERGIES
----------------

  NO   OCC          E(Eh)            E(eV)
   0   2.0000     -91.949279     -2502.0671
   1   2.0000     -68.815829     -1872.5739
   2   2.0000     -68.781426     -1871.6378
   3   2.0000     -15.593167      -424.3116
   4   2.0000     -11.377770      -309.6049
   5   2.0000      -8.954072      -243.6527
   6   2.0000      -6.635987      -180.5744
   7   2.0000      -6.633481      -180.5062
   8   2.0000      -6.633474      -180.5060
   9   2.0000      -6.162017      -167.6770
  10   2.0000      -6.132528      -166.8746
  11   2.0000      -4.269195      -116.1707
  12   2.0000      -4.268124      -116.1416
  13   2.0000      -4.268108      -116.1411
  14   2.0000      -4.238674      -115.3402
  15   2.0000      -4.238566      -115.3372
  16   2.0000      -4.238518      -115.3359
  17   2.0000      -1.277079       -34.7511
  18   2.0000      -1.039245       -28.2793
  19   2.0000      -0.846451       -23.0331
  20   2.0000      -0.736522       -20.0418
  21   2.0000      -0.632849       -17.2207
  22   2.0000      -0.595716       -16.2102
  23   2.0000      -0.586771       -15.9669
  24   2.0000      -0.579298       -15.7635
  25   2.0000      -0.511362       -13.9149
  26   2.0000      -0.500066       -13.6075
  27   2.0000      -0.488845       -13.3021
  28   2.0000      -0.431764       -11.7489
  29   2.0000      -0.368243       -10.0204
  30   2.0000      -0.361545        -9.8381
  31   0.0000       0.022791         0.6202
  32   0.0000       0.027579         0.7505
  33   0.0000       0.036333         0.9887
  34   0.0000       0.037732         1.0267
  35   0.0000       0.047688         1.2977

MULLIKEN ATOMIC CHARGES
-----------------------
   0 Si:    0.320194
   1 Si:    0.555219
   2 H :   -0.146232
   3 H :   -0.128400
   4 H :   -0.128400
   5 N :   -0.509939
   6 H :   -0.217570
   7 H :   -0.217569
   8 C :    0.378685
   9 S :    0.094013
Sum of atomic charges:    0.0000000

LOEWDIN ATOMIC CHARGES
----------------------
   0 Si:    1.058091
   1 Si:    0.476381
   2 H :   -0.319130
   3 H :   -0.313765
   4 H :   -0.313765
   5 N :    0.174568
   6 H :   -0.277906
   7 H :   -0.277906
   8 C :   -1.157443
   9 S :    0.950876

  Mayer bond orders larger than 0.100000
B(  0-Si,  1-Si) :   0.7371 B(  0-Si,  2-H ) :   0.7676 B(  0-Si,  3-H ) :   0.7722
B(  0-Si,  4-H ) :   0.7722 B(  1-Si,  5-N ) :   1.1767 B(  1-Si,  6-H ) :   0.8657
B(  1-Si,  7-H ) :   0.8657 B(  5-N ,  8-C ) :   2.0419 B(  5-N ,  9-S ) :   0.1282
B(  8-C ,  9-S ) :   1.5112

MP2 TOTAL ENERGY:    -1071.568272853 Eh
FINAL SINGLE POINT ENERGY     -1071.568272853185

DIPOLE MOMENT
-------------
                                X             Y             Z
Electronic contribution:      9.63710       0.33644       0.00002
Nuclear contribution   :    -10.70674      -0.10404      -0.00002
                        -----------------------------------------
Total Dipole Moment    :     -1.06964       0.23240      -0.00000
                        -----------------------------------------
Magnitude (a.u.)       :      1.09460
Magnitude (Debye)      :      2.78225

Rotational constants in cm-1:     0.206813     0.029019     0.025906
Rotational constants in MHz :  6200.093926   869.959044   776.627997

                             ****ORCA TERMINATED NORMALLY****
TOTAL RUN TIME: 0 days 0 hours 31 minutes 53 seconds 756 msec
