                         Program Version 5.0.4 -  RELEASE  -
|  1> ! ri-mp2 aug-cc-pvdz aug-cc-pvdz/c tightscf
|  2> %pal nprocs 16 end
|  3> %maxcore 3800
|  4> %base "DZ_Si-S_29_AB"
|  5>
|  6> *xyz 0 1
|  7> S        -0.849702   -0.753966   -0.000010
|  8> C        -2.236102    0.422659   -0.000001
|  9> H        -2.218807    1.047872    0.889998
| 10> H        -3.152279   -0.162514   -0.000010
| 11> H        -2.218802    1.047891   -0.889987
| 12> Si         0.783963    0.613805    0.000009
| 13> C         2.360142   -0.374748    0.000000
| 14> H         2.421014   -1.010300    0.883414
| 15> H         3.224722    0.290287    0.000015
| 16> H         2.421022   -1.010271   -0.883433
| 17> H         0.699319    1.489859    1.192993
| 18> H         0.699322    1.489887   -1.192954
| 19> *
| 20>
| 21> $new_job
| 22> ! ri-mp2 aug-cc-pvtz aug-cc-pvtz/c tightscf
| 23> %pal nprocs 16 end
| 24> %maxcore 3800
| 25> %base "TZ_Si-S_29_AB"
| 26>
| 27> *xyz 0 1
| 28> S        -0.849702   -0.753966   -0.000010
| 29> C        -2.236102    0.422659   -0.000001
| 30> H        -2.218807    1.047872    0.889998
| 31> H        -3.152279   -0.162514   -0.000010
| 32> H        -2.218802    1.047891   -0.889987
| 33> Si         0.783963    0.613805    0.000009
| 34> C         2.360142   -0.374748    0.000000
| 35> H         2.421014   -1.010300    0.883414
| 36> H         3.224722    0.290287    0.000015
| 37> H         2.421022   -1.010271   -0.883433
| 38> H         0.699319    1.489859    1.192993
| 39> H         0.699322    1.489887   -1.192954
| 40> *
| 41>
| 42> $new_job
| 43> ! ri-mp2 aug-cc-pvqz aug-cc-pvqz/c tightscf
| 44> %pal nprocs 16 end
| 45> %maxcore 3800
| 46> %base "QZ_Si-S_29_AB"
| 47>
| 48> *xyz 0 1
| 49> S        -0.849702   -0.753966   -0.000010
| 50> C        -2.236102    0.422659   -0.000001
| 51> H        -2.218807    1.047872    0.889998
| 52> H        -3.152279   -0.162514   -0.000010
| 53> H        -2.218802    1.047891   -0.889987
| 54> Si         0.783963    0.613805    0.000009
| 55> C         2.360142   -0.374748    0.000000
| 56> H         2.421014   -1.010300    0.883414
| 57> H         3.224722    0.290287    0.000015
| 58> H         2.421022   -1.010271   -0.883433
| 59> H         0.699319    1.489859    1.192993
| 60> H         0.699322    1.489887   -1.192954
| 61> *
| 62>
| 63>
| 64>
| 65>
| 66>                          ****END OF INPUT****
 Total Charge           Charge          ....    0
 Multiplicity           Mult            ....    1
 Number of Electrons    NEL             ....   50
MP2 TOTAL ENERGY:     -767.453058177 Eh
FINAL SINGLE POINT ENERGY      -767.453058176961
MP2 TOTAL ENERGY:     -767.627917345 Eh
FINAL SINGLE POINT ENERGY      -767.627917344678

CARTESIAN COORDINATES (ANGSTROEM)
---------------------------------
  S     -0.849702   -0.753966   -0.000010
  C     -2.236102    0.422659   -0.000001
  H     -2.218807    1.047872    0.889998
  H     -3.152279   -0.162514   -0.000010
  H     -2.218802    1.047891   -0.889987
  Si     0.783963    0.613805    0.000009
  C      2.360142   -0.374748    0.000000
  H      2.421014   -1.010300    0.883414
  H      3.224722    0.290287    0.000015
  H      2.421022   -1.010271   -0.883433
  H      0.699319    1.489859    1.192993
  H      0.699322    1.489887   -1.192954

 Multiplicity           Mult            ....    1
 Number of Electrons    NEL             ....   50
 Basis Dimension        Dim             ....  696

ORBITAL ENERGIES
----------------

  NO   OCC          E(Eh)            E(eV)
   0   2.0000     -91.932563     -2501.6122
   1   2.0000     -68.781576     -1871.6418
   2   2.0000     -11.256153      -306.2955
   3   2.0000     -11.209747      -305.0327
   4   2.0000      -8.936783      -243.1822
   5   2.0000      -6.618304      -180.0932
   6   2.0000      -6.617583      -180.0736
   7   2.0000      -6.616825      -180.0530
   8   2.0000      -6.129120      -166.7818
   9   2.0000      -4.235791      -115.2617
  10   2.0000      -4.235189      -115.2454
  11   2.0000      -4.235138      -115.2440
  12   2.0000      -1.032404       -28.0932
  13   2.0000      -0.955078       -25.9890
  14   2.0000      -0.856473       -23.3058
  15   2.0000      -0.679859       -18.4999
  16   2.0000      -0.593398       -16.1472
  17   2.0000      -0.589002       -16.0276
  18   2.0000      -0.568696       -15.4750
  19   2.0000      -0.567085       -15.4312
  20   2.0000      -0.500624       -13.6227
  21   2.0000      -0.477521       -12.9940
  22   2.0000      -0.453722       -12.3464
  23   2.0000      -0.415611       -11.3093
  24   2.0000      -0.351395        -9.5620
  25   0.0000       0.024787         0.6745
  26   0.0000       0.031079         0.8457
  27   0.0000       0.036600         0.9959
  28   0.0000       0.038644         1.0516
  29   0.0000       0.047664         1.2970

MULLIKEN ATOMIC CHARGES
-----------------------
   0 S :   -0.299251
   1 C :   -0.978151
   2 H :    0.273768
   3 H :    0.403716
   4 H :    0.273768
   5 Si:    1.036778
   6 C :   -1.011963
   7 H :    0.248134
   8 H :    0.267474
   9 H :    0.248134
  10 H :   -0.231203
  11 H :   -0.231203
Sum of atomic charges:   -0.0000000

LOEWDIN ATOMIC CHARGES
----------------------
   0 S :    1.144181
   1 C :    0.451369
   2 H :   -0.382144
   3 H :   -0.394963
   4 H :   -0.382143
   5 Si:    0.306147
   6 C :    0.851935
   7 H :   -0.365448
   8 H :   -0.362921
   9 H :   -0.365450
  10 H :   -0.250281
  11 H :   -0.250282

  Mayer bond orders larger than 0.100000
B(  0-S ,  1-C ) :   1.0062 B(  0-S ,  5-Si) :   0.7681 B(  1-C ,  2-H ) :   0.9166
B(  1-C ,  3-H ) :   0.8201 B(  1-C ,  4-H ) :   0.9166 B(  5-Si,  6-C ) :   0.9458
B(  5-Si, 10-H ) :   0.8112 B(  5-Si, 11-H ) :   0.8112 B(  6-C ,  7-H ) :   0.9447
B(  6-C ,  8-H ) :   0.9593 B(  6-C ,  9-H ) :   0.9447

MP2 TOTAL ENERGY:     -767.681772795 Eh
FINAL SINGLE POINT ENERGY      -767.681772794646

DIPOLE MOMENT
-------------
                                X             Y             Z
Electronic contribution:     -1.85629      -2.80773      -0.00003
Nuclear contribution   :      1.88774       3.22615       0.00004
                        -----------------------------------------
Total Dipole Moment    :      0.03145       0.41842       0.00000
                        -----------------------------------------
Magnitude (a.u.)       :      0.41960
Magnitude (Debye)      :      1.06654

Rotational constants in cm-1:     0.357009     0.077754     0.066909
Rotational constants in MHz : 10702.861990  2331.001291  2005.885731

                             ****ORCA TERMINATED NORMALLY****
TOTAL RUN TIME: 0 days 0 hours 5 minutes 58 seconds 225 msec
