                         Program Version 5.0.4 -  RELEASE  -
|  1> ! ri-mp2 aug-cc-pvdz aug-cc-pvdz/c tightscf
|  2> %pal nprocs 16 end
|  3> %maxcore 3800
|  4> %base "DZ_S-Cl_16_AB"
|  5>
|  6> *xyz 0 1
|  7> Cl         2.439134   -0.011376   -0.000007
|  8> S         0.811091    1.180286    0.000013
|  9> C        -0.527005   -0.032963    0.000002
| 10> Cl        -1.950432    1.029536   -0.000011
| 11> Cl        -0.533052   -1.058691    1.438710
| 12> Cl        -0.533027   -1.058692   -1.438705
| 13> *
| 14>
| 15> $new_job
| 16> ! ri-mp2 aug-cc-pvtz aug-cc-pvtz/c tightscf
| 17> %pal nprocs 16 end
| 18> %maxcore 3800
| 19> %base "TZ_S-Cl_16_AB"
| 20>
| 21> *xyz 0 1
| 22> Cl         2.439134   -0.011376   -0.000007
| 23> S         0.811091    1.180286    0.000013
| 24> C        -0.527005   -0.032963    0.000002
| 25> Cl        -1.950432    1.029536   -0.000011
| 26> Cl        -0.533052   -1.058691    1.438710
| 27> Cl        -0.533027   -1.058692   -1.438705
| 28> *
| 29>
| 30> $new_job
| 31> ! ri-mp2 aug-cc-pvqz aug-cc-pvqz/c tightscf
| 32> %pal nprocs 16 end
| 33> %maxcore 3800
| 34> %base "QZ_S-Cl_16_AB"
| 35>
| 36> *xyz 0 1
| 37> Cl         2.439134   -0.011376   -0.000007
| 38> S         0.811091    1.180286    0.000013
| 39> C        -0.527005   -0.032963    0.000002
| 40> Cl        -1.950432    1.029536   -0.000011
| 41> Cl        -0.533052   -1.058691    1.438710
| 42> Cl        -0.533027   -1.058692   -1.438705
| 43> *
| 44>
| 45>
| 46>
| 47>
| 48>                          ****END OF INPUT****
 Total Charge           Charge          ....    0
 Multiplicity           Mult            ....    1
 Number of Electrons    NEL             ....   90
MP2 TOTAL ENERGY:    -2274.256612294 Eh
FINAL SINGLE POINT ENERGY     -2274.256612293922
MP2 TOTAL ENERGY:    -2274.585964678 Eh
FINAL SINGLE POINT ENERGY     -2274.585964678024

CARTESIAN COORDINATES (ANGSTROEM)
---------------------------------
  Cl     2.439134   -0.011376   -0.000007
  S      0.811091    1.180286    0.000013
  C     -0.527005   -0.032963    0.000002
  Cl    -1.950432    1.029536   -0.000011
  Cl    -0.533052   -1.058691    1.438710
  Cl    -0.533027   -1.058692   -1.438705

 Multiplicity           Mult            ....    1
 Number of Electrons    NEL             ....   90
 Basis Dimension        Dim             ....  500

ORBITAL ENERGIES
----------------

  NO   OCC          E(Eh)            E(eV)
   0   2.0000    -104.881851     -2853.9803
   1   2.0000    -104.874395     -2853.7774
   2   2.0000    -104.873093     -2853.7419
   3   2.0000    -104.873092     -2853.7419
   4   2.0000     -92.047158     -2504.7305
   5   2.0000     -11.472227      -312.1752
   6   2.0000     -10.607478      -288.6442
   7   2.0000     -10.598814      -288.4084
   8   2.0000     -10.598804      -288.4081
   9   2.0000     -10.598788      -288.4077
  10   2.0000      -9.045035      -246.1279
  11   2.0000      -8.074429      -219.7164
  12   2.0000      -8.072414      -219.6616
  13   2.0000      -8.072355      -219.6600
  14   2.0000      -8.065793      -219.4814
  15   2.0000      -8.065792      -219.4814
  16   2.0000      -8.065790      -219.4813
  17   2.0000      -8.063803      -219.4272
  18   2.0000      -8.063726      -219.4251
  19   2.0000      -8.063724      -219.4251
  20   2.0000      -8.063713      -219.4248
  21   2.0000      -8.063712      -219.4248
  22   2.0000      -8.063561      -219.4207
  23   2.0000      -6.725882      -183.0206
  24   2.0000      -6.724414      -182.9806
  25   2.0000      -6.722985      -182.9417
  26   2.0000      -1.270005       -34.5586
  27   2.0000      -1.163404       -31.6578
  28   2.0000      -1.131165       -30.7806
  29   2.0000      -1.123954       -30.5843
  30   2.0000      -0.980905       -26.6918
  31   2.0000      -0.809576       -22.0297
  32   2.0000      -0.659977       -17.9589
  33   2.0000      -0.651506       -17.7284
  34   2.0000      -0.648376       -17.6432
  35   2.0000      -0.556366       -15.1395
  36   2.0000      -0.546167       -14.8620
  37   2.0000      -0.512529       -13.9466
  38   2.0000      -0.507925       -13.8213
  39   2.0000      -0.499403       -13.5895
  40   2.0000      -0.473274       -12.8784
  41   2.0000      -0.473122       -12.8743
  42   2.0000      -0.460448       -12.5294
  43   2.0000      -0.457776       -12.4567
  44   2.0000      -0.389220       -10.5912
  45   0.0000       0.039043         1.0624
  46   0.0000       0.042718         1.1624
  47   0.0000       0.053725         1.4619
  48   0.0000       0.058078         1.5804
  49   0.0000       0.067197         1.8285

MULLIKEN ATOMIC CHARGES
-----------------------
   0 Cl:   -0.244338
   1 S :    0.305743
   2 C :    0.301982
   3 Cl:   -0.131292
   4 Cl:   -0.116048
   5 Cl:   -0.116048
Sum of atomic charges:    0.0000000

LOEWDIN ATOMIC CHARGES
----------------------
   0 Cl:    0.462086
   1 S :    0.007755
   2 C :   -3.175877
   3 Cl:    0.903344
   4 Cl:    0.901346
   5 Cl:    0.901346

  Mayer bond orders larger than 0.100000
B(  0-Cl,  1-S ) :   0.9905 B(  1-S ,  2-C ) :   0.8857 B(  2-C ,  3-Cl) :   0.8241
B(  2-C ,  4-Cl) :   0.8424 B(  2-C ,  5-Cl) :   0.8424

MP2 TOTAL ENERGY:    -2274.696584429 Eh
FINAL SINGLE POINT ENERGY     -2274.696584429109

DIPOLE MOMENT
-------------
                                X             Y             Z
Electronic contribution:     -0.80601      -1.26430      -0.00002
Nuclear contribution   :      0.72836       1.39688       0.00002
                        -----------------------------------------
Total Dipole Moment    :     -0.07765       0.13258      -0.00000
                        -----------------------------------------
Magnitude (a.u.)       :      0.15365
Magnitude (Debye)      :      0.39054

Rotational constants in cm-1:     0.054648     0.031384     0.030535
Rotational constants in MHz :  1638.297040   940.876038   915.406588

                             ****ORCA TERMINATED NORMALLY****
TOTAL RUN TIME: 0 days 0 hours 3 minutes 30 seconds 69 msec
