                         Program Version 5.0.4 -  RELEASE  -
|  1> ! ri-mp2 aug-cc-pvdz aug-cc-pvdz/c tightscf
|  2> %pal nprocs 16 end
|  3> %maxcore 3800
|  4> %base "DZ_S-Cl_33_A"
|  5> %scf
|  6> STABPerform true
|  7> STABRestartUHFifUnstable true
|  8> end
|  9>
| 10> *xyz 0 2
| 11> S         2.086172   -0.062922   -0.011408
| 12> P        -0.773325    0.021982   -0.085923
| 13> O        -1.829200   -0.227354   -1.040783
| 14> O        -0.921894   -0.685535    1.321940
| 15> H        -1.538092   -1.427169    1.304319
| 16> O        -0.486633    1.518976    0.272494
| 17> H         0.366512    1.669406    0.707883
| 18> O         0.661816   -0.551740   -0.621255
| 19> *
| 20>
| 21> $new_job
| 22> ! ri-mp2 aug-cc-pvtz aug-cc-pvtz/c tightscf
| 23> %pal nprocs 16 end
| 24> %maxcore 3800
| 25> %base "TZ_S-Cl_33_A"
| 26>
| 27> *xyz 0 2
| 28> S         2.086172   -0.062922   -0.011408
| 29> P        -0.773325    0.021982   -0.085923
| 30> O        -1.829200   -0.227354   -1.040783
| 31> O        -0.921894   -0.685535    1.321940
| 32> H        -1.538092   -1.427169    1.304319
| 33> O        -0.486633    1.518976    0.272494
| 34> H         0.366512    1.669406    0.707883
| 35> O         0.661816   -0.551740   -0.621255
| 36> *
| 37>
| 38> $new_job
| 39> ! ri-mp2 aug-cc-pvqz aug-cc-pvqz/c tightscf
| 40> %pal nprocs 16 end
| 41> %maxcore 3800
| 42> %base "QZ_S-Cl_33_A"
| 43>
| 44> *xyz 0 2
| 45> S         2.086172   -0.062922   -0.011408
| 46> P        -0.773325    0.021982   -0.085923
| 47> O        -1.829200   -0.227354   -1.040783
| 48> O        -0.921894   -0.685535    1.321940
| 49> H        -1.538092   -1.427169    1.304319
| 50> O        -0.486633    1.518976    0.272494
| 51> H         0.366512    1.669406    0.707883
| 52> O         0.661816   -0.551740   -0.621255
| 53> *
| 54>
| 55>
| 56>
| 57>
| 58>                          ****END OF INPUT****
 Total Charge           Charge          ....    0
 Multiplicity           Mult            ....    2
 Number of Electrons    NEL             ....   65
MP2 TOTAL ENERGY:    -1040.007934743 Eh
FINAL SINGLE POINT ENERGY     -1040.007934742923
MP2 TOTAL ENERGY:    -1040.397160411 Eh
FINAL SINGLE POINT ENERGY     -1040.397160410904

CARTESIAN COORDINATES (ANGSTROEM)
---------------------------------
  S      2.086172   -0.062922   -0.011408
  P     -0.773325    0.021982   -0.085923
  O     -1.829200   -0.227354   -1.040783
  O     -0.921894   -0.685535    1.321940
  H     -1.538092   -1.427169    1.304319
  O     -0.486633    1.518976    0.272494
  H      0.366512    1.669406    0.707883
  O      0.661816   -0.551740   -0.621255

 Multiplicity           Mult            ....    2
 Number of Electrons    NEL             ....   65
 Basis Dimension        Dim             ....  580

ORBITAL ENERGIES
----------------
                 SPIN UP ORBITALS
  NO   OCC          E(Eh)            E(eV)
   0   1.0000     -92.058203     -2505.0311
   1   1.0000     -80.116177     -2180.0720
   2   1.0000     -20.647789      -561.8549
   3   1.0000     -20.622446      -561.1653
   4   1.0000     -20.621802      -561.1477
   5   1.0000     -20.524600      -558.5028
   6   1.0000      -9.054435      -246.3837
   7   1.0000      -7.634401      -207.7426
   8   1.0000      -6.749364      -183.6595
   9   1.0000      -6.731829      -183.1824
  10   1.0000      -6.729585      -183.1213
  11   1.0000      -5.533435      -150.5724
  12   1.0000      -5.532855      -150.5566
  13   1.0000      -5.531732      -150.5261
  14   1.0000      -1.492591       -40.6155
  15   1.0000      -1.427062       -38.8323
  16   1.0000      -1.412207       -38.4281
  17   1.0000      -1.322913       -35.9983
  18   1.0000      -1.000138       -27.2151
  19   1.0000      -0.864534       -23.5252
  20   1.0000      -0.792143       -21.5553
  21   1.0000      -0.747743       -20.3471
  22   1.0000      -0.692328       -18.8392
  23   1.0000      -0.672458       -18.2985
  24   1.0000      -0.654361       -17.8061
  25   1.0000      -0.616117       -16.7654
  26   1.0000      -0.594052       -16.1650
  27   1.0000      -0.586632       -15.9631
  28   1.0000      -0.563427       -15.3316
  29   1.0000      -0.496196       -13.5022
  30   1.0000      -0.492238       -13.3945
  31   1.0000      -0.458153       -12.4670
  32   1.0000      -0.414965       -11.2918
  33   0.0000       0.022012         0.5990
  34   0.0000       0.030766         0.8372
  35   0.0000       0.044539         1.2120
  36   0.0000       0.056137         1.5276
  37   0.0000       0.065281         1.7764

                 SPIN DOWN ORBITALS
  NO   OCC          E(Eh)            E(eV)
   0   1.0000     -92.049288     -2504.7885
   1   1.0000     -80.116218     -2180.0731
   2   1.0000     -20.641536      -561.6848
   3   1.0000     -20.622581      -561.1690
   4   1.0000     -20.621817      -561.1482
   5   1.0000     -20.524631      -558.5036
   6   1.0000      -9.044599      -246.1160
   7   1.0000      -7.634459      -207.7442
   8   1.0000      -6.728129      -183.0817
   9   1.0000      -6.724445      -182.9815
  10   1.0000      -6.708277      -182.5415
  11   1.0000      -5.533527      -150.5749
  12   1.0000      -5.532894      -150.5577
  13   1.0000      -5.531779      -150.5274
  14   1.0000      -1.486460       -40.4486
  15   1.0000      -1.415095       -38.5067
  16   1.0000      -1.412134       -38.4261
  17   1.0000      -1.322601       -35.9898
  18   1.0000      -0.941144       -25.6098
  19   1.0000      -0.853286       -23.2191
  20   1.0000      -0.790150       -21.5011
  21   1.0000      -0.732555       -19.9338
  22   1.0000      -0.681924       -18.5561
  23   1.0000      -0.646154       -17.5827
  24   1.0000      -0.629902       -17.1405
  25   1.0000      -0.606018       -16.4906
  26   1.0000      -0.591791       -16.1035
  27   1.0000      -0.577944       -15.7267
  28   1.0000      -0.551133       -14.9971
  29   1.0000      -0.495731       -13.4895
  30   1.0000      -0.489193       -13.3116
  31   1.0000      -0.398040       -10.8312
  32   0.0000      -0.007939        -0.2160
  33   0.0000       0.022427         0.6103
  34   0.0000       0.032043         0.8719
  35   0.0000       0.045959         1.2506
  36   0.0000       0.058282         1.5859

MULLIKEN ATOMIC CHARGES AND SPIN POPULATIONS
--------------------------------------------
   0 S :    0.293572    0.964819
   1 P :    2.521506   -0.004326
   2 O :   -1.096838    0.000027
   3 O :   -0.818662    0.002858
   4 H :    0.373239    0.000083
   5 O :   -0.837360   -0.002052
   6 H :    0.384135    0.003372
   7 O :   -0.819592    0.035220
Sum of atomic charges         :    0.0000000

LOEWDIN ATOMIC CHARGES AND SPIN POPULATIONS
-------------------------------------------
   0 S :    0.676470    0.759754
   1 P :   -1.158459    0.017226
   2 O :    0.272464   -0.000673
   3 O :    1.078049    0.001139
   4 H :   -0.859741   -0.000114
   5 O :    1.064794   -0.002053
   6 H :   -0.987250    0.002363
   7 O :   -0.086328    0.222359

  Mayer bond orders larger than 0.100000
B(  0-S ,  7-O ) :   0.8465 B(  1-P ,  2-O ) :   1.4752 B(  1-P ,  3-O ) :   0.7213
B(  1-P ,  5-O ) :   0.7132 B(  1-P ,  7-O ) :   0.6112 B(  3-O ,  4-H ) :   0.9094
B(  5-O ,  6-H ) :   0.8486

MP2 TOTAL ENERGY:    -1040.523548975 Eh
FINAL SINGLE POINT ENERGY     -1040.523548974787

DIPOLE MOMENT
-------------
                                X             Y             Z
Electronic contribution:      1.57772      -0.28488      -0.76655
Nuclear contribution   :     -0.51089       0.21199       1.98023
                        -----------------------------------------
Total Dipole Moment    :      1.06683      -0.07289       1.21368
                        -----------------------------------------
Magnitude (a.u.)       :      1.61755
Magnitude (Debye)      :      4.11148

Rotational constants in cm-1:     0.153049     0.057548     0.057275
Rotational constants in MHz :  4588.300618  1725.242189  1717.075808

                             ****ORCA TERMINATED NORMALLY****
TOTAL RUN TIME: 0 days 0 hours 51 minutes 51 seconds 731 msec
