                         Program Version 5.0.4 -  RELEASE  -
|  1> ! ri-mp2 aug-cc-pvdz aug-cc-pvdz/c tightscf
|  2> %pal nprocs 16 end
|  3> %maxcore 3800
|  4> %base "DZ_S-S_21_A"
|  5> %scf
|  6> STABPerform true
|  7> STABRestartUHFifUnstable true
|  8> end
|  9>
| 10> *xyz 0 2
| 11> S         0.945710    1.464092    0.040067
| 12> C         0.628724   -0.323192    0.014990
| 13> C         1.793629   -0.941772   -0.766838
| 14> H         1.848408   -0.554168   -1.783790
| 15> H         1.660439   -2.024480   -0.816761
| 16> H         2.740709   -0.741501   -0.268090
| 17> C         0.585405   -0.891816    1.428362
| 18> H         1.531602   -0.712740    1.935316
| 19> H         0.406508   -1.969312    1.392439
| 20> H        -0.209755   -0.435887    2.014002
| 21> C        -0.651890   -0.624222   -0.753421
| 22> Cl        -2.107454    0.095570   -0.005769
| 23> H        -0.823747   -1.698625   -0.792216
| 24> H        -0.594017   -0.227429   -1.762463
| 25> *
| 26>
| 27> $new_job
| 28> ! ri-mp2 aug-cc-pvtz aug-cc-pvtz/c tightscf
| 29> %pal nprocs 16 end
| 30> %maxcore 3800
| 31> %base "TZ_S-S_21_A"
| 32>
| 33> *xyz 0 2
| 34> S         0.945710    1.464092    0.040067
| 35> C         0.628724   -0.323192    0.014990
| 36> C         1.793629   -0.941772   -0.766838
| 37> H         1.848408   -0.554168   -1.783790
| 38> H         1.660439   -2.024480   -0.816761
| 39> H         2.740709   -0.741501   -0.268090
| 40> C         0.585405   -0.891816    1.428362
| 41> H         1.531602   -0.712740    1.935316
| 42> H         0.406508   -1.969312    1.392439
| 43> H        -0.209755   -0.435887    2.014002
| 44> C        -0.651890   -0.624222   -0.753421
| 45> Cl        -2.107454    0.095570   -0.005769
| 46> H        -0.823747   -1.698625   -0.792216
| 47> H        -0.594017   -0.227429   -1.762463
| 48> *
| 49>
| 50> $new_job
| 51> ! ri-mp2 aug-cc-pvqz aug-cc-pvqz/c tightscf
| 52> %pal nprocs 16 end
| 53> %maxcore 3800
| 54> %base "QZ_S-S_21_A"
| 55>
| 56> *xyz 0 2
| 57> S         0.945710    1.464092    0.040067
| 58> C         0.628724   -0.323192    0.014990
| 59> C         1.793629   -0.941772   -0.766838
| 60> H         1.848408   -0.554168   -1.783790
| 61> H         1.660439   -2.024480   -0.816761
| 62> H         2.740709   -0.741501   -0.268090
| 63> C         0.585405   -0.891816    1.428362
| 64> H         1.531602   -0.712740    1.935316
| 65> H         0.406508   -1.969312    1.392439
| 66> H        -0.209755   -0.435887    2.014002
| 67> C        -0.651890   -0.624222   -0.753421
| 68> Cl        -2.107454    0.095570   -0.005769
| 69> H        -0.823747   -1.698625   -0.792216
| 70> H        -0.594017   -0.227429   -1.762463
| 71> *
| 72>
| 73>
| 74>
| 75>
| 76>                          ****END OF INPUT****
 Total Charge           Charge          ....    0
 Multiplicity           Mult            ....    2
 Number of Electrons    NEL             ....   65
MP2 TOTAL ENERGY:    -1014.035382691 Eh
FINAL SINGLE POINT ENERGY     -1014.035382690904
MP2 TOTAL ENERGY:    -1014.291564545 Eh
FINAL SINGLE POINT ENERGY     -1014.291564544652

CARTESIAN COORDINATES (ANGSTROEM)
---------------------------------
  S      0.945710    1.464092    0.040067
  C      0.628724   -0.323192    0.014990
  C      1.793629   -0.941772   -0.766838
  H      1.848408   -0.554168   -1.783790
  H      1.660439   -2.024480   -0.816761
  H      2.740709   -0.741501   -0.268090
  C      0.585405   -0.891816    1.428362
  H      1.531602   -0.712740    1.935316
  H      0.406508   -1.969312    1.392439
  H     -0.209755   -0.435887    2.014002
  C     -0.651890   -0.624222   -0.753421
  Cl    -2.107454    0.095570   -0.005769
  H     -0.823747   -1.698625   -0.792216
  H     -0.594017   -0.227429   -1.762463

 Multiplicity           Mult            ....    2
 Number of Electrons    NEL             ....   65
 Basis Dimension        Dim             ....  856

ORBITAL ENERGIES
----------------
                 SPIN UP ORBITALS
  NO   OCC          E(Eh)            E(eV)
   0   1.0000    -104.825374     -2852.4434
   1   1.0000     -91.967175     -2502.5541
   2   1.0000     -11.299017      -307.4619
   3   1.0000     -11.288506      -307.1759
   4   1.0000     -11.241840      -305.9060
   5   1.0000     -11.227599      -305.5185
   6   1.0000     -10.551300      -287.1155
   7   1.0000      -8.969796      -244.0806
   8   1.0000      -8.018335      -218.1900
   9   1.0000      -8.016825      -218.1489
  10   1.0000      -8.016677      -218.1449
  11   1.0000      -6.665779      -181.3851
  12   1.0000      -6.647136      -180.8778
  13   1.0000      -6.645680      -180.8382
  14   1.0000      -1.169448       -31.8223
  15   1.0000      -1.095582       -29.8123
  16   1.0000      -0.959576       -26.1114
  17   1.0000      -0.955168       -25.9914
  18   1.0000      -0.921911       -25.0865
  19   1.0000      -0.750224       -20.4146
  20   1.0000      -0.654176       -17.8010
  21   1.0000      -0.641645       -17.4601
  22   1.0000      -0.615357       -16.7447
  23   1.0000      -0.593926       -16.1615
  24   1.0000      -0.567303       -15.4371
  25   1.0000      -0.538950       -14.6656
  26   1.0000      -0.519737       -14.1428
  27   1.0000      -0.505825       -13.7642
  28   1.0000      -0.465217       -12.6592
  29   1.0000      -0.439973       -11.9723
  30   1.0000      -0.437873       -11.9151
  31   1.0000      -0.426193       -11.5973
  32   1.0000      -0.373622       -10.1668
  33   0.0000       0.023045         0.6271
  34   0.0000       0.031851         0.8667
  35   0.0000       0.034777         0.9463
  36   0.0000       0.039615         1.0780
  37   0.0000       0.052849         1.4381

                 SPIN DOWN ORBITALS
  NO   OCC          E(Eh)            E(eV)
   0   1.0000    -104.825300     -2852.4414
   1   1.0000     -91.957957     -2502.3032
   2   1.0000     -11.298716      -307.4537
   3   1.0000     -11.289629      -307.2064
   4   1.0000     -11.240694      -305.8748
   5   1.0000     -11.227334      -305.5113
   6   1.0000     -10.551218      -287.1132
   7   1.0000      -8.959640      -243.8042
   8   1.0000      -8.018316      -218.1895
   9   1.0000      -8.016644      -218.1440
  10   1.0000      -8.016510      -218.1403
  11   1.0000      -6.641899      -180.7353
  12   1.0000      -6.640353      -180.6932
  13   1.0000      -6.624286      -180.2560
  14   1.0000      -1.164887       -31.6982
  15   1.0000      -1.089388       -29.6438
  16   1.0000      -0.957220       -26.0473
  17   1.0000      -0.922652       -25.1066
  18   1.0000      -0.886501       -24.1229
  19   1.0000      -0.733144       -19.9499
  20   1.0000      -0.647885       -17.6298
  21   1.0000      -0.636215       -17.3123
  22   1.0000      -0.611119       -16.6294
  23   1.0000      -0.586144       -15.9498
  24   1.0000      -0.563173       -15.3247
  25   1.0000      -0.538466       -14.6524
  26   1.0000      -0.518908       -14.1202
  27   1.0000      -0.498357       -13.5610
  28   1.0000      -0.455032       -12.3821
  29   1.0000      -0.437452       -11.9037
  30   1.0000      -0.433920       -11.8076
  31   1.0000      -0.354584        -9.6487
  32   0.0000       0.017963         0.4888
  33   0.0000       0.025166         0.6848
  34   0.0000       0.032183         0.8757
  35   0.0000       0.037462         1.0194
  36   0.0000       0.040531         1.1029

MULLIKEN ATOMIC CHARGES AND SPIN POPULATIONS
--------------------------------------------
   0 S :   -0.230602    1.145865
   1 C :    0.739121   -0.191601
   2 C :   -1.024592    0.007703
   3 H :    0.316233   -0.013155
   4 H :    0.273264    0.017235
   5 H :    0.268727   -0.010662
   6 C :   -0.997946    0.023652
   7 H :    0.299097   -0.000780
   8 H :    0.250221    0.000710
   9 H :    0.308253   -0.004354
  10 C :   -0.406497    0.025894
  11 Cl:   -0.411154    0.001242
  12 H :    0.294772   -0.000881
  13 H :    0.321102   -0.000869
Sum of atomic charges         :    0.0000000

LOEWDIN ATOMIC CHARGES AND SPIN POPULATIONS
-------------------------------------------
   0 S :    1.121421    0.724011
   1 C :   -0.968103    0.163413
   2 C :    0.769749    0.038035
   3 H :   -0.293304    0.011786
   4 H :   -0.274968    0.005941
   5 H :   -0.293022    0.012730
   6 C :    0.756155    0.012273
   7 H :   -0.302709   -0.000347
   8 H :   -0.279433    0.000292
   9 H :   -0.333945    0.005146
  10 C :   -0.280280    0.012860
  11 Cl:    1.189381    0.014011
  12 H :   -0.391000    0.000479
  13 H :   -0.419943   -0.000630

  Mayer bond orders larger than 0.100000
B(  0-S ,  1-C ) :   0.5994 B(  1-C ,  2-C ) :   0.7404 B(  1-C ,  6-C ) :   0.7054
B(  1-C , 10-C ) :   0.8393 B(  2-C ,  3-H ) :   0.9448 B(  2-C ,  4-H ) :   0.9253
B(  2-C ,  5-H ) :   0.9925 B(  6-C ,  7-H ) :   0.9682 B(  6-C ,  8-H ) :   0.9466
B(  6-C ,  9-H ) :   0.9742 B( 10-C , 11-Cl) :   0.6695 B( 10-C , 12-H ) :   0.8740
B( 10-C , 13-H ) :   0.9106

MP2 TOTAL ENERGY:    -1014.371954045 Eh
FINAL SINGLE POINT ENERGY     -1014.371954045119

DIPOLE MOMENT
-------------
                                X             Y             Z
Electronic contribution:     -8.80101       7.46824      -0.20443
Nuclear contribution   :      9.42660      -8.43915      -0.07361
                        -----------------------------------------
Total Dipole Moment    :      0.62560      -0.97092      -0.27804
                        -----------------------------------------
Magnitude (a.u.)       :      1.18801
Magnitude (Debye)      :      3.01967

Rotational constants in cm-1:     0.103541     0.054078     0.046491
Rotational constants in MHz :  3104.085472  1621.202726  1393.764956

                             ****ORCA TERMINATED NORMALLY****
TOTAL RUN TIME: 0 days 2 hours 50 minutes 58 seconds 66 msec
