                         Program Version 5.0.4 -  RELEASE  -
|  1> ! ri-mp2 aug-cc-pvdz aug-cc-pvdz/c tightscf
|  2> %pal nprocs 16 end
|  3> %maxcore 3800
|  4> %base "DZ_S-Cl_57_AB"
|  5> %scf
|  6> STABPerform true
|  7> STABRestartUHFifUnstable true
|  8> end
|  9>
| 10> *xyz 0 1
| 11> Cl         1.376415   -0.517941   -0.000012
| 12> S         0.057365    1.010418    0.000015
| 13> C        -1.486675    0.150635    0.000013
| 14> N        -1.743091   -1.071790   -0.000016
| 15> H        -0.905979   -1.654515   -0.000033
| 16> H        -2.289220    0.891541    0.000024
| 17> *
| 18>
| 19> $new_job
| 20> ! ri-mp2 aug-cc-pvtz aug-cc-pvtz/c tightscf
| 21> %pal nprocs 16 end
| 22> %maxcore 3800
| 23> %base "TZ_S-Cl_57_AB"
| 24>
| 25> *xyz 0 1
| 26> Cl         1.376415   -0.517941   -0.000012
| 27> S         0.057365    1.010418    0.000015
| 28> C        -1.486675    0.150635    0.000013
| 29> N        -1.743091   -1.071790   -0.000016
| 30> H        -0.905979   -1.654515   -0.000033
| 31> H        -2.289220    0.891541    0.000024
| 32> *
| 33>
| 34> $new_job
| 35> ! ri-mp2 aug-cc-pvqz aug-cc-pvqz/c tightscf
| 36> %pal nprocs 16 end
| 37> %maxcore 3800
| 38> %base "QZ_S-Cl_57_AB"
| 39>
| 40> *xyz 0 1
| 41> Cl         1.376415   -0.517941   -0.000012
| 42> S         0.057365    1.010418    0.000015
| 43> C        -1.486675    0.150635    0.000013
| 44> N        -1.743091   -1.071790   -0.000016
| 45> H        -0.905979   -1.654515   -0.000033
| 46> H        -2.289220    0.891541    0.000024
| 47> *
| 48>
| 49>
| 50>
| 51>
| 52>                          ****END OF INPUT****
 Total Charge           Charge          ....    0
 Multiplicity           Mult            ....    1
 Number of Electrons    NEL             ....   48
MP2 TOTAL ENERGY:     -951.094393673 Eh
FINAL SINGLE POINT ENERGY      -951.094393672762
MP2 TOTAL ENERGY:     -951.291735761 Eh
FINAL SINGLE POINT ENERGY      -951.291735761075

CARTESIAN COORDINATES (ANGSTROEM)
---------------------------------
  Cl     1.376415   -0.517941   -0.000012
  S      0.057365    1.010418    0.000015
  C     -1.486675    0.150635    0.000013
  N     -1.743091   -1.071790   -0.000016
  H     -0.905979   -1.654515   -0.000033
  H     -2.289220    0.891541    0.000024

 Multiplicity           Mult            ....    1
 Number of Electrons    NEL             ....   48
 Basis Dimension        Dim             ....  420

ORBITAL ENERGIES
----------------

  NO   OCC          E(Eh)            E(eV)
   0   2.0000    -104.876490     -2853.8344
   1   2.0000     -92.036347     -2504.4363
   2   2.0000     -15.572938      -423.7612
   3   2.0000     -11.333904      -308.4112
   4   2.0000     -10.600854      -288.4639
   5   2.0000      -9.034999      -245.8548
   6   2.0000      -8.067869      -219.5379
   7   2.0000      -8.065922      -219.4849
   8   2.0000      -8.065715      -219.4793
   9   2.0000      -6.716262      -182.7588
  10   2.0000      -6.714544      -182.7120
  11   2.0000      -6.713516      -182.6841
  12   2.0000      -1.249472       -33.9999
  13   2.0000      -1.162417       -31.6310
  14   2.0000      -0.986768       -26.8513
  15   2.0000      -0.819194       -22.2914
  16   2.0000      -0.679391       -18.4872
  17   2.0000      -0.632402       -17.2085
  18   2.0000      -0.556337       -15.1387
  19   2.0000      -0.546950       -14.8833
  20   2.0000      -0.487417       -13.2633
  21   2.0000      -0.487326       -13.2608
  22   2.0000      -0.432525       -11.7696
  23   2.0000      -0.376626       -10.2485
  24   0.0000       0.027712         0.7541
  25   0.0000       0.033325         0.9068
  26   0.0000       0.050685         1.3792
  27   0.0000       0.056230         1.5301
  28   0.0000       0.074935         2.0391

MULLIKEN ATOMIC CHARGES
-----------------------
   0 Cl:   -0.274294
   1 S :    0.353141
   2 C :   -0.322267
   3 N :   -0.601043
   4 H :    0.363633
   5 H :    0.480831
Sum of atomic charges:   -0.0000000

LOEWDIN ATOMIC CHARGES
----------------------
   0 Cl:    0.537145
   1 S :    0.426197
   2 C :   -0.494671
   3 N :    0.847432
   4 H :   -0.823268
   5 H :   -0.492836

  Mayer bond orders larger than 0.100000
B(  0-Cl,  1-S ) :   0.9920 B(  1-S ,  2-C ) :   1.0282 B(  2-C ,  3-N ) :   1.8390
B(  2-C ,  5-H ) :   0.7181 B(  3-N ,  4-H ) :   0.8051

MP2 TOTAL ENERGY:     -951.356671171 Eh
FINAL SINGLE POINT ENERGY      -951.356671170619

DIPOLE MOMENT
-------------
                                X             Y             Z
Electronic contribution:      5.06613       0.56138       0.00000
Nuclear contribution   :     -4.88385      -0.05609       0.00001
                        -----------------------------------------
Total Dipole Moment    :      0.18228       0.50529       0.00001
                        -----------------------------------------
Magnitude (a.u.)       :      0.53716
Magnitude (Debye)      :      1.36536

Rotational constants in cm-1:     0.271186     0.118538     0.082484
Rotational constants in MHz :  8129.962902  3553.685199  2472.800326

                             ****ORCA TERMINATED NORMALLY****
TOTAL RUN TIME: 0 days 0 hours 6 minutes 31 seconds 494 msec
