                         Program Version 5.0.4 -  RELEASE  -
|  1> ! ri-mp2 aug-cc-pvdz aug-cc-pvdz/c tightscf
|  2> %pal nprocs 16 end
|  3> %maxcore 3800
|  4> %base "DZ_Si-Si_30_AB"
|  5> %scf
|  6> STABPerform true
|  7> STABRestartUHFifUnstable true
|  8> end
|  9>
| 10> *xyz 0 1
| 11> Si         1.345131    0.515885   -0.000002
| 12> Si        -0.905305   -0.065501   -0.000001
| 13> Cl        -2.052372    1.611700   -0.000022
| 14> Cl        -1.308789   -1.166290    1.659831
| 15> F         1.679356    1.389385    1.271519
| 16> Cl         2.529589   -1.121090    0.000016
| 17> Cl        -1.308781   -1.166325   -1.659812
| 18> F         1.679361    1.389359   -1.271539
| 19> *
| 20>
| 21> $new_job
| 22> ! ri-mp2 aug-cc-pvtz aug-cc-pvtz/c tightscf
| 23> %pal nprocs 16 end
| 24> %maxcore 3800
| 25> %base "TZ_Si-Si_30_AB"
| 26>
| 27> *xyz 0 1
| 28> Si         1.345131    0.515885   -0.000002
| 29> Si        -0.905305   -0.065501   -0.000001
| 30> Cl        -2.052372    1.611700   -0.000022
| 31> Cl        -1.308789   -1.166290    1.659831
| 32> F         1.679356    1.389385    1.271519
| 33> Cl         2.529589   -1.121090    0.000016
| 34> Cl        -1.308781   -1.166325   -1.659812
| 35> F         1.679361    1.389359   -1.271539
| 36> *
| 37>
| 38> $new_job
| 39> ! ri-mp2 aug-cc-pvqz aug-cc-pvqz/c tightscf
| 40> %pal nprocs 16 end
| 41> %maxcore 3800
| 42> %base "QZ_Si-Si_30_AB"
| 43>
| 44> *xyz 0 1
| 45> Si         1.345131    0.515885   -0.000002
| 46> Si        -0.905305   -0.065501   -0.000001
| 47> Cl        -2.052372    1.611700   -0.000022
| 48> Cl        -1.308789   -1.166290    1.659831
| 49> F         1.679356    1.389385    1.271519
| 50> Cl         2.529589   -1.121090    0.000016
| 51> Cl        -1.308781   -1.166325   -1.659812
| 52> F         1.679361    1.389359   -1.271539
| 53> *
| 54>
| 55>
| 56>
| 57>
| 58>                          ****END OF INPUT****
 Total Charge           Charge          ....    0
 Multiplicity           Mult            ....    1
 Number of Electrons    NEL             ....  114
MP2 TOTAL ENERGY:    -2616.301259571 Eh
FINAL SINGLE POINT ENERGY     -2616.301259570961
MP2 TOTAL ENERGY:    -2616.797981530 Eh
FINAL SINGLE POINT ENERGY     -2616.797981529679

CARTESIAN COORDINATES (ANGSTROEM)
---------------------------------
  Si     1.345131    0.515885   -0.000002
  Si    -0.905305   -0.065501   -0.000001
  Cl    -2.052372    1.611700   -0.000022
  Cl    -1.308789   -1.166290    1.659831
  F      1.679356    1.389385    1.271519
  Cl     2.529589   -1.121090    0.000016
  Cl    -1.308781   -1.166325   -1.659812
  F      1.679361    1.389359   -1.271539

 Multiplicity           Mult            ....    1
 Number of Electrons    NEL             ....  114
 Basis Dimension        Dim             ....  664

ORBITAL ENERGIES
----------------

  NO   OCC          E(Eh)            E(eV)
   0   2.0000    -104.863571     -2853.4828
   1   2.0000    -104.863522     -2853.4815
   2   2.0000    -104.863522     -2853.4815
   3   2.0000    -104.863229     -2853.4735
   4   2.0000     -68.916424     -1875.3112
   5   2.0000     -68.908688     -1875.1007
   6   2.0000     -26.325089      -716.3421
   7   2.0000     -26.325080      -716.3419
   8   2.0000     -10.591060      -288.1974
   9   2.0000     -10.591036      -288.1967
  10   2.0000     -10.591030      -288.1966
  11   2.0000     -10.590904      -288.1932
  12   2.0000      -8.057800      -219.2639
  13   2.0000      -8.057775      -219.2632
  14   2.0000      -8.057774      -219.2632
  15   2.0000      -8.057671      -219.2604
  16   2.0000      -8.056572      -219.2305
  17   2.0000      -8.056566      -219.2303
  18   2.0000      -8.056551      -219.2299
  19   2.0000      -8.056550      -219.2299
  20   2.0000      -8.056543      -219.2297
  21   2.0000      -8.056542      -219.2297
  22   2.0000      -8.056489      -219.2282
  23   2.0000      -8.056478      -219.2279
  24   2.0000      -6.252640      -170.1430
  25   2.0000      -6.243855      -169.9039
  26   2.0000      -4.359788      -118.6359
  27   2.0000      -4.359786      -118.6358
  28   2.0000      -4.358607      -118.6037
  29   2.0000      -4.351886      -118.4208
  30   2.0000      -4.351874      -118.4205
  31   2.0000      -4.350574      -118.3851
  32   2.0000      -1.641190       -44.6590
  33   2.0000      -1.621699       -44.1287
  34   2.0000      -1.164273       -31.6815
  35   2.0000      -1.136507       -30.9259
  36   2.0000      -1.121578       -30.5197
  37   2.0000      -1.121459       -30.5165
  38   2.0000      -0.825738       -22.4695
  39   2.0000      -0.751793       -20.4573
  40   2.0000      -0.746245       -20.3064
  41   2.0000      -0.723884       -19.6979
  42   2.0000      -0.707051       -19.2398
  43   2.0000      -0.694855       -18.9080
  44   2.0000      -0.677642       -18.4396
  45   2.0000      -0.615709       -16.7543
  46   2.0000      -0.590874       -16.0785
  47   2.0000      -0.590611       -16.0713
  48   2.0000      -0.564028       -15.3480
  49   2.0000      -0.520314       -14.1585
  50   2.0000      -0.519028       -14.1235
  51   2.0000      -0.512400       -13.9431
  52   2.0000      -0.506943       -13.7946
  53   2.0000      -0.492763       -13.4088
  54   2.0000      -0.492035       -13.3890
  55   2.0000      -0.477764       -13.0006
  56   2.0000      -0.445159       -12.1134
  57   0.0000       0.032473         0.8836
  58   0.0000       0.032947         0.8965
  59   0.0000       0.039962         1.0874
  60   0.0000       0.040988         1.1153
  61   0.0000       0.054459         1.4819

MULLIKEN ATOMIC CHARGES
-----------------------
   0 Si:    2.083342
   1 Si:    1.750410
   2 Cl:   -0.608393
   3 Cl:   -0.594481
   4 F :   -0.736958
   5 Cl:   -0.562480
   6 Cl:   -0.594481
   7 F :   -0.736958
Sum of atomic charges:   -0.0000000

LOEWDIN ATOMIC CHARGES
----------------------
   0 Si:   -1.864678
   1 Si:   -2.425260
   2 Cl:    0.866978
   3 Cl:    0.863799
   4 F :    0.377961
   5 Cl:    0.939441
   6 Cl:    0.863799
   7 F :    0.377961

  Mayer bond orders larger than 0.100000
B(  0-Si,  1-Si) :   0.9517 B(  0-Si,  4-F ) :   0.3931 B(  0-Si,  5-Cl) :   0.6030
B(  0-Si,  7-F ) :   0.3931 B(  1-Si,  2-Cl) :   0.5269 B(  1-Si,  3-Cl) :   0.5500
B(  1-Si,  6-Cl) :   0.5500

MP2 TOTAL ENERGY:    -2616.966579485 Eh
FINAL SINGLE POINT ENERGY     -2616.966579484806

DIPOLE MOMENT
-------------
                                X             Y             Z
Electronic contribution:      0.09047      -0.09576       0.00000
Nuclear contribution   :     -0.25552      -0.12369       0.00000
                        -----------------------------------------
Total Dipole Moment    :     -0.16505      -0.21944       0.00000
                        -----------------------------------------
Magnitude (a.u.)       :      0.27458
Magnitude (Debye)      :      0.69793

Rotational constants in cm-1:     0.029532     0.018021     0.016982
Rotational constants in MHz :   885.355462   540.268741   509.102305

                             ****ORCA TERMINATED NORMALLY****
TOTAL RUN TIME: 0 days 0 hours 33 minutes 33 seconds 130 msec
