                         Program Version 5.0.4 -  RELEASE  -
|  1> ! ri-mp2 aug-cc-pvdz aug-cc-pvdz/c tightscf
|  2> %pal nprocs 16 end
|  3> %maxcore 3800
|  4> %base "DZ_B-B_33_AB"
|  5> %scf
|  6> STABPerform true
|  7> STABRestartUHFifUnstable true
|  8> end
|  9>
| 10> *xyz 0 1
| 11> B         0.786009   -1.018682   -0.309413
| 12> B        -0.786009   -1.018682    0.309413
| 13> N        -1.786336   -0.124368   -0.061444
| 14> N         1.786336   -0.124368    0.061443
| 15> C        -3.142305   -0.176570    0.447602
| 16> H        -3.407395    0.760384    0.947673
| 17> H        -3.237563   -0.992796    1.157531
| 18> H        -3.859244   -0.330394   -0.364939
| 19> C         3.142305   -0.176570   -0.447601
| 20> H         3.407395    0.760384   -0.947673
| 21> H         3.237563   -0.992797   -1.157531
| 22> H         3.859244   -0.330394    0.364940
| 23> C        -1.595539    0.952672   -1.011540
| 24> H        -0.568539    0.963682   -1.366944
| 25> H        -1.815815    1.921524   -0.551892
| 26> H        -2.261297    0.837610   -1.872342
| 27> C         1.595538    0.952672    1.011540
| 28> H         0.568539    0.963682    1.366943
| 29> H         1.815815    1.921524    0.551892
| 30> H         2.261297    0.837611    1.872342
| 31> H         1.120550   -1.852633   -1.108332
| 32> H        -1.120550   -1.852633    1.108332
| 33> *
| 34>
| 35> $new_job
| 36> ! ri-mp2 aug-cc-pvtz aug-cc-pvtz/c tightscf
| 37> %pal nprocs 16 end
| 38> %maxcore 3800
| 39> %base "TZ_B-B_33_AB"
| 40>
| 41> *xyz 0 1
| 42> B         0.786009   -1.018682   -0.309413
| 43> B        -0.786009   -1.018682    0.309413
| 44> N        -1.786336   -0.124368   -0.061444
| 45> N         1.786336   -0.124368    0.061443
| 46> C        -3.142305   -0.176570    0.447602
| 47> H        -3.407395    0.760384    0.947673
| 48> H        -3.237563   -0.992796    1.157531
| 49> H        -3.859244   -0.330394   -0.364939
| 50> C         3.142305   -0.176570   -0.447601
| 51> H         3.407395    0.760384   -0.947673
| 52> H         3.237563   -0.992797   -1.157531
| 53> H         3.859244   -0.330394    0.364940
| 54> C        -1.595539    0.952672   -1.011540
| 55> H        -0.568539    0.963682   -1.366944
| 56> H        -1.815815    1.921524   -0.551892
| 57> H        -2.261297    0.837610   -1.872342
| 58> C         1.595538    0.952672    1.011540
| 59> H         0.568539    0.963682    1.366943
| 60> H         1.815815    1.921524    0.551892
| 61> H         2.261297    0.837611    1.872342
| 62> H         1.120550   -1.852633   -1.108332
| 63> H        -1.120550   -1.852633    1.108332
| 64> *
| 65>
| 66> $new_job
| 67> ! ri-mp2 aug-cc-pvqz aug-cc-pvqz/c tightscf
| 68> %pal nprocs 16 end
| 69> %maxcore 3800
| 70> %base "QZ_B-B_33_AB"
| 71>
| 72> *xyz 0 1
| 73> B         0.786009   -1.018682   -0.309413
| 74> B        -0.786009   -1.018682    0.309413
| 75> N        -1.786336   -0.124368   -0.061444
| 76> N         1.786336   -0.124368    0.061443
| 77> C        -3.142305   -0.176570    0.447602
| 78> H        -3.407395    0.760384    0.947673
| 79> H        -3.237563   -0.992796    1.157531
| 80> H        -3.859244   -0.330394   -0.364939
| 81> C         3.142305   -0.176570   -0.447601
| 82> H         3.407395    0.760384   -0.947673
| 83> H         3.237563   -0.992797   -1.157531
| 84> H         3.859244   -0.330394    0.364940
| 85> C        -1.595539    0.952672   -1.011540
| 86> H        -0.568539    0.963682   -1.366944
| 87> H        -1.815815    1.921524   -0.551892
| 88> H        -2.261297    0.837610   -1.872342
| 89> C         1.595538    0.952672    1.011540
| 90> H         0.568539    0.963682    1.366943
| 91> H         1.815815    1.921524    0.551892
| 92> H         2.261297    0.837611    1.872342
| 93> H         1.120550   -1.852633   -1.108332
| 94> H        -1.120550   -1.852633    1.108332
| 95> *
| 96>
| 97>
| 98>
| 99>
|100>                          ****END OF INPUT****
 Total Charge           Charge          ....    0
 Multiplicity           Mult            ....    1
 Number of Electrons    NEL             ....   62
MP2 TOTAL ENERGY:     -319.094203771 Eh
FINAL SINGLE POINT ENERGY      -319.094203771289
MP2 TOTAL ENERGY:     -319.395837102 Eh
FINAL SINGLE POINT ENERGY      -319.395837101993

CARTESIAN COORDINATES (ANGSTROEM)
---------------------------------
  B      0.786009   -1.018682   -0.309413
  B     -0.786009   -1.018682    0.309413
  N     -1.786336   -0.124368   -0.061444
  N      1.786336   -0.124368    0.061443
  C     -3.142305   -0.176570    0.447602
  H     -3.407395    0.760384    0.947673
  H     -3.237563   -0.992796    1.157531
  H     -3.859244   -0.330394   -0.364939
  C      3.142305   -0.176570   -0.447601
  H      3.407395    0.760384   -0.947673
  H      3.237563   -0.992797   -1.157531
  H      3.859244   -0.330394    0.364940
  C     -1.595539    0.952672   -1.011540
  H     -0.568539    0.963682   -1.366944
  H     -1.815815    1.921524   -0.551892
  H     -2.261297    0.837610   -1.872342
  C      1.595538    0.952672    1.011540
  H      0.568539    0.963682    1.366943
  H      1.815815    1.921524    0.551892
  H      2.261297    0.837611    1.872342
  H      1.120550   -1.852633   -1.108332
  H     -1.120550   -1.852633    1.108332

 Multiplicity           Mult            ....    1
 Number of Electrons    NEL             ....   62
 Basis Dimension        Dim             .... 1284

ORBITAL ENERGIES
----------------

  NO   OCC          E(Eh)            E(eV)
   0   2.0000     -15.549571      -423.1253
   1   2.0000     -15.549571      -423.1253
   2   2.0000     -11.245882      -306.0160
   3   2.0000     -11.245882      -306.0160
   4   2.0000     -11.242952      -305.9363
   5   2.0000     -11.242952      -305.9363
   6   2.0000      -7.545999      -205.3371
   7   2.0000      -7.545237      -205.3163
   8   2.0000      -1.212304       -32.9885
   9   2.0000      -1.208019       -32.8719
  10   2.0000      -0.957774       -26.0624
  11   2.0000      -0.954722       -25.9793
  12   2.0000      -0.877838       -23.8872
  13   2.0000      -0.870191       -23.6791
  14   2.0000      -0.712286       -19.3823
  15   2.0000      -0.677075       -18.4242
  16   2.0000      -0.628023       -17.0894
  17   2.0000      -0.626089       -17.0367
  18   2.0000      -0.620976       -16.8976
  19   2.0000      -0.612343       -16.6627
  20   2.0000      -0.581939       -15.8354
  21   2.0000      -0.544516       -14.8170
  22   2.0000      -0.544091       -14.8055
  23   2.0000      -0.541431       -14.7331
  24   2.0000      -0.517001       -14.0683
  25   2.0000      -0.516414       -14.0523
  26   2.0000      -0.507781       -13.8174
  27   2.0000      -0.478929       -13.0323
  28   2.0000      -0.386491       -10.5170
  29   2.0000      -0.375353       -10.2139
  30   2.0000      -0.370935       -10.0936
  31   0.0000       0.022109         0.6016
  32   0.0000       0.029523         0.8034
  33   0.0000       0.030860         0.8397
  34   0.0000       0.032501         0.8844
  35   0.0000       0.043921         1.1951

MULLIKEN ATOMIC CHARGES
-----------------------
   0 B :    0.758460
   1 B :    0.758459
   2 N :   -0.159620
   3 N :   -0.159620
   4 C :   -0.919126
   5 H :    0.307036
   6 H :    0.315154
   7 H :    0.319826
   8 C :   -0.919126
   9 H :    0.307035
  10 H :    0.315153
  11 H :    0.319826
  12 C :   -1.059868
  13 H :    0.345643
  14 H :    0.328318
  15 H :    0.332590
  16 C :   -1.059870
  17 H :    0.345645
  18 H :    0.328317
  19 H :    0.332589
  20 H :   -0.568411
  21 H :   -0.568411
Sum of atomic charges:    0.0000000

LOEWDIN ATOMIC CHARGES
----------------------
   0 B :   -0.184647
   1 B :   -0.184647
   2 N :    0.534055
   3 N :    0.534055
   4 C :    0.757097
   5 H :   -0.273301
   6 H :   -0.317116
   7 H :   -0.272799
   8 C :    0.757096
   9 H :   -0.273300
  10 H :   -0.317114
  11 H :   -0.272799
  12 C :    0.761501
  13 H :   -0.312235
  14 H :   -0.266038
  15 H :   -0.264638
  16 C :    0.761501
  17 H :   -0.312237
  18 H :   -0.266038
  19 H :   -0.264637
  20 H :   -0.161878
  21 H :   -0.161878

  Mayer bond orders larger than 0.100000
B(  0-B ,  1-B ) :   1.1417 B(  0-B ,  3-N ) :   1.0872 B(  0-B , 20-H ) :   0.7590
B(  0-B , 21-H ) :  -0.1267 B(  1-B ,  2-N ) :   1.0872 B(  1-B , 20-H ) :  -0.1267
B(  1-B , 21-H ) :   0.7590 B(  2-N ,  4-C ) :   0.8551 B(  2-N , 12-C ) :   0.9405
B(  3-N ,  8-C ) :   0.8551 B(  3-N , 16-C ) :   0.9405 B(  4-C ,  5-H ) :   0.9510
B(  4-C ,  6-H ) :   0.9154 B(  4-C ,  7-H ) :   0.9533 B(  8-C ,  9-H ) :   0.9510
B(  8-C , 10-H ) :   0.9154 B(  8-C , 11-H ) :   0.9533 B( 12-C , 13-H ) :   0.8791
B( 12-C , 14-H ) :   0.9199 B( 12-C , 15-H ) :   0.9225 B( 16-C , 17-H ) :   0.8791
B( 16-C , 18-H ) :   0.9199 B( 16-C , 19-H ) :   0.9225

MP2 TOTAL ENERGY:     -319.488347118 Eh
FINAL SINGLE POINT ENERGY      -319.488347117589

DIPOLE MOMENT
-------------
                                X             Y             Z
Electronic contribution:     -0.00000      -3.68082       0.00000
Nuclear contribution   :      0.00000       4.43202       0.00000
                        -----------------------------------------
Total Dipole Moment    :     -0.00000       0.75119       0.00000
                        -----------------------------------------
Magnitude (a.u.)       :      0.75119
Magnitude (Debye)      :      1.90938

Rotational constants in cm-1:     0.144636     0.030871     0.029991
Rotational constants in MHz :  4336.091637   925.477728   899.113681

                             ****ORCA TERMINATED NORMALLY****
TOTAL RUN TIME: 0 days 4 hours 54 minutes 43 seconds 189 msec
