                         Program Version 5.0.4 -  RELEASE  -
|  1> ! ri-mp2 aug-cc-pvdz aug-cc-pvdz/c tightscf
|  2> %pal nprocs 16 end
|  3> %maxcore 3800
|  4> %base "DZ_S-S_30_AB"
|  5> %scf
|  6> STABPerform true
|  7> STABRestartUHFifUnstable true
|  8> end
|  9>
| 10> *xyz 0 1
| 11> S        -1.544768   -0.529290    0.151002
| 12> S        -0.190786    0.955633   -0.237729
| 13> C         1.344319    0.320743    0.492211
| 14> C         1.937809   -0.869678   -0.230254
| 15> H         1.157922    0.100280    1.542317
| 16> H         2.015958    1.181251    0.451377
| 17> H         1.258198   -1.721069   -0.195830
| 18> H         2.873965   -1.173135    0.241254
| 19> H         2.139319   -0.633670   -1.275001
| 20> H        -1.369261   -1.281533   -0.948219
| 21> *
| 22>
| 23> $new_job
| 24> ! ri-mp2 aug-cc-pvtz aug-cc-pvtz/c tightscf
| 25> %pal nprocs 16 end
| 26> %maxcore 3800
| 27> %base "TZ_S-S_30_AB"
| 28>
| 29> *xyz 0 1
| 30> S        -1.544768   -0.529290    0.151002
| 31> S        -0.190786    0.955633   -0.237729
| 32> C         1.344319    0.320743    0.492211
| 33> C         1.937809   -0.869678   -0.230254
| 34> H         1.157922    0.100280    1.542317
| 35> H         2.015958    1.181251    0.451377
| 36> H         1.258198   -1.721069   -0.195830
| 37> H         2.873965   -1.173135    0.241254
| 38> H         2.139319   -0.633670   -1.275001
| 39> H        -1.369261   -1.281533   -0.948219
| 40> *
| 41>
| 42> $new_job
| 43> ! ri-mp2 aug-cc-pvqz aug-cc-pvqz/c tightscf
| 44> %pal nprocs 16 end
| 45> %maxcore 3800
| 46> %base "QZ_S-S_30_AB"
| 47>
| 48> *xyz 0 1
| 49> S        -1.544768   -0.529290    0.151002
| 50> S        -0.190786    0.955633   -0.237729
| 51> C         1.344319    0.320743    0.492211
| 52> C         1.937809   -0.869678   -0.230254
| 53> H         1.157922    0.100280    1.542317
| 54> H         2.015958    1.181251    0.451377
| 55> H         1.258198   -1.721069   -0.195830
| 56> H         2.873965   -1.173135    0.241254
| 57> H         2.139319   -0.633670   -1.275001
| 58> H        -1.369261   -1.281533   -0.948219
| 59> *
| 60>
| 61>
| 62>
| 63>
| 64>                          ****END OF INPUT****
 Total Charge           Charge          ....    0
 Multiplicity           Mult            ....    1
 Number of Electrons    NEL             ....   50
MP2 TOTAL ENERGY:     -874.895009601 Eh
FINAL SINGLE POINT ENERGY      -874.895009601495
MP2 TOTAL ENERGY:     -875.081949114 Eh
FINAL SINGLE POINT ENERGY      -875.081949113728

CARTESIAN COORDINATES (ANGSTROEM)
---------------------------------
  S     -1.544768   -0.529290    0.151002
  S     -0.190786    0.955633   -0.237729
  C      1.344319    0.320743    0.492211
  C      1.937809   -0.869678   -0.230254
  H      1.157922    0.100280    1.542317
  H      2.015958    1.181251    0.451377
  H      1.258198   -1.721069   -0.195830
  H      2.873965   -1.173135    0.241254
  H      2.139319   -0.633670   -1.275001
  H     -1.369261   -1.281533   -0.948219

 Multiplicity           Mult            ....    1
 Number of Electrons    NEL             ....   50
 Basis Dimension        Dim             ....  604

ORBITAL ENERGIES
----------------

  NO   OCC          E(Eh)            E(eV)
   0   2.0000     -91.978435     -2502.8605
   1   2.0000     -91.973688     -2502.7313
   2   2.0000     -11.263713      -306.5012
   3   2.0000     -11.226479      -305.4880
   4   2.0000      -8.979291      -244.3389
   5   2.0000      -8.974032      -244.1958
   6   2.0000      -6.660640      -181.2452
   7   2.0000      -6.659667      -181.2188
   8   2.0000      -6.658740      -181.1935
   9   2.0000      -6.655441      -181.1038
  10   2.0000      -6.654130      -181.0681
  11   2.0000      -6.653362      -181.0472
  12   2.0000      -1.093972       -29.7685
  13   2.0000      -1.009885       -27.4804
  14   2.0000      -0.901332       -24.5265
  15   2.0000      -0.796097       -21.6629
  16   2.0000      -0.640208       -17.4210
  17   2.0000      -0.606774       -16.5112
  18   2.0000      -0.562047       -15.2941
  19   2.0000      -0.548443       -14.9239
  20   2.0000      -0.513462       -13.9720
  21   2.0000      -0.491843       -13.3837
  22   2.0000      -0.453231       -12.3330
  23   2.0000      -0.371414       -10.1067
  24   2.0000      -0.359060        -9.7705
  25   0.0000       0.025913         0.7051
  26   0.0000       0.032780         0.8920
  27   0.0000       0.037301         1.0150
  28   0.0000       0.040344         1.0978
  29   0.0000       0.054560         1.4847

MULLIKEN ATOMIC CHARGES
-----------------------
   0 S :   -0.214583
   1 S :   -0.036278
   2 C :   -0.420629
   3 C :   -0.835542
   4 H :    0.259314
   5 H :    0.318976
   6 H :    0.253143
   7 H :    0.292115
   8 H :    0.268584
   9 H :    0.114901
Sum of atomic charges:   -0.0000000

LOEWDIN ATOMIC CHARGES
----------------------
   0 S :    1.026100
   1 S :    0.733271
   2 C :    0.032935
   3 C :    0.803528
   4 H :   -0.384952
   5 H :   -0.394156
   6 H :   -0.335606
   7 H :   -0.289823
   8 H :   -0.307515
   9 H :   -0.883783

  Mayer bond orders larger than 0.100000
B(  0-S ,  1-S ) :   1.1381 B(  0-S ,  2-C ) :  -0.1030 B(  0-S ,  9-H ) :   0.9707
B(  1-S ,  2-C ) :   0.9069 B(  2-C ,  3-C ) :   0.9851 B(  2-C ,  4-H ) :   0.8988
B(  2-C ,  5-H ) :   0.8281 B(  3-C ,  6-H ) :   0.9217 B(  3-C ,  7-H ) :   0.9010
B(  3-C ,  8-H ) :   0.9374

MP2 TOTAL ENERGY:     -875.140291143 Eh
FINAL SINGLE POINT ENERGY      -875.140291143448

DIPOLE MOMENT
-------------
                                X             Y             Z
Electronic contribution:     -7.39457       3.13086       0.15138
Nuclear contribution   :      8.10494      -3.53027      -0.18088
                        -----------------------------------------
Total Dipole Moment    :      0.71037      -0.39940      -0.02949
                        -----------------------------------------
Magnitude (a.u.)       :      0.81548
Magnitude (Debye)      :      2.07279

Rotational constants in cm-1:     0.249619     0.095289     0.075887
Rotational constants in MHz :  7483.393677  2856.694465  2275.020610

                             ****ORCA TERMINATED NORMALLY****
TOTAL RUN TIME: 0 days 0 hours 22 minutes 7 seconds 945 msec
