                         Program Version 5.0.4 -  RELEASE  -
|  1> ! ri-mp2 aug-cc-pvdz aug-cc-pvdz/c tightscf
|  2> %pal nprocs 16 end
|  3> %maxcore 3800
|  4> %base "DZ_S-S_6_A"
|  5> %scf
|  6> STABPerform true
|  7> STABRestartUHFifUnstable true
|  8> end
|  9>
| 10> *xyz 0 2
| 11> S         2.588080    0.062324   -0.564538
| 12> C         1.088973   -0.188253    0.331655
| 13> O         0.887286   -1.273285    0.805109
| 14> C         0.171821    0.998358    0.471692
| 15> C        -1.288062    0.604561    0.649123
| 16> H         0.304851    1.657865   -0.389500
| 17> H         0.532257    1.551795    1.343908
| 18> C        -1.904664    0.003419   -0.605703
| 19> H        -1.852163    1.492593    0.943967
| 20> H        -1.364813   -0.106955    1.472804
| 21> C        -3.361260   -0.384233   -0.409849
| 22> H        -1.330953   -0.876847   -0.904467
| 23> H        -1.822042    0.721661   -1.427010
| 24> H        -3.463693   -1.128156    0.381948
| 25> H        -3.786293   -0.807317   -1.320104
| 26> H        -3.965571    0.481349   -0.131309
| 27> *
| 28>
| 29> $new_job
| 30> ! ri-mp2 aug-cc-pvtz aug-cc-pvtz/c tightscf
| 31> %pal nprocs 16 end
| 32> %maxcore 3800
| 33> %base "TZ_S-S_6_A"
| 34>
| 35> *xyz 0 2
| 36> S         2.588080    0.062324   -0.564538
| 37> C         1.088973   -0.188253    0.331655
| 38> O         0.887286   -1.273285    0.805109
| 39> C         0.171821    0.998358    0.471692
| 40> C        -1.288062    0.604561    0.649123
| 41> H         0.304851    1.657865   -0.389500
| 42> H         0.532257    1.551795    1.343908
| 43> C        -1.904664    0.003419   -0.605703
| 44> H        -1.852163    1.492593    0.943967
| 45> H        -1.364813   -0.106955    1.472804
| 46> C        -3.361260   -0.384233   -0.409849
| 47> H        -1.330953   -0.876847   -0.904467
| 48> H        -1.822042    0.721661   -1.427010
| 49> H        -3.463693   -1.128156    0.381948
| 50> H        -3.786293   -0.807317   -1.320104
| 51> H        -3.965571    0.481349   -0.131309
| 52> *
| 53>
| 54> $new_job
| 55> ! ri-mp2 aug-cc-pvqz aug-cc-pvqz/c tightscf
| 56> %pal nprocs 16 end
| 57> %maxcore 3800
| 58> %base "QZ_S-S_6_A"
| 59>
| 60> *xyz 0 2
| 61> S         2.588080    0.062324   -0.564538
| 62> C         1.088973   -0.188253    0.331655
| 63> O         0.887286   -1.273285    0.805109
| 64> C         0.171821    0.998358    0.471692
| 65> C        -1.288062    0.604561    0.649123
| 66> H         0.304851    1.657865   -0.389500
| 67> H         0.532257    1.551795    1.343908
| 68> C        -1.904664    0.003419   -0.605703
| 69> H        -1.852163    1.492593    0.943967
| 70> H        -1.364813   -0.106955    1.472804
| 71> C        -3.361260   -0.384233   -0.409849
| 72> H        -1.330953   -0.876847   -0.904467
| 73> H        -1.822042    0.721661   -1.427010
| 74> H        -3.463693   -1.128156    0.381948
| 75> H        -3.786293   -0.807317   -1.320104
| 76> H        -3.965571    0.481349   -0.131309
| 77> *
| 78>
| 79>
| 80>
| 81>
| 82>                          ****END OF INPUT****
 Total Charge           Charge          ....    0
 Multiplicity           Mult            ....    2
 Number of Electrons    NEL             ....   63
MP2 TOTAL ENERGY:     -668.032246754 Eh
FINAL SINGLE POINT ENERGY      -668.032246754199
MP2 TOTAL ENERGY:     -668.322926884 Eh
FINAL SINGLE POINT ENERGY      -668.322926883909

CARTESIAN COORDINATES (ANGSTROEM)
---------------------------------
  S      2.588080    0.062324   -0.564538
  C      1.088973   -0.188253    0.331655
  O      0.887286   -1.273285    0.805109
  C      0.171821    0.998358    0.471692
  C     -1.288062    0.604561    0.649123
  H      0.304851    1.657865   -0.389500
  H      0.532257    1.551795    1.343908
  C     -1.904664    0.003419   -0.605703
  H     -1.852163    1.492593    0.943967
  H     -1.364813   -0.106955    1.472804
  C     -3.361260   -0.384233   -0.409849
  H     -1.330953   -0.876847   -0.904467
  H     -1.822042    0.721661   -1.427010
  H     -3.463693   -1.128156    0.381948
  H     -3.786293   -0.807317   -1.320104
  H     -3.965571    0.481349   -0.131309

 Multiplicity           Mult            ....    2
 Number of Electrons    NEL             ....   63
 Basis Dimension        Dim             ....  978

ORBITAL ENERGIES
----------------
                 SPIN UP ORBITALS
  NO   OCC          E(Eh)            E(eV)
   0   1.0000     -91.998271     -2503.4002
   1   1.0000     -20.561193      -559.4985
   2   1.0000     -11.368672      -309.3573
   3   1.0000     -11.254069      -306.2388
   4   1.0000     -11.231121      -305.6143
   5   1.0000     -11.222627      -305.3832
   6   1.0000     -11.213696      -305.1402
   7   1.0000      -9.001350      -244.9392
   8   1.0000      -6.697412      -182.2458
   9   1.0000      -6.678346      -181.7270
  10   1.0000      -6.677238      -181.6969
  11   1.0000      -1.417019       -38.5590
  12   1.0000      -1.104802       -30.0632
  13   1.0000      -1.051920       -28.6242
  14   1.0000      -1.002040       -27.2669
  15   1.0000      -0.897865       -24.4322
  16   1.0000      -0.812317       -22.1043
  17   1.0000      -0.740509       -20.1503
  18   1.0000      -0.676056       -18.3964
  19   1.0000      -0.640693       -17.4342
  20   1.0000      -0.630284       -17.1509
  21   1.0000      -0.621026       -16.8990
  22   1.0000      -0.585303       -15.9269
  23   1.0000      -0.552824       -15.0431
  24   1.0000      -0.545273       -14.8376
  25   1.0000      -0.521639       -14.1945
  26   1.0000      -0.494879       -13.4664
  27   1.0000      -0.477073       -12.9818
  28   1.0000      -0.473063       -12.8727
  29   1.0000      -0.462920       -12.5967
  30   1.0000      -0.420802       -11.4506
  31   1.0000      -0.406186       -11.0529
  32   0.0000       0.023693         0.6447
  33   0.0000       0.029610         0.8057
  34   0.0000       0.033324         0.9068
  35   0.0000       0.038686         1.0527
  36   0.0000       0.048082         1.3084

                 SPIN DOWN ORBITALS
  NO   OCC          E(Eh)            E(eV)
   0   1.0000     -91.988887     -2503.1449
   1   1.0000     -20.560001      -559.4661
   2   1.0000     -11.369527      -309.3806
   3   1.0000     -11.253826      -306.2322
   4   1.0000     -11.230956      -305.6098
   5   1.0000     -11.222638      -305.3835
   6   1.0000     -11.213694      -305.1401
   7   1.0000      -8.990991      -244.6573
   8   1.0000      -6.673413      -181.5928
   9   1.0000      -6.671569      -181.5426
  10   1.0000      -6.655152      -181.0959
  11   1.0000      -1.413142       -38.4536
  12   1.0000      -1.101944       -29.9854
  13   1.0000      -1.031634       -28.0722
  14   1.0000      -0.961435       -26.1620
  15   1.0000      -0.883892       -24.0519
  16   1.0000      -0.808368       -21.9968
  17   1.0000      -0.731630       -19.9087
  18   1.0000      -0.666031       -18.1236
  19   1.0000      -0.638251       -17.3677
  20   1.0000      -0.621440       -16.9102
  21   1.0000      -0.614839       -16.7306
  22   1.0000      -0.581046       -15.8111
  23   1.0000      -0.549216       -14.9449
  24   1.0000      -0.542024       -14.7492
  25   1.0000      -0.520580       -14.1657
  26   1.0000      -0.490054       -13.3350
  27   1.0000      -0.476942       -12.9782
  28   1.0000      -0.472798       -12.8655
  29   1.0000      -0.412636       -11.2284
  30   1.0000      -0.386476       -10.5165
  31   0.0000      -0.000744        -0.0202
  32   0.0000       0.024155         0.6573
  33   0.0000       0.029767         0.8100
  34   0.0000       0.034141         0.9290
  35   0.0000       0.039018         1.0617

MULLIKEN ATOMIC CHARGES AND SPIN POPULATIONS
--------------------------------------------
   0 S :   -0.010419    1.142228
   1 C :    0.490680   -0.155945
   2 O :   -0.780760    0.007889
   3 C :   -0.399470    0.007016
   4 C :   -0.328430    0.000853
   5 H :    0.223144   -0.002403
   6 H :    0.307720   -0.000206
   7 C :   -0.334055    0.000011
   8 H :    0.271956    0.001537
   9 H :    0.253291   -0.000475
  10 C :   -0.842396   -0.000073
  11 H :    0.228745   -0.000197
  12 H :    0.218942   -0.000350
  13 H :    0.226450    0.000093
  14 H :    0.252390    0.000015
  15 H :    0.222210    0.000009
Sum of atomic charges         :   -0.0000000

LOEWDIN ATOMIC CHARGES AND SPIN POPULATIONS
-------------------------------------------
   0 S :    1.053020    0.739534
   1 C :   -1.339297    0.189211
   2 O :    0.608102    0.025265
   3 C :    0.345160    0.023036
   4 C :    0.478094    0.002364
   5 H :   -0.329548    0.017765
   6 H :   -0.290009    0.001592
   7 C :    0.494268    0.000085
   8 H :   -0.265489    0.000480
   9 H :   -0.286938    0.000629
  10 C :    0.931393    0.000036
  11 H :   -0.285470   -0.000005
  12 H :   -0.269327   -0.000060
  13 H :   -0.280363    0.000031
  14 H :   -0.280734    0.000006
  15 H :   -0.282861    0.000032

  Mayer bond orders larger than 0.100000
B(  0-S ,  1-C ) :   0.9705 B(  0-S ,  3-C ) :  -0.2004 B(  1-C ,  2-O ) :   1.3922
B(  1-C ,  3-C ) :   0.9184 B(  2-O ,  3-C ) :   0.1460 B(  3-C ,  4-C ) :   0.9368
B(  3-C ,  5-H ) :   0.9605 B(  3-C ,  6-H ) :   0.8774 B(  4-C ,  7-C ) :   0.8390
B(  4-C ,  8-H ) :   0.8921 B(  4-C ,  9-H ) :   0.8530 B(  7-C , 10-C ) :   0.9307
B(  7-C , 11-H ) :   0.8899 B(  7-C , 12-H ) :   0.9022 B( 10-C , 13-H ) :   0.9560
B( 10-C , 14-H ) :   1.0217 B( 10-C , 15-H ) :   0.9644

MP2 TOTAL ENERGY:     -668.414919969 Eh
FINAL SINGLE POINT ENERGY      -668.414919969066

DIPOLE MOMENT
-------------
                                X             Y             Z
Electronic contribution:     16.61807      -1.94029      -0.21967
Nuclear contribution   :    -16.97680       2.99264       0.00035
                        -----------------------------------------
Total Dipole Moment    :     -0.35873       1.05234      -0.21932
                        -----------------------------------------
Magnitude (a.u.)       :      1.13323
Magnitude (Debye)      :      2.88045

Rotational constants in cm-1:     0.166371     0.031388     0.030739
Rotational constants in MHz :  4987.666528   940.998511   921.545999

                             ****ORCA TERMINATED NORMALLY****
TOTAL RUN TIME: 0 days 3 hours 56 minutes 11 seconds 429 msec
