                         Program Version 5.0.4 -  RELEASE  -
|  1> ! ri-mp2 aug-cc-pvdz aug-cc-pvdz/c tightscf
|  2> %pal nprocs 16 end
|  3> %maxcore 3800
|  4> %base "DZ_B-Si_82_AB"
|  5>
|  6> *xyz 0 1
|  7> C         2.576986   -0.621469   -0.045646
|  8> Si         1.961729    1.163223    0.358868
|  9> O         2.054132   -1.605212    0.395193
| 10> O         3.660305   -0.755623   -0.847414
| 11> B         0.021376    1.588737    0.043610
| 12> C        -1.184281    0.659578    0.005538
| 13> H         3.980110    0.111745   -1.123088
| 14> C        -2.454689    1.199913   -0.256484
| 15> C        -1.096052   -0.723838    0.229480
| 16> C        -2.222295   -1.522851    0.191402
| 17> C        -3.460855   -0.960810   -0.075817
| 18> C        -3.579957    0.402834   -0.301129
| 19> H        -4.549488    0.836277   -0.507134
| 20> H        -2.544292    2.265145   -0.426582
| 21> H        -0.134482   -1.173711    0.438078
| 22> H        -2.136377   -2.586563    0.368097
| 23> H        -4.341572   -1.589579   -0.107556
| 24> H        -0.177165    2.759568   -0.100660
| 25> H         2.837012    2.067620   -0.435284
| 26> H         2.306538    1.367227    1.785633
| 27> *
| 28>
| 29> $new_job
| 30> ! ri-mp2 aug-cc-pvtz aug-cc-pvtz/c tightscf
| 31> %pal nprocs 16 end
| 32> %maxcore 3800
| 33> %base "TZ_B-Si_82_AB"
| 34>
| 35> *xyz 0 1
| 36> C         2.576986   -0.621469   -0.045646
| 37> Si         1.961729    1.163223    0.358868
| 38> O         2.054132   -1.605212    0.395193
| 39> O         3.660305   -0.755623   -0.847414
| 40> B         0.021376    1.588737    0.043610
| 41> C        -1.184281    0.659578    0.005538
| 42> H         3.980110    0.111745   -1.123088
| 43> C        -2.454689    1.199913   -0.256484
| 44> C        -1.096052   -0.723838    0.229480
| 45> C        -2.222295   -1.522851    0.191402
| 46> C        -3.460855   -0.960810   -0.075817
| 47> C        -3.579957    0.402834   -0.301129
| 48> H        -4.549488    0.836277   -0.507134
| 49> H        -2.544292    2.265145   -0.426582
| 50> H        -0.134482   -1.173711    0.438078
| 51> H        -2.136377   -2.586563    0.368097
| 52> H        -4.341572   -1.589579   -0.107556
| 53> H        -0.177165    2.759568   -0.100660
| 54> H         2.837012    2.067620   -0.435284
| 55> H         2.306538    1.367227    1.785633
| 56> *
| 57>
| 58> $new_job
| 59> ! ri-mp2 aug-cc-pvqz aug-cc-pvqz/c tightscf
| 60> %pal nprocs 16 end
| 61> %maxcore 3800
| 62> %base "QZ_B-Si_82_AB"
| 63>
| 64> *xyz 0 1
| 65> C         2.576986   -0.621469   -0.045646
| 66> Si         1.961729    1.163223    0.358868
| 67> O         2.054132   -1.605212    0.395193
| 68> O         3.660305   -0.755623   -0.847414
| 69> B         0.021376    1.588737    0.043610
| 70> C        -1.184281    0.659578    0.005538
| 71> H         3.980110    0.111745   -1.123088
| 72> C        -2.454689    1.199913   -0.256484
| 73> C        -1.096052   -0.723838    0.229480
| 74> C        -2.222295   -1.522851    0.191402
| 75> C        -3.460855   -0.960810   -0.075817
| 76> C        -3.579957    0.402834   -0.301129
| 77> H        -4.549488    0.836277   -0.507134
| 78> H        -2.544292    2.265145   -0.426582
| 79> H        -0.134482   -1.173711    0.438078
| 80> H        -2.136377   -2.586563    0.368097
| 81> H        -4.341572   -1.589579   -0.107556
| 82> H        -0.177165    2.759568   -0.100660
| 83> H         2.837012    2.067620   -0.435284
| 84> H         2.306538    1.367227    1.785633
| 85> *
| 86>
| 87>
| 88>
| 89>
| 90>                          ****END OF INPUT****
 Total Charge           Charge          ....    0
 Multiplicity           Mult            ....    1
 Number of Electrons    NEL             ....   86
MP2 TOTAL ENERGY:     -735.221362432 Eh
FINAL SINGLE POINT ENERGY      -735.221362432394
MP2 TOTAL ENERGY:     -735.637033533 Eh
FINAL SINGLE POINT ENERGY      -735.637033533155

CARTESIAN COORDINATES (ANGSTROEM)
---------------------------------
  C      2.576986   -0.621469   -0.045646
  Si     1.961729    1.163223    0.358868
  O      2.054132   -1.605212    0.395193
  O      3.660305   -0.755623   -0.847414
  B      0.021376    1.588737    0.043610
  C     -1.184281    0.659578    0.005538
  H      3.980110    0.111745   -1.123088
  C     -2.454689    1.199913   -0.256484
  C     -1.096052   -0.723838    0.229480
  C     -2.222295   -1.522851    0.191402
  C     -3.460855   -0.960810   -0.075817
  C     -3.579957    0.402834   -0.301129
  H     -4.549488    0.836277   -0.507134
  H     -2.544292    2.265145   -0.426582
  H     -0.134482   -1.173711    0.438078
  H     -2.136377   -2.586563    0.368097
  H     -4.341572   -1.589579   -0.107556
  H     -0.177165    2.759568   -0.100660
  H      2.837012    2.067620   -0.435284
  H      2.306538    1.367227    1.785633

 Multiplicity           Mult            ....    1
 Number of Electrons    NEL             ....   86
 Basis Dimension        Dim             .... 1298

ORBITAL ENERGIES
----------------

  NO   OCC          E(Eh)            E(eV)
   0   2.0000     -68.779809     -1871.5938
   1   2.0000     -20.608878      -560.7961
   2   2.0000     -20.547248      -559.1190
   3   2.0000     -11.366851      -309.3077
   4   2.0000     -11.253625      -306.2267
   5   2.0000     -11.250138      -306.1318
   6   2.0000     -11.243613      -305.9543
   7   2.0000     -11.237741      -305.7945
   8   2.0000     -11.235043      -305.7211
   9   2.0000     -11.220510      -305.3256
  10   2.0000      -7.609194      -207.0567
  11   2.0000      -6.131576      -166.8487
  12   2.0000      -4.237782      -115.3159
  13   2.0000      -4.237687      -115.3133
  14   2.0000      -4.237063      -115.2963
  15   2.0000      -1.457429       -39.6586
  16   2.0000      -1.364601       -37.1327
  17   2.0000      -1.163574       -31.6625
  18   2.0000      -1.027704       -27.9653
  19   2.0000      -1.026875       -27.9427
  20   2.0000      -0.849449       -23.1147
  21   2.0000      -0.839456       -22.8428
  22   2.0000      -0.834628       -22.7114
  23   2.0000      -0.792232       -21.5577
  24   2.0000      -0.731106       -19.8944
  25   2.0000      -0.685749       -18.6602
  26   2.0000      -0.663758       -18.0618
  27   2.0000      -0.645151       -17.5554
  28   2.0000      -0.637383       -17.3441
  29   2.0000      -0.627055       -17.0630
  30   2.0000      -0.611730       -16.6460
  31   2.0000      -0.598466       -16.2851
  32   2.0000      -0.569353       -15.4929
  33   2.0000      -0.544300       -14.8112
  34   2.0000      -0.515208       -14.0195
  35   2.0000      -0.503526       -13.7016
  36   2.0000      -0.497016       -13.5245
  37   2.0000      -0.481865       -13.1122
  38   2.0000      -0.479487       -13.0475
  39   2.0000      -0.428838       -11.6693
  40   2.0000      -0.412417       -11.2224
  41   2.0000      -0.355026        -9.6607
  42   2.0000      -0.347002        -9.4424
  43   0.0000       0.018362         0.4997
  44   0.0000       0.023076         0.6279
  45   0.0000       0.024725         0.6728
  46   0.0000       0.028647         0.7795
  47   0.0000       0.036164         0.9841

MULLIKEN ATOMIC CHARGES
-----------------------
   0 C :    0.870903
   1 Si:    0.734204
   2 O :   -0.855712
   3 O :   -0.823576
   4 B :    0.687760
   5 C :    0.248108
   6 H :    0.355746
   7 C :   -0.409532
   8 C :   -0.535654
   9 C :   -0.362220
  10 C :   -0.347836
  11 C :   -0.344202
  12 H :    0.270627
  13 H :    0.241371
  14 H :    0.521006
  15 H :    0.237836
  16 H :    0.344169
  17 H :   -0.446069
  18 H :   -0.248764
  19 H :   -0.138165
Sum of atomic charges:    0.0000000

LOEWDIN ATOMIC CHARGES
----------------------
   0 C :   -1.029817
   1 Si:    0.903550
   2 O :    0.620656
   3 O :    1.173799
   4 B :   -0.101363
   5 C :   -0.004134
   6 H :   -0.874277
   7 C :    0.310036
   8 C :    0.309878
   9 C :    0.370451
  10 C :    0.349067
  11 C :    0.359750
  12 H :   -0.320744
  13 H :   -0.326041
  14 H :   -0.437306
  15 H :   -0.315645
  16 H :   -0.311306
  17 H :   -0.209000
  18 H :   -0.236563
  19 H :   -0.230989

  Mayer bond orders larger than 0.100000
B(  0-C ,  1-Si) :   0.6186 B(  0-C ,  2-O ) :   1.5175 B(  0-C ,  3-O ) :   0.7496
B(  1-Si,  4-B ) :   0.7317 B(  1-Si, 18-H ) :   0.8176 B(  1-Si, 19-H ) :   0.7984
B(  2-O ,  8-C ) :   0.1329 B(  2-O , 14-H ) :  -0.1556 B(  3-O ,  6-H ) :   0.8226
B(  4-B ,  5-C ) :   0.9551 B(  4-B , 17-H ) :   0.6809 B(  5-C ,  7-C ) :   0.8933
B(  5-C ,  8-C ) :   0.8340 B(  5-C ,  9-C ) :  -0.3756 B(  5-C , 11-C ) :  -0.3484
B(  7-C ,  9-C ) :   0.1583 B(  7-C , 11-C ) :   1.2931 B(  7-C , 12-H ) :  -0.1610
B(  7-C , 13-H ) :   1.0099 B(  8-C ,  9-C ) :   1.2807 B(  8-C , 11-C ) :   0.1224
B(  8-C , 14-H ) :   0.8063 B(  8-C , 15-H ) :  -0.1148 B(  9-C , 10-C ) :   1.2236
B(  9-C , 15-H ) :   1.1067 B(  9-C , 16-H ) :  -0.1196 B( 10-C , 11-C ) :   1.1489
B( 10-C , 16-H ) :   1.0049 B( 11-C , 12-H ) :   1.1121

MP2 TOTAL ENERGY:     -735.772480785 Eh
FINAL SINGLE POINT ENERGY      -735.772480785083

DIPOLE MOMENT
-------------
                                X             Y             Z
Electronic contribution:      4.11535      -1.42906      -0.17199
Nuclear contribution   :     -4.73187       2.62854      -0.16989
                        -----------------------------------------
Total Dipole Moment    :     -0.61652       1.19947      -0.34188
                        -----------------------------------------
Magnitude (a.u.)       :      1.39130
Magnitude (Debye)      :      3.53639

Rotational constants in cm-1:     0.068428     0.016254     0.013692
Rotational constants in MHz :  2051.416229   487.293007   410.471128

                             ****ORCA TERMINATED NORMALLY****
TOTAL RUN TIME: 0 days 0 hours 51 minutes 0 seconds 73 msec
