                         Program Version 5.0.4 -  RELEASE  -
|  1> ! ri-mp2 aug-cc-pvdz aug-cc-pvdz/c tightscf
|  2> %pal nprocs 16 end
|  3> %maxcore 3800
|  4> %base "DZ_Si-S_21_AB"
|  5> %scf
|  6> STABPerform true
|  7> STABRestartUHFifUnstable true
|  8> end
|  9>
| 10> *xyz 0 1
| 11> Si        -1.812370    0.561498    0.093494
| 12> S        -0.393481   -0.965175   -0.397115
| 13> S         1.213103   -0.199881    0.655216
| 14> C         2.016748    0.828306   -0.589821
| 15> H         2.894579    1.257136   -0.106314
| 16> H         1.360817    1.631312   -0.917316
| 17> H         2.330971    0.228617   -1.440210
| 18> H        -3.052039    0.226717   -0.639569
| 19> H        -1.308866    1.879898   -0.341999
| 20> H        -2.066718    0.586418    1.545807
| 21> *
| 22>
| 23> $new_job
| 24> ! ri-mp2 aug-cc-pvtz aug-cc-pvtz/c tightscf
| 25> %pal nprocs 16 end
| 26> %maxcore 3800
| 27> %base "TZ_Si-S_21_AB"
| 28>
| 29> *xyz 0 1
| 30> Si        -1.812370    0.561498    0.093494
| 31> S        -0.393481   -0.965175   -0.397115
| 32> S         1.213103   -0.199881    0.655216
| 33> C         2.016748    0.828306   -0.589821
| 34> H         2.894579    1.257136   -0.106314
| 35> H         1.360817    1.631312   -0.917316
| 36> H         2.330971    0.228617   -1.440210
| 37> H        -3.052039    0.226717   -0.639569
| 38> H        -1.308866    1.879898   -0.341999
| 39> H        -2.066718    0.586418    1.545807
| 40> *
| 41>
| 42> $new_job
| 43> ! ri-mp2 aug-cc-pvqz aug-cc-pvqz/c tightscf
| 44> %pal nprocs 16 end
| 45> %maxcore 3800
| 46> %base "QZ_Si-S_21_AB"
| 47>
| 48> *xyz 0 1
| 49> Si        -1.812370    0.561498    0.093494
| 50> S        -0.393481   -0.965175   -0.397115
| 51> S         1.213103   -0.199881    0.655216
| 52> C         2.016748    0.828306   -0.589821
| 53> H         2.894579    1.257136   -0.106314
| 54> H         1.360817    1.631312   -0.917316
| 55> H         2.330971    0.228617   -1.440210
| 56> H        -3.052039    0.226717   -0.639569
| 57> H        -1.308866    1.879898   -0.341999
| 58> H        -2.066718    0.586418    1.545807
| 59> *
| 60>
| 61>
| 62>
| 63>
| 64>                          ****END OF INPUT****
 Total Charge           Charge          ....    0
 Multiplicity           Mult            ....    1
 Number of Electrons    NEL             ....   58
MP2 TOTAL ENERGY:    -1125.925592502 Eh
FINAL SINGLE POINT ENERGY     -1125.925592502491
MP2 TOTAL ENERGY:    -1126.112526557 Eh
FINAL SINGLE POINT ENERGY     -1126.112526556683

CARTESIAN COORDINATES (ANGSTROEM)
---------------------------------
  Si    -1.812370    0.561498    0.093494
  S     -0.393481   -0.965175   -0.397115
  S      1.213103   -0.199881    0.655216
  C      2.016748    0.828306   -0.589821
  H      2.894579    1.257136   -0.106314
  H      1.360817    1.631312   -0.917316
  H      2.330971    0.228617   -1.440210
  H     -3.052039    0.226717   -0.639569
  H     -1.308866    1.879898   -0.341999
  H     -2.066718    0.586418    1.545807

 Multiplicity           Mult            ....    1
 Number of Electrons    NEL             ....   58
 Basis Dimension        Dim             ....  608

ORBITAL ENERGIES
----------------

  NO   OCC          E(Eh)            E(eV)
   0   2.0000     -91.980035     -2502.9040
   1   2.0000     -91.965629     -2502.5120
   2   2.0000     -68.797337     -1872.0707
   3   2.0000     -11.261197      -306.4327
   4   2.0000      -8.979988      -244.3579
   5   2.0000      -8.968172      -244.0364
   6   2.0000      -6.661373      -181.2652
   7   2.0000      -6.660158      -181.2321
   8   2.0000      -6.659250      -181.2074
   9   2.0000      -6.649442      -180.9405
  10   2.0000      -6.648390      -180.9119
  11   2.0000      -6.647739      -180.8942
  12   2.0000      -6.144712      -167.2061
  13   2.0000      -4.251324      -115.6844
  14   2.0000      -4.250785      -115.6697
  15   2.0000      -4.250491      -115.6617
  16   2.0000      -1.076615       -29.2962
  17   2.0000      -0.963515       -26.2186
  18   2.0000      -0.822175       -22.3725
  19   2.0000      -0.708623       -19.2826
  20   2.0000      -0.604192       -16.4409
  21   2.0000      -0.601555       -16.3691
  22   2.0000      -0.537620       -14.6294
  23   2.0000      -0.506921       -13.7940
  24   2.0000      -0.498016       -13.5517
  25   2.0000      -0.480996       -13.0886
  26   2.0000      -0.447698       -12.1825
  27   2.0000      -0.371770       -10.1164
  28   2.0000      -0.350332        -9.5330
  29   0.0000       0.024807         0.6750
  30   0.0000       0.032412         0.8820
  31   0.0000       0.035620         0.9693
  32   0.0000       0.039797         1.0829
  33   0.0000       0.049857         1.3567

MULLIKEN ATOMIC CHARGES
-----------------------
   0 Si:    0.813717
   1 S :   -0.360878
   2 S :    0.017821
   3 C :   -0.914149
   4 H :    0.335236
   5 H :    0.308675
   6 H :    0.280735
   7 H :   -0.172149
   8 H :   -0.168140
   9 H :   -0.140868
Sum of atomic charges:    0.0000000

LOEWDIN ATOMIC CHARGES
----------------------
   0 Si:    0.466047
   1 S :    0.558046
   2 S :    0.680359
   3 C :    0.438755
   4 H :   -0.399848
   5 H :   -0.403534
   6 H :   -0.389687
   7 H :   -0.328087
   8 H :   -0.308218
   9 H :   -0.313832

  Mayer bond orders larger than 0.100000
B(  0-Si,  1-S ) :   0.7368 B(  0-Si,  7-H ) :   0.8394 B(  0-Si,  8-H ) :   0.8185
B(  0-Si,  9-H ) :   0.8275 B(  1-S ,  2-S ) :   1.0814 B(  2-S ,  3-C ) :   1.0019
B(  3-C ,  4-H ) :   0.8512 B(  3-C ,  5-H ) :   0.8862 B(  3-C ,  6-H ) :   0.9174

MP2 TOTAL ENERGY:    -1126.172404029 Eh
FINAL SINGLE POINT ENERGY     -1126.172404029492

DIPOLE MOMENT
-------------
                                X             Y             Z
Electronic contribution:     -0.10783      -5.08792       1.60028
Nuclear contribution   :      0.24053       5.74150      -1.89005
                        -----------------------------------------
Total Dipole Moment    :      0.13269       0.65358      -0.28976
                        -----------------------------------------
Magnitude (a.u.)       :      0.72714
Magnitude (Debye)      :      1.84825

Rotational constants in cm-1:     0.198003     0.066516     0.059992
Rotational constants in MHz :  5935.982129  1994.091674  1798.500543

                             ****ORCA TERMINATED NORMALLY****
TOTAL RUN TIME: 0 days 0 hours 21 minutes 54 seconds 165 msec
