                         Program Version 5.0.4 -  RELEASE  -
|  1> ! ri-mp2 aug-cc-pvdz aug-cc-pvdz/c tightscf
|  2> %pal nprocs 16 end
|  3> %maxcore 3800
|  4> %base "DZ_P-C_20_AB"
|  5> %scf
|  6> STABPerform true
|  7> STABRestartUHFifUnstable true
|  8> end
|  9>
| 10> *xyz 0 1
| 11> C         1.564630   -0.042894   -0.046303
| 12> P        -1.289685   -0.063149    0.042957
| 13> O        -1.416228   -0.121409    1.502186
| 14> C         2.715028   -0.349843   -1.005105
| 15> H         2.611852    0.207820   -1.937795
| 16> H         2.750214   -1.413043   -1.249298
| 17> C         1.783366   -0.801338    1.262714
| 18> H         1.862301   -1.874953    1.080309
| 19> H         0.962290   -0.634946    1.958165
| 20> H         2.710987   -0.474958    1.735665
| 21> H         3.670640   -0.078063   -0.554365
| 22> C         1.533907    1.459960    0.230814
| 23> H         2.506584    1.790157    0.597764
| 24> H         0.795575    1.708133    0.993795
| 25> H         1.301695    2.028367   -0.670898
| 26> C         0.264919   -0.521462   -0.723445
| 27> H         0.266495   -1.611283   -0.783586
| 28> H         0.212730   -0.150462   -1.749869
| 29> O        -2.290029   -1.014325   -0.754874
| 30> H        -3.134484   -1.129594   -0.303877
| 31> O        -1.610407    1.398282   -0.529553
| 32> H        -1.809381    2.013129    0.185516
| 33> *
| 34>
| 35> $new_job
| 36> ! ri-mp2 aug-cc-pvtz aug-cc-pvtz/c tightscf
| 37> %pal nprocs 16 end
| 38> %maxcore 3800
| 39> %base "TZ_P-C_20_AB"
| 40>
| 41> *xyz 0 1
| 42> C         1.564630   -0.042894   -0.046303
| 43> P        -1.289685   -0.063149    0.042957
| 44> O        -1.416228   -0.121409    1.502186
| 45> C         2.715028   -0.349843   -1.005105
| 46> H         2.611852    0.207820   -1.937795
| 47> H         2.750214   -1.413043   -1.249298
| 48> C         1.783366   -0.801338    1.262714
| 49> H         1.862301   -1.874953    1.080309
| 50> H         0.962290   -0.634946    1.958165
| 51> H         2.710987   -0.474958    1.735665
| 52> H         3.670640   -0.078063   -0.554365
| 53> C         1.533907    1.459960    0.230814
| 54> H         2.506584    1.790157    0.597764
| 55> H         0.795575    1.708133    0.993795
| 56> H         1.301695    2.028367   -0.670898
| 57> C         0.264919   -0.521462   -0.723445
| 58> H         0.266495   -1.611283   -0.783586
| 59> H         0.212730   -0.150462   -1.749869
| 60> O        -2.290029   -1.014325   -0.754874
| 61> H        -3.134484   -1.129594   -0.303877
| 62> O        -1.610407    1.398282   -0.529553
| 63> H        -1.809381    2.013129    0.185516
| 64> *
| 65>
| 66> $new_job
| 67> ! ri-mp2 aug-cc-pvqz aug-cc-pvqz/c tightscf
| 68> %pal nprocs 16 end
| 69> %maxcore 3800
| 70> %base "QZ_P-C_20_AB"
| 71>
| 72> *xyz 0 1
| 73> C         1.564630   -0.042894   -0.046303
| 74> P        -1.289685   -0.063149    0.042957
| 75> O        -1.416228   -0.121409    1.502186
| 76> C         2.715028   -0.349843   -1.005105
| 77> H         2.611852    0.207820   -1.937795
| 78> H         2.750214   -1.413043   -1.249298
| 79> C         1.783366   -0.801338    1.262714
| 80> H         1.862301   -1.874953    1.080309
| 81> H         0.962290   -0.634946    1.958165
| 82> H         2.710987   -0.474958    1.735665
| 83> H         3.670640   -0.078063   -0.554365
| 84> C         1.533907    1.459960    0.230814
| 85> H         2.506584    1.790157    0.597764
| 86> H         0.795575    1.708133    0.993795
| 87> H         1.301695    2.028367   -0.670898
| 88> C         0.264919   -0.521462   -0.723445
| 89> H         0.266495   -1.611283   -0.783586
| 90> H         0.212730   -0.150462   -1.749869
| 91> O        -2.290029   -1.014325   -0.754874
| 92> H        -3.134484   -1.129594   -0.303877
| 93> O        -1.610407    1.398282   -0.529553
| 94> H        -1.809381    2.013129    0.185516
| 95> *
| 96>
| 97>
| 98>
| 99>
|100>                          ****END OF INPUT****
 Total Charge           Charge          ....    0
 Multiplicity           Mult            ....    1
 Number of Electrons    NEL             ....   82
MP2 TOTAL ENERGY:     -763.867391768 Eh
FINAL SINGLE POINT ENERGY      -763.867391768139
MP2 TOTAL ENERGY:     -764.324626857 Eh
FINAL SINGLE POINT ENERGY      -764.324626856592

CARTESIAN COORDINATES (ANGSTROEM)
---------------------------------
  C      1.564630   -0.042894   -0.046303
  P     -1.289685   -0.063149    0.042957
  O     -1.416228   -0.121409    1.502186
  C      2.715028   -0.349843   -1.005105
  H      2.611852    0.207820   -1.937795
  H      2.750214   -1.413043   -1.249298
  C      1.783366   -0.801338    1.262714
  H      1.862301   -1.874953    1.080309
  H      0.962290   -0.634946    1.958165
  H      2.710987   -0.474958    1.735665
  H      3.670640   -0.078063   -0.554365
  C      1.533907    1.459960    0.230814
  H      2.506584    1.790157    0.597764
  H      0.795575    1.708133    0.993795
  H      1.301695    2.028367   -0.670898
  C      0.264919   -0.521462   -0.723445
  H      0.266495   -1.611283   -0.783586
  H      0.212730   -0.150462   -1.749869
  O     -2.290029   -1.014325   -0.754874
  H     -3.134484   -1.129594   -0.303877
  O     -1.610407    1.398282   -0.529553
  H     -1.809381    2.013129    0.185516

 Multiplicity           Mult            ....    1
 Number of Electrons    NEL             ....   82
 Basis Dimension        Dim             .... 1322

ORBITAL ENERGIES
----------------

  NO   OCC          E(Eh)            E(eV)
   0   2.0000     -80.062764     -2178.6186
   1   2.0000     -20.594918      -560.4162
   2   2.0000     -20.591805      -560.3315
   3   2.0000     -20.501176      -557.8654
   4   2.0000     -11.245619      -306.0089
   5   2.0000     -11.235018      -305.7204
   6   2.0000     -11.215121      -305.1789
   7   2.0000     -11.213361      -305.1311
   8   2.0000     -11.204049      -304.8777
   9   2.0000      -7.585945      -206.4241
  10   2.0000      -5.484141      -149.2311
  11   2.0000      -5.483532      -149.2145
  12   2.0000      -5.482515      -149.1868
  13   2.0000      -1.432053       -38.9681
  14   2.0000      -1.380940       -37.5773
  15   2.0000      -1.294661       -35.2295
  16   2.0000      -1.120906       -30.5014
  17   2.0000      -0.977227       -26.5917
  18   2.0000      -0.939089       -25.5539
  19   2.0000      -0.933348       -25.3977
  20   2.0000      -0.834147       -22.6983
  21   2.0000      -0.749993       -20.4084
  22   2.0000      -0.733143       -19.9498
  23   2.0000      -0.674991       -18.3674
  24   2.0000      -0.651734       -17.7346
  25   2.0000      -0.629578       -17.1317
  26   2.0000      -0.625138       -17.0109
  27   2.0000      -0.622942       -16.9511
  28   2.0000      -0.597015       -16.2456
  29   2.0000      -0.574982       -15.6461
  30   2.0000      -0.558686       -15.2026
  31   2.0000      -0.550902       -14.9908
  32   2.0000      -0.533577       -14.5194
  33   2.0000      -0.521708       -14.1964
  34   2.0000      -0.518462       -14.1081
  35   2.0000      -0.508957       -13.8494
  36   2.0000      -0.481344       -13.0980
  37   2.0000      -0.470804       -12.8112
  38   2.0000      -0.463196       -12.6042
  39   2.0000      -0.462035       -12.5726
  40   2.0000      -0.434479       -11.8228
  41   0.0000       0.023147         0.6299
  42   0.0000       0.029073         0.7911
  43   0.0000       0.030658         0.8343
  44   0.0000       0.034334         0.9343
  45   0.0000       0.042542         1.1576

MULLIKEN ATOMIC CHARGES
-----------------------
   0 C :    1.485342
   1 P :    2.758108
   2 O :   -1.299899
   3 C :   -1.113671
   4 H :    0.215157
   5 H :    0.225927
   6 C :   -1.130044
   7 H :    0.192304
   8 H :    0.265705
   9 H :    0.245916
  10 H :    0.246367
  11 C :   -1.025063
  12 H :    0.277352
  13 H :    0.194773
  14 H :    0.191857
  15 C :   -0.822999
  16 H :    0.217090
  17 H :    0.269779
  18 O :   -1.148002
  19 H :    0.372841
  20 O :   -1.033175
  21 H :    0.414335
Sum of atomic charges:    0.0000000

LOEWDIN ATOMIC CHARGES
----------------------
   0 C :   -0.338854
   1 P :   -0.601769
   2 O :    0.364704
   3 C :    0.905836
   4 H :   -0.267136
   5 H :   -0.266559
   6 C :    0.902371
   7 H :   -0.265725
   8 H :   -0.322519
   9 H :   -0.266463
  10 H :   -0.269113
  11 C :    0.895718
  12 H :   -0.266948
  13 H :   -0.295946
  14 H :   -0.265828
  15 C :    0.472223
  16 H :   -0.324020
  17 H :   -0.318781
  18 O :    1.119215
  19 H :   -0.848750
  20 O :    1.126076
  21 H :   -0.867730

  Mayer bond orders larger than 0.100000
B(  0-C ,  3-C ) :   0.1956 B(  0-C ,  4-H ) :  -0.1757 B(  0-C ,  5-H ) :  -0.1544
B(  0-C ,  6-C ) :   0.3535 B(  0-C ,  7-H ) :  -0.1093 B(  0-C ,  8-H ) :  -0.1058
B(  0-C , 10-H ) :  -0.1175 B(  0-C , 11-C ) :   0.3595 B(  0-C , 13-H ) :  -0.1278
B(  0-C , 14-H ) :  -0.1078 B(  0-C , 15-C ) :   0.5552 B(  1-P ,  2-O ) :   1.2466
B(  1-P , 15-C ) :   0.9260 B(  1-P , 18-O ) :   0.3134 B(  1-P , 20-O ) :   0.4906
B(  2-O , 15-C ) :  -0.1023 B(  2-O , 21-H ) :  -0.1085 B(  3-C ,  4-H ) :   1.0952
B(  3-C ,  5-H ) :   1.0778 B(  3-C ,  6-C ) :   0.1444 B(  3-C , 10-H ) :   1.0391
B(  3-C , 11-C ) :   0.1470 B(  6-C ,  7-H ) :   1.0822 B(  6-C ,  8-H ) :   1.0375
B(  6-C ,  9-H ) :   1.0238 B(  6-C , 11-C ) :   0.1208 B( 11-C , 12-H ) :   0.9973
B( 11-C , 13-H ) :   1.0834 B( 11-C , 14-H ) :   1.0677 B( 15-C , 16-H ) :   1.0377
B( 15-C , 17-H ) :   0.9511 B( 15-C , 18-O ) :  -0.2022 B( 18-O , 19-H ) :   0.9659
B( 20-O , 21-H ) :   0.8909

MP2 TOTAL ENERGY:     -764.468996373 Eh
FINAL SINGLE POINT ENERGY      -764.468996373473

DIPOLE MOMENT
-------------
                                X             Y             Z
Electronic contribution:    -15.93812      -0.24739       0.13803
Nuclear contribution   :     16.04701       0.45006      -0.74501
                        -----------------------------------------
Total Dipole Moment    :      0.10889       0.20266      -0.60698
                        -----------------------------------------
Magnitude (a.u.)       :      0.64911
Magnitude (Debye)      :      1.64992

Rotational constants in cm-1:     0.077285     0.030013     0.029809
Rotational constants in MHz :  2316.953858   899.779393   893.638515

                             ****ORCA TERMINATED NORMALLY****
TOTAL RUN TIME: 0 days 5 hours 21 minutes 6 seconds 323 msec
