                         Program Version 5.0.4 -  RELEASE  -
|  1> ! ri-mp2 aug-cc-pvdz aug-cc-pvdz/c tightscf
|  2> %pal nprocs 16 end
|  3> %maxcore 3800
|  4> %base "DZ_P-Cl_31_AB"
|  5>
|  6> *xyz 0 1
|  7> C        -0.752449   -0.262251   -0.306412
|  8> C        -1.730422    0.259881   -1.142980
|  9> H        -1.456678    0.632532   -2.121447
| 10> C        -3.050738    0.309156   -0.727196
| 11> H        -3.807008    0.716952   -1.384263
| 12> C        -3.399368   -0.169520    0.522890
| 13> H        -4.431134   -0.135898    0.846727
| 14> C        -2.427791   -0.697532    1.360373
| 15> H        -2.700194   -1.074827    2.336984
| 16> C        -1.109318   -0.742171    0.950075
| 17> H        -0.354161   -1.162788    1.601532
| 18> P         0.969443   -0.254232   -0.917383
| 19> Cl         1.649951   -2.095778   -0.324152
| 20> C         1.680697    0.744406    0.518300
| 21> O         2.427094    0.311599    1.346849
| 22> C         1.271338    2.202356    0.555229
| 23> F         0.560242    2.545368   -0.578867
| 24> H         2.165007    2.824197    0.614967
| 25> H         0.642729    2.374488    1.430171
| 26> *
| 27>
| 28> $new_job
| 29> ! ri-mp2 aug-cc-pvtz aug-cc-pvtz/c tightscf
| 30> %pal nprocs 16 end
| 31> %maxcore 3800
| 32> %base "TZ_P-Cl_31_AB"
| 33>
| 34> *xyz 0 1
| 35> C        -0.752449   -0.262251   -0.306412
| 36> C        -1.730422    0.259881   -1.142980
| 37> H        -1.456678    0.632532   -2.121447
| 38> C        -3.050738    0.309156   -0.727196
| 39> H        -3.807008    0.716952   -1.384263
| 40> C        -3.399368   -0.169520    0.522890
| 41> H        -4.431134   -0.135898    0.846727
| 42> C        -2.427791   -0.697532    1.360373
| 43> H        -2.700194   -1.074827    2.336984
| 44> C        -1.109318   -0.742171    0.950075
| 45> H        -0.354161   -1.162788    1.601532
| 46> P         0.969443   -0.254232   -0.917383
| 47> Cl         1.649951   -2.095778   -0.324152
| 48> C         1.680697    0.744406    0.518300
| 49> O         2.427094    0.311599    1.346849
| 50> C         1.271338    2.202356    0.555229
| 51> F         0.560242    2.545368   -0.578867
| 52> H         2.165007    2.824197    0.614967
| 53> H         0.642729    2.374488    1.430171
| 54> *
| 55>
| 56> $new_job
| 57> ! ri-mp2 aug-cc-pvqz aug-cc-pvqz/c tightscf
| 58> %pal nprocs 16 end
| 59> %maxcore 3800
| 60> %base "QZ_P-Cl_31_AB"
| 61>
| 62> *xyz 0 1
| 63> C        -0.752449   -0.262251   -0.306412
| 64> C        -1.730422    0.259881   -1.142980
| 65> H        -1.456678    0.632532   -2.121447
| 66> C        -3.050738    0.309156   -0.727196
| 67> H        -3.807008    0.716952   -1.384263
| 68> C        -3.399368   -0.169520    0.522890
| 69> H        -4.431134   -0.135898    0.846727
| 70> C        -2.427791   -0.697532    1.360373
| 71> H        -2.700194   -1.074827    2.336984
| 72> C        -1.109318   -0.742171    0.950075
| 73> H        -0.354161   -1.162788    1.601532
| 74> P         0.969443   -0.254232   -0.917383
| 75> Cl         1.649951   -2.095778   -0.324152
| 76> C         1.680697    0.744406    0.518300
| 77> O         2.427094    0.311599    1.346849
| 78> C         1.271338    2.202356    0.555229
| 79> F         0.560242    2.545368   -0.578867
| 80> H         2.165007    2.824197    0.614967
| 81> H         0.642729    2.374488    1.430171
| 82> *
| 83>
| 84>
| 85>
| 86>
| 87>                          ****END OF INPUT****
 Total Charge           Charge          ....    0
 Multiplicity           Mult            ....    1
 Number of Electrons    NEL             ....  104
MP2 TOTAL ENERGY:    -1283.375267897 Eh
FINAL SINGLE POINT ENERGY     -1283.375267896753
MP2 TOTAL ENERGY:    -1283.890424061 Eh
FINAL SINGLE POINT ENERGY     -1283.890424061174

CARTESIAN COORDINATES (ANGSTROEM)
---------------------------------
  C     -0.752449   -0.262251   -0.306412
  C     -1.730422    0.259881   -1.142980
  H     -1.456678    0.632532   -2.121447
  C     -3.050738    0.309156   -0.727196
  H     -3.807008    0.716952   -1.384263
  C     -3.399368   -0.169520    0.522890
  H     -4.431134   -0.135898    0.846727
  C     -2.427791   -0.697532    1.360373
  H     -2.700194   -1.074827    2.336984
  C     -1.109318   -0.742171    0.950075
  H     -0.354161   -1.162788    1.601532
  P      0.969443   -0.254232   -0.917383
  Cl     1.649951   -2.095778   -0.324152
  C      1.680697    0.744406    0.518300
  O      2.427094    0.311599    1.346849
  C      1.271338    2.202356    0.555229
  F      0.560242    2.545368   -0.578867
  H      2.165007    2.824197    0.614967
  H      0.642729    2.374488    1.430171

 Multiplicity           Mult            ....    1
 Number of Electrons    NEL             ....  104
 Basis Dimension        Dim             .... 1290

ORBITAL ENERGIES
----------------

  NO   OCC          E(Eh)            E(eV)
   0   2.0000    -104.831323     -2852.6053
   1   2.0000     -80.005407     -2177.0578
   2   2.0000     -26.308153      -715.8812
   3   2.0000     -20.577998      -559.9558
   4   2.0000     -11.353981      -308.9575
   5   2.0000     -11.338400      -308.5335
   6   2.0000     -11.258213      -306.3515
   7   2.0000     -11.255769      -306.2851
   8   2.0000     -11.254441      -306.2489
   9   2.0000     -11.253768      -306.2306
  10   2.0000     -11.248186      -306.0787
  11   2.0000     -11.247682      -306.0650
  12   2.0000     -10.557823      -287.2930
  13   2.0000      -8.024678      -218.3626
  14   2.0000      -8.023211      -218.3227
  15   2.0000      -8.023122      -218.3202
  16   2.0000      -7.543001      -205.2555
  17   2.0000      -5.436700      -147.9401
  18   2.0000      -5.435683      -147.9125
  19   2.0000      -5.434878      -147.8905
  20   2.0000      -1.623199       -44.1695
  21   2.0000      -1.425344       -38.7856
  22   2.0000      -1.179097       -32.0849
  23   2.0000      -1.115208       -30.3463
  24   2.0000      -1.044258       -28.4157
  25   2.0000      -1.037867       -28.2418
  26   2.0000      -1.024631       -27.8816
  27   2.0000      -0.895038       -24.3552
  28   2.0000      -0.848281       -23.0829
  29   2.0000      -0.828644       -22.5486
  30   2.0000      -0.762192       -20.7403
  31   2.0000      -0.736833       -20.0502
  32   2.0000      -0.726699       -19.7745
  33   2.0000      -0.717829       -19.5331
  34   2.0000      -0.690680       -18.7944
  35   2.0000      -0.650926       -17.7126
  36   2.0000      -0.646365       -17.5885
  37   2.0000      -0.618231       -16.8229
  38   2.0000      -0.609058       -16.5733
  39   2.0000      -0.605628       -16.4800
  40   2.0000      -0.598038       -16.2734
  41   2.0000      -0.574738       -15.6394
  42   2.0000      -0.530909       -14.4468
  43   2.0000      -0.525319       -14.2947
  44   2.0000      -0.515936       -14.0393
  45   2.0000      -0.507605       -13.8126
  46   2.0000      -0.485387       -13.2080
  47   2.0000      -0.466024       -12.6812
  48   2.0000      -0.426869       -11.6157
  49   2.0000      -0.380080       -10.3425
  50   2.0000      -0.357184        -9.7195
  51   2.0000      -0.349634        -9.5140
  52   0.0000       0.020047         0.5455
  53   0.0000       0.027427         0.7463
  54   0.0000       0.028263         0.7691
  55   0.0000       0.036101         0.9824
  56   0.0000       0.041257         1.1227

MULLIKEN ATOMIC CHARGES
-----------------------
   0 C :    0.072576
   1 C :   -0.227908
   2 H :    0.370789
   3 C :   -0.318831
   4 H :    0.266785
   5 C :   -0.367644
   6 H :    0.355970
   7 C :   -0.196223
   8 H :    0.247934
   9 C :   -0.598313
  10 H :    0.331824
  11 P :    0.943884
  12 Cl:   -0.576410
  13 C :    0.526721
  14 O :   -0.868739
  15 C :   -0.043483
  16 F :   -0.751011
  17 H :    0.502702
  18 H :    0.329378
Sum of atomic charges:   -0.0000000

LOEWDIN ATOMIC CHARGES
----------------------
   0 C :   -0.374232
   1 C :    0.228531
   2 H :   -0.341960
   3 C :    0.346401
   4 H :   -0.318050
   5 C :    0.343683
   6 H :   -0.315473
   7 C :    0.349406
   8 H :   -0.317247
   9 C :    0.219785
  10 H :   -0.361821
  11 P :    0.127147
  12 Cl:    0.803344
  13 C :   -0.944545
  14 O :    0.628490
  15 C :   -0.154468
  16 F :    0.777060
  17 H :   -0.351840
  18 H :   -0.344212

  Mayer bond orders larger than 0.100000
B(  0-C ,  1-C ) :   0.7185 B(  0-C ,  2-H ) :  -0.1453 B(  0-C ,  3-C ) :  -0.2523
B(  0-C ,  7-C ) :  -0.2905 B(  0-C ,  9-C ) :   1.0128 B(  0-C , 11-P ) :   0.8590
B(  0-C , 12-Cl) :  -0.1936 B(  1-C ,  2-H ) :   0.9148 B(  1-C ,  3-C ) :   1.3891
B(  1-C ,  4-H ) :  -0.1350 B(  1-C ,  5-C ) :   0.1480 B(  1-C ,  7-C ) :   0.1462
B(  1-C , 11-P ) :  -0.2436 B(  3-C ,  4-H ) :   1.1019 B(  3-C ,  5-C ) :   1.1233
B(  3-C ,  9-C ) :   0.1138 B(  5-C ,  6-H ) :   0.9828 B(  5-C ,  7-C ) :   1.1080
B(  5-C ,  9-C ) :   0.1191 B(  7-C ,  8-H ) :   1.1387 B(  7-C ,  9-C ) :   1.2203
B(  8-H ,  9-C ) :  -0.1574 B(  9-C , 10-H ) :   0.9404 B(  9-C , 12-Cl) :   0.1078
B( 11-P , 12-Cl) :   0.7512 B( 11-P , 13-C ) :   0.7205 B( 13-C , 14-O ) :   1.2863
B( 13-C , 15-C ) :   1.0496 B( 15-C , 16-F ) :   0.5183 B( 15-C , 17-H ) :   0.7231
B( 15-C , 18-H ) :   0.8515

MP2 TOTAL ENERGY:    -1284.058443558 Eh
FINAL SINGLE POINT ENERGY     -1284.058443558393

DIPOLE MOMENT
-------------
                                X             Y             Z
Electronic contribution:     11.91326      -3.90155      -4.82197
Nuclear contribution   :    -13.11906       4.68444       5.01745
                        -----------------------------------------
Total Dipole Moment    :     -1.20581       0.78289       0.19548
                        -----------------------------------------
Magnitude (a.u.)       :      1.45090
Magnitude (Debye)      :      3.68788

Rotational constants in cm-1:     0.031881     0.019695     0.015518
Rotational constants in MHz :   955.765656   590.428784   465.232035

                             ****ORCA TERMINATED NORMALLY****
TOTAL RUN TIME: 0 days 0 hours 57 minutes 57 seconds 620 msec
