                         Program Version 5.0.4 -  RELEASE  -
|  1> ! ri-mp2 aug-cc-pvdz aug-cc-pvdz/c tightscf
|  2> %pal nprocs 16 end
|  3> %maxcore 3800
|  4> %base "DZ_B-P_71_AB"
|  5> %scf
|  6> STABPerform true
|  7> STABRestartUHFifUnstable true
|  8> end
|  9>
| 10> *xyz 0 1
| 11> P         1.140148   -0.080514   -0.116099
| 12> B        -0.660438    0.573365    0.015564
| 13> O        -1.756307   -0.212803    0.008397
| 14> H        -0.853814    1.750320    0.012111
| 15> H        -1.588234   -1.159907    0.019230
| 16> H         1.007443   -1.261048    0.651573
| 17> H         1.685028    0.713943    0.913566
| 18> *
| 19>
| 20> $new_job
| 21> ! ri-mp2 aug-cc-pvtz aug-cc-pvtz/c tightscf
| 22> %pal nprocs 16 end
| 23> %maxcore 3800
| 24> %base "TZ_B-P_71_AB"
| 25>
| 26> *xyz 0 1
| 27> P         1.140148   -0.080514   -0.116099
| 28> B        -0.660438    0.573365    0.015564
| 29> O        -1.756307   -0.212803    0.008397
| 30> H        -0.853814    1.750320    0.012111
| 31> H        -1.588234   -1.159907    0.019230
| 32> H         1.007443   -1.261048    0.651573
| 33> H         1.685028    0.713943    0.913566
| 34> *
| 35>
| 36> $new_job
| 37> ! ri-mp2 aug-cc-pvqz aug-cc-pvqz/c tightscf
| 38> %pal nprocs 16 end
| 39> %maxcore 3800
| 40> %base "QZ_B-P_71_AB"
| 41>
| 42> *xyz 0 1
| 43> P         1.140148   -0.080514   -0.116099
| 44> B        -0.660438    0.573365    0.015564
| 45> O        -1.756307   -0.212803    0.008397
| 46> H        -0.853814    1.750320    0.012111
| 47> H        -1.588234   -1.159907    0.019230
| 48> H         1.007443   -1.261048    0.651573
| 49> H         1.685028    0.713943    0.913566
| 50> *
| 51>
| 52>
| 53>
| 54>
| 55>                          ****END OF INPUT****
 Total Charge           Charge          ....    0
 Multiplicity           Mult            ....    1
 Number of Electrons    NEL             ....   32
MP2 TOTAL ENERGY:     -443.088269063 Eh
FINAL SINGLE POINT ENERGY      -443.088269063306
MP2 TOTAL ENERGY:     -443.222272546 Eh
FINAL SINGLE POINT ENERGY      -443.222272546312

CARTESIAN COORDINATES (ANGSTROEM)
---------------------------------
  P      1.140148   -0.080514   -0.116099
  B     -0.660438    0.573365    0.015564
  O     -1.756307   -0.212803    0.008397
  H     -0.853814    1.750320    0.012111
  H     -1.588234   -1.159907    0.019230
  H      1.007443   -1.261048    0.651573
  H      1.685028    0.713943    0.913566

 Multiplicity           Mult            ....    1
 Number of Electrons    NEL             ....   32
 Basis Dimension        Dim             ....  428

ORBITAL ENERGIES
----------------

  NO   OCC          E(Eh)            E(eV)
   0   2.0000     -79.928931     -2174.9768
   1   2.0000     -20.587815      -560.2229
   2   2.0000      -7.637259      -207.8204
   3   2.0000      -7.475053      -203.4065
   4   2.0000      -5.369273      -146.1054
   5   2.0000      -5.368812      -146.0928
   6   2.0000      -5.368377      -146.0810
   7   2.0000      -1.383557       -37.6485
   8   2.0000      -0.861309       -23.4374
   9   2.0000      -0.775726       -21.1086
  10   2.0000      -0.623889       -16.9769
  11   2.0000      -0.587140       -15.9769
  12   2.0000      -0.556259       -15.1366
  13   2.0000      -0.520471       -14.1627
  14   2.0000      -0.449662       -12.2359
  15   2.0000      -0.367967       -10.0129
  16   0.0000       0.022586         0.6146
  17   0.0000       0.031819         0.8658
  18   0.0000       0.037542         1.0216
  19   0.0000       0.040781         1.1097
  20   0.0000       0.056502         1.5375

MULLIKEN ATOMIC CHARGES
-----------------------
   0 P :    0.161685
   1 B :    0.768538
   2 O :   -0.953766
   3 H :   -0.204247
   4 H :    0.364437
   5 H :   -0.079893
   6 H :   -0.056756
Sum of atomic charges:   -0.0000000

LOEWDIN ATOMIC CHARGES
----------------------
   0 P :    1.571644
   1 B :   -0.716893
   2 O :    1.268663
   3 H :   -0.260901
   4 H :   -0.822277
   5 H :   -0.517222
   6 H :   -0.523014

  Mayer bond orders larger than 0.100000
B(  0-P ,  1-B ) :   1.0564 B(  0-P ,  5-H ) :   0.8983 B(  0-P ,  6-H ) :   0.9118
B(  1-B ,  2-O ) :   0.6499 B(  1-B ,  3-H ) :   0.9382 B(  2-O ,  4-H ) :   0.8887

MP2 TOTAL ENERGY:     -443.265787285 Eh
FINAL SINGLE POINT ENERGY      -443.265787284599

DIPOLE MOMENT
-------------
                                X             Y             Z
Electronic contribution:      0.39161      -0.13538      -1.36790
Nuclear contribution   :     -0.32174      -0.33579       1.64758
                        -----------------------------------------
Total Dipole Moment    :      0.06988      -0.47118       0.27968
                        -----------------------------------------
Magnitude (a.u.)       :      0.55237
Magnitude (Debye)      :      1.40401

Rotational constants in cm-1:     1.335071     0.163448     0.149734
Rotational constants in MHz : 40024.433084  4900.043840  4488.912748

                             ****ORCA TERMINATED NORMALLY****
TOTAL RUN TIME: 0 days 0 hours 8 minutes 8 seconds 451 msec
