                         Program Version 5.0.4 -  RELEASE  -
|  1> ! ri-mp2 aug-cc-pvdz aug-cc-pvdz/c tightscf
|  2> %pal nprocs 16 end
|  3> %maxcore 3800
|  4> %base "DZ_B-Cl_29_AB"
|  5> %scf
|  6> STABPerform true
|  7> STABRestartUHFifUnstable true
|  8> end
|  9>
| 10> *xyz 0 1
| 11> Cl         0.861945   -1.505700    0.000002
| 12> Cl         0.861961    1.505692    0.000002
| 13> B        -0.014893    0.000001   -0.000014
| 14> C        -1.521064    0.000009   -0.000006
| 15> C        -2.720179    0.000015    0.000002
| 16> H        -3.784485   -0.000008    0.000010
| 17> *
| 18>
| 19> $new_job
| 20> ! ri-mp2 aug-cc-pvtz aug-cc-pvtz/c tightscf
| 21> %pal nprocs 16 end
| 22> %maxcore 3800
| 23> %base "TZ_B-Cl_29_AB"
| 24>
| 25> *xyz 0 1
| 26> Cl         0.861945   -1.505700    0.000002
| 27> Cl         0.861961    1.505692    0.000002
| 28> B        -0.014893    0.000001   -0.000014
| 29> C        -1.521064    0.000009   -0.000006
| 30> C        -2.720179    0.000015    0.000002
| 31> H        -3.784485   -0.000008    0.000010
| 32> *
| 33>
| 34> $new_job
| 35> ! ri-mp2 aug-cc-pvqz aug-cc-pvqz/c tightscf
| 36> %pal nprocs 16 end
| 37> %maxcore 3800
| 38> %base "QZ_B-Cl_29_AB"
| 39>
| 40> *xyz 0 1
| 41> Cl         0.861945   -1.505700    0.000002
| 42> Cl         0.861961    1.505692    0.000002
| 43> B        -0.014893    0.000001   -0.000014
| 44> C        -1.521064    0.000009   -0.000006
| 45> C        -2.720179    0.000015    0.000002
| 46> H        -3.784485   -0.000008    0.000010
| 47> *
| 48>
| 49>
| 50>
| 51>
| 52>                          ****END OF INPUT****
 Total Charge           Charge          ....    0
 Multiplicity           Mult            ....    1
 Number of Electrons    NEL             ....   52
MP2 TOTAL ENERGY:    -1020.680160451 Eh
FINAL SINGLE POINT ENERGY     -1020.680160451440
MP2 TOTAL ENERGY:    -1020.886801397 Eh
FINAL SINGLE POINT ENERGY     -1020.886801396798

CARTESIAN COORDINATES (ANGSTROEM)
---------------------------------
  Cl     0.861945   -1.505700    0.000002
  Cl     0.861961    1.505692    0.000002
  B     -0.014893    0.000001   -0.000014
  C     -1.521064    0.000009   -0.000006
  C     -2.720179    0.000015    0.000002
  H     -3.784485   -0.000008    0.000010

 Multiplicity           Mult            ....    1
 Number of Electrons    NEL             ....   52
 Basis Dimension        Dim             ....  454

ORBITAL ENERGIES
----------------

  NO   OCC          E(Eh)            E(eV)
   0   2.0000    -104.848544     -2853.0739
   1   2.0000    -104.848544     -2853.0739
   2   2.0000     -11.267544      -306.6055
   3   2.0000     -11.238155      -305.8057
   4   2.0000     -10.576275      -287.7951
   5   2.0000     -10.576266      -287.7948
   6   2.0000      -8.043095      -218.8637
   7   2.0000      -8.043094      -218.8637
   8   2.0000      -8.041993      -218.8338
   9   2.0000      -8.041991      -218.8337
  10   2.0000      -8.041720      -218.8263
  11   2.0000      -8.041719      -218.8263
  12   2.0000      -7.732516      -210.4124
  13   2.0000      -1.154041       -31.4031
  14   2.0000      -1.107888       -30.1472
  15   2.0000      -1.052567       -28.6418
  16   2.0000      -0.799924       -21.7670
  17   2.0000      -0.719538       -19.5796
  18   2.0000      -0.627828       -17.0841
  19   2.0000      -0.588636       -16.0176
  20   2.0000      -0.531164       -14.4537
  21   2.0000      -0.484207       -13.1760
  22   2.0000      -0.473291       -12.8789
  23   2.0000      -0.466294       -12.6885
  24   2.0000      -0.429487       -11.6869
  25   2.0000      -0.422341       -11.4925
  26   0.0000       0.020850         0.5674
  27   0.0000       0.036668         0.9978
  28   0.0000       0.037792         1.0284
  29   0.0000       0.038877         1.0579
  30   0.0000       0.046088         1.2541

MULLIKEN ATOMIC CHARGES
-----------------------
   0 Cl:   -0.175969
   1 Cl:   -0.175970
   2 B :    0.639674
   3 C :   -0.144016
   4 C :   -0.534047
   5 H :    0.390328
Sum of atomic charges:    0.0000000

LOEWDIN ATOMIC CHARGES
----------------------
   0 Cl:    1.231809
   1 Cl:    1.231809
   2 B :   -2.484466
   3 C :   -0.075373
   4 C :    0.529565
   5 H :   -0.433345

  Mayer bond orders larger than 0.100000
B(  0-Cl,  2-B ) :   1.0811 B(  1-Cl,  2-B ) :   1.0811 B(  2-B ,  3-C ) :   1.1052
B(  3-C ,  4-C ) :   2.1120 B(  4-C ,  5-H ) :   0.9514

MP2 TOTAL ENERGY:    -1020.955362363 Eh
FINAL SINGLE POINT ENERGY     -1020.955362363241

DIPOLE MOMENT
-------------
                                X             Y             Z
Electronic contribution:      4.96761      -0.00001      -0.00002
Nuclear contribution   :     -5.70775       0.00000       0.00001
                        -----------------------------------------
Total Dipole Moment    :     -0.74014      -0.00001      -0.00001
                        -----------------------------------------
Magnitude (a.u.)       :      0.74014
Magnitude (Debye)      :      1.88130

Rotational constants in cm-1:     0.104867     0.091906     0.048980
Rotational constants in MHz :  3143.837024  2755.273044  1468.379011

                             ****ORCA TERMINATED NORMALLY****
TOTAL RUN TIME: 0 days 0 hours 8 minutes 3 seconds 912 msec
