                         Program Version 5.0.4 -  RELEASE  -
|  1> ! ri-mp2 aug-cc-pvdz aug-cc-pvdz/c tightscf
|  2> %pal nprocs 16 end
|  3> %maxcore 3800
|  4> %base "DZ_Si-Si_128_AB"
|  5> %scf
|  6> STABPerform true
|  7> STABRestartUHFifUnstable true
|  8> end
|  9>
| 10> *xyz 0 1
| 11> Si         2.424741    0.137745   -0.526934
| 12> Si         0.623978   -0.647675    0.735361
| 13> C        -0.910565    0.417560    0.270500
| 14> H         0.834301   -0.455425    2.184679
| 15> H         0.325470   -2.069598    0.456845
| 16> O        -0.925367    1.601835    0.469331
| 17> H         3.627856   -0.669015   -0.226480
| 18> H         2.685876    1.553559   -0.198182
| 19> S        -2.272718   -0.449863   -0.492408
| 20> H         2.104059    0.012134   -1.964926
| 21> H        -3.029799    0.645131   -0.669053
| 22> *
| 23>
| 24> $new_job
| 25> ! ri-mp2 aug-cc-pvtz aug-cc-pvtz/c tightscf
| 26> %pal nprocs 16 end
| 27> %maxcore 3800
| 28> %base "TZ_Si-Si_128_AB"
| 29>
| 30> *xyz 0 1
| 31> Si         2.424741    0.137745   -0.526934
| 32> Si         0.623978   -0.647675    0.735361
| 33> C        -0.910565    0.417560    0.270500
| 34> H         0.834301   -0.455425    2.184679
| 35> H         0.325470   -2.069598    0.456845
| 36> O        -0.925367    1.601835    0.469331
| 37> H         3.627856   -0.669015   -0.226480
| 38> H         2.685876    1.553559   -0.198182
| 39> S        -2.272718   -0.449863   -0.492408
| 40> H         2.104059    0.012134   -1.964926
| 41> H        -3.029799    0.645131   -0.669053
| 42> *
| 43>
| 44> $new_job
| 45> ! ri-mp2 aug-cc-pvqz aug-cc-pvqz/c tightscf
| 46> %pal nprocs 16 end
| 47> %maxcore 3800
| 48> %base "QZ_Si-Si_128_AB"
| 49>
| 50> *xyz 0 1
| 51> Si         2.424741    0.137745   -0.526934
| 52> Si         0.623978   -0.647675    0.735361
| 53> C        -0.910565    0.417560    0.270500
| 54> H         0.834301   -0.455425    2.184679
| 55> H         0.325470   -2.069598    0.456845
| 56> O        -0.925367    1.601835    0.469331
| 57> H         3.627856   -0.669015   -0.226480
| 58> H         2.685876    1.553559   -0.198182
| 59> S        -2.272718   -0.449863   -0.492408
| 60> H         2.104059    0.012134   -1.964926
| 61> H        -3.029799    0.645131   -0.669053
| 62> *
| 63>
| 64>
| 65>
| 66>
| 67>                          ****END OF INPUT****
 Total Charge           Charge          ....    0
 Multiplicity           Mult            ....    1
 Number of Electrons    NEL             ....   64
MP2 TOTAL ENERGY:    -1092.306344242 Eh
FINAL SINGLE POINT ENERGY     -1092.306344242472
MP2 TOTAL ENERGY:    -1092.523829163 Eh
FINAL SINGLE POINT ENERGY     -1092.523829163246

CARTESIAN COORDINATES (ANGSTROEM)
---------------------------------
  Si     2.424741    0.137745   -0.526934
  Si     0.623978   -0.647675    0.735361
  C     -0.910565    0.417560    0.270500
  H      0.834301   -0.455425    2.184679
  H      0.325470   -2.069598    0.456845
  O     -0.925367    1.601835    0.469331
  H      3.627856   -0.669015   -0.226480
  H      2.685876    1.553559   -0.198182
  S     -2.272718   -0.449863   -0.492408
  H      2.104059    0.012134   -1.964926
  H     -3.029799    0.645131   -0.669053

 Multiplicity           Mult            ....    1
 Number of Electrons    NEL             ....   64
 Basis Dimension        Dim             ....  688

ORBITAL ENERGIES
----------------

  NO   OCC          E(Eh)            E(eV)
   0   2.0000     -91.979939     -2502.9014
   1   2.0000     -68.790648     -1871.8887
   2   2.0000     -68.779833     -1871.5944
   3   2.0000     -20.571450      -559.7776
   4   2.0000     -11.359164      -309.0986
   5   2.0000      -8.983828      -244.4624
   6   2.0000      -6.665244      -181.3705
   7   2.0000      -6.664111      -181.3397
   8   2.0000      -6.663475      -181.3224
   9   2.0000      -6.141716      -167.1246
  10   2.0000      -6.130727      -166.8256
  11   2.0000      -4.247802      -115.5886
  12   2.0000      -4.247639      -115.5841
  13   2.0000      -4.247510      -115.5806
  14   2.0000      -4.236947      -115.2932
  15   2.0000      -4.236764      -115.2882
  16   2.0000      -4.236698      -115.2864
  17   2.0000      -1.416268       -38.5386
  18   2.0000      -1.027417       -27.9574
  19   2.0000      -0.824587       -22.4382
  20   2.0000      -0.743982       -20.2448
  21   2.0000      -0.689575       -18.7643
  22   2.0000      -0.640889       -17.4395
  23   2.0000      -0.611804       -16.6480
  24   2.0000      -0.571686       -15.5564
  25   2.0000      -0.523607       -14.2481
  26   2.0000      -0.510220       -13.8838
  27   2.0000      -0.496076       -13.4989
  28   2.0000      -0.486246       -13.2314
  29   2.0000      -0.425810       -11.5869
  30   2.0000      -0.396431       -10.7874
  31   2.0000      -0.388437       -10.5699
  32   0.0000       0.024680         0.6716
  33   0.0000       0.029001         0.7892
  34   0.0000       0.034923         0.9503
  35   0.0000       0.039745         1.0815
  36   0.0000       0.048385         1.3166

MULLIKEN ATOMIC CHARGES
-----------------------
   0 Si:    0.347702
   1 Si:    0.846949
   2 C :    0.295174
   3 H :   -0.169767
   4 H :   -0.211751
   5 O :   -0.769420
   6 H :   -0.147690
   7 H :   -0.120410
   8 S :   -0.021332
   9 H :   -0.122728
  10 H :    0.073272
Sum of atomic charges:    0.0000000

LOEWDIN ATOMIC CHARGES
----------------------
   0 Si:    1.042020
   1 Si:    0.539574
   2 C :   -1.274344
   3 H :   -0.277723
   4 H :   -0.286211
   5 O :    0.516217
   6 H :   -0.318654
   7 H :   -0.308093
   8 S :    1.488578
   9 H :   -0.310977
  10 H :   -0.810387

  Mayer bond orders larger than 0.100000
B(  0-Si,  1-Si) :   0.7291 B(  0-Si,  6-H ) :   0.7876 B(  0-Si,  7-H ) :   0.7806
B(  0-Si,  9-H ) :   0.7654 B(  1-Si,  2-C ) :   0.6492 B(  1-Si,  3-H ) :   0.8229
B(  1-Si,  4-H ) :   0.8200 B(  2-C ,  5-O ) :   1.5115 B(  2-C ,  8-S ) :   0.9502
B(  8-S , 10-H ) :   1.0397

MP2 TOTAL ENERGY:    -1092.596563293 Eh
FINAL SINGLE POINT ENERGY     -1092.596563293021

DIPOLE MOMENT
-------------
                                X             Y             Z
Electronic contribution:     -6.05787       0.27337       0.27752
Nuclear contribution   :      6.30836      -0.89749      -0.40021
                        -----------------------------------------
Total Dipole Moment    :      0.25048      -0.62412      -0.12269
                        -----------------------------------------
Magnitude (a.u.)       :      0.68361
Magnitude (Debye)      :      1.73760

Rotational constants in cm-1:     0.147387     0.037931     0.035862
Rotational constants in MHz :  4418.542636  1137.147388  1075.112045

                             ****ORCA TERMINATED NORMALLY****
TOTAL RUN TIME: 0 days 0 hours 32 minutes 11 seconds 24 msec
