                         Program Version 5.0.4 -  RELEASE  -
|  1> ! ri-mp2 aug-cc-pvdz aug-cc-pvdz/c tightscf
|  2> %pal nprocs 16 end
|  3> %maxcore 3800
|  4> %base "DZ_B-Cl_32_A"
|  5> %scf
|  6> STABPerform true
|  7> STABRestartUHFifUnstable true
|  8> end
|  9>
| 10> *xyz 0 2
| 11> Cl        -2.536268    0.207544    0.239607
| 12> B        -1.126370   -0.027591   -0.696204
| 13> C         0.260004   -0.543037   -0.232772
| 14> O         0.245033   -1.768735   -0.136381
| 15> N         1.341794    0.230733   -0.025637
| 16> C         1.277158    1.664941   -0.138518
| 17> H         0.292936    1.966515   -0.496670
| 18> H         2.021382    2.029444   -0.850065
| 19> H         1.454924    2.146841    0.826076
| 20> C         2.604189   -0.362589    0.348929
| 21> H         2.480937   -1.441257    0.381264
| 22> H         2.920822   -0.006069    1.331709
| 23> H         3.376481   -0.106904   -0.379942
| 24> *
| 25>
| 26> $new_job
| 27> ! ri-mp2 aug-cc-pvtz aug-cc-pvtz/c tightscf
| 28> %pal nprocs 16 end
| 29> %maxcore 3800
| 30> %base "TZ_B-Cl_32_A"
| 31>
| 32> *xyz 0 2
| 33> Cl        -2.536268    0.207544    0.239607
| 34> B        -1.126370   -0.027591   -0.696204
| 35> C         0.260004   -0.543037   -0.232772
| 36> O         0.245033   -1.768735   -0.136381
| 37> N         1.341794    0.230733   -0.025637
| 38> C         1.277158    1.664941   -0.138518
| 39> H         0.292936    1.966515   -0.496670
| 40> H         2.021382    2.029444   -0.850065
| 41> H         1.454924    2.146841    0.826076
| 42> C         2.604189   -0.362589    0.348929
| 43> H         2.480937   -1.441257    0.381264
| 44> H         2.920822   -0.006069    1.331709
| 45> H         3.376481   -0.106904   -0.379942
| 46> *
| 47>
| 48> $new_job
| 49> ! ri-mp2 aug-cc-pvqz aug-cc-pvqz/c tightscf
| 50> %pal nprocs 16 end
| 51> %maxcore 3800
| 52> %base "QZ_B-Cl_32_A"
| 53>
| 54> *xyz 0 2
| 55> Cl        -2.536268    0.207544    0.239607
| 56> B        -1.126370   -0.027591   -0.696204
| 57> C         0.260004   -0.543037   -0.232772
| 58> O         0.245033   -1.768735   -0.136381
| 59> N         1.341794    0.230733   -0.025637
| 60> C         1.277158    1.664941   -0.138518
| 61> H         0.292936    1.966515   -0.496670
| 62> H         2.021382    2.029444   -0.850065
| 63> H         1.454924    2.146841    0.826076
| 64> C         2.604189   -0.362589    0.348929
| 65> H         2.480937   -1.441257    0.381264
| 66> H         2.920822   -0.006069    1.331709
| 67> H         3.376481   -0.106904   -0.379942
| 68> *
| 69>
| 70>
| 71>
| 72>
| 73>                          ****END OF INPUT****
 Total Charge           Charge          ....    0
 Multiplicity           Mult            ....    2
 Number of Electrons    NEL             ....   61
MP2 TOTAL ENERGY:     -731.616222248 Eh
FINAL SINGLE POINT ENERGY      -731.616222248396
MP2 TOTAL ENERGY:     -731.912164640 Eh
FINAL SINGLE POINT ENERGY      -731.912164639816

CARTESIAN COORDINATES (ANGSTROEM)
---------------------------------
  Cl    -2.536268    0.207544    0.239607
  B     -1.126370   -0.027591   -0.696204
  C      0.260004   -0.543037   -0.232772
  O      0.245033   -1.768735   -0.136381
  N      1.341794    0.230733   -0.025637
  C      1.277158    1.664941   -0.138518
  H      0.292936    1.966515   -0.496670
  H      2.021382    2.029444   -0.850065
  H      1.454924    2.146841    0.826076
  C      2.604189   -0.362589    0.348929
  H      2.480937   -1.441257    0.381264
  H      2.920822   -0.006069    1.331709
  H      3.376481   -0.106904   -0.379942

 Multiplicity           Mult            ....    2
 Number of Electrons    NEL             ....   61
 Basis Dimension        Dim             ....  840

ORBITAL ENERGIES
----------------
                 SPIN UP ORBITALS
  NO   OCC          E(Eh)            E(eV)
   0   1.0000    -104.856299     -2853.2850
   1   1.0000     -20.527544      -558.5829
   2   1.0000     -15.599826      -424.4928
   3   1.0000     -11.339505      -308.5636
   4   1.0000     -11.282532      -307.0133
   5   1.0000     -11.263120      -306.4851
   6   1.0000     -10.583717      -287.9976
   7   1.0000      -8.051347      -219.0883
   8   1.0000      -8.049393      -219.0351
   9   1.0000      -8.048955      -219.0232
  10   1.0000      -7.692440      -209.3219
  11   1.0000      -1.389558       -37.8118
  12   1.0000      -1.266692       -34.4685
  13   1.0000      -1.139857       -31.0171
  14   1.0000      -0.995799       -27.0971
  15   1.0000      -0.958624       -26.0855
  16   1.0000      -0.808178       -21.9916
  17   1.0000      -0.730200       -19.8697
  18   1.0000      -0.671561       -18.2741
  19   1.0000      -0.666883       -18.1468
  20   1.0000      -0.639805       -17.4100
  21   1.0000      -0.579748       -15.7757
  22   1.0000      -0.576202       -15.6793
  23   1.0000      -0.575813       -15.6687
  24   1.0000      -0.562755       -15.3133
  25   1.0000      -0.548642       -14.9293
  26   1.0000      -0.511927       -13.9302
  27   1.0000      -0.502784       -13.6815
  28   1.0000      -0.432994       -11.7824
  29   1.0000      -0.392584       -10.6827
  30   1.0000      -0.345691        -9.4067
  31   0.0000       0.019712         0.5364
  32   0.0000       0.031068         0.8454
  33   0.0000       0.031598         0.8598
  34   0.0000       0.037502         1.0205
  35   0.0000       0.047943         1.3046

                 SPIN DOWN ORBITALS
  NO   OCC          E(Eh)            E(eV)
   0   1.0000    -104.855577     -2853.2653
   1   1.0000     -20.524461      -558.4990
   2   1.0000     -15.599785      -424.4917
   3   1.0000     -11.339123      -308.5532
   4   1.0000     -11.282459      -307.0113
   5   1.0000     -11.263098      -306.4845
   6   1.0000     -10.582877      -287.9747
   7   1.0000      -8.050078      -219.0538
   8   1.0000      -8.049192      -219.0297
   9   1.0000      -8.046868      -218.9664
  10   1.0000      -7.672615      -208.7825
  11   1.0000      -1.384000       -37.6606
  12   1.0000      -1.264950       -34.4210
  13   1.0000      -1.131516       -30.7901
  14   1.0000      -0.995219       -27.0813
  15   1.0000      -0.956272       -26.0215
  16   1.0000      -0.791012       -21.5245
  17   1.0000      -0.723477       -19.6868
  18   1.0000      -0.670078       -18.2337
  19   1.0000      -0.664860       -18.0918
  20   1.0000      -0.622191       -16.9307
  21   1.0000      -0.576338       -15.6829
  22   1.0000      -0.575359       -15.6563
  23   1.0000      -0.572369       -15.5749
  24   1.0000      -0.548290       -14.9197
  25   1.0000      -0.537820       -14.6348
  26   1.0000      -0.504225       -13.7207
  27   1.0000      -0.486449       -13.2370
  28   1.0000      -0.419960       -11.4277
  29   1.0000      -0.381036       -10.3685
  30   0.0000       0.018691         0.5086
  31   0.0000       0.029929         0.8144
  32   0.0000       0.031630         0.8607
  33   0.0000       0.036663         0.9977
  34   0.0000       0.047800         1.3007

MULLIKEN ATOMIC CHARGES AND SPIN POPULATIONS
--------------------------------------------
   0 Cl:   -0.247906    0.031364
   1 B :    0.424454    1.000002
   2 C :    0.990840   -0.076582
   3 O :   -0.929586    0.065082
   4 N :   -0.440595   -0.008578
   5 C :   -0.807068    0.002444
   6 H :    0.291108   -0.007689
   7 H :    0.293283   -0.001116
   8 H :    0.317424   -0.001809
   9 C :   -0.775277   -0.002307
  10 H :    0.303880   -0.001390
  11 H :    0.284257   -0.000633
  12 H :    0.295186    0.001212
Sum of atomic charges         :    0.0000000

LOEWDIN ATOMIC CHARGES AND SPIN POPULATIONS
-------------------------------------------
   0 Cl:    1.252708    0.170160
   1 B :   -1.162257    0.548965
   2 C :   -0.887499    0.165269
   3 O :    0.683813    0.065363
   4 N :    0.367353    0.013244
   5 C :    0.753504    0.013402
   6 H :   -0.344872    0.019195
   7 H :   -0.269214    0.000751
   8 H :   -0.264466    0.000394
   9 C :    0.768669    0.001600
  10 H :   -0.350432    0.000412
  11 H :   -0.272390   -0.000073
  12 H :   -0.274916    0.001318

  Mayer bond orders larger than 0.100000
B(  0-Cl,  1-B ) :   1.1937 B(  1-B ,  2-C ) :   0.8365 B(  1-B ,  3-O ) :   0.1125
B(  2-C ,  3-O ) :   1.1256 B(  2-C ,  4-N ) :   1.2429 B(  3-O ,  4-N ) :   0.2434
B(  4-N ,  5-C ) :   0.7936 B(  4-N ,  9-C ) :   0.8337 B(  5-C ,  6-H ) :   0.9046
B(  5-C ,  7-H ) :   0.9593 B(  5-C ,  8-H ) :   0.9391 B(  9-C , 10-H ) :   0.9042
B(  9-C , 11-H ) :   0.9654 B(  9-C , 12-H ) :   0.9459

MP2 TOTAL ENERGY:     -732.008639056 Eh
FINAL SINGLE POINT ENERGY      -732.008639056258

DIPOLE MOMENT
-------------
                                X             Y             Z
Electronic contribution:    -15.72697      -2.66496      -0.89567
Nuclear contribution   :     16.54827       4.15014       0.99537
                        -----------------------------------------
Total Dipole Moment    :      0.82130       1.48518       0.09970
                        -----------------------------------------
Magnitude (a.u.)       :      1.70007
Magnitude (Debye)      :      4.32124

Rotational constants in cm-1:     0.141733     0.040745     0.033352
Rotational constants in MHz :  4249.056644  1221.505386   999.856868

                             ****ORCA TERMINATED NORMALLY****
TOTAL RUN TIME: 0 days 3 hours 13 minutes 44 seconds 283 msec
