                         Program Version 5.0.4 -  RELEASE  -
|  1> ! ri-mp2 aug-cc-pvdz aug-cc-pvdz/c tightscf
|  2> %pal nprocs 16 end
|  3> %maxcore 3800
|  4> %base "DZ_B-F_20_AB"
|  5> %scf
|  6> STABPerform true
|  7> STABRestartUHFifUnstable true
|  8> end
|  9>
| 10> *xyz 0 1
| 11> F        -2.700560    0.095231    0.587856
| 12> F        -1.317533   -1.284789   -0.508161
| 13> B        -1.540109   -0.072129   -0.026058
| 14> C        -0.530666    1.099563   -0.202761
| 15> C         0.894907    0.698684   -0.575663
| 16> H        -0.956634    1.748070   -0.978637
| 17> C         1.617633   -0.042691    0.540412
| 18> H         1.468873    1.590724   -0.839268
| 19> H         0.877503    0.070566   -1.470178
| 20> C         3.036846   -0.437053    0.165010
| 21> H         1.050927   -0.939339    0.807470
| 22> H         1.635418    0.587250    1.434890
| 23> H         3.042483   -1.095068   -0.705769
| 24> H         3.534951   -0.961376    0.980769
| 25> H         3.636296    0.441526   -0.080991
| 26> H        -0.538757    1.713304    0.702767
| 27> *
| 28>
| 29> $new_job
| 30> ! ri-mp2 aug-cc-pvtz aug-cc-pvtz/c tightscf
| 31> %pal nprocs 16 end
| 32> %maxcore 3800
| 33> %base "TZ_B-F_20_AB"
| 34>
| 35> *xyz 0 1
| 36> F        -2.700560    0.095231    0.587856
| 37> F        -1.317533   -1.284789   -0.508161
| 38> B        -1.540109   -0.072129   -0.026058
| 39> C        -0.530666    1.099563   -0.202761
| 40> C         0.894907    0.698684   -0.575663
| 41> H        -0.956634    1.748070   -0.978637
| 42> C         1.617633   -0.042691    0.540412
| 43> H         1.468873    1.590724   -0.839268
| 44> H         0.877503    0.070566   -1.470178
| 45> C         3.036846   -0.437053    0.165010
| 46> H         1.050927   -0.939339    0.807470
| 47> H         1.635418    0.587250    1.434890
| 48> H         3.042483   -1.095068   -0.705769
| 49> H         3.534951   -0.961376    0.980769
| 50> H         3.636296    0.441526   -0.080991
| 51> H        -0.538757    1.713304    0.702767
| 52> *
| 53>
| 54> $new_job
| 55> ! ri-mp2 aug-cc-pvqz aug-cc-pvqz/c tightscf
| 56> %pal nprocs 16 end
| 57> %maxcore 3800
| 58> %base "QZ_B-F_20_AB"
| 59>
| 60> *xyz 0 1
| 61> F        -2.700560    0.095231    0.587856
| 62> F        -1.317533   -1.284789   -0.508161
| 63> B        -1.540109   -0.072129   -0.026058
| 64> C        -0.530666    1.099563   -0.202761
| 65> C         0.894907    0.698684   -0.575663
| 66> H        -0.956634    1.748070   -0.978637
| 67> C         1.617633   -0.042691    0.540412
| 68> H         1.468873    1.590724   -0.839268
| 69> H         0.877503    0.070566   -1.470178
| 70> C         3.036846   -0.437053    0.165010
| 71> H         1.050927   -0.939339    0.807470
| 72> H         1.635418    0.587250    1.434890
| 73> H         3.042483   -1.095068   -0.705769
| 74> H         3.534951   -0.961376    0.980769
| 75> H         3.636296    0.441526   -0.080991
| 76> H        -0.538757    1.713304    0.702767
| 77> *
| 78>
| 79>
| 80>
| 81>
| 82>                          ****END OF INPUT****
 Total Charge           Charge          ....    0
 Multiplicity           Mult            ....    1
 Number of Electrons    NEL             ....   56
MP2 TOTAL ENERGY:     -381.536644377 Eh
FINAL SINGLE POINT ENERGY      -381.536644376991
MP2 TOTAL ENERGY:     -381.885983690 Eh
FINAL SINGLE POINT ENERGY      -381.885983690210

CARTESIAN COORDINATES (ANGSTROEM)
---------------------------------
  F     -2.700560    0.095231    0.587856
  F     -1.317533   -1.284789   -0.508161
  B     -1.540109   -0.072129   -0.026058
  C     -0.530666    1.099563   -0.202761
  C      0.894907    0.698684   -0.575663
  H     -0.956634    1.748070   -0.978637
  C      1.617633   -0.042691    0.540412
  H      1.468873    1.590724   -0.839268
  H      0.877503    0.070566   -1.470178
  C      3.036846   -0.437053    0.165010
  H      1.050927   -0.939339    0.807470
  H      1.635418    0.587250    1.434890
  H      3.042483   -1.095068   -0.705769
  H      3.534951   -0.961376    0.980769
  H      3.636296    0.441526   -0.080991
  H     -0.538757    1.713304    0.702767

 Multiplicity           Mult            ....    1
 Number of Electrons    NEL             ....   56
 Basis Dimension        Dim             ....  974

ORBITAL ENERGIES
----------------

  NO   OCC          E(Eh)            E(eV)
   0   2.0000     -26.304001      -715.7683
   1   2.0000     -26.302587      -715.7298
   2   2.0000     -11.226084      -305.4773
   3   2.0000     -11.221612      -305.3556
   4   2.0000     -11.215988      -305.2025
   5   2.0000     -11.213194      -305.1265
   6   2.0000      -7.697567      -209.4615
   7   2.0000      -1.637798       -44.5667
   8   2.0000      -1.604113       -43.6501
   9   2.0000      -1.085116       -29.5275
  10   2.0000      -0.997993       -27.1568
  11   2.0000      -0.882509       -24.0143
  12   2.0000      -0.814060       -22.1517
  13   2.0000      -0.796891       -21.6845
  14   2.0000      -0.753511       -20.5041
  15   2.0000      -0.715250       -19.4629
  16   2.0000      -0.708405       -19.2767
  17   2.0000      -0.653891       -17.7933
  18   2.0000      -0.649721       -17.6798
  19   2.0000      -0.634321       -17.2608
  20   2.0000      -0.595322       -16.1995
  21   2.0000      -0.587065       -15.9748
  22   2.0000      -0.566403       -15.4126
  23   2.0000      -0.523060       -14.2332
  24   2.0000      -0.497155       -13.5283
  25   2.0000      -0.480256       -13.0684
  26   2.0000      -0.470629       -12.8065
  27   2.0000      -0.464554       -12.6411
  28   0.0000       0.023564         0.6412
  29   0.0000       0.029210         0.7949
  30   0.0000       0.032151         0.8749
  31   0.0000       0.033434         0.9098
  32   0.0000       0.046120         1.2550

MULLIKEN ATOMIC CHARGES
-----------------------
   0 F :   -0.918793
   1 F :   -0.854194
   2 B :    1.782815
   3 C :   -0.482252
   4 C :   -0.483361
   5 H :    0.209208
   6 C :   -0.375494
   7 H :    0.281226
   8 H :    0.236592
   9 C :   -0.833444
  10 H :    0.245714
  11 H :    0.217566
  12 H :    0.228379
  13 H :    0.254420
  14 H :    0.225791
  15 H :    0.265826
Sum of atomic charges:    0.0000000

LOEWDIN ATOMIC CHARGES
----------------------
   0 F :    0.827926
   1 F :    0.849823
   2 B :   -1.687798
   3 C :    0.617393
   4 C :    0.482647
   5 H :   -0.288639
   6 C :    0.497390
   7 H :   -0.265209
   8 H :   -0.274262
   9 C :    0.932197
  10 H :   -0.281591
  11 H :   -0.266982
  12 H :   -0.280758
  13 H :   -0.280600
  14 H :   -0.282535
  15 H :   -0.299000

  Mayer bond orders larger than 0.100000
B(  0-F ,  2-B ) :   0.1206 B(  1-F ,  2-B ) :   0.2177 B(  1-F ,  3-C ) :  -0.1665
B(  2-B ,  3-C ) :   0.9825 B(  3-C ,  4-C ) :   0.9937 B(  3-C ,  5-H ) :   0.9426
B(  3-C , 15-H ) :   0.9051 B(  4-C ,  6-C ) :   0.8501 B(  4-C ,  7-H ) :   0.8714
B(  4-C ,  8-H ) :   0.8946 B(  6-C ,  9-C ) :   0.9423 B(  6-C , 10-H ) :   0.8891
B(  6-C , 11-H ) :   0.8927 B(  9-C , 12-H ) :   0.9521 B(  9-C , 13-H ) :   1.0179
B(  9-C , 14-H ) :   0.9633

MP2 TOTAL ENERGY:     -381.994208646 Eh
FINAL SINGLE POINT ENERGY      -381.994208645956

DIPOLE MOMENT
-------------
                                X             Y             Z
Electronic contribution:    -18.28765      -3.85344       0.11968
Nuclear contribution   :     18.82607       4.35750      -0.20519
                        -----------------------------------------
Total Dipole Moment    :      0.53843       0.50406      -0.08552
                        -----------------------------------------
Magnitude (a.u.)       :      0.74249
Magnitude (Debye)      :      1.88727

Rotational constants in cm-1:     0.178404     0.040089     0.036746
Rotational constants in MHz :  5348.417908  1201.839508  1101.611026

                             ****ORCA TERMINATED NORMALLY****
TOTAL RUN TIME: 0 days 2 hours 9 minutes 29 seconds 851 msec
