                         Program Version 5.0.4 -  RELEASE  -
|  1> ! ri-mp2 aug-cc-pvdz aug-cc-pvdz/c tightscf
|  2> %pal nprocs 16 end
|  3> %maxcore 3800
|  4> %base "DZ_S-S_36_AB"
|  5> %scf
|  6> STABPerform true
|  7> STABRestartUHFifUnstable true
|  8> end
|  9>
| 10> *xyz 0 1
| 11> S         0.708200   -1.295218   -0.577435
| 12> S         2.353612   -0.855464    0.524963
| 13> C         2.888538    0.642572   -0.262036
| 14> C        -0.491916   -0.234868    0.211604
| 15> O        -1.678626   -0.496316   -0.414823
| 16> O        -0.319169    0.540811    1.082040
| 17> O         2.400222    1.252574   -1.134066
| 18> F         4.023932    1.011101    0.344936
| 19> C        -2.804482    0.204068   -0.033289
| 20> F        -3.106885   -0.018459    1.235169
| 21> F        -3.789976   -0.233715   -0.794299
| 22> F        -2.656098    1.503710   -0.221733
| 23> *
| 24>
| 25> $new_job
| 26> ! ri-mp2 aug-cc-pvtz aug-cc-pvtz/c tightscf
| 27> %pal nprocs 16 end
| 28> %maxcore 3800
| 29> %base "TZ_S-S_36_AB"
| 30>
| 31> *xyz 0 1
| 32> S         0.708200   -1.295218   -0.577435
| 33> S         2.353612   -0.855464    0.524963
| 34> C         2.888538    0.642572   -0.262036
| 35> C        -0.491916   -0.234868    0.211604
| 36> O        -1.678626   -0.496316   -0.414823
| 37> O        -0.319169    0.540811    1.082040
| 38> O         2.400222    1.252574   -1.134066
| 39> F         4.023932    1.011101    0.344936
| 40> C        -2.804482    0.204068   -0.033289
| 41> F        -3.106885   -0.018459    1.235169
| 42> F        -3.789976   -0.233715   -0.794299
| 43> F        -2.656098    1.503710   -0.221733
| 44> *
| 45>
| 46> $new_job
| 47> ! ri-mp2 aug-cc-pvqz aug-cc-pvqz/c tightscf
| 48> %pal nprocs 16 end
| 49> %maxcore 3800
| 50> %base "QZ_S-S_36_AB"
| 51>
| 52> *xyz 0 1
| 53> S         0.708200   -1.295218   -0.577435
| 54> S         2.353612   -0.855464    0.524963
| 55> C         2.888538    0.642572   -0.262036
| 56> C        -0.491916   -0.234868    0.211604
| 57> O        -1.678626   -0.496316   -0.414823
| 58> O        -0.319169    0.540811    1.082040
| 59> O         2.400222    1.252574   -1.134066
| 60> F         4.023932    1.011101    0.344936
| 61> C        -2.804482    0.204068   -0.033289
| 62> F        -3.106885   -0.018459    1.235169
| 63> F        -3.789976   -0.233715   -0.794299
| 64> F        -2.656098    1.503710   -0.221733
| 65> *
| 66>
| 67>
| 68>
| 69>
| 70>                          ****END OF INPUT****
 Total Charge           Charge          ....    0
 Multiplicity           Mult            ....    1
 Number of Electrons    NEL             ....  110
MP2 TOTAL ENERGY:    -1533.181094542 Eh
FINAL SINGLE POINT ENERGY     -1533.181094542405
MP2 TOTAL ENERGY:    -1533.895713934 Eh
FINAL SINGLE POINT ENERGY     -1533.895713934013

CARTESIAN COORDINATES (ANGSTROEM)
---------------------------------
  S      0.708200   -1.295218   -0.577435
  S      2.353612   -0.855464    0.524963
  C      2.888538    0.642572   -0.262036
  C     -0.491916   -0.234868    0.211604
  O     -1.678626   -0.496316   -0.414823
  O     -0.319169    0.540811    1.082040
  O      2.400222    1.252574   -1.134066
  F      4.023932    1.011101    0.344936
  C     -2.804482    0.204068   -0.033289
  F     -3.106885   -0.018459    1.235169
  F     -3.789976   -0.233715   -0.794299
  F     -2.656098    1.503710   -0.221733

 Multiplicity           Mult            ....    1
 Number of Electrons    NEL             ....  110
 Basis Dimension        Dim             ....  968

ORBITAL ENERGIES
----------------

  NO   OCC          E(Eh)            E(eV)
   0   2.0000     -92.049015     -2504.7810
   1   2.0000     -92.047812     -2504.7483
   2   2.0000     -26.370938      -717.5897
   3   2.0000     -26.369728      -717.5568
   4   2.0000     -26.369409      -717.5481
   5   2.0000     -26.364333      -717.4100
   6   2.0000     -20.680702      -562.7505
   7   2.0000     -20.610197      -560.8320
   8   2.0000     -20.609417      -560.8107
   9   2.0000     -11.595901      -315.5405
  10   2.0000     -11.471211      -312.1475
  11   2.0000     -11.464038      -311.9523
  12   2.0000      -9.049716      -246.2553
  13   2.0000      -9.048539      -246.2233
  14   2.0000      -6.730834      -183.1553
  15   2.0000      -6.729708      -183.1247
  16   2.0000      -6.729482      -183.1185
  17   2.0000      -6.728686      -183.0968
  18   2.0000      -6.728395      -183.0889
  19   2.0000      -6.727515      -183.0650
  20   2.0000      -1.781724       -48.4832
  21   2.0000      -1.693940       -46.0944
  22   2.0000      -1.676242       -45.6129
  23   2.0000      -1.674995       -45.5789
  24   2.0000      -1.539221       -41.8843
  25   2.0000      -1.470193       -40.0060
  26   2.0000      -1.448131       -39.4056
  27   2.0000      -1.147124       -31.2148
  28   2.0000      -1.055930       -28.7333
  29   2.0000      -0.987957       -26.8837
  30   2.0000      -0.921903       -25.0863
  31   2.0000      -0.879329       -23.9278
  32   2.0000      -0.876873       -23.8609
  33   2.0000      -0.861791       -23.4505
  34   2.0000      -0.788622       -21.4595
  35   2.0000      -0.771759       -21.0006
  36   2.0000      -0.757677       -20.6174
  37   2.0000      -0.755773       -20.5656
  38   2.0000      -0.747360       -20.3367
  39   2.0000      -0.740753       -20.1569
  40   2.0000      -0.725884       -19.7523
  41   2.0000      -0.707643       -19.2559
  42   2.0000      -0.706398       -19.2221
  43   2.0000      -0.690005       -18.7760
  44   2.0000      -0.682782       -18.5794
  45   2.0000      -0.676851       -18.4180
  46   2.0000      -0.640991       -17.4423
  47   2.0000      -0.627594       -17.0777
  48   2.0000      -0.587215       -15.9789
  49   2.0000      -0.560841       -15.2613
  50   2.0000      -0.552812       -15.0428
  51   2.0000      -0.506000       -13.7690
  52   2.0000      -0.498339       -13.5605
  53   2.0000      -0.445982       -12.1358
  54   2.0000      -0.429707       -11.6929
  55   0.0000       0.033359         0.9077
  56   0.0000       0.038737         1.0541
  57   0.0000       0.047754         1.2994
  58   0.0000       0.051628         1.4049
  59   0.0000       0.063666         1.7324

MULLIKEN ATOMIC CHARGES
-----------------------
   0 S :    0.250494
   1 S :    0.177116
   2 C :    0.851276
   3 C :    0.672604
   4 O :   -0.594295
   5 O :   -0.633304
   6 O :   -0.568408
   7 F :   -0.512921
   8 C :    2.081545
   9 F :   -0.563125
  10 F :   -0.599815
  11 F :   -0.561168
Sum of atomic charges:    0.0000000

LOEWDIN ATOMIC CHARGES
----------------------
   0 S :    0.726249
   1 S :    0.680992
   2 C :   -1.856432
   3 C :   -1.641888
   4 O :    0.614893
   5 O :    0.609547
   6 O :    0.540771
   7 F :    0.647513
   8 C :   -2.630905
   9 F :    0.772608
  10 F :    0.760365
  11 F :    0.776287

  Mayer bond orders larger than 0.100000
B(  0-S ,  1-S ) :   1.1383 B(  0-S ,  3-C ) :   0.9411 B(  1-S ,  2-C ) :   1.0420
B(  2-C ,  6-O ) :   1.7747 B(  2-C ,  7-F ) :   0.6867 B(  3-C ,  4-O ) :   0.9156
B(  3-C ,  5-O ) :   1.6758 B(  4-O ,  8-C ) :   0.8787 B(  8-C ,  9-F ) :   0.5457
B(  8-C , 10-F ) :   0.4948 B(  8-C , 11-F ) :   0.5450

MP2 TOTAL ENERGY:    -1534.134194756 Eh
FINAL SINGLE POINT ENERGY     -1534.134194755616

DIPOLE MOMENT
-------------
                                X             Y             Z
Electronic contribution:     -4.80773       0.93300       0.50944
Nuclear contribution   :      4.95154      -1.97954      -0.51874
                        -----------------------------------------
Total Dipole Moment    :      0.14381      -1.04654      -0.00930
                        -----------------------------------------
Magnitude (a.u.)       :      1.05642
Magnitude (Debye)      :      2.68520

Rotational constants in cm-1:     0.058612     0.010982     0.010481
Rotational constants in MHz :  1757.129805   329.224664   314.207026

                             ****ORCA TERMINATED NORMALLY****
TOTAL RUN TIME: 0 days 1 hours 37 minutes 36 seconds 790 msec
