                         Program Version 5.0.4 -  RELEASE  -
|  1> ! ri-mp2 aug-cc-pvdz aug-cc-pvdz/c tightscf
|  2> %pal nprocs 16 end
|  3> %maxcore 3800
|  4> %base "DZ_B-F_18_A"
|  5> %scf
|  6> STABPerform true
|  7> STABRestartUHFifUnstable true
|  8> end
|  9>
| 10> *xyz 0 2
| 11> F         1.976750   -0.017008   -0.000000
| 12> B         0.750702   -0.480322   -0.000002
| 13> C        -0.493273    0.456764   -0.000001
| 14> C        -1.863489   -0.209985    0.000002
| 15> H        -0.376680    1.115467    0.870496
| 16> H        -1.992689   -0.842876   -0.877914
| 17> H        -2.664946    0.528834    0.000001
| 18> H        -1.992688   -0.842873    0.877921
| 19> H        -0.376683    1.115464   -0.870501
| 20> *
| 21>
| 22> $new_job
| 23> ! ri-mp2 aug-cc-pvtz aug-cc-pvtz/c tightscf
| 24> %pal nprocs 16 end
| 25> %maxcore 3800
| 26> %base "TZ_B-F_18_A"
| 27>
| 28> *xyz 0 2
| 29> F         1.976750   -0.017008   -0.000000
| 30> B         0.750702   -0.480322   -0.000002
| 31> C        -0.493273    0.456764   -0.000001
| 32> C        -1.863489   -0.209985    0.000002
| 33> H        -0.376680    1.115467    0.870496
| 34> H        -1.992689   -0.842876   -0.877914
| 35> H        -2.664946    0.528834    0.000001
| 36> H        -1.992688   -0.842873    0.877921
| 37> H        -0.376683    1.115464   -0.870501
| 38> *
| 39>
| 40> $new_job
| 41> ! ri-mp2 aug-cc-pvqz aug-cc-pvqz/c tightscf
| 42> %pal nprocs 16 end
| 43> %maxcore 3800
| 44> %base "QZ_B-F_18_A"
| 45>
| 46> *xyz 0 2
| 47> F         1.976750   -0.017008   -0.000000
| 48> B         0.750702   -0.480322   -0.000002
| 49> C        -0.493273    0.456764   -0.000001
| 50> C        -1.863489   -0.209985    0.000002
| 51> H        -0.376680    1.115467    0.870496
| 52> H        -1.992689   -0.842876   -0.877914
| 53> H        -2.664946    0.528834    0.000001
| 54> H        -1.992688   -0.842873    0.877921
| 55> H        -0.376683    1.115464   -0.870501
| 56> *
| 57>
| 58>
| 59>
| 60>
| 61>                          ****END OF INPUT****
 Total Charge           Charge          ....    0
 Multiplicity           Mult            ....    2
 Number of Electrons    NEL             ....   31
MP2 TOTAL ENERGY:     -203.350388025 Eh
FINAL SINGLE POINT ENERGY      -203.350388025425
MP2 TOTAL ENERGY:     -203.535646947 Eh
FINAL SINGLE POINT ENERGY      -203.535646947496

CARTESIAN COORDINATES (ANGSTROEM)
---------------------------------
  F      1.976750   -0.017008   -0.000000
  B      0.750702   -0.480322   -0.000002
  C     -0.493273    0.456764   -0.000001
  C     -1.863489   -0.209985    0.000002
  H     -0.376680    1.115467    0.870496
  H     -1.992689   -0.842876   -0.877914
  H     -2.664946    0.528834    0.000001
  H     -1.992688   -0.842873    0.877921
  H     -0.376683    1.115464   -0.870501

 Multiplicity           Mult            ....    2
 Number of Electrons    NEL             ....   31
 Basis Dimension        Dim             ....  550

ORBITAL ENERGIES
----------------
                 SPIN UP ORBITALS
  NO   OCC          E(Eh)            E(eV)
   0   1.0000     -26.310255      -715.9384
   1   1.0000     -11.221729      -305.3588
   2   1.0000     -11.219631      -305.3017
   3   1.0000      -7.671508      -208.7523
   4   1.0000      -1.628445       -44.3122
   5   1.0000      -1.039244       -28.2793
   6   1.0000      -0.872418       -23.7397
   7   1.0000      -0.783421       -21.3180
   8   1.0000      -0.705050       -19.1854
   9   1.0000      -0.683704       -18.6045
  10   1.0000      -0.619981       -16.8705
  11   1.0000      -0.611111       -16.6292
  12   1.0000      -0.526921       -14.3382
  13   1.0000      -0.506018       -13.7694
  14   1.0000      -0.501450       -13.6451
  15   1.0000      -0.338898        -9.2219
  16   0.0000       0.025713         0.6997
  17   0.0000       0.033277         0.9055
  18   0.0000       0.034220         0.9312
  19   0.0000       0.035593         0.9685
  20   0.0000       0.052484         1.4282

                 SPIN DOWN ORBITALS
  NO   OCC          E(Eh)            E(eV)
   0   1.0000     -26.306895      -715.8470
   1   1.0000     -11.221683      -305.3575
   2   1.0000     -11.216379      -305.2132
   3   1.0000      -7.653170      -208.2533
   4   1.0000      -1.619062       -44.0569
   5   1.0000      -1.032939       -28.1077
   6   1.0000      -0.864040       -23.5117
   7   1.0000      -0.770401       -20.9637
   8   1.0000      -0.683483       -18.5985
   9   1.0000      -0.676502       -18.4085
  10   1.0000      -0.610461       -16.6115
  11   1.0000      -0.602118       -16.3845
  12   1.0000      -0.522869       -14.2280
  13   1.0000      -0.500763       -13.6264
  14   1.0000      -0.483075       -13.1451
  15   0.0000       0.021604         0.5879
  16   0.0000       0.034023         0.9258
  17   0.0000       0.034042         0.9263
  18   0.0000       0.035432         0.9642
  19   0.0000       0.051411         1.3990

MULLIKEN ATOMIC CHARGES AND SPIN POPULATIONS
--------------------------------------------
   0 F :   -0.734333   -0.019107
   1 B :    0.774809    0.998449
   2 C :   -0.542617    0.041896
   3 C :   -0.798223   -0.027089
   4 H :    0.261581    0.006017
   5 H :    0.253077   -0.001848
   6 H :    0.271047   -0.002487
   7 H :    0.253077   -0.001848
   8 H :    0.261581    0.006017
Sum of atomic charges         :    0.0000000

LOEWDIN ATOMIC CHARGES AND SPIN POPULATIONS
-------------------------------------------
   0 F :    0.738667    0.149843
   1 B :   -0.611835    0.570358
   2 C :    0.540121    0.170670
   3 C :    0.865072    0.040829
   4 H :   -0.323982    0.022176
   5 H :   -0.298228    0.010897
   6 H :   -0.287606    0.002155
   7 H :   -0.298227    0.010897
   8 H :   -0.323982    0.022176

  Mayer bond orders larger than 0.100000
B(  0-F ,  1-B ) :   0.3404 B(  1-B ,  2-C ) :   1.0360 B(  2-C ,  3-C ) :   0.9890
B(  2-C ,  4-H ) :   0.8660 B(  2-C ,  8-H ) :   0.8660 B(  3-C ,  5-H ) :   0.9328
B(  3-C ,  6-H ) :   0.9385 B(  3-C ,  7-H ) :   0.9328

MP2 TOTAL ENERGY:     -203.592757126 Eh
FINAL SINGLE POINT ENERGY      -203.592757126171

DIPOLE MOMENT
-------------
                                X             Y             Z
Electronic contribution:      9.31214      -1.22072      -0.00000
Nuclear contribution   :     -9.85089       1.46155       0.00000
                        -----------------------------------------
Total Dipole Moment    :     -0.53875       0.24082      -0.00000
                        -----------------------------------------
Magnitude (a.u.)       :      0.59013
Magnitude (Debye)      :      1.49998

Rotational constants in cm-1:     1.317865     0.118852     0.113546
Rotational constants in MHz : 39508.610401  3563.106308  3404.020646

                             ****ORCA TERMINATED NORMALLY****
TOTAL RUN TIME: 0 days 0 hours 23 minutes 38 seconds 21 msec
