                         Program Version 5.0.4 -  RELEASE  -
|  1> ! ri-mp2 aug-cc-pvdz aug-cc-pvdz/c tightscf
|  2> %pal nprocs 16 end
|  3> %maxcore 3800
|  4> %base "DZ_B-P_68_AB"
|  5> %scf
|  6> STABPerform true
|  7> STABRestartUHFifUnstable true
|  8> end
|  9>
| 10> *xyz 0 1
| 11> C         1.658111   -0.207052    0.462420
| 12> B        -1.153450    0.264603    0.001598
| 13> O        -2.473294   -0.053343    0.009199
| 14> O        -0.841078    1.576846    0.073261
| 15> C         2.387059    0.628059   -0.266297
| 16> H         3.222138    1.169827    0.159283
| 17> H         2.190688    0.788347   -1.320876
| 18> H         0.107971    1.738130    0.121966
| 19> H        -2.672265   -0.987364   -0.078559
| 20> P         0.224724   -1.102483   -0.211140
| 21> H         1.913510   -0.358613    1.505386
| 22> H        -0.121702   -1.850159    0.935486
| 23> *
| 24>
| 25> $new_job
| 26> ! ri-mp2 aug-cc-pvtz aug-cc-pvtz/c tightscf
| 27> %pal nprocs 16 end
| 28> %maxcore 3800
| 29> %base "TZ_B-P_68_AB"
| 30>
| 31> *xyz 0 1
| 32> C         1.658111   -0.207052    0.462420
| 33> B        -1.153450    0.264603    0.001598
| 34> O        -2.473294   -0.053343    0.009199
| 35> O        -0.841078    1.576846    0.073261
| 36> C         2.387059    0.628059   -0.266297
| 37> H         3.222138    1.169827    0.159283
| 38> H         2.190688    0.788347   -1.320876
| 39> H         0.107971    1.738130    0.121966
| 40> H        -2.672265   -0.987364   -0.078559
| 41> P         0.224724   -1.102483   -0.211140
| 42> H         1.913510   -0.358613    1.505386
| 43> H        -0.121702   -1.850159    0.935486
| 44> *
| 45>
| 46> $new_job
| 47> ! ri-mp2 aug-cc-pvqz aug-cc-pvqz/c tightscf
| 48> %pal nprocs 16 end
| 49> %maxcore 3800
| 50> %base "QZ_B-P_68_AB"
| 51>
| 52> *xyz 0 1
| 53> C         1.658111   -0.207052    0.462420
| 54> B        -1.153450    0.264603    0.001598
| 55> O        -2.473294   -0.053343    0.009199
| 56> O        -0.841078    1.576846    0.073261
| 57> C         2.387059    0.628059   -0.266297
| 58> H         3.222138    1.169827    0.159283
| 59> H         2.190688    0.788347   -1.320876
| 60> H         0.107971    1.738130    0.121966
| 61> H        -2.672265   -0.987364   -0.078559
| 62> P         0.224724   -1.102483   -0.211140
| 63> H         1.913510   -0.358613    1.505386
| 64> H        -0.121702   -1.850159    0.935486
| 65> *
| 66>
| 67>
| 68>
| 69>
| 70>                          ****END OF INPUT****
 Total Charge           Charge          ....    0
 Multiplicity           Mult            ....    1
 Number of Electrons    NEL             ....   54
MP2 TOTAL ENERGY:     -595.386689646 Eh
FINAL SINGLE POINT ENERGY      -595.386689645986
MP2 TOTAL ENERGY:     -595.654957778 Eh
FINAL SINGLE POINT ENERGY      -595.654957778182

CARTESIAN COORDINATES (ANGSTROEM)
---------------------------------
  C      1.658111   -0.207052    0.462420
  B     -1.153450    0.264603    0.001598
  O     -2.473294   -0.053343    0.009199
  O     -0.841078    1.576846    0.073261
  C      2.387059    0.628059   -0.266297
  H      3.222138    1.169827    0.159283
  H      2.190688    0.788347   -1.320876
  H      0.107971    1.738130    0.121966
  H     -2.672265   -0.987364   -0.078559
  P      0.224724   -1.102483   -0.211140
  H      1.913510   -0.358613    1.505386
  H     -0.121702   -1.850159    0.935486

 Multiplicity           Mult            ....    1
 Number of Electrons    NEL             ....   54
 Basis Dimension        Dim             ....  760

ORBITAL ENERGIES
----------------

  NO   OCC          E(Eh)            E(eV)
   0   2.0000     -79.933574     -2175.1031
   1   2.0000     -20.571697      -559.7843
   2   2.0000     -20.566508      -559.6431
   3   2.0000     -11.255015      -306.2645
   4   2.0000     -11.246847      -306.0423
   5   2.0000      -7.652899      -208.2460
   6   2.0000      -7.478871      -203.5104
   7   2.0000      -5.373221      -146.2128
   8   2.0000      -5.372707      -146.1988
   9   2.0000      -5.372246      -146.1862
  10   2.0000      -1.387478       -37.7552
  11   2.0000      -1.352751       -36.8102
  12   2.0000      -1.067909       -29.0593
  13   2.0000      -0.877705       -23.8836
  14   2.0000      -0.796200       -21.6657
  15   2.0000      -0.763130       -20.7658
  16   2.0000      -0.683612       -18.6020
  17   2.0000      -0.655207       -17.8291
  18   2.0000      -0.629388       -17.1265
  19   2.0000      -0.597448       -16.2574
  20   2.0000      -0.578630       -15.7453
  21   2.0000      -0.574468       -15.6321
  22   2.0000      -0.505742       -13.7619
  23   2.0000      -0.502161       -13.6645
  24   2.0000      -0.456263       -12.4155
  25   2.0000      -0.420562       -11.4441
  26   2.0000      -0.343013        -9.3338
  27   0.0000       0.021474         0.5843
  28   0.0000       0.028287         0.7697
  29   0.0000       0.032266         0.8780
  30   0.0000       0.040059         1.0901
  31   0.0000       0.044285         1.2050

MULLIKEN ATOMIC CHARGES
-----------------------
   0 C :   -0.630023
   1 B :    1.332864
   2 O :   -1.082709
   3 O :   -1.061761
   4 C :   -0.784392
   5 H :    0.398475
   6 H :    0.362072
   7 H :    0.408672
   8 H :    0.358767
   9 P :    0.412727
  10 H :    0.367463
  11 H :   -0.082156
Sum of atomic charges:   -0.0000000

LOEWDIN ATOMIC CHARGES
----------------------
   0 C :    0.094250
   1 B :   -1.418854
   2 O :    1.290693
   3 O :    1.311058
   4 C :    0.682224
   5 H :   -0.347221
   6 H :   -0.358561
   7 H :   -0.888777
   8 H :   -0.826981
   9 P :    1.317265
  10 H :   -0.395592
  11 H :   -0.459504

  Mayer bond orders larger than 0.100000
B(  0-C ,  4-C ) :   1.8207 B(  0-C ,  9-P ) :   0.6653 B(  0-C , 10-H ) :   0.8904
B(  1-B ,  2-O ) :   0.4385 B(  1-B ,  3-O ) :   0.4776 B(  1-B ,  9-P ) :   0.9938
B(  2-O ,  8-H ) :   0.9071 B(  3-O ,  7-H ) :   0.8807 B(  4-C ,  5-H ) :   0.8989
B(  4-C ,  6-H ) :   0.8704 B(  9-P , 11-H ) :   0.9451

MP2 TOTAL ENERGY:     -595.741909057 Eh
FINAL SINGLE POINT ENERGY      -595.741909056600

DIPOLE MOMENT
-------------
                                X             Y             Z
Electronic contribution:     -4.41612      -1.78290      -1.18903
Nuclear contribution   :      5.17912       1.32902       1.48804
                        -----------------------------------------
Total Dipole Moment    :      0.76300      -0.45388       0.29901
                        -----------------------------------------
Magnitude (a.u.)       :      0.93680
Magnitude (Debye)      :      2.38115

Rotational constants in cm-1:     0.164498     0.064168     0.048759
Rotational constants in MHz :  4931.512409  1923.703005  1461.752053

                             ****ORCA TERMINATED NORMALLY****
TOTAL RUN TIME: 0 days 0 hours 24 minutes 41 seconds 389 msec
