                         Program Version 5.0.4 -  RELEASE  -
|  1> ! ri-mp2 aug-cc-pvdz aug-cc-pvdz/c tightscf
|  2> %pal nprocs 16 end
|  3> %maxcore 3800
|  4> %base "DZ_Si-Si_21_AB"
|  5> %scf
|  6> STABPerform true
|  7> STABRestartUHFifUnstable true
|  8> end
|  9>
| 10> *xyz 0 1
| 11> Si        -2.277071    0.000025    0.000008
| 12> Si         0.048679    0.000000   -0.000002
| 13> Cl         0.773285    1.551383    1.116826
| 14> H        -2.746188    1.276577   -0.574936
| 15> Cl         0.773251    0.191498   -1.901961
| 16> H        -2.746239   -1.136162   -0.818027
| 17> Cl         0.773235   -1.742908    0.785127
| 18> H        -2.746186   -0.140313    1.393011
| 19> *
| 20>
| 21> $new_job
| 22> ! ri-mp2 aug-cc-pvtz aug-cc-pvtz/c tightscf
| 23> %pal nprocs 16 end
| 24> %maxcore 3800
| 25> %base "TZ_Si-Si_21_AB"
| 26>
| 27> *xyz 0 1
| 28> Si        -2.277071    0.000025    0.000008
| 29> Si         0.048679    0.000000   -0.000002
| 30> Cl         0.773285    1.551383    1.116826
| 31> H        -2.746188    1.276577   -0.574936
| 32> Cl         0.773251    0.191498   -1.901961
| 33> H        -2.746239   -1.136162   -0.818027
| 34> Cl         0.773235   -1.742908    0.785127
| 35> H        -2.746186   -0.140313    1.393011
| 36> *
| 37>
| 38> $new_job
| 39> ! ri-mp2 aug-cc-pvqz aug-cc-pvqz/c tightscf
| 40> %pal nprocs 16 end
| 41> %maxcore 3800
| 42> %base "QZ_Si-Si_21_AB"
| 43>
| 44> *xyz 0 1
| 45> Si        -2.277071    0.000025    0.000008
| 46> Si         0.048679    0.000000   -0.000002
| 47> Cl         0.773285    1.551383    1.116826
| 48> H        -2.746188    1.276577   -0.574936
| 49> Cl         0.773251    0.191498   -1.901961
| 50> H        -2.746239   -1.136162   -0.818027
| 51> Cl         0.773235   -1.742908    0.785127
| 52> H        -2.746186   -0.140313    1.393011
| 53> *
| 54>
| 55>
| 56>
| 57>
| 58>                          ****END OF INPUT****
 Total Charge           Charge          ....    0
 Multiplicity           Mult            ....    1
 Number of Electrons    NEL             ....   82
MP2 TOTAL ENERGY:    -1958.922628348 Eh
FINAL SINGLE POINT ENERGY     -1958.922628348014
MP2 TOTAL ENERGY:    -1959.182750955 Eh
FINAL SINGLE POINT ENERGY     -1959.182750955424

CARTESIAN COORDINATES (ANGSTROEM)
---------------------------------
  Si    -2.277071    0.000025    0.000008
  Si     0.048679    0.000000   -0.000002
  Cl     0.773285    1.551383    1.116826
  H     -2.746188    1.276577   -0.574936
  Cl     0.773251    0.191498   -1.901961
  H     -2.746239   -1.136162   -0.818027
  Cl     0.773235   -1.742908    0.785127
  H     -2.746186   -0.140313    1.393011

 Multiplicity           Mult            ....    1
 Number of Electrons    NEL             ....   82
 Basis Dimension        Dim             ....  558

ORBITAL ENERGIES
----------------

  NO   OCC          E(Eh)            E(eV)
   0   2.0000    -104.847194     -2853.0372
   1   2.0000    -104.847194     -2853.0372
   2   2.0000    -104.847194     -2853.0372
   3   2.0000     -68.896059     -1874.7571
   4   2.0000     -68.792761     -1871.9462
   5   2.0000     -10.574740      -287.7533
   6   2.0000     -10.574739      -287.7533
   7   2.0000     -10.574731      -287.7531
   8   2.0000      -8.041477      -218.8197
   9   2.0000      -8.041477      -218.8197
  10   2.0000      -8.041475      -218.8197
  11   2.0000      -8.040296      -218.7876
  12   2.0000      -8.040295      -218.7876
  13   2.0000      -8.040295      -218.7876
  14   2.0000      -8.040292      -218.7875
  15   2.0000      -8.040291      -218.7875
  16   2.0000      -8.040291      -218.7874
  17   2.0000      -6.232464      -169.5940
  18   2.0000      -6.143775      -167.1806
  19   2.0000      -4.339366      -118.0801
  20   2.0000      -4.339366      -118.0801
  21   2.0000      -4.337976      -118.0423
  22   2.0000      -4.250037      -115.6494
  23   2.0000      -4.249700      -115.6402
  24   2.0000      -4.249700      -115.6402
  25   2.0000      -1.146442       -31.1963
  26   2.0000      -1.104460       -30.0539
  27   2.0000      -1.104459       -30.0539
  28   2.0000      -0.766910       -20.8687
  29   2.0000      -0.684361       -18.6224
  30   2.0000      -0.575156       -15.6508
  31   2.0000      -0.575156       -15.6508
  32   2.0000      -0.545258       -14.8372
  33   2.0000      -0.511659       -13.9229
  34   2.0000      -0.511658       -13.9229
  35   2.0000      -0.502397       -13.6709
  36   2.0000      -0.502397       -13.6709
  37   2.0000      -0.475236       -12.9318
  38   2.0000      -0.475236       -12.9318
  39   2.0000      -0.462490       -12.5850
  40   2.0000      -0.418353       -11.3840
  41   0.0000       0.023897         0.6503
  42   0.0000       0.034981         0.9519
  43   0.0000       0.040470         1.1012
  44   0.0000       0.040470         1.1012
  45   0.0000       0.051212         1.3935

MULLIKEN ATOMIC CHARGES
-----------------------
   0 Si:    0.365149
   1 Si:    1.886744
   2 Cl:   -0.616762
   3 H :   -0.133869
   4 Cl:   -0.616764
   5 H :   -0.133867
   6 Cl:   -0.616763
   7 H :   -0.133869
Sum of atomic charges:   -0.0000000

LOEWDIN ATOMIC CHARGES
----------------------
   0 Si:    0.886374
   1 Si:   -2.432792
   2 Cl:    0.830344
   3 H :   -0.314875
   4 Cl:    0.830349
   5 H :   -0.314872
   6 Cl:    0.830346
   7 H :   -0.314874

  Mayer bond orders larger than 0.100000
B(  0-Si,  1-Si) :   0.7702 B(  0-Si,  3-H ) :   0.7976 B(  0-Si,  5-H ) :   0.7976
B(  0-Si,  7-H ) :   0.7976 B(  1-Si,  2-Cl) :   0.5298 B(  1-Si,  4-Cl) :   0.5298
B(  1-Si,  6-Cl) :   0.5298

MP2 TOTAL ENERGY:    -1959.271046017 Eh
FINAL SINGLE POINT ENERGY     -1959.271046017058

DIPOLE MOMENT
-------------
                                X             Y             Z
Electronic contribution:      9.93419      -0.00013      -0.00007
Nuclear contribution   :    -10.62505       0.00013       0.00005
                        -----------------------------------------
Total Dipole Moment    :     -0.69086       0.00000      -0.00001
                        -----------------------------------------
Magnitude (a.u.)       :      0.69086
Magnitude (Debye)      :      1.75603

Rotational constants in cm-1:     0.042723     0.039331     0.039331
Rotational constants in MHz :  1280.815520  1179.128216  1179.127354

                             ****ORCA TERMINATED NORMALLY****
TOTAL RUN TIME: 0 days 0 hours 18 minutes 42 seconds 132 msec
