                         Program Version 5.0.4 -  RELEASE  -
|  1> ! ri-mp2 aug-cc-pvdz aug-cc-pvdz/c tightscf
|  2> %pal nprocs 16 end
|  3> %maxcore 3800
|  4> %base "DZ_P-N_12_AB"
|  5>
|  6> *xyz 0 1
|  7> O         1.567633   -1.013609   -0.281940
|  8> C         2.672099   -0.292571   -0.535194
|  9> C         0.683269   -0.197768    0.380779
| 10> C         2.539158    0.969043   -0.065508
| 11> C         1.248597    1.029442    0.526945
| 12> H         3.269438    1.757036   -0.131349
| 13> H         3.465842   -0.803738   -1.051551
| 14> H         0.780678    1.876481    0.997485
| 15> N        -2.052050   -0.006806   -0.116139
| 16> O        -1.877748   -0.251755   -1.481900
| 17> O        -1.889058    1.378074    0.099150
| 18> H        -2.783545    1.728921    0.007780
| 19> H        -0.995664    0.087055   -1.714599
| 20> P        -0.901194   -0.955149    0.812420
| 21> H        -1.119849   -0.221427    1.994305
| 22> *
| 23>
| 24> $new_job
| 25> ! ri-mp2 aug-cc-pvtz aug-cc-pvtz/c tightscf
| 26> %pal nprocs 16 end
| 27> %maxcore 3800
| 28> %base "TZ_P-N_12_AB"
| 29>
| 30> *xyz 0 1
| 31> O         1.567633   -1.013609   -0.281940
| 32> C         2.672099   -0.292571   -0.535194
| 33> C         0.683269   -0.197768    0.380779
| 34> C         2.539158    0.969043   -0.065508
| 35> C         1.248597    1.029442    0.526945
| 36> H         3.269438    1.757036   -0.131349
| 37> H         3.465842   -0.803738   -1.051551
| 38> H         0.780678    1.876481    0.997485
| 39> N        -2.052050   -0.006806   -0.116139
| 40> O        -1.877748   -0.251755   -1.481900
| 41> O        -1.889058    1.378074    0.099150
| 42> H        -2.783545    1.728921    0.007780
| 43> H        -0.995664    0.087055   -1.714599
| 44> P        -0.901194   -0.955149    0.812420
| 45> H        -1.119849   -0.221427    1.994305
| 46> *
| 47>
| 48> $new_job
| 49> ! ri-mp2 aug-cc-pvqz aug-cc-pvqz/c tightscf
| 50> %pal nprocs 16 end
| 51> %maxcore 3800
| 52> %base "QZ_P-N_12_AB"
| 53>
| 54> *xyz 0 1
| 55> O         1.567633   -1.013609   -0.281940
| 56> C         2.672099   -0.292571   -0.535194
| 57> C         0.683269   -0.197768    0.380779
| 58> C         2.539158    0.969043   -0.065508
| 59> C         1.248597    1.029442    0.526945
| 60> H         3.269438    1.757036   -0.131349
| 61> H         3.465842   -0.803738   -1.051551
| 62> H         0.780678    1.876481    0.997485
| 63> N        -2.052050   -0.006806   -0.116139
| 64> O        -1.877748   -0.251755   -1.481900
| 65> O        -1.889058    1.378074    0.099150
| 66> H        -2.783545    1.728921    0.007780
| 67> H        -0.995664    0.087055   -1.714599
| 68> P        -0.901194   -0.955149    0.812420
| 69> H        -1.119849   -0.221427    1.994305
| 70> *
| 71>
| 72>
| 73>
| 74>
| 75>                          ****END OF INPUT****
 Total Charge           Charge          ....    0
 Multiplicity           Mult            ....    1
 Number of Electrons    NEL             ....   76
MP2 TOTAL ENERGY:     -776.085664498 Eh
FINAL SINGLE POINT ENERGY      -776.085664498404
MP2 TOTAL ENERGY:     -776.501395703 Eh
FINAL SINGLE POINT ENERGY      -776.501395702595

CARTESIAN COORDINATES (ANGSTROEM)
---------------------------------
  O      1.567633   -1.013609   -0.281940
  C      2.672099   -0.292571   -0.535194
  C      0.683269   -0.197768    0.380779
  C      2.539158    0.969043   -0.065508
  C      1.248597    1.029442    0.526945
  H      3.269438    1.757036   -0.131349
  H      3.465842   -0.803738   -1.051551
  H      0.780678    1.876481    0.997485
  N     -2.052050   -0.006806   -0.116139
  O     -1.877748   -0.251755   -1.481900
  O     -1.889058    1.378074    0.099150
  H     -2.783545    1.728921    0.007780
  H     -0.995664    0.087055   -1.714599
  P     -0.901194   -0.955149    0.812420
  H     -1.119849   -0.221427    1.994305

 Multiplicity           Mult            ....    1
 Number of Electrons    NEL             ....   76
 Basis Dimension        Dim             .... 1000

ORBITAL ENERGIES
----------------

  NO   OCC          E(Eh)            E(eV)
   0   2.0000     -79.974757     -2176.2238
   1   2.0000     -20.632893      -561.4496
   2   2.0000     -20.605280      -560.6982
   3   2.0000     -20.601913      -560.6066
   4   2.0000     -15.668593      -426.3641
   5   2.0000     -11.302641      -307.5605
   6   2.0000     -11.288951      -307.1880
   7   2.0000     -11.246978      -306.0458
   8   2.0000     -11.237744      -305.7945
   9   2.0000      -7.514368      -204.4763
  10   2.0000      -5.408125      -147.1626
  11   2.0000      -5.407852      -147.1551
  12   2.0000      -5.406856      -147.1280
  13   2.0000      -1.477209       -40.1969
  14   2.0000      -1.473236       -40.0888
  15   2.0000      -1.354242       -36.8508
  16   2.0000      -1.100616       -29.9493
  17   2.0000      -1.055970       -28.7344
  18   2.0000      -1.014584       -27.6082
  19   2.0000      -0.854473       -23.2514
  20   2.0000      -0.821035       -22.3415
  21   2.0000      -0.775527       -21.1032
  22   2.0000      -0.753203       -20.4957
  23   2.0000      -0.726521       -19.7696
  24   2.0000      -0.665322       -18.1043
  25   2.0000      -0.654472       -17.8091
  26   2.0000      -0.641313       -17.4510
  27   2.0000      -0.634444       -17.2641
  28   2.0000      -0.598299       -16.2806
  29   2.0000      -0.579250       -15.7622
  30   2.0000      -0.563762       -15.3407
  31   2.0000      -0.538757       -14.6603
  32   2.0000      -0.507116       -13.7993
  33   2.0000      -0.494460       -13.4549
  34   2.0000      -0.419421       -11.4130
  35   2.0000      -0.410517       -11.1707
  36   2.0000      -0.383514       -10.4360
  37   2.0000      -0.335315        -9.1244
  38   0.0000       0.021138         0.5752
  39   0.0000       0.028223         0.7680
  40   0.0000       0.032880         0.8947
  41   0.0000       0.040651         1.1062
  42   0.0000       0.046422         1.2632

MULLIKEN ATOMIC CHARGES
-----------------------
   0 O :   -0.712203
   1 C :   -0.433695
   2 C :    0.364196
   3 C :   -0.367219
   4 C :   -0.556459
   5 H :    0.455115
   6 H :    0.559157
   7 H :    0.446866
   8 N :   -0.037011
   9 O :   -0.576824
  10 O :   -0.592293
  11 H :    0.349963
  12 H :    0.347623
  13 P :    0.840199
  14 H :   -0.087416
Sum of atomic charges:   -0.0000000

LOEWDIN ATOMIC CHARGES
----------------------
   0 O :    0.768673
   1 C :   -0.027950
   2 C :   -0.679683
   3 C :    0.302296
   4 C :    0.215102
   5 H :   -0.328454
   6 H :   -0.326793
   7 H :   -0.328844
   8 N :   -0.439001
   9 O :    0.984557
  10 O :    1.000898
  11 H :   -0.841919
  12 H :   -0.883452
  13 P :    1.039393
  14 H :   -0.454825

  Mayer bond orders larger than 0.100000
B(  0-O ,  1-C ) :   1.0777 B(  0-O ,  2-C ) :   0.4258 B(  0-O ,  4-C ) :   0.1479
B(  1-C ,  2-C ) :  -0.1112 B(  1-C ,  3-C ) :   1.6364 B(  1-C ,  6-H ) :   0.7472
B(  2-C ,  3-C ) :  -0.3126 B(  2-C ,  4-C ) :   1.0704 B(  2-C , 13-P ) :   0.7221
B(  3-C ,  4-C ) :   1.1718 B(  3-C ,  5-H ) :   0.8358 B(  4-C ,  7-H ) :   0.8275
B(  8-N ,  9-O ) :   0.6737 B(  8-N , 10-O ) :   0.7370 B(  8-N , 13-P ) :   0.5929
B(  9-O , 12-H ) :   0.8403 B( 10-O , 11-H ) :   0.8997 B( 13-P , 14-H ) :   0.9603

MP2 TOTAL ENERGY:     -776.637257289 Eh
FINAL SINGLE POINT ENERGY      -776.637257289193

DIPOLE MOMENT
-------------
                                X             Y             Z
Electronic contribution:     -2.58361      -4.23625       0.88757
Nuclear contribution   :      3.32737       5.17839      -0.67798
                        -----------------------------------------
Total Dipole Moment    :      0.74376       0.94215       0.20959
                        -----------------------------------------
Magnitude (a.u.)       :      1.21850
Magnitude (Debye)      :      3.09719

Rotational constants in cm-1:     0.090326     0.031648     0.029576
Rotational constants in MHz :  2707.908536   948.770613   886.656111

                             ****ORCA TERMINATED NORMALLY****
TOTAL RUN TIME: 0 days 0 hours 27 minutes 21 seconds 766 msec
