                         Program Version 5.0.4 -  RELEASE  -
|  1> ! ri-mp2 aug-cc-pvdz aug-cc-pvdz/c tightscf
|  2> %pal nprocs 16 end
|  3> %maxcore 3800
|  4> %base "DZ_Si-Cl_67_AB"
|  5>
|  6> *xyz 0 1
|  7> C        -2.535979   -0.000199    1.310611
|  8> C        -1.172674   -0.000185    1.108050
|  9> C        -3.368935   -0.000017    0.201558
| 10> N        -2.923350    0.000170   -1.046243
| 11> C        -1.608364    0.000183   -1.227797
| 12> C        -0.677546    0.000012   -0.193842
| 13> H        -2.955478   -0.000350    2.306946
| 14> H        -0.497298   -0.000326    1.954907
| 15> H        -1.278751    0.000339   -2.262040
| 16> Si         1.126893    0.000056   -0.576631
| 17> Cl         2.020126   -1.653847    0.232329
| 18> Cl         2.020117    1.653813    0.232635
| 19> H        -4.446203   -0.000024    0.325957
| 20> H         1.361537    0.000194   -2.025102
| 21> *
| 22>
| 23> $new_job
| 24> ! ri-mp2 aug-cc-pvtz aug-cc-pvtz/c tightscf
| 25> %pal nprocs 16 end
| 26> %maxcore 3800
| 27> %base "TZ_Si-Cl_67_AB"
| 28>
| 29> *xyz 0 1
| 30> C        -2.535979   -0.000199    1.310611
| 31> C        -1.172674   -0.000185    1.108050
| 32> C        -3.368935   -0.000017    0.201558
| 33> N        -2.923350    0.000170   -1.046243
| 34> C        -1.608364    0.000183   -1.227797
| 35> C        -0.677546    0.000012   -0.193842
| 36> H        -2.955478   -0.000350    2.306946
| 37> H        -0.497298   -0.000326    1.954907
| 38> H        -1.278751    0.000339   -2.262040
| 39> Si         1.126893    0.000056   -0.576631
| 40> Cl         2.020126   -1.653847    0.232329
| 41> Cl         2.020117    1.653813    0.232635
| 42> H        -4.446203   -0.000024    0.325957
| 43> H         1.361537    0.000194   -2.025102
| 44> *
| 45>
| 46> $new_job
| 47> ! ri-mp2 aug-cc-pvqz aug-cc-pvqz/c tightscf
| 48> %pal nprocs 16 end
| 49> %maxcore 3800
| 50> %base "QZ_Si-Cl_67_AB"
| 51>
| 52> *xyz 0 1
| 53> C        -2.535979   -0.000199    1.310611
| 54> C        -1.172674   -0.000185    1.108050
| 55> C        -3.368935   -0.000017    0.201558
| 56> N        -2.923350    0.000170   -1.046243
| 57> C        -1.608364    0.000183   -1.227797
| 58> C        -0.677546    0.000012   -0.193842
| 59> H        -2.955478   -0.000350    2.306946
| 60> H        -0.497298   -0.000326    1.954907
| 61> H        -1.278751    0.000339   -2.262040
| 62> Si         1.126893    0.000056   -0.576631
| 63> Cl         2.020126   -1.653847    0.232329
| 64> Cl         2.020117    1.653813    0.232635
| 65> H        -4.446203   -0.000024    0.325957
| 66> H         1.361537    0.000194   -2.025102
| 67> *
| 68>
| 69>
| 70>
| 71>
| 72>                          ****END OF INPUT****
 Total Charge           Charge          ....    0
 Multiplicity           Mult            ....    1
 Number of Electrons    NEL             ....   90
MP2 TOTAL ENERGY:    -1456.005134124 Eh
FINAL SINGLE POINT ENERGY     -1456.005134123615
MP2 TOTAL ENERGY:    -1456.377748272 Eh
FINAL SINGLE POINT ENERGY     -1456.377748272292

CARTESIAN COORDINATES (ANGSTROEM)
---------------------------------
  C     -2.535979   -0.000199    1.310611
  C     -1.172674   -0.000185    1.108050
  C     -3.368935   -0.000017    0.201558
  N     -2.923350    0.000170   -1.046243
  C     -1.608364    0.000183   -1.227797
  C     -0.677546    0.000012   -0.193842
  H     -2.955478   -0.000350    2.306946
  H     -0.497298   -0.000326    1.954907
  H     -1.278751    0.000339   -2.262040
  Si     1.126893    0.000056   -0.576631
  Cl     2.020126   -1.653847    0.232329
  Cl     2.020117    1.653813    0.232635
  H     -4.446203   -0.000024    0.325957
  H      1.361537    0.000194   -2.025102

 Multiplicity           Mult            ....    1
 Number of Electrons    NEL             ....   90
 Basis Dimension        Dim             ....  962

ORBITAL ENERGIES
----------------

  NO   OCC          E(Eh)            E(eV)
   0   2.0000    -104.838428     -2852.7987
   1   2.0000    -104.838428     -2852.7986
   2   2.0000     -68.859838     -1873.7714
   3   2.0000     -15.574621      -423.8070
   4   2.0000     -11.292920      -307.2960
   5   2.0000     -11.290590      -307.2326
   6   2.0000     -11.275854      -306.8316
   7   2.0000     -11.251518      -306.1694
   8   2.0000     -11.243544      -305.9524
   9   2.0000     -10.566080      -287.5177
  10   2.0000     -10.566074      -287.5175
  11   2.0000      -8.032851      -218.5850
  12   2.0000      -8.032850      -218.5850
  13   2.0000      -8.031719      -218.5542
  14   2.0000      -8.031718      -218.5542
  15   2.0000      -8.031699      -218.5536
  16   2.0000      -8.031698      -218.5536
  17   2.0000      -6.200977      -168.7372
  18   2.0000      -4.308267      -117.2339
  19   2.0000      -4.307630      -117.2166
  20   2.0000      -4.306763      -117.1930
  21   2.0000      -1.280077       -34.8327
  22   2.0000      -1.128862       -30.7179
  23   2.0000      -1.104302       -30.0496
  24   2.0000      -1.095696       -29.8154
  25   2.0000      -1.051411       -28.6103
  26   2.0000      -0.877178       -23.8692
  27   2.0000      -0.873995       -23.7826
  28   2.0000      -0.748715       -20.3736
  29   2.0000      -0.708327       -19.2746
  30   2.0000      -0.684330       -18.6216
  31   2.0000      -0.642572       -17.4853
  32   2.0000      -0.592971       -16.1356
  33   2.0000      -0.585304       -15.9269
  34   2.0000      -0.570335       -15.5196
  35   2.0000      -0.557593       -15.1729
  36   2.0000      -0.548533       -14.9263
  37   2.0000      -0.526488       -14.3265
  38   2.0000      -0.483776       -13.1642
  39   2.0000      -0.482082       -13.1181
  40   2.0000      -0.464098       -12.6287
  41   2.0000      -0.462253       -12.5785
  42   2.0000      -0.424185       -11.5427
  43   2.0000      -0.400219       -10.8905
  44   2.0000      -0.367089        -9.9890
  45   0.0000       0.020604         0.5607
  46   0.0000       0.028127         0.7654
  47   0.0000       0.031495         0.8570
  48   0.0000       0.039612         1.0779
  49   0.0000       0.042132         1.1465

MULLIKEN ATOMIC CHARGES
-----------------------
   0 C :   -0.180097
   1 C :   -0.365405
   2 C :   -0.354062
   3 N :   -0.633552
   4 C :   -0.245057
   5 C :   -0.196502
   6 H :    0.315496
   7 H :    0.325622
   8 H :    0.481223
   9 Si:    1.967850
  10 Cl:   -0.647689
  11 Cl:   -0.647683
  12 H :    0.529469
  13 H :   -0.349614
Sum of atomic charges:    0.0000000

LOEWDIN ATOMIC CHARGES
----------------------
   0 C :    0.342984
   1 C :    0.221562
   2 C :    0.079355
   3 N :    0.606058
   4 C :   -0.020249
   5 C :   -0.213428
   6 H :   -0.321823
   7 H :   -0.327321
   8 H :   -0.371461
   9 Si:   -1.182576
  10 Cl:    0.915469
  11 Cl:    0.915467
  12 H :   -0.343487
  13 H :   -0.300550

  Mayer bond orders larger than 0.100000
B(  0-C ,  1-C ) :   1.2794 B(  0-C ,  2-C ) :   1.1981 B(  0-C ,  4-C ) :   0.1250
B(  0-C ,  5-C ) :  -0.2913 B(  0-C ,  6-H ) :   1.0032 B(  1-C ,  5-C ) :   0.9137
B(  1-C ,  6-H ) :  -0.1222 B(  1-C ,  7-H ) :   0.9179 B(  2-C ,  3-N ) :   1.3435
B(  2-C , 12-H ) :   0.7805 B(  3-N ,  4-C ) :   1.1834 B(  3-N ,  8-H ) :  -0.1266
B(  4-C ,  5-C ) :   1.2125 B(  4-C ,  8-H ) :   0.7664 B(  5-C ,  7-H ) :  -0.1018
B(  5-C ,  9-Si) :   1.1397 B(  9-Si, 10-Cl) :   0.3515 B(  9-Si, 11-Cl) :   0.3515
B(  9-Si, 13-H ) :   0.8056

MP2 TOTAL ENERGY:    -1456.500550639 Eh
FINAL SINGLE POINT ENERGY     -1456.500550639269

DIPOLE MOMENT
-------------
                                X             Y             Z
Electronic contribution:     12.60062       0.00002       0.75589
Nuclear contribution   :    -12.98536      -0.00011      -0.31858
                        -----------------------------------------
Total Dipole Moment    :     -0.38474      -0.00009       0.43731
                        -----------------------------------------
Magnitude (a.u.)       :      0.58247
Magnitude (Debye)      :      1.48051

Rotational constants in cm-1:     0.057084     0.019964     0.017992
Rotational constants in MHz :  1711.320668   598.508007   539.381553

                             ****ORCA TERMINATED NORMALLY****
TOTAL RUN TIME: 0 days 0 hours 28 minutes 25 seconds 997 msec
