                         Program Version 5.0.4 -  RELEASE  -
|  1> ! ri-mp2 aug-cc-pvdz aug-cc-pvdz/c tightscf
|  2> %pal nprocs 16 end
|  3> %maxcore 3800
|  4> %base "DZ_Si-S_49_AB"
|  5> %scf
|  6> STABPerform true
|  7> STABRestartUHFifUnstable true
|  8> end
|  9>
| 10> *xyz 0 1
| 11> S         1.114732    0.205553   -0.000001
| 12> C         1.878096   -1.403527   -0.000002
| 13> O         1.482859    0.840426    1.250445
| 14> O         1.482858    0.840428   -1.250446
| 15> H         1.591662   -1.942816    0.899901
| 16> H         2.951442   -1.218060   -0.000003
| 17> H         1.591661   -1.942815   -0.899905
| 18> Si        -1.100082   -0.056588    0.000001
| 19> C        -1.685151    1.702210    0.000002
| 20> H        -1.321112    2.227858   -0.882555
| 21> H        -1.321113    2.227856    0.882560
| 22> C        -1.525894   -0.982936    1.554315
| 23> H        -2.608857   -1.029293    1.684501
| 24> H        -1.100747   -0.481344    2.423691
| 25> H        -1.152361   -2.007208    1.532173
| 26> C        -1.525896   -0.982935   -1.554314
| 27> H        -1.100752   -0.481342   -2.423691
| 28> H        -2.608859   -1.029293   -1.684497
| 29> H        -1.152362   -2.007207   -1.532174
| 30> H        -2.775843    1.743342    0.000001
| 31> *
| 32>
| 33> $new_job
| 34> ! ri-mp2 aug-cc-pvtz aug-cc-pvtz/c tightscf
| 35> %pal nprocs 16 end
| 36> %maxcore 3800
| 37> %base "TZ_Si-S_49_AB"
| 38>
| 39> *xyz 0 1
| 40> S         1.114732    0.205553   -0.000001
| 41> C         1.878096   -1.403527   -0.000002
| 42> O         1.482859    0.840426    1.250445
| 43> O         1.482858    0.840428   -1.250446
| 44> H         1.591662   -1.942816    0.899901
| 45> H         2.951442   -1.218060   -0.000003
| 46> H         1.591661   -1.942815   -0.899905
| 47> Si        -1.100082   -0.056588    0.000001
| 48> C        -1.685151    1.702210    0.000002
| 49> H        -1.321112    2.227858   -0.882555
| 50> H        -1.321113    2.227856    0.882560
| 51> C        -1.525894   -0.982936    1.554315
| 52> H        -2.608857   -1.029293    1.684501
| 53> H        -1.100747   -0.481344    2.423691
| 54> H        -1.152361   -2.007208    1.532173
| 55> C        -1.525896   -0.982935   -1.554314
| 56> H        -1.100752   -0.481342   -2.423691
| 57> H        -2.608859   -1.029293   -1.684497
| 58> H        -1.152362   -2.007207   -1.532174
| 59> H        -2.775843    1.743342    0.000001
| 60> *
| 61>
| 62> $new_job
| 63> ! ri-mp2 aug-cc-pvqz aug-cc-pvqz/c tightscf
| 64> %pal nprocs 16 end
| 65> %maxcore 3800
| 66> %base "QZ_Si-S_49_AB"
| 67>
| 68> *xyz 0 1
| 69> S         1.114732    0.205553   -0.000001
| 70> C         1.878096   -1.403527   -0.000002
| 71> O         1.482859    0.840426    1.250445
| 72> O         1.482858    0.840428   -1.250446
| 73> H         1.591662   -1.942816    0.899901
| 74> H         2.951442   -1.218060   -0.000003
| 75> H         1.591661   -1.942815   -0.899905
| 76> Si        -1.100082   -0.056588    0.000001
| 77> C        -1.685151    1.702210    0.000002
| 78> H        -1.321112    2.227858   -0.882555
| 79> H        -1.321113    2.227856    0.882560
| 80> C        -1.525894   -0.982936    1.554315
| 81> H        -2.608857   -1.029293    1.684501
| 82> H        -1.100747   -0.481344    2.423691
| 83> H        -1.152361   -2.007208    1.532173
| 84> C        -1.525896   -0.982935   -1.554314
| 85> H        -1.100752   -0.481342   -2.423691
| 86> H        -2.608859   -1.029293   -1.684497
| 87> H        -1.152362   -2.007207   -1.532174
| 88> H        -2.775843    1.743342    0.000001
| 89> *
| 90>
| 91>
| 92>
| 93>
| 94>                          ****END OF INPUT****
 Total Charge           Charge          ....    0
 Multiplicity           Mult            ....    1
 Number of Electrons    NEL             ....   82
MP2 TOTAL ENERGY:     -995.912069603 Eh
FINAL SINGLE POINT ENERGY      -995.912069602782
MP2 TOTAL ENERGY:     -996.326407023 Eh
FINAL SINGLE POINT ENERGY      -996.326407022704

CARTESIAN COORDINATES (ANGSTROEM)
---------------------------------
  S      1.114732    0.205553   -0.000001
  C      1.878096   -1.403527   -0.000002
  O      1.482859    0.840426    1.250445
  O      1.482858    0.840428   -1.250446
  H      1.591662   -1.942816    0.899901
  H      2.951442   -1.218060   -0.000003
  H      1.591661   -1.942815   -0.899905
  Si    -1.100082   -0.056588    0.000001
  C     -1.685151    1.702210    0.000002
  H     -1.321112    2.227858   -0.882555
  H     -1.321113    2.227856    0.882560
  C     -1.525894   -0.982936    1.554315
  H     -2.608857   -1.029293    1.684501
  H     -1.100747   -0.481344    2.423691
  H     -1.152361   -2.007208    1.532173
  C     -1.525896   -0.982935   -1.554314
  H     -1.100752   -0.481342   -2.423691
  H     -2.608859   -1.029293   -1.684497
  H     -1.152362   -2.007207   -1.532174
  H     -2.775843    1.743342    0.000001

 Multiplicity           Mult            ....    1
 Number of Electrons    NEL             ....   82
 Basis Dimension        Dim             .... 1200

ORBITAL ENERGIES
----------------

  NO   OCC          E(Eh)            E(eV)
   0   2.0000     -92.132288     -2507.0470
   1   2.0000     -68.792096     -1871.9281
   2   2.0000     -20.522292      -558.4400
   3   2.0000     -20.522273      -558.4394
   4   2.0000     -11.261122      -306.4307
   5   2.0000     -11.223347      -305.4028
   6   2.0000     -11.223338      -305.4026
   7   2.0000     -11.215132      -305.1792
   8   2.0000      -9.106882      -247.8109
   9   2.0000      -6.791733      -184.8124
  10   2.0000      -6.791062      -184.7942
  11   2.0000      -6.790887      -184.7894
  12   2.0000      -6.141804      -167.1270
  13   2.0000      -4.248753      -115.6144
  14   2.0000      -4.247419      -115.5782
  15   2.0000      -4.247364      -115.5766
  16   2.0000      -1.427423       -38.8422
  17   2.0000      -1.317436       -35.8493
  18   2.0000      -1.032258       -28.0892
  19   2.0000      -0.995964       -27.1016
  20   2.0000      -0.953873       -25.9562
  21   2.0000      -0.948451       -25.8087
  22   2.0000      -0.834880       -22.7183
  23   2.0000      -0.702054       -19.1039
  24   2.0000      -0.646750       -17.5990
  25   2.0000      -0.638946       -17.3866
  26   2.0000      -0.623996       -16.9798
  27   2.0000      -0.595114       -16.1939
  28   2.0000      -0.592587       -16.1251
  29   2.0000      -0.586908       -15.9706
  30   2.0000      -0.583880       -15.8882
  31   2.0000      -0.570573       -15.5261
  32   2.0000      -0.568300       -15.4642
  33   2.0000      -0.558061       -15.1856
  34   2.0000      -0.555113       -15.1054
  35   2.0000      -0.487225       -13.2581
  36   2.0000      -0.472743       -12.8640
  37   2.0000      -0.465761       -12.6740
  38   2.0000      -0.463133       -12.6025
  39   2.0000      -0.451701       -12.2914
  40   2.0000      -0.388199       -10.5634
  41   0.0000       0.014569         0.3964
  42   0.0000       0.026153         0.7117
  43   0.0000       0.031758         0.8642
  44   0.0000       0.034409         0.9363
  45   0.0000       0.043663         1.1881

MULLIKEN ATOMIC CHARGES
-----------------------
   0 S :    2.235750
   1 C :   -1.105073
   2 O :   -1.400676
   3 O :   -1.400677
   4 H :    0.346097
   5 H :    0.401675
   6 H :    0.346097
   7 Si:    1.844616
   8 C :   -1.281267
   9 H :    0.280127
  10 H :    0.280127
  11 C :   -1.300263
  12 H :    0.333485
  13 H :    0.277801
  14 H :    0.264755
  15 C :   -1.300263
  16 H :    0.277800
  17 H :    0.333485
  18 H :    0.264755
  19 H :    0.301650
Sum of atomic charges:   -0.0000000

LOEWDIN ATOMIC CHARGES
----------------------
   0 S :   -0.203365
   1 C :    0.774864
   2 O :    0.249288
   3 O :    0.249288
   4 H :   -0.336625
   5 H :   -0.335467
   6 H :   -0.336625
   7 Si:    0.061137
   8 C :    0.971412
   9 H :   -0.338708
  10 H :   -0.338708
  11 C :    0.975887
  12 H :   -0.333163
  13 H :   -0.341020
  14 H :   -0.343210
  15 C :    0.975887
  16 H :   -0.341020
  17 H :   -0.333163
  18 H :   -0.343210
  19 H :   -0.333480

  Mayer bond orders larger than 0.100000
B(  0-S ,  1-C ) :   0.8546 B(  0-S ,  2-O ) :   0.8678 B(  0-S ,  3-O ) :   0.8678
B(  0-S ,  7-Si) :   0.4324 B(  1-C ,  4-H ) :   0.8887 B(  1-C ,  5-H ) :   0.8013
B(  1-C ,  6-H ) :   0.8887 B(  7-Si,  8-C ) :   0.7518 B(  7-Si, 11-C ) :   0.7250
B(  7-Si, 15-C ) :   0.7250 B(  8-C ,  9-H ) :   0.9721 B(  8-C , 10-H ) :   0.9721
B(  8-C , 19-H ) :   0.9358 B( 11-C , 12-H ) :   0.9198 B( 11-C , 13-H ) :   0.9669
B( 11-C , 14-H ) :   0.9928 B( 15-C , 16-H ) :   0.9669 B( 15-C , 17-H ) :   0.9198
B( 15-C , 18-H ) :   0.9928

MP2 TOTAL ENERGY:     -996.456970858 Eh
FINAL SINGLE POINT ENERGY      -996.456970858041

DIPOLE MOMENT
-------------
                                X             Y             Z
Electronic contribution:      7.46679       4.32625      -0.00000
Nuclear contribution   :     -9.02882      -5.98348       0.00000
                        -----------------------------------------
Total Dipole Moment    :     -1.56203      -1.65723       0.00000
                        -----------------------------------------
Magnitude (a.u.)       :      2.27736
Magnitude (Debye)      :      5.78859

Rotational constants in cm-1:     0.062089     0.037123     0.036769
Rotational constants in MHz :  1861.375325  1112.919107  1102.293709

                             ****ORCA TERMINATED NORMALLY****
TOTAL RUN TIME: 0 days 3 hours 56 minutes 51 seconds 791 msec
