                         Program Version 5.0.4 -  RELEASE  -
|  1> ! ri-mp2 aug-cc-pvdz aug-cc-pvdz/c tightscf
|  2> %pal nprocs 16 end
|  3> %maxcore 3800
|  4> %base "DZ_B-F_60_A"
|  5> %scf
|  6> STABPerform true
|  7> STABRestartUHFifUnstable true
|  8> end
|  9>
| 10> *xyz 0 2
| 11> F         2.493993    0.213950    0.000089
| 12> B         1.223956   -0.041057   -0.000004
| 13> N         0.006244   -0.279860   -0.000009
| 14> N        -1.230266   -0.671326   -0.000104
| 15> C        -2.143757    0.451863   -0.000007
| 16> H        -1.986378    1.077283    0.884891
| 17> H        -3.162309    0.072095   -0.000077
| 18> H        -1.986327    1.077473   -0.884762
| 19> *
| 20>
| 21> $new_job
| 22> ! ri-mp2 aug-cc-pvtz aug-cc-pvtz/c tightscf
| 23> %pal nprocs 16 end
| 24> %maxcore 3800
| 25> %base "TZ_B-F_60_A"
| 26>
| 27> *xyz 0 2
| 28> F         2.493993    0.213950    0.000089
| 29> B         1.223956   -0.041057   -0.000004
| 30> N         0.006244   -0.279860   -0.000009
| 31> N        -1.230266   -0.671326   -0.000104
| 32> C        -2.143757    0.451863   -0.000007
| 33> H        -1.986378    1.077283    0.884891
| 34> H        -3.162309    0.072095   -0.000077
| 35> H        -1.986327    1.077473   -0.884762
| 36> *
| 37>
| 38> $new_job
| 39> ! ri-mp2 aug-cc-pvqz aug-cc-pvqz/c tightscf
| 40> %pal nprocs 16 end
| 41> %maxcore 3800
| 42> %base "QZ_B-F_60_A"
| 43>
| 44> *xyz 0 2
| 45> F         2.493993    0.213950    0.000089
| 46> B         1.223956   -0.041057   -0.000004
| 47> N         0.006244   -0.279860   -0.000009
| 48> N        -1.230266   -0.671326   -0.000104
| 49> C        -2.143757    0.451863   -0.000007
| 50> H        -1.986378    1.077283    0.884891
| 51> H        -3.162309    0.072095   -0.000077
| 52> H        -1.986327    1.077473   -0.884762
| 53> *
| 54>
| 55>
| 56>
| 57>
| 58>                          ****END OF INPUT****
 Total Charge           Charge          ....    0
 Multiplicity           Mult            ....    2
 Number of Electrons    NEL             ....   37
MP2 TOTAL ENERGY:     -273.381772843 Eh
FINAL SINGLE POINT ENERGY      -273.381772843044
MP2 TOTAL ENERGY:     -273.618101878 Eh
FINAL SINGLE POINT ENERGY      -273.618101877645

CARTESIAN COORDINATES (ANGSTROEM)
---------------------------------
  F      2.493993    0.213950    0.000089
  B      1.223956   -0.041057   -0.000004
  N      0.006244   -0.279860   -0.000009
  N     -1.230266   -0.671326   -0.000104
  C     -2.143757    0.451863   -0.000007
  H     -1.986378    1.077283    0.884891
  H     -3.162309    0.072095   -0.000077
  H     -1.986327    1.077473   -0.884762

 Multiplicity           Mult            ....    2
 Number of Electrons    NEL             ....   37
 Basis Dimension        Dim             ....  538

ORBITAL ENERGIES
----------------
                 SPIN UP ORBITALS
  NO   OCC          E(Eh)            E(eV)
   0   1.0000     -26.356903      -717.2078
   1   1.0000     -15.621227      -425.0752
   2   1.0000     -15.578944      -423.9246
   3   1.0000     -11.249245      -306.1075
   4   1.0000      -7.691180      -209.2876
   5   1.0000      -1.670439       -45.4549
   6   1.0000      -1.332679       -36.2640
   7   1.0000      -1.061973       -28.8978
   8   1.0000      -0.909256       -24.7421
   9   1.0000      -0.817009       -22.2319
  10   1.0000      -0.739441       -20.1212
  11   1.0000      -0.735344       -20.0097
  12   1.0000      -0.694180       -18.8896
  13   1.0000      -0.661756       -18.0073
  14   1.0000      -0.620994       -16.8981
  15   1.0000      -0.525770       -14.3069
  16   1.0000      -0.520432       -14.1617
  17   1.0000      -0.380475       -10.3533
  18   1.0000      -0.359034        -9.7698
  19   0.0000       0.024051         0.6545
  20   0.0000       0.033867         0.9216
  21   0.0000       0.035731         0.9723
  22   0.0000       0.036619         0.9965
  23   0.0000       0.051081         1.3900

                 SPIN DOWN ORBITALS
  NO   OCC          E(Eh)            E(eV)
   0   1.0000     -26.355876      -717.1798
   1   1.0000     -15.590218      -424.2314
   2   1.0000     -15.585280      -424.0970
   3   1.0000     -11.252131      -306.1860
   4   1.0000      -7.687153      -209.1781
   5   1.0000      -1.668052       -45.3900
   6   1.0000      -1.288985       -35.0751
   7   1.0000      -1.039979       -28.2993
   8   1.0000      -0.886712       -24.1286
   9   1.0000      -0.816082       -22.2067
  10   1.0000      -0.733079       -19.9481
  11   1.0000      -0.727000       -19.7827
  12   1.0000      -0.667970       -18.1764
  13   1.0000      -0.615493       -16.7484
  14   1.0000      -0.587007       -15.9733
  15   1.0000      -0.511531       -13.9195
  16   1.0000      -0.482796       -13.1376
  17   1.0000      -0.366248        -9.9661
  18   0.0000       0.024578         0.6688
  19   0.0000       0.034007         0.9254
  20   0.0000       0.035226         0.9586
  21   0.0000       0.036593         0.9957
  22   0.0000       0.051218         1.3937

MULLIKEN ATOMIC CHARGES AND SPIN POPULATIONS
--------------------------------------------
   0 F :   -0.846156    0.004025
   1 B :    0.729670    0.231717
   2 N :    0.397539   -0.207331
   3 N :   -0.442508    0.995038
   4 C :   -0.754500   -0.124805
   5 H :    0.254547    0.048395
   6 H :    0.406871    0.004566
   7 H :    0.254537    0.048396
Sum of atomic charges         :   -0.0000000

LOEWDIN ATOMIC CHARGES AND SPIN POPULATIONS
-------------------------------------------
   0 F :    0.794605    0.039122
   1 B :   -1.005638    0.113183
   2 N :    0.249598    0.147229
   3 N :    0.319993    0.548714
   4 C :    0.631736    0.114424
   5 H :   -0.324025    0.017932
   6 H :   -0.342244    0.001465
   7 H :   -0.324025    0.017932

  Mayer bond orders larger than 0.100000
B(  0-F ,  1-B ) :   0.5502 B(  0-F ,  2-N ) :  -0.2549 B(  1-B ,  2-N ) :   2.2848
B(  1-B ,  3-N ) :   0.1466 B(  2-N ,  3-N ) :   0.5125 B(  3-N ,  4-C ) :   1.0379
B(  4-C ,  5-H ) :   0.9249 B(  4-C ,  6-H ) :   0.8420 B(  4-C ,  7-H ) :   0.9249

MP2 TOTAL ENERGY:     -273.694272376 Eh
FINAL SINGLE POINT ENERGY      -273.694272376064

DIPOLE MOMENT
-------------
                                X             Y             Z
Electronic contribution:     10.14093      -1.33610       0.00005
Nuclear contribution   :    -10.10184       1.94860      -0.00003
                        -----------------------------------------
Total Dipole Moment    :      0.03908       0.61250       0.00001
                        -----------------------------------------
Magnitude (a.u.)       :      0.61374
Magnitude (Debye)      :      1.56001

Rotational constants in cm-1:     1.163531     0.073620     0.070148
Rotational constants in MHz : 34881.793687  2207.068309  2102.997498

                             ****ORCA TERMINATED NORMALLY****
TOTAL RUN TIME: 0 days 0 hours 28 minutes 16 seconds 278 msec
