                         Program Version 5.0.4 -  RELEASE  -
|  1> ! ri-mp2 aug-cc-pvdz aug-cc-pvdz/c tightscf
|  2> %pal nprocs 16 end
|  3> %maxcore 3800
|  4> %base "DZ_S-F_42_AB"
|  5> %scf
|  6> STABPerform true
|  7> STABRestartUHFifUnstable true
|  8> end
|  9>
| 10> *xyz 0 1
| 11> F        -1.706714    0.614721   -0.000016
| 12> S        -0.776860   -0.724816    0.000004
| 13> C         0.853106   -0.026470    0.000008
| 14> O         1.758179   -0.822159   -0.000010
| 15> N         0.945426    1.311801    0.000011
| 16> H         0.125987    1.892809    0.000023
| 17> H         1.862152    1.725239    0.000011
| 18> *
| 19>
| 20> $new_job
| 21> ! ri-mp2 aug-cc-pvtz aug-cc-pvtz/c tightscf
| 22> %pal nprocs 16 end
| 23> %maxcore 3800
| 24> %base "TZ_S-F_42_AB"
| 25>
| 26> *xyz 0 1
| 27> F        -1.706714    0.614721   -0.000016
| 28> S        -0.776860   -0.724816    0.000004
| 29> C         0.853106   -0.026470    0.000008
| 30> O         1.758179   -0.822159   -0.000010
| 31> N         0.945426    1.311801    0.000011
| 32> H         0.125987    1.892809    0.000023
| 33> H         1.862152    1.725239    0.000011
| 34> *
| 35>
| 36> $new_job
| 37> ! ri-mp2 aug-cc-pvqz aug-cc-pvqz/c tightscf
| 38> %pal nprocs 16 end
| 39> %maxcore 3800
| 40> %base "QZ_S-F_42_AB"
| 41>
| 42> *xyz 0 1
| 43> F        -1.706714    0.614721   -0.000016
| 44> S        -0.776860   -0.724816    0.000004
| 45> C         0.853106   -0.026470    0.000008
| 46> O         1.758179   -0.822159   -0.000010
| 47> N         0.945426    1.311801    0.000011
| 48> H         0.125987    1.892809    0.000023
| 49> H         1.862152    1.725239    0.000011
| 50> *
| 51>
| 52>
| 53>
| 54>
| 55>                          ****END OF INPUT****
 Total Charge           Charge          ....    0
 Multiplicity           Mult            ....    1
 Number of Electrons    NEL             ....   48
MP2 TOTAL ENERGY:     -666.185408418 Eh
FINAL SINGLE POINT ENERGY      -666.185408417711
MP2 TOTAL ENERGY:     -666.463764337 Eh
FINAL SINGLE POINT ENERGY      -666.463764336898

CARTESIAN COORDINATES (ANGSTROEM)
---------------------------------
  F     -1.706714    0.614721   -0.000016
  S     -0.776860   -0.724816    0.000004
  C      0.853106   -0.026470    0.000008
  O      1.758179   -0.822159   -0.000010
  N      0.945426    1.311801    0.000011
  H      0.125987    1.892809    0.000023
  H      1.862152    1.725239    0.000011

 Multiplicity           Mult            ....    1
 Number of Electrons    NEL             ....   48
 Basis Dimension        Dim             ....  496

ORBITAL ENERGIES
----------------

  NO   OCC          E(Eh)            E(eV)
   0   2.0000     -92.058858     -2505.0489
   1   2.0000     -26.334317      -716.5932
   2   2.0000     -20.551871      -559.2448
   3   2.0000     -15.614324      -424.8873
   4   2.0000     -11.404529      -310.3330
   5   2.0000      -9.053870      -246.3683
   6   2.0000      -6.735260      -183.2757
   7   2.0000      -6.733123      -183.2176
   8   2.0000      -6.731842      -183.1827
   9   2.0000      -1.632616       -44.4257
  10   2.0000      -1.424526       -38.7633
  11   2.0000      -1.252299       -34.0768
  12   2.0000      -1.024825       -27.8869
  13   2.0000      -0.834339       -22.7035
  14   2.0000      -0.782074       -21.2813
  15   2.0000      -0.726432       -19.7672
  16   2.0000      -0.716056       -19.4849
  17   2.0000      -0.695863       -18.9354
  18   2.0000      -0.650525       -17.7017
  19   2.0000      -0.617453       -16.8018
  20   2.0000      -0.567931       -15.4542
  21   2.0000      -0.451225       -12.2785
  22   2.0000      -0.448752       -12.2112
  23   2.0000      -0.403344       -10.9755
  24   0.0000       0.019601         0.5334
  25   0.0000       0.040151         1.0926
  26   0.0000       0.052603         1.4314
  27   0.0000       0.066071         1.7979
  28   0.0000       0.073172         1.9911

MULLIKEN ATOMIC CHARGES
-----------------------
   0 F :   -0.611670
   1 S :    0.715883
   2 C :    0.486611
   3 O :   -0.648076
   4 N :   -0.575779
   5 H :    0.370426
   6 H :    0.262606
Sum of atomic charges:   -0.0000000

LOEWDIN ATOMIC CHARGES
----------------------
   0 F :    0.099516
   1 S :    0.682995
   2 C :   -1.373516
   3 O :    0.547373
   4 N :    1.131490
   5 H :   -0.588978
   6 H :   -0.498879

  Mayer bond orders larger than 0.100000
B(  0-F ,  1-S ) :   0.5761 B(  1-S ,  2-C ) :   1.0454 B(  2-C ,  3-O ) :   1.5983
B(  2-C ,  4-N ) :   1.1702 B(  3-O ,  4-N ) :   0.1405 B(  4-N ,  5-H ) :   0.8845
B(  4-N ,  6-H ) :   0.9431

MP2 TOTAL ENERGY:     -666.557323322 Eh
FINAL SINGLE POINT ENERGY      -666.557323321920

DIPOLE MOMENT
-------------
                                X             Y             Z
Electronic contribution:     -3.78884      -1.71640      -0.00002
Nuclear contribution   :      3.53695       2.87064       0.00005
                        -----------------------------------------
Total Dipole Moment    :     -0.25189       1.15424       0.00003
                        -----------------------------------------
Magnitude (a.u.)       :      1.18141
Magnitude (Debye)      :      3.00289

Rotational constants in cm-1:     0.258483     0.113124     0.078687
Rotational constants in MHz :  7749.119597  3391.384835  2358.981754

                             ****ORCA TERMINATED NORMALLY****
TOTAL RUN TIME: 0 days 0 hours 10 minutes 53 seconds 286 msec
