                         Program Version 5.0.4 -  RELEASE  -
|  1> ! ri-mp2 aug-cc-pvdz aug-cc-pvdz/c tightscf
|  2> %pal nprocs 16 end
|  3> %maxcore 3800
|  4> %base "DZ_Si-Cl_58_A"
|  5> %scf
|  6> STABPerform true
|  7> STABRestartUHFifUnstable true
|  8> end
|  9>
| 10> *xyz 0 2
| 11> Si        -2.346377   -0.291994    0.347895
| 12> C        -0.568957   -0.752491   -0.193435
| 13> N         0.461336    0.111851   -0.044179
| 14> C         0.308838    1.424410    0.550052
| 15> O        -0.427551   -1.870933   -0.666578
| 16> C         1.791316   -0.303837   -0.468811
| 17> C         0.213841    2.545702   -0.470857
| 18> H         1.153282    1.593818    1.222052
| 19> H        -0.578983    1.418600    1.185348
| 20> H         1.095782    2.572204   -1.111073
| 21> H         0.132766    3.511288    0.029330
| 22> H        -0.661412    2.413868   -1.106572
| 23> C         2.543148   -1.046055    0.623174
| 24> H         2.338172    0.588151   -0.776623
| 25> H         1.675501   -0.943381   -1.341339
| 26> H         2.652777   -0.431571    1.518042
| 27> H         3.540866   -1.320683    0.279091
| 28> H         2.010461   -1.956996    0.891545
| 29> H        -3.236120   -1.391001   -0.071952
| 30> H        -2.811880    1.011750   -0.187251
| 31> *
| 32>
| 33> $new_job
| 34> ! ri-mp2 aug-cc-pvtz aug-cc-pvtz/c tightscf
| 35> %pal nprocs 16 end
| 36> %maxcore 3800
| 37> %base "TZ_Si-Cl_58_A"
| 38>
| 39> *xyz 0 2
| 40> Si        -2.346377   -0.291994    0.347895
| 41> C        -0.568957   -0.752491   -0.193435
| 42> N         0.461336    0.111851   -0.044179
| 43> C         0.308838    1.424410    0.550052
| 44> O        -0.427551   -1.870933   -0.666578
| 45> C         1.791316   -0.303837   -0.468811
| 46> C         0.213841    2.545702   -0.470857
| 47> H         1.153282    1.593818    1.222052
| 48> H        -0.578983    1.418600    1.185348
| 49> H         1.095782    2.572204   -1.111073
| 50> H         0.132766    3.511288    0.029330
| 51> H        -0.661412    2.413868   -1.106572
| 52> C         2.543148   -1.046055    0.623174
| 53> H         2.338172    0.588151   -0.776623
| 54> H         1.675501   -0.943381   -1.341339
| 55> H         2.652777   -0.431571    1.518042
| 56> H         3.540866   -1.320683    0.279091
| 57> H         2.010461   -1.956996    0.891545
| 58> H        -3.236120   -1.391001   -0.071952
| 59> H        -2.811880    1.011750   -0.187251
| 60> *
| 61>
| 62> $new_job
| 63> ! ri-mp2 aug-cc-pvqz aug-cc-pvqz/c tightscf
| 64> %pal nprocs 16 end
| 65> %maxcore 3800
| 66> %base "QZ_Si-Cl_58_A"
| 67>
| 68> *xyz 0 2
| 69> Si        -2.346377   -0.291994    0.347895
| 70> C        -0.568957   -0.752491   -0.193435
| 71> N         0.461336    0.111851   -0.044179
| 72> C         0.308838    1.424410    0.550052
| 73> O        -0.427551   -1.870933   -0.666578
| 74> C         1.791316   -0.303837   -0.468811
| 75> C         0.213841    2.545702   -0.470857
| 76> H         1.153282    1.593818    1.222052
| 77> H        -0.578983    1.418600    1.185348
| 78> H         1.095782    2.572204   -1.111073
| 79> H         0.132766    3.511288    0.029330
| 80> H        -0.661412    2.413868   -1.106572
| 81> C         2.543148   -1.046055    0.623174
| 82> H         2.338172    0.588151   -0.776623
| 83> H         1.675501   -0.943381   -1.341339
| 84> H         2.652777   -0.431571    1.518042
| 85> H         3.540866   -1.320683    0.279091
| 86> H         2.010461   -1.956996    0.891545
| 87> H        -3.236120   -1.391001   -0.071952
| 88> H        -2.811880    1.011750   -0.187251
| 89> *
| 90>
| 91>
| 92>
| 93>
| 94>                          ****END OF INPUT****
 Total Charge           Charge          ....    0
 Multiplicity           Mult            ....    2
 Number of Electrons    NEL             ....   71
MP2 TOTAL ENERGY:     -615.765184592 Eh
FINAL SINGLE POINT ENERGY      -615.765184592306
MP2 TOTAL ENERGY:     -616.092862203 Eh
FINAL SINGLE POINT ENERGY      -616.092862203351

CARTESIAN COORDINATES (ANGSTROEM)
---------------------------------
  Si    -2.346377   -0.291994    0.347895
  C     -0.568957   -0.752491   -0.193435
  N      0.461336    0.111851   -0.044179
  C      0.308838    1.424410    0.550052
  O     -0.427551   -1.870933   -0.666578
  C      1.791316   -0.303837   -0.468811
  C      0.213841    2.545702   -0.470857
  H      1.153282    1.593818    1.222052
  H     -0.578983    1.418600    1.185348
  H      1.095782    2.572204   -1.111073
  H      0.132766    3.511288    0.029330
  H     -0.661412    2.413868   -1.106572
  C      2.543148   -1.046055    0.623174
  H      2.338172    0.588151   -0.776623
  H      1.675501   -0.943381   -1.341339
  H      2.652777   -0.431571    1.518042
  H      3.540866   -1.320683    0.279091
  H      2.010461   -1.956996    0.891545
  H     -3.236120   -1.391001   -0.071952
  H     -2.811880    1.011750   -0.187251

 Multiplicity           Mult            ....    2
 Number of Electrons    NEL             ....   71
 Basis Dimension        Dim             .... 1196

ORBITAL ENERGIES
----------------
                 SPIN UP ORBITALS
  NO   OCC          E(Eh)            E(eV)
   0   1.0000     -68.789052     -1871.8453
   1   1.0000     -20.517366      -558.3059
   2   1.0000     -15.582893      -424.0321
   3   1.0000     -11.330668      -308.3231
   4   1.0000     -11.277838      -306.8856
   5   1.0000     -11.258930      -306.3711
   6   1.0000     -11.228439      -305.5413
   7   1.0000     -11.214667      -305.1666
   8   1.0000      -6.139900      -167.0752
   9   1.0000      -4.252862      -115.7263
  10   1.0000      -4.242712      -115.4501
  11   1.0000      -4.242431      -115.4424
  12   1.0000      -1.380163       -37.5561
  13   1.0000      -1.254180       -34.1280
  14   1.0000      -1.049076       -28.5468
  15   1.0000      -1.010390       -27.4941
  16   1.0000      -0.882577       -24.0161
  17   1.0000      -0.879331       -23.9278
  18   1.0000      -0.777936       -21.1687
  19   1.0000      -0.720892       -19.6165
  20   1.0000      -0.673289       -18.3211
  21   1.0000      -0.657586       -17.8938
  22   1.0000      -0.621130       -16.9018
  23   1.0000      -0.611131       -16.6297
  24   1.0000      -0.592349       -16.1186
  25   1.0000      -0.564585       -15.3631
  26   1.0000      -0.553609       -15.0645
  27   1.0000      -0.537612       -14.6292
  28   1.0000      -0.525465       -14.2986
  29   1.0000      -0.519356       -14.1324
  30   1.0000      -0.507664       -13.8142
  31   1.0000      -0.498183       -13.5562
  32   1.0000      -0.488138       -13.2829
  33   1.0000      -0.406605       -11.0643
  34   1.0000      -0.375926       -10.2295
  35   1.0000      -0.332686        -9.0528
  36   0.0000       0.020631         0.5614
  37   0.0000       0.028188         0.7670
  38   0.0000       0.030275         0.8238
  39   0.0000       0.032175         0.8755
  40   0.0000       0.043003         1.1702

                 SPIN DOWN ORBITALS
  NO   OCC          E(Eh)            E(eV)
   0   1.0000     -68.783332     -1871.6896
   1   1.0000     -20.514456      -558.2267
   2   1.0000     -15.583050      -424.0363
   3   1.0000     -11.330855      -308.3282
   4   1.0000     -11.277557      -306.8779
   5   1.0000     -11.258905      -306.3704
   6   1.0000     -11.228478      -305.5424
   7   1.0000     -11.214635      -305.1657
   8   1.0000      -6.131236      -166.8394
   9   1.0000      -4.238819      -115.3441
  10   1.0000      -4.238621      -115.3387
  11   1.0000      -4.230045      -115.1054
  12   1.0000      -1.375017       -37.4161
  13   1.0000      -1.252931       -34.0940
  14   1.0000      -1.048697       -28.5365
  15   1.0000      -1.009940       -27.4819
  16   1.0000      -0.881735       -23.9932
  17   1.0000      -0.877356       -23.8741
  18   1.0000      -0.759367       -20.6634
  19   1.0000      -0.712997       -19.4016
  20   1.0000      -0.672077       -18.2881
  21   1.0000      -0.643144       -17.5008
  22   1.0000      -0.619035       -16.8448
  23   1.0000      -0.609114       -16.5748
  24   1.0000      -0.591812       -16.1040
  25   1.0000      -0.559452       -15.2235
  26   1.0000      -0.551187       -14.9986
  27   1.0000      -0.534444       -14.5430
  28   1.0000      -0.518808       -14.1175
  29   1.0000      -0.518312       -14.1040
  30   1.0000      -0.505802       -13.7636
  31   1.0000      -0.495375       -13.4798
  32   1.0000      -0.482919       -13.1409
  33   1.0000      -0.393501       -10.7077
  34   1.0000      -0.368337       -10.0230
  35   0.0000       0.017723         0.4823
  36   0.0000       0.023205         0.6314
  37   0.0000       0.029073         0.7911
  38   0.0000       0.032284         0.8785
  39   0.0000       0.036306         0.9879

MULLIKEN ATOMIC CHARGES AND SPIN POPULATIONS
--------------------------------------------
   0 Si:    0.699382    0.961283
   1 C :    0.984312   -0.012242
   2 N :   -0.288063   -0.017538
   3 C :   -0.507487    0.003319
   4 O :   -0.920105    0.057381
   5 C :   -0.542954    0.001761
   6 C :   -0.951847   -0.004118
   7 H :    0.284383    0.002501
   8 H :    0.358518   -0.005369
   9 H :    0.272199    0.000514
  10 H :    0.325505   -0.000208
  11 H :    0.235164    0.001410
  12 C :   -0.943253    0.001846
  13 H :    0.305862   -0.000868
  14 H :    0.380428    0.000327
  15 H :    0.226280   -0.000067
  16 H :    0.342544    0.000575
  17 H :    0.245523    0.000406
  18 H :   -0.308771    0.007301
  19 H :   -0.197621    0.001786
Sum of atomic charges         :   -0.0000000

LOEWDIN ATOMIC CHARGES AND SPIN POPULATIONS
-------------------------------------------
   0 Si:    1.072156    0.507729
   1 C :   -0.940281    0.129547
   2 N :    0.343625    0.007080
   3 C :    0.297228    0.019304
   4 O :    0.622447    0.048306
   5 C :    0.331805    0.000198
   6 C :    0.939438    0.002143
   7 H :   -0.275520    0.001138
   8 H :   -0.373041    0.035305
   9 H :   -0.285021    0.000226
  10 H :   -0.272556    0.000077
  11 H :   -0.291538    0.001590
  12 C :    0.941780    0.000490
  13 H :   -0.292635   -0.000290
  14 H :   -0.317458   -0.000048
  15 H :   -0.284075    0.000121
  16 H :   -0.276925    0.000206
  17 H :   -0.286706    0.000138
  18 H :   -0.338723    0.123224
  19 H :   -0.313999    0.123514

  Mayer bond orders larger than 0.100000
B(  0-Si,  1-C ) :   0.7674 B(  0-Si, 18-H ) :   0.8806 B(  0-Si, 19-H ) :   0.8534
B(  1-C ,  2-N ) :   1.5193 B(  1-C ,  4-O ) :   1.0879 B(  2-N ,  3-C ) :   0.5461
B(  2-N ,  4-O ) :   0.2860 B(  2-N ,  5-C ) :   0.6930 B(  2-N ,  6-C ) :  -0.1030
B(  2-N , 12-C ) :  -0.1085 B(  3-C ,  6-C ) :   1.0064 B(  3-C ,  7-H ) :   0.9010
B(  3-C ,  8-H ) :   0.8154 B(  5-C , 12-C ) :   1.0722 B(  5-C , 13-H ) :   0.8640
B(  5-C , 14-H ) :   0.8357 B(  6-C ,  9-H ) :   0.9437 B(  6-C , 10-H ) :   0.9329
B(  6-C , 11-H ) :   0.9657 B( 12-C , 15-H ) :   0.9551 B( 12-C , 16-H ) :   0.9234
B( 12-C , 17-H ) :   0.9613

MP2 TOTAL ENERGY:     -616.195972248 Eh
FINAL SINGLE POINT ENERGY      -616.195972247999

DIPOLE MOMENT
-------------
                                X             Y             Z
Electronic contribution:     -7.20685      -5.77284      -0.04273
Nuclear contribution   :      7.62695       7.22287       0.51058
                        -----------------------------------------
Total Dipole Moment    :      0.42010       1.45003       0.46786
                        -----------------------------------------
Magnitude (a.u.)       :      1.58049
Magnitude (Debye)      :      4.01729

Rotational constants in cm-1:     0.065742     0.045348     0.030259
Rotational constants in MHz :  1970.893570  1359.499604   907.135335

                             ****ORCA TERMINATED NORMALLY****
TOTAL RUN TIME: 0 days 9 hours 55 minutes 17 seconds 268 msec
