                         Program Version 5.0.4 -  RELEASE  -
|  1> ! ri-mp2 aug-cc-pvdz aug-cc-pvdz/c tightscf
|  2> %pal nprocs 16 end
|  3> %maxcore 3800
|  4> %base "DZ_B-F_2_A"
|  5> %scf
|  6> STABPerform true
|  7> STABRestartUHFifUnstable true
|  8> end
|  9>
| 10> *xyz 0 2
| 11> F        -2.189423    0.163882    0.000055
| 12> S         0.426899   -0.596697   -0.000061
| 13> B        -0.936430    0.541768    0.000061
| 14> C         1.852729    0.527546    0.000016
| 15> H         2.741250   -0.098850   -0.000315
| 16> H         1.849624    1.148220    0.890438
| 17> H         1.849320    1.148731   -0.890048
| 18> *
| 19>
| 20> $new_job
| 21> ! ri-mp2 aug-cc-pvtz aug-cc-pvtz/c tightscf
| 22> %pal nprocs 16 end
| 23> %maxcore 3800
| 24> %base "TZ_B-F_2_A"
| 25>
| 26> *xyz 0 2
| 27> F        -2.189423    0.163882    0.000055
| 28> S         0.426899   -0.596697   -0.000061
| 29> B        -0.936430    0.541768    0.000061
| 30> C         1.852729    0.527546    0.000016
| 31> H         2.741250   -0.098850   -0.000315
| 32> H         1.849624    1.148220    0.890438
| 33> H         1.849320    1.148731   -0.890048
| 34> *
| 35>
| 36> $new_job
| 37> ! ri-mp2 aug-cc-pvqz aug-cc-pvqz/c tightscf
| 38> %pal nprocs 16 end
| 39> %maxcore 3800
| 40> %base "QZ_B-F_2_A"
| 41>
| 42> *xyz 0 2
| 43> F        -2.189423    0.163882    0.000055
| 44> S         0.426899   -0.596697   -0.000061
| 45> B        -0.936430    0.541768    0.000061
| 46> C         1.852729    0.527546    0.000016
| 47> H         2.741250   -0.098850   -0.000315
| 48> H         1.849624    1.148220    0.890438
| 49> H         1.849320    1.148731   -0.890048
| 50> *
| 51>
| 52>
| 53>
| 54>
| 55>                          ****END OF INPUT****
 Total Charge           Charge          ....    0
 Multiplicity           Mult            ....    2
 Number of Electrons    NEL             ....   39
MP2 TOTAL ENERGY:     -561.861702765 Eh
FINAL SINGLE POINT ENERGY      -561.861702765011
MP2 TOTAL ENERGY:     -562.059472389 Eh
FINAL SINGLE POINT ENERGY      -562.059472389115

CARTESIAN COORDINATES (ANGSTROEM)
---------------------------------
  F     -2.189423    0.163882    0.000055
  S      0.426899   -0.596697   -0.000061
  B     -0.936430    0.541768    0.000061
  C      1.852729    0.527546    0.000016
  H      2.741250   -0.098850   -0.000315
  H      1.849624    1.148220    0.890438
  H      1.849320    1.148731   -0.890048

 Multiplicity           Mult            ....    2
 Number of Electrons    NEL             ....   39
 Basis Dimension        Dim             ....  462

ORBITAL ENERGIES
----------------
                 SPIN UP ORBITALS
  NO   OCC          E(Eh)            E(eV)
   0   1.0000     -91.962532     -2502.4277
   1   1.0000     -26.318788      -716.1706
   2   1.0000     -11.268521      -306.6321
   3   1.0000      -8.967041      -244.0056
   4   1.0000      -7.700424      -209.5392
   5   1.0000      -6.650252      -180.9626
   6   1.0000      -6.647492      -180.8874
   7   1.0000      -6.646502      -180.8605
   8   1.0000      -1.637191       -44.5502
   9   1.0000      -1.059470       -28.8296
  10   1.0000      -0.896564       -24.3967
  11   1.0000      -0.791645       -21.5417
  12   1.0000      -0.714418       -19.4403
  13   1.0000      -0.692285       -18.8380
  14   1.0000      -0.628755       -17.1093
  15   1.0000      -0.605837       -16.4857
  16   1.0000      -0.544560       -14.8182
  17   1.0000      -0.494176       -13.4472
  18   1.0000      -0.386056       -10.5051
  19   1.0000      -0.346969        -9.4415
  20   0.0000       0.024748         0.6734
  21   0.0000       0.034308         0.9336
  22   0.0000       0.037764         1.0276
  23   0.0000       0.039623         1.0782
  24   0.0000       0.052235         1.4214

                 SPIN DOWN ORBITALS
  NO   OCC          E(Eh)            E(eV)
   0   1.0000     -91.961733     -2502.4060
   1   1.0000     -26.315378      -716.0778
   2   1.0000     -11.267912      -306.6155
   3   1.0000      -8.966135      -243.9809
   4   1.0000      -7.680596      -208.9997
   5   1.0000      -6.647693      -180.8929
   6   1.0000      -6.647126      -180.8775
   7   1.0000      -6.645003      -180.8197
   8   1.0000      -1.627794       -44.2945
   9   1.0000      -1.053265       -28.6608
  10   1.0000      -0.888162       -24.1681
  11   1.0000      -0.779750       -21.2181
  12   1.0000      -0.690582       -18.7917
  13   1.0000      -0.685744       -18.6600
  14   1.0000      -0.616185       -16.7672
  15   1.0000      -0.605822       -16.4852
  16   1.0000      -0.529420       -14.4062
  17   1.0000      -0.465364       -12.6632
  18   1.0000      -0.387696       -10.5497
  19   0.0000       0.020111         0.5472
  20   0.0000       0.033863         0.9215
  21   0.0000       0.038945         1.0598
  22   0.0000       0.039328         1.0702
  23   0.0000       0.051303         1.3960

MULLIKEN ATOMIC CHARGES AND SPIN POPULATIONS
--------------------------------------------
   0 F :   -0.696596   -0.002591
   1 S :    0.012195    0.045037
   2 B :    0.606192    0.982213
   3 C :   -0.823502   -0.008565
   4 H :    0.359959   -0.004779
   5 H :    0.270874   -0.005658
   6 H :    0.270878   -0.005658
Sum of atomic charges         :    0.0000000

LOEWDIN ATOMIC CHARGES AND SPIN POPULATIONS
-------------------------------------------
   0 F :    0.632437    0.151937
   1 S :    1.273385    0.184269
   2 B :   -1.239736    0.581254
   3 C :    0.488326    0.046760
   4 H :   -0.392701    0.006391
   5 H :   -0.380850    0.014688
   6 H :   -0.380862    0.014701

  Mayer bond orders larger than 0.100000
B(  0-F ,  2-B ) :   0.4034 B(  1-S ,  2-B ) :   1.3954 B(  1-S ,  3-C ) :   0.9442
B(  3-C ,  4-H ) :   0.8564 B(  3-C ,  5-H ) :   0.9157 B(  3-C ,  6-H ) :   0.9157

MP2 TOTAL ENERGY:     -562.121962471 Eh
FINAL SINGLE POINT ENERGY      -562.121962471473

DIPOLE MOMENT
-------------
                                X             Y             Z
Electronic contribution:     -8.05390      -1.18850       0.00004
Nuclear contribution   :      8.89938       1.54114      -0.00003
                        -----------------------------------------
Total Dipole Moment    :      0.84547       0.35264       0.00002
                        -----------------------------------------
Magnitude (a.u.)       :      0.91607
Magnitude (Debye)      :      2.32846

Rotational constants in cm-1:     0.749181     0.103587     0.092602
Rotational constants in MHz : 22459.885651  3105.470523  2776.133198

                             ****ORCA TERMINATED NORMALLY****
TOTAL RUN TIME: 0 days 0 hours 21 minutes 16 seconds 250 msec
