                         Program Version 5.0.4 -  RELEASE  -
|  1> ! ri-mp2 aug-cc-pvdz aug-cc-pvdz/c tightscf
|  2> %pal nprocs 16 end
|  3> %maxcore 3800
|  4> %base "DZ_P-C_64_AB"
|  5>
|  6> *xyz 0 1
|  7> C         2.362059    0.000003   -0.018612
|  8> C         1.670220    1.196481   -0.006026
|  9> C         0.290569    1.178898    0.013783
| 10> C         1.670222   -1.196478   -0.006024
| 11> C         0.290572   -1.178899    0.013782
| 12> C        -0.435114   -0.000001    0.008025
| 13> F         3.683716    0.000003   -0.035251
| 14> F         2.332886    2.344518   -0.006855
| 15> F        -0.338785    2.356126    0.050963
| 16> F         2.332893   -2.344513   -0.006852
| 17> F        -0.338781   -2.356129    0.050965
| 18> P        -2.248215   -0.000001    0.102269
| 19> O        -2.704558    0.000012    1.484722
| 20> O        -2.707235   -1.191604   -0.823474
| 21> H        -2.731490   -2.042738   -0.371195
| 22> O        -2.707239    1.191588   -0.823491
| 23> H        -2.731557    2.042713   -0.371198
| 24> *
| 25>
| 26> $new_job
| 27> ! ri-mp2 aug-cc-pvtz aug-cc-pvtz/c tightscf
| 28> %pal nprocs 16 end
| 29> %maxcore 3800
| 30> %base "TZ_P-C_64_AB"
| 31>
| 32> *xyz 0 1
| 33> C         2.362059    0.000003   -0.018612
| 34> C         1.670220    1.196481   -0.006026
| 35> C         0.290569    1.178898    0.013783
| 36> C         1.670222   -1.196478   -0.006024
| 37> C         0.290572   -1.178899    0.013782
| 38> C        -0.435114   -0.000001    0.008025
| 39> F         3.683716    0.000003   -0.035251
| 40> F         2.332886    2.344518   -0.006855
| 41> F        -0.338785    2.356126    0.050963
| 42> F         2.332893   -2.344513   -0.006852
| 43> F        -0.338781   -2.356129    0.050965
| 44> P        -2.248215   -0.000001    0.102269
| 45> O        -2.704558    0.000012    1.484722
| 46> O        -2.707235   -1.191604   -0.823474
| 47> H        -2.731490   -2.042738   -0.371195
| 48> O        -2.707239    1.191588   -0.823491
| 49> H        -2.731557    2.042713   -0.371198
| 50> *
| 51>
| 52> $new_job
| 53> ! ri-mp2 aug-cc-pvqz aug-cc-pvqz/c tightscf
| 54> %pal nprocs 16 end
| 55> %maxcore 3800
| 56> %base "QZ_P-C_64_AB"
| 57>
| 58> *xyz 0 1
| 59> C         2.362059    0.000003   -0.018612
| 60> C         1.670220    1.196481   -0.006026
| 61> C         0.290569    1.178898    0.013783
| 62> C         1.670222   -1.196478   -0.006024
| 63> C         0.290572   -1.178899    0.013782
| 64> C        -0.435114   -0.000001    0.008025
| 65> F         3.683716    0.000003   -0.035251
| 66> F         2.332886    2.344518   -0.006855
| 67> F        -0.338785    2.356126    0.050963
| 68> F         2.332893   -2.344513   -0.006852
| 69> F        -0.338781   -2.356129    0.050965
| 70> P        -2.248215   -0.000001    0.102269
| 71> O        -2.704558    0.000012    1.484722
| 72> O        -2.707235   -1.191604   -0.823474
| 73> H        -2.731490   -2.042738   -0.371195
| 74> O        -2.707239    1.191588   -0.823491
| 75> H        -2.731557    2.042713   -0.371198
| 76> *
| 77>
| 78>
| 79>
| 80>
| 81>                          ****END OF INPUT****
 Total Charge           Charge          ....    0
 Multiplicity           Mult            ....    1
 Number of Electrons    NEL             ....  122
MP2 TOTAL ENERGY:    -1293.530131288 Eh
FINAL SINGLE POINT ENERGY     -1293.530131287824
MP2 TOTAL ENERGY:    -1294.396876530 Eh
FINAL SINGLE POINT ENERGY     -1294.396876529616

CARTESIAN COORDINATES (ANGSTROEM)
---------------------------------
  C      2.362059    0.000003   -0.018612
  C      1.670220    1.196481   -0.006026
  C      0.290569    1.178898    0.013783
  C      1.670222   -1.196478   -0.006024
  C      0.290572   -1.178899    0.013782
  C     -0.435114   -0.000001    0.008025
  F      3.683716    0.000003   -0.035251
  F      2.332886    2.344518   -0.006855
  F     -0.338785    2.356126    0.050963
  F      2.332893   -2.344513   -0.006852
  F     -0.338781   -2.356129    0.050965
  P     -2.248215   -0.000001    0.102269
  O     -2.704558    0.000012    1.484722
  O     -2.707235   -1.191604   -0.823474
  H     -2.731490   -2.042738   -0.371195
  O     -2.707239    1.191588   -0.823491
  H     -2.731557    2.042713   -0.371198

 Multiplicity           Mult            ....    1
 Number of Electrons    NEL             ....  122
 Basis Dimension        Dim             .... 1296

ORBITAL ENERGIES
----------------

  NO   OCC          E(Eh)            E(eV)
   0   2.0000     -80.100407     -2179.6429
   1   2.0000     -26.365964      -717.4543
   2   2.0000     -26.364491      -717.4143
   3   2.0000     -26.364490      -717.4143
   4   2.0000     -26.358870      -717.2613
   5   2.0000     -26.358870      -717.2613
   6   2.0000     -20.619591      -561.0876
   7   2.0000     -20.619578      -561.0872
   8   2.0000     -20.525887      -558.5378
   9   2.0000     -11.394791      -310.0680
  10   2.0000     -11.393182      -310.0242
  11   2.0000     -11.393181      -310.0242
  12   2.0000     -11.381980      -309.7194
  13   2.0000     -11.381907      -309.7174
  14   2.0000     -11.300041      -307.4898
  15   2.0000      -7.621691      -207.3968
  16   2.0000      -5.520461      -150.2194
  17   2.0000      -5.519650      -150.1973
  18   2.0000      -5.518618      -150.1692
  19   2.0000      -1.699672       -46.2504
  20   2.0000      -1.693054       -46.0703
  21   2.0000      -1.689035       -45.9610
  22   2.0000      -1.677210       -45.6392
  23   2.0000      -1.673080       -45.5268
  24   2.0000      -1.464797       -39.8591
  25   2.0000      -1.408221       -38.3196
  26   2.0000      -1.322652       -35.9912
  27   2.0000      -1.237942       -33.6861
  28   2.0000      -1.102226       -29.9931
  29   2.0000      -1.089211       -29.6389
  30   2.0000      -0.955761       -26.0076
  31   2.0000      -0.936642       -25.4873
  32   2.0000      -0.886478       -24.1223
  33   2.0000      -0.855188       -23.2709
  34   2.0000      -0.842123       -22.9153
  35   2.0000      -0.823783       -22.4163
  36   2.0000      -0.783863       -21.3300
  37   2.0000      -0.780882       -21.2489
  38   2.0000      -0.779285       -21.2054
  39   2.0000      -0.767091       -20.8736
  40   2.0000      -0.759071       -20.6554
  41   2.0000      -0.750621       -20.4254
  42   2.0000      -0.740009       -20.1367
  43   2.0000      -0.738510       -20.0959
  44   2.0000      -0.733347       -19.9554
  45   2.0000      -0.728068       -19.8117
  46   2.0000      -0.713524       -19.4160
  47   2.0000      -0.706230       -19.2175
  48   2.0000      -0.681691       -18.5497
  49   2.0000      -0.654193       -17.8015
  50   2.0000      -0.651445       -17.7267
  51   2.0000      -0.649424       -17.6717
  52   2.0000      -0.614722       -16.7274
  53   2.0000      -0.594904       -16.1882
  54   2.0000      -0.576724       -15.6935
  55   2.0000      -0.556779       -15.1507
  56   2.0000      -0.539440       -14.6789
  57   2.0000      -0.488364       -13.2891
  58   2.0000      -0.486586       -13.2407
  59   2.0000      -0.400348       -10.8940
  60   2.0000      -0.390335       -10.6216
  61   0.0000       0.023738         0.6459
  62   0.0000       0.032232         0.8771
  63   0.0000       0.035857         0.9757
  64   0.0000       0.049111         1.3364
  65   0.0000       0.052472         1.4278

MULLIKEN ATOMIC CHARGES
-----------------------
   0 C :    0.878320
   1 C :    0.964731
   2 C :    0.743374
   3 C :    0.964720
   4 C :    0.743353
   5 C :   -1.045930
   6 F :   -0.746256
   7 F :   -0.765655
   8 F :   -0.771708
   9 F :   -0.765655
  10 F :   -0.771705
  11 P :    2.911856
  12 O :   -1.183097
  13 O :   -0.983071
  14 H :    0.404894
  15 O :   -0.983067
  16 H :    0.404895
Sum of atomic charges:    0.0000000

LOEWDIN ATOMIC CHARGES
----------------------
   0 C :   -0.797412
   1 C :   -0.791497
   2 C :   -0.808560
   3 C :   -0.791496
   4 C :   -0.808557
   5 C :   -0.223826
   6 F :    0.820249
   7 F :    0.807982
   8 F :    0.825888
   9 F :    0.807981
  10 F :    0.825889
  11 P :   -0.666161
  12 O :    0.318617
  13 O :    1.111188
  14 H :   -0.870739
  15 O :    1.111188
  16 H :   -0.870734

  Mayer bond orders larger than 0.100000
B(  0-C ,  1-C ) :   1.5470 B(  0-C ,  3-C ) :   1.5470 B(  1-C ,  2-C ) :   1.5468
B(  1-C ,  4-C ) :   0.1245 B(  1-C ,  5-C ) :  -0.2215 B(  2-C ,  3-C ) :   0.1245
B(  2-C ,  5-C ) :   1.1036 B(  2-C ,  7-F ) :   0.1261 B(  2-C ,  8-F ) :   0.1047
B(  3-C ,  4-C ) :   1.5468 B(  3-C ,  5-C ) :  -0.2215 B(  4-C ,  5-C ) :   1.1036
B(  4-C ,  9-F ) :   0.1261 B(  4-C , 10-F ) :   0.1047 B(  5-C ,  8-F ) :   0.1427
B(  5-C , 10-F ) :   0.1427 B(  5-C , 11-P ) :   0.7612 B(  5-C , 12-O ) :   0.1018
B( 11-P , 12-O ) :   1.1959 B( 11-P , 13-O ) :   0.4945 B( 11-P , 15-O ) :   0.4945
B( 13-O , 14-H ) :   0.8611 B( 15-O , 16-H ) :   0.8611

MP2 TOTAL ENERGY:    -1294.683598990 Eh
FINAL SINGLE POINT ENERGY     -1294.683598989842

DIPOLE MOMENT
-------------
                                X             Y             Z
Electronic contribution:     10.43072       0.00002       0.25777
Nuclear contribution   :    -10.18562      -0.00003      -0.82643
                        -----------------------------------------
Total Dipole Moment    :      0.24510      -0.00001      -0.56865
                        -----------------------------------------
Magnitude (a.u.)       :      0.61923
Magnitude (Debye)      :      1.57395

Rotational constants in cm-1:     0.028138     0.014194     0.010086
Rotational constants in MHz :   843.566827   425.534390   302.378902

                             ****ORCA TERMINATED NORMALLY****
TOTAL RUN TIME: 0 days 1 hours 5 minutes 59 seconds 992 msec
