                         Program Version 5.0.4 -  RELEASE  -
|  1> ! ri-mp2 aug-cc-pvdz aug-cc-pvdz/c tightscf
|  2> %pal nprocs 16 end
|  3> %maxcore 3800
|  4> %base "DZ_P-P_2_AB"
|  5>
|  6> *xyz 0 1
|  7> P         0.173716    0.159661   -0.876816
|  8> N         0.074086    1.779351    0.015527
|  9> P        -1.569173   -0.689347    0.187099
| 10> C         1.508297   -0.643265    0.081552
| 11> C         2.908931   -0.323805   -0.431559
| 12> H         1.308834   -1.715816   -0.019553
| 13> H         1.395111   -0.405585    1.139070
| 14> O         1.083692    2.248149    0.474287
| 15> O        -1.010926    2.345523    0.020429
| 16> O        -1.358805   -0.896194    1.617555
| 17> O        -2.767371    0.213956   -0.285379
| 18> C         3.975563   -1.072160    0.352175
| 19> H         3.082210    0.749817   -0.357576
| 20> H         2.976648   -0.581953   -1.491148
| 21> H         3.944052   -0.804111    1.409182
| 22> H         4.972002   -0.837848   -0.021739
| 23> H         3.836013   -2.152257    0.278373
| 24> H        -2.561273    1.159668   -0.164995
| 25> O        -1.826194   -2.022927   -0.637962
| 26> H        -1.860254   -2.794773   -0.059002
| 27> *
| 28>
| 29> $new_job
| 30> ! ri-mp2 aug-cc-pvtz aug-cc-pvtz/c tightscf
| 31> %pal nprocs 16 end
| 32> %maxcore 3800
| 33> %base "TZ_P-P_2_AB"
| 34>
| 35> *xyz 0 1
| 36> P         0.173716    0.159661   -0.876816
| 37> N         0.074086    1.779351    0.015527
| 38> P        -1.569173   -0.689347    0.187099
| 39> C         1.508297   -0.643265    0.081552
| 40> C         2.908931   -0.323805   -0.431559
| 41> H         1.308834   -1.715816   -0.019553
| 42> H         1.395111   -0.405585    1.139070
| 43> O         1.083692    2.248149    0.474287
| 44> O        -1.010926    2.345523    0.020429
| 45> O        -1.358805   -0.896194    1.617555
| 46> O        -2.767371    0.213956   -0.285379
| 47> C         3.975563   -1.072160    0.352175
| 48> H         3.082210    0.749817   -0.357576
| 49> H         2.976648   -0.581953   -1.491148
| 50> H         3.944052   -0.804111    1.409182
| 51> H         4.972002   -0.837848   -0.021739
| 52> H         3.836013   -2.152257    0.278373
| 53> H        -2.561273    1.159668   -0.164995
| 54> O        -1.826194   -2.022927   -0.637962
| 55> H        -1.860254   -2.794773   -0.059002
| 56> *
| 57>
| 58> $new_job
| 59> ! ri-mp2 aug-cc-pvqz aug-cc-pvqz/c tightscf
| 60> %pal nprocs 16 end
| 61> %maxcore 3800
| 62> %base "QZ_P-P_2_AB"
| 63>
| 64> *xyz 0 1
| 65> P         0.173716    0.159661   -0.876816
| 66> N         0.074086    1.779351    0.015527
| 67> P        -1.569173   -0.689347    0.187099
| 68> C         1.508297   -0.643265    0.081552
| 69> C         2.908931   -0.323805   -0.431559
| 70> H         1.308834   -1.715816   -0.019553
| 71> H         1.395111   -0.405585    1.139070
| 72> O         1.083692    2.248149    0.474287
| 73> O        -1.010926    2.345523    0.020429
| 74> O        -1.358805   -0.896194    1.617555
| 75> O        -2.767371    0.213956   -0.285379
| 76> C         3.975563   -1.072160    0.352175
| 77> H         3.082210    0.749817   -0.357576
| 78> H         2.976648   -0.581953   -1.491148
| 79> H         3.944052   -0.804111    1.409182
| 80> H         4.972002   -0.837848   -0.021739
| 81> H         3.836013   -2.152257    0.278373
| 82> H        -2.561273    1.159668   -0.164995
| 83> O        -1.826194   -2.022927   -0.637962
| 84> H        -1.860254   -2.794773   -0.059002
| 85> *
| 86>
| 87>
| 88>
| 89>
| 90>                          ****END OF INPUT****
 Total Charge           Charge          ....    0
 Multiplicity           Mult            ....    1
 Number of Electrons    NEL             ....  104
MP2 TOTAL ENERGY:    -1231.002902241 Eh
FINAL SINGLE POINT ENERGY     -1231.002902240562
MP2 TOTAL ENERGY:    -1231.592380662 Eh
FINAL SINGLE POINT ENERGY     -1231.592380661960

CARTESIAN COORDINATES (ANGSTROEM)
---------------------------------
  P      0.173716    0.159661   -0.876816
  N      0.074086    1.779351    0.015527
  P     -1.569173   -0.689347    0.187099
  C      1.508297   -0.643265    0.081552
  C      2.908931   -0.323805   -0.431559
  H      1.308834   -1.715816   -0.019553
  H      1.395111   -0.405585    1.139070
  O      1.083692    2.248149    0.474287
  O     -1.010926    2.345523    0.020429
  O     -1.358805   -0.896194    1.617555
  O     -2.767371    0.213956   -0.285379
  C      3.975563   -1.072160    0.352175
  H      3.082210    0.749817   -0.357576
  H      2.976648   -0.581953   -1.491148
  H      3.944052   -0.804111    1.409182
  H      4.972002   -0.837848   -0.021739
  H      3.836013   -2.152257    0.278373
  H     -2.561273    1.159668   -0.164995
  O     -1.826194   -2.022927   -0.637962
  H     -1.860254   -2.794773   -0.059002

 Multiplicity           Mult            ....    1
 Number of Electrons    NEL             ....  104
 Basis Dimension        Dim             .... 1302

ORBITAL ENERGIES
----------------

  NO   OCC          E(Eh)            E(eV)
   0   2.0000     -80.094913     -2179.4934
   1   2.0000     -80.022378     -2177.5196
   2   2.0000     -20.628218      -561.3223
   3   2.0000     -20.624463      -561.2202
   4   2.0000     -20.617571      -561.0326
   5   2.0000     -20.609318      -560.8080
   6   2.0000     -20.528249      -558.6021
   7   2.0000     -15.853569      -431.3975
   8   2.0000     -11.267106      -306.5935
   9   2.0000     -11.246624      -306.0362
  10   2.0000     -11.229377      -305.5669
  11   2.0000      -7.617192      -207.2743
  12   2.0000      -7.563157      -205.8040
  13   2.0000      -5.515392      -150.0815
  14   2.0000      -5.514973      -150.0700
  15   2.0000      -5.513759      -150.0370
  16   2.0000      -5.456819      -148.4876
  17   2.0000      -5.455556      -148.4532
  18   2.0000      -5.454716      -148.4304
  19   2.0000      -1.628455       -44.3125
  20   2.0000      -1.459191       -39.7066
  21   2.0000      -1.425345       -38.7856
  22   2.0000      -1.403762       -38.1983
  23   2.0000      -1.320969       -35.9454
  24   2.0000      -1.103333       -30.0232
  25   2.0000      -1.027748       -27.9664
  26   2.0000      -0.956126       -26.0175
  27   2.0000      -0.882771       -24.0214
  28   2.0000      -0.849544       -23.1173
  29   2.0000      -0.827902       -22.5283
  30   2.0000      -0.755922       -20.5697
  31   2.0000      -0.748916       -20.3791
  32   2.0000      -0.738910       -20.1068
  33   2.0000      -0.728350       -19.8194
  34   2.0000      -0.689214       -18.7545
  35   2.0000      -0.668114       -18.1803
  36   2.0000      -0.660986       -17.9863
  37   2.0000      -0.620619       -16.8879
  38   2.0000      -0.604450       -16.4479
  39   2.0000      -0.598354       -16.2820
  40   2.0000      -0.582335       -15.8462
  41   2.0000      -0.572500       -15.5785
  42   2.0000      -0.561582       -15.2814
  43   2.0000      -0.523493       -14.2450
  44   2.0000      -0.520092       -14.1524
  45   2.0000      -0.504469       -13.7273
  46   2.0000      -0.502295       -13.6681
  47   2.0000      -0.487278       -13.2595
  48   2.0000      -0.481171       -13.0933
  49   2.0000      -0.478014       -13.0074
  50   2.0000      -0.461492       -12.5578
  51   2.0000      -0.406815       -11.0700
  52   0.0000       0.017062         0.4643
  53   0.0000       0.025793         0.7019
  54   0.0000       0.031559         0.8588
  55   0.0000       0.036805         1.0015
  56   0.0000       0.043091         1.1726

MULLIKEN ATOMIC CHARGES
-----------------------
   0 P :    0.501916
   1 N :    0.777118
   2 P :    2.475923
   3 C :   -0.564976
   4 C :   -0.392143
   5 H :    0.321254
   6 H :    0.319401
   7 O :   -0.630268
   8 O :   -0.673779
   9 O :   -1.207969
  10 O :   -1.086488
  11 C :   -0.913975
  12 H :    0.266148
  13 H :    0.257144
  14 H :    0.238954
  15 H :    0.303554
  16 H :    0.229046
  17 H :    0.400399
  18 O :   -1.039276
  19 H :    0.418018
Sum of atomic charges:    0.0000000

LOEWDIN ATOMIC CHARGES
----------------------
   0 P :    0.810256
   1 N :   -1.003539
   2 P :   -0.805665
   3 C :    0.293219
   4 C :    0.433855
   5 H :   -0.349495
   6 H :   -0.353446
   7 O :    0.492345
   8 O :    0.511699
   9 O :    0.287368
  10 O :    1.069176
  11 C :    0.930538
  12 H :   -0.312887
  13 H :   -0.288433
  14 H :   -0.279483
  15 H :   -0.278537
  16 H :   -0.282044
  17 H :   -1.071236
  18 O :    1.064121
  19 H :   -0.867814

  Mayer bond orders larger than 0.100000
B(  0-P ,  1-N ) :   0.5733 B(  0-P ,  2-P ) :   0.9542 B(  0-P ,  3-C ) :   0.8673
B(  1-N ,  7-O ) :   1.2462 B(  1-N ,  8-O ) :   1.1369 B(  2-P ,  9-O ) :   1.2874
B(  2-P , 10-O ) :   0.5136 B(  2-P , 18-O ) :   0.4958 B(  3-C ,  4-C ) :   0.7733
B(  3-C ,  5-H ) :   0.8562 B(  3-C ,  6-H ) :   0.8741 B(  4-C , 11-C ) :   1.0348
B(  4-C , 12-H ) :   0.8746 B(  4-C , 13-H ) :   0.8732 B(  7-O ,  8-O ) :   0.1151
B(  9-O , 19-H ) :  -0.1035 B( 10-O , 17-H ) :   0.8098 B( 11-C , 14-H ) :   0.9493
B( 11-C , 15-H ) :   0.9750 B( 11-C , 16-H ) :   0.9565 B( 18-O , 19-H ) :   0.9243

MP2 TOTAL ENERGY:    -1231.783946235 Eh
FINAL SINGLE POINT ENERGY     -1231.783946235488

DIPOLE MOMENT
-------------
                                X             Y             Z
Electronic contribution:    -16.89822       5.33543      -2.26046
Nuclear contribution   :     17.80719      -6.64311       1.34871
                        -----------------------------------------
Total Dipole Moment    :      0.90897      -1.30769      -0.91175
                        -----------------------------------------
Magnitude (a.u.)       :      1.83509
Magnitude (Debye)      :      4.66444

Rotational constants in cm-1:     0.038854     0.020780     0.015760
Rotational constants in MHz :  1164.823552   622.964322   472.477615

                             ****ORCA TERMINATED NORMALLY****
TOTAL RUN TIME: 0 days 0 hours 51 minutes 23 seconds 100 msec
