                         Program Version 5.0.4 -  RELEASE  -
|  1> ! ri-mp2 aug-cc-pvdz aug-cc-pvdz/c tightscf
|  2> %pal nprocs 16 end
|  3> %maxcore 3800
|  4> %base "DZ_B-Cl_16_AB"
|  5> %scf
|  6> STABPerform true
|  7> STABRestartUHFifUnstable true
|  8> end
|  9>
| 10> *xyz 0 1
| 11> Cl         1.748763   -1.023964   -0.249811
| 12> Cl         0.608317    1.687347    0.315784
| 13> B         0.340902    0.012271   -0.118293
| 14> C        -1.092598   -0.573961   -0.315268
| 15> C        -1.542564   -1.178189    1.028433
| 16> H        -0.846325   -1.935176    1.389513
| 17> H        -2.520953   -1.647265    0.915788
| 18> H        -1.631877   -0.405399    1.794046
| 19> C        -2.127234    0.422134   -0.832097
| 20> H        -1.008530   -1.399234   -1.028181
| 21> H        -2.266291    1.245002   -0.130457
| 22> H        -3.092438   -0.068804   -0.966913
| 23> H        -1.834082    0.852116   -1.790294
| 24> *
| 25>
| 26> $new_job
| 27> ! ri-mp2 aug-cc-pvtz aug-cc-pvtz/c tightscf
| 28> %pal nprocs 16 end
| 29> %maxcore 3800
| 30> %base "TZ_B-Cl_16_AB"
| 31>
| 32> *xyz 0 1
| 33> Cl         1.748763   -1.023964   -0.249811
| 34> Cl         0.608317    1.687347    0.315784
| 35> B         0.340902    0.012271   -0.118293
| 36> C        -1.092598   -0.573961   -0.315268
| 37> C        -1.542564   -1.178189    1.028433
| 38> H        -0.846325   -1.935176    1.389513
| 39> H        -2.520953   -1.647265    0.915788
| 40> H        -1.631877   -0.405399    1.794046
| 41> C        -2.127234    0.422134   -0.832097
| 42> H        -1.008530   -1.399234   -1.028181
| 43> H        -2.266291    1.245002   -0.130457
| 44> H        -3.092438   -0.068804   -0.966913
| 45> H        -1.834082    0.852116   -1.790294
| 46> *
| 47>
| 48> $new_job
| 49> ! ri-mp2 aug-cc-pvqz aug-cc-pvqz/c tightscf
| 50> %pal nprocs 16 end
| 51> %maxcore 3800
| 52> %base "QZ_B-Cl_16_AB"
| 53>
| 54> *xyz 0 1
| 55> Cl         1.748763   -1.023964   -0.249811
| 56> Cl         0.608317    1.687347    0.315784
| 57> B         0.340902    0.012271   -0.118293
| 58> C        -1.092598   -0.573961   -0.315268
| 59> C        -1.542564   -1.178189    1.028433
| 60> H        -0.846325   -1.935176    1.389513
| 61> H        -2.520953   -1.647265    0.915788
| 62> H        -1.631877   -0.405399    1.794046
| 63> C        -2.127234    0.422134   -0.832097
| 64> H        -1.008530   -1.399234   -1.028181
| 65> H        -2.266291    1.245002   -0.130457
| 66> H        -3.092438   -0.068804   -0.966913
| 67> H        -1.834082    0.852116   -1.790294
| 68> *
| 69>
| 70>
| 71>
| 72>
| 73>                          ****END OF INPUT****
 Total Charge           Charge          ....    0
 Multiplicity           Mult            ....    1
 Number of Electrons    NEL             ....   64
MP2 TOTAL ENERGY:    -1062.314660843 Eh
FINAL SINGLE POINT ENERGY     -1062.314660843251
MP2 TOTAL ENERGY:    -1062.570302558 Eh
FINAL SINGLE POINT ENERGY     -1062.570302557589

CARTESIAN COORDINATES (ANGSTROEM)
---------------------------------
  Cl     1.748763   -1.023964   -0.249811
  Cl     0.608317    1.687347    0.315784
  B      0.340902    0.012271   -0.118293
  C     -1.092598   -0.573961   -0.315268
  C     -1.542564   -1.178189    1.028433
  H     -0.846325   -1.935176    1.389513
  H     -2.520953   -1.647265    0.915788
  H     -1.631877   -0.405399    1.794046
  C     -2.127234    0.422134   -0.832097
  H     -1.008530   -1.399234   -1.028181
  H     -2.266291    1.245002   -0.130457
  H     -3.092438   -0.068804   -0.966913
  H     -1.834082    0.852116   -1.790294

 Multiplicity           Mult            ....    1
 Number of Electrons    NEL             ....   64
 Basis Dimension        Dim             ....  810

ORBITAL ENERGIES
----------------

  NO   OCC          E(Eh)            E(eV)
   0   2.0000    -104.838666     -2852.8051
   1   2.0000    -104.837770     -2852.7808
   2   2.0000     -11.229209      -305.5623
   3   2.0000     -11.224731      -305.4405
   4   2.0000     -11.221139      -305.3427
   5   2.0000     -10.566623      -287.5324
   6   2.0000     -10.565681      -287.5068
   7   2.0000      -8.033440      -218.6010
   8   2.0000      -8.032499      -218.5754
   9   2.0000      -8.032416      -218.5732
  10   2.0000      -8.032143      -218.5657
  11   2.0000      -8.031468      -218.5474
  12   2.0000      -8.031203      -218.5401
  13   2.0000      -7.702474      -209.5950
  14   2.0000      -1.146091       -31.1867
  15   2.0000      -1.097422       -29.8624
  16   2.0000      -1.069363       -29.0988
  17   2.0000      -0.941167       -25.6104
  18   2.0000      -0.826150       -22.4807
  19   2.0000      -0.681360       -18.5407
  20   2.0000      -0.633306       -17.2331
  21   2.0000      -0.612942       -16.6790
  22   2.0000      -0.580886       -15.8067
  23   2.0000      -0.556389       -15.1401
  24   2.0000      -0.549208       -14.9447
  25   2.0000      -0.518162       -14.0999
  26   2.0000      -0.510196       -13.8831
  27   2.0000      -0.487950       -13.2778
  28   2.0000      -0.483322       -13.1519
  29   2.0000      -0.464305       -12.6344
  30   2.0000      -0.450749       -12.2655
  31   2.0000      -0.438062       -11.9203
  32   0.0000       0.023300         0.6340
  33   0.0000       0.032721         0.8904
  34   0.0000       0.033465         0.9106
  35   0.0000       0.033944         0.9237
  36   0.0000       0.048841         1.3290

MULLIKEN ATOMIC CHARGES
-----------------------
   0 Cl:   -0.287931
   1 Cl:   -0.321930
   2 B :    0.633211
   3 C :    0.026289
   4 C :   -0.943105
   5 H :    0.267246
   6 H :    0.281028
   7 H :    0.236051
   8 C :   -0.901893
   9 H :    0.297184
  10 H :    0.238238
  11 H :    0.239421
  12 H :    0.236192
Sum of atomic charges:   -0.0000000

LOEWDIN ATOMIC CHARGES
----------------------
   0 Cl:    1.303294
   1 Cl:    1.323860
   2 B :   -2.343440
   3 C :    0.017037
   4 C :    0.875067
   5 H :   -0.284401
   6 H :   -0.271087
   7 H :   -0.277661
   8 C :    0.854616
   9 H :   -0.336272
  10 H :   -0.308379
  11 H :   -0.274857
  12 H :   -0.277778

  Mayer bond orders larger than 0.100000
B(  0-Cl,  2-B ) :   0.9404 B(  1-Cl,  2-B ) :   0.9462 B(  2-B ,  3-C ) :   1.0207
B(  3-C ,  4-C ) :   0.8067 B(  3-C ,  8-C ) :   0.7119 B(  3-C ,  9-H ) :   0.8409
B(  4-C ,  5-H ) :   0.9583 B(  4-C ,  6-H ) :   0.9583 B(  4-C ,  7-H ) :   0.9431
B(  8-C , 10-H ) :   0.9552 B(  8-C , 11-H ) :   1.0058 B(  8-C , 12-H ) :   0.9996

MP2 TOTAL ENERGY:    -1062.652546910 Eh
FINAL SINGLE POINT ENERGY     -1062.652546910204

DIPOLE MOMENT
-------------
                                X             Y             Z
Electronic contribution:     15.60232       3.92063      -0.24889
Nuclear contribution   :    -16.22529      -4.15829       0.17763
                        -----------------------------------------
Total Dipole Moment    :     -0.62297      -0.23766      -0.07126
                        -----------------------------------------
Magnitude (a.u.)       :      0.67056
Magnitude (Debye)      :      1.70443

Rotational constants in cm-1:     0.080010     0.058867     0.040248
Rotational constants in MHz :  2398.635323  1764.798880  1206.591990

                             ****ORCA TERMINATED NORMALLY****
TOTAL RUN TIME: 0 days 1 hours 31 minutes 3 seconds 446 msec
