                         Program Version 5.0.4 -  RELEASE  -
|  1> ! ri-mp2 aug-cc-pvdz aug-cc-pvdz/c tightscf
|  2> %pal nprocs 16 end
|  3> %maxcore 3800
|  4> %base "DZ_P-Cl_30_AB"
|  5> %scf
|  6> STABPerform true
|  7> STABRestartUHFifUnstable true
|  8> end
|  9>
| 10> *xyz 0 1
| 11> Cl        -2.505351   -1.667230   -0.516652
| 12> Cl         0.712304    2.256394    1.055729
| 13> O        -2.188827    1.627692   -1.276609
| 14> O         0.341634   -1.318724    1.869119
| 15> P        -1.842006   -0.180871    0.757407
| 16> P         0.483157    1.330468   -0.791463
| 17> C        -1.390624    1.064349   -0.597288
| 18> C        -0.045942   -0.773182    0.879085
| 19> C         0.841060   -0.424970   -0.305821
| 20> H         0.436291   -0.970425   -1.171612
| 21> C         2.312541   -0.804054   -0.103220
| 22> H         2.587984   -0.474368    0.900761
| 23> C         2.478544   -2.319116   -0.170167
| 24> H         3.512097   -2.595785    0.038263
| 25> H         2.232296   -2.687249   -1.169203
| 26> H         1.843835   -2.826574    0.552453
| 27> C         3.235334   -0.126348   -1.108871
| 28> H         4.258835   -0.472368   -0.965128
| 29> H         2.946975   -0.363839   -2.135441
| 30> H         3.238257    0.959054   -1.005947
| 31> *
| 32>
| 33> $new_job
| 34> ! ri-mp2 aug-cc-pvtz aug-cc-pvtz/c tightscf
| 35> %pal nprocs 16 end
| 36> %maxcore 3800
| 37> %base "TZ_P-Cl_30_AB"
| 38>
| 39> *xyz 0 1
| 40> Cl        -2.505351   -1.667230   -0.516652
| 41> Cl         0.712304    2.256394    1.055729
| 42> O        -2.188827    1.627692   -1.276609
| 43> O         0.341634   -1.318724    1.869119
| 44> P        -1.842006   -0.180871    0.757407
| 45> P         0.483157    1.330468   -0.791463
| 46> C        -1.390624    1.064349   -0.597288
| 47> C        -0.045942   -0.773182    0.879085
| 48> C         0.841060   -0.424970   -0.305821
| 49> H         0.436291   -0.970425   -1.171612
| 50> C         2.312541   -0.804054   -0.103220
| 51> H         2.587984   -0.474368    0.900761
| 52> C         2.478544   -2.319116   -0.170167
| 53> H         3.512097   -2.595785    0.038263
| 54> H         2.232296   -2.687249   -1.169203
| 55> H         1.843835   -2.826574    0.552453
| 56> C         3.235334   -0.126348   -1.108871
| 57> H         4.258835   -0.472368   -0.965128
| 58> H         2.946975   -0.363839   -2.135441
| 59> H         3.238257    0.959054   -1.005947
| 60> *
| 61>
| 62> $new_job
| 63> ! ri-mp2 aug-cc-pvqz aug-cc-pvqz/c tightscf
| 64> %pal nprocs 16 end
| 65> %maxcore 3800
| 66> %base "QZ_P-Cl_30_AB"
| 67>
| 68> *xyz 0 1
| 69> Cl        -2.505351   -1.667230   -0.516652
| 70> Cl         0.712304    2.256394    1.055729
| 71> O        -2.188827    1.627692   -1.276609
| 72> O         0.341634   -1.318724    1.869119
| 73> P        -1.842006   -0.180871    0.757407
| 74> P         0.483157    1.330468   -0.791463
| 75> C        -1.390624    1.064349   -0.597288
| 76> C        -0.045942   -0.773182    0.879085
| 77> C         0.841060   -0.424970   -0.305821
| 78> H         0.436291   -0.970425   -1.171612
| 79> C         2.312541   -0.804054   -0.103220
| 80> H         2.587984   -0.474368    0.900761
| 81> C         2.478544   -2.319116   -0.170167
| 82> H         3.512097   -2.595785    0.038263
| 83> H         2.232296   -2.687249   -1.169203
| 84> H         1.843835   -2.826574    0.552453
| 85> C         3.235334   -0.126348   -1.108871
| 86> H         4.258835   -0.472368   -0.965128
| 87> H         2.946975   -0.363839   -2.135441
| 88> H         3.238257    0.959054   -1.005947
| 89> *
| 90>
| 91>
| 92>
| 93>
| 94>                          ****END OF INPUT****
 Total Charge           Charge          ....    0
 Multiplicity           Mult            ....    1
 Number of Electrons    NEL             ....  124
MP2 TOTAL ENERGY:    -1983.923178779 Eh
FINAL SINGLE POINT ENERGY     -1983.923178778960
MP2 TOTAL ENERGY:    -1984.457652803 Eh
FINAL SINGLE POINT ENERGY     -1984.457652803053

CARTESIAN COORDINATES (ANGSTROEM)
---------------------------------
  Cl    -2.505351   -1.667230   -0.516652
  Cl     0.712304    2.256394    1.055729
  O     -2.188827    1.627692   -1.276609
  O      0.341634   -1.318724    1.869119
  P     -1.842006   -0.180871    0.757407
  P      0.483157    1.330468   -0.791463
  C     -1.390624    1.064349   -0.597288
  C     -0.045942   -0.773182    0.879085
  C      0.841060   -0.424970   -0.305821
  H      0.436291   -0.970425   -1.171612
  C      2.312541   -0.804054   -0.103220
  H      2.587984   -0.474368    0.900761
  C      2.478544   -2.319116   -0.170167
  H      3.512097   -2.595785    0.038263
  H      2.232296   -2.687249   -1.169203
  H      1.843835   -2.826574    0.552453
  C      3.235334   -0.126348   -1.108871
  H      4.258835   -0.472368   -0.965128
  H      2.946975   -0.363839   -2.135441
  H      3.238257    0.959054   -1.005947

 Multiplicity           Mult            ....    1
 Number of Electrons    NEL             ....  124
 Basis Dimension        Dim             .... 1344

ORBITAL ENERGIES
----------------

  NO   OCC          E(Eh)            E(eV)
   0   2.0000    -104.861012     -2853.4132
   1   2.0000    -104.860574     -2853.4013
   2   2.0000     -80.029163     -2177.7042
   3   2.0000     -80.028594     -2177.6888
   4   2.0000     -20.608702      -560.7913
   5   2.0000     -20.591337      -560.3188
   6   2.0000     -11.373052      -309.4765
   7   2.0000     -11.369051      -309.3676
   8   2.0000     -11.283248      -307.0328
   9   2.0000     -11.257512      -306.3325
  10   2.0000     -11.233795      -305.6871
  11   2.0000     -11.225412      -305.4590
  12   2.0000     -10.586962      -288.0859
  13   2.0000     -10.586831      -288.0823
  14   2.0000      -8.053822      -219.1556
  15   2.0000      -8.053636      -219.1506
  16   2.0000      -8.052275      -219.1135
  17   2.0000      -8.052197      -219.1114
  18   2.0000      -8.052194      -219.1113
  19   2.0000      -8.052139      -219.1098
  20   2.0000      -7.566995      -205.9084
  21   2.0000      -7.566640      -205.8987
  22   2.0000      -5.460073      -148.5761
  23   2.0000      -5.459655      -148.5648
  24   2.0000      -5.459089      -148.5494
  25   2.0000      -5.458816      -148.5419
  26   2.0000      -5.458256      -148.5267
  27   2.0000      -5.458070      -148.5216
  28   2.0000      -1.450148       -39.4605
  29   2.0000      -1.438826       -39.1524
  30   2.0000      -1.159494       -31.5514
  31   2.0000      -1.137509       -30.9532
  32   2.0000      -1.118727       -30.4421
  33   2.0000      -1.034452       -28.1489
  34   2.0000      -0.953382       -25.9428
  35   2.0000      -0.928443       -25.2642
  36   2.0000      -0.873046       -23.7568
  37   2.0000      -0.818160       -22.2633
  38   2.0000      -0.756421       -20.5833
  39   2.0000      -0.746957       -20.3257
  40   2.0000      -0.699977       -19.0474
  41   2.0000      -0.673210       -18.3190
  42   2.0000      -0.650336       -17.6965
  43   2.0000      -0.636931       -17.3318
  44   2.0000      -0.620370       -16.8811
  45   2.0000      -0.610360       -16.6087
  46   2.0000      -0.601419       -16.3655
  47   2.0000      -0.584964       -15.9177
  48   2.0000      -0.566589       -15.4177
  49   2.0000      -0.556307       -15.1379
  50   2.0000      -0.532505       -14.4902
  51   2.0000      -0.517017       -14.0687
  52   2.0000      -0.511571       -13.9206
  53   2.0000      -0.509779       -13.8718
  54   2.0000      -0.502398       -13.6709
  55   2.0000      -0.501599       -13.6492
  56   2.0000      -0.497043       -13.5252
  57   2.0000      -0.489408       -13.3175
  58   2.0000      -0.471236       -12.8230
  59   2.0000      -0.426416       -11.6034
  60   2.0000      -0.392999       -10.6941
  61   2.0000      -0.364390        -9.9156
  62   0.0000       0.021167         0.5760
  63   0.0000       0.024717         0.6726
  64   0.0000       0.031256         0.8505
  65   0.0000       0.034760         0.9459
  66   0.0000       0.037724         1.0265

MULLIKEN ATOMIC CHARGES
-----------------------
   0 Cl:   -0.517695
   1 Cl:   -0.590221
   2 O :   -0.841810
   3 O :   -0.981068
   4 P :    0.708158
   5 P :    0.872796
   6 C :    0.286284
   7 C :    0.770956
   8 C :    0.033777
   9 H :    0.342979
  10 C :    0.267691
  11 H :    0.246862
  12 C :   -1.047272
  13 H :    0.276825
  14 H :    0.178328
  15 H :    0.306206
  16 C :   -0.972228
  17 H :    0.283634
  18 H :    0.159612
  19 H :    0.216185
Sum of atomic charges:    0.0000000

LOEWDIN ATOMIC CHARGES
----------------------
   0 Cl:    0.765170
   1 Cl:    0.840272
   2 O :    0.531098
   3 O :    0.687284
   4 P :    0.082203
   5 P :    0.174464
   6 C :   -1.175176
   7 C :   -1.044173
   8 C :   -0.256517
   9 H :   -0.399175
  10 C :   -0.004187
  11 H :   -0.305068
  12 C :    0.920534
  13 H :   -0.267444
  14 H :   -0.269820
  15 H :   -0.307046
  16 C :    0.884471
  17 H :   -0.270780
  18 H :   -0.269783
  19 H :   -0.316329

  Mayer bond orders larger than 0.100000
B(  0-Cl,  4-P ) :   0.8247 B(  1-Cl,  5-P ) :   0.6772 B(  1-Cl,  8-C ) :  -0.2229
B(  2-O ,  6-C ) :   1.1805 B(  3-O ,  7-C ) :   0.8039 B(  3-O ,  8-C ) :   0.3307
B(  4-P ,  6-C ) :   0.9143 B(  4-P ,  7-C ) :   0.9461 B(  4-P ,  8-C ) :  -0.1132
B(  5-P ,  6-C ) :   0.9684 B(  5-P ,  8-C ) :   0.6443 B(  6-C ,  8-C ) :  -0.1756
B(  7-C ,  8-C ) :   0.9192 B(  8-C ,  9-H ) :   0.8954 B(  8-C , 10-C ) :   0.5995
B( 10-C , 11-H ) :   0.9085 B( 10-C , 12-C ) :   0.6383 B( 10-C , 14-H ) :  -0.1069
B( 10-C , 16-C ) :   0.5620 B( 10-C , 17-H ) :  -0.1315 B( 12-C , 13-H ) :   1.0211
B( 12-C , 14-H ) :   1.0281 B( 12-C , 15-H ) :   0.9761 B( 12-C , 16-C ) :   0.1300
B( 16-C , 17-H ) :   1.0351 B( 16-C , 18-H ) :   1.0566 B( 16-C , 19-H ) :   1.0031

MP2 TOTAL ENERGY:    -1984.632441291 Eh
FINAL SINGLE POINT ENERGY     -1984.632441291448

DIPOLE MOMENT
-------------
                                X             Y             Z
Electronic contribution:    -22.64993      10.47439       4.88430
Nuclear contribution   :     23.65752     -10.80307      -5.40449
                        -----------------------------------------
Total Dipole Moment    :      1.00759      -0.32868      -0.52019
                        -----------------------------------------
Magnitude (a.u.)       :      1.18062
Magnitude (Debye)      :      3.00091

Rotational constants in cm-1:     0.023130     0.016824     0.012821
Rotational constants in MHz :   693.426803   504.369981   384.361963

                             ****ORCA TERMINATED NORMALLY****
TOTAL RUN TIME: 0 days 6 hours 41 minutes 48 seconds 839 msec
