                         Program Version 5.0.4 -  RELEASE  -
|  1> ! ri-mp2 aug-cc-pvdz aug-cc-pvdz/c tightscf
|  2> %pal nprocs 16 end
|  3> %maxcore 3800
|  4> %base "DZ_S-F_9_A"
|  5> %scf
|  6> STABPerform true
|  7> STABRestartUHFifUnstable true
|  8> end
|  9>
| 10> *xyz 0 2
| 11> S         1.327972   -0.000005   -0.049790
| 12> C        -0.426421   -0.000001    0.375268
| 13> F        -1.003896    1.096968   -0.161228
| 14> F        -1.003914   -1.096959   -0.161230
| 15> H        -0.618740   -0.000001    1.447150
| 16> *
| 17>
| 18> $new_job
| 19> ! ri-mp2 aug-cc-pvtz aug-cc-pvtz/c tightscf
| 20> %pal nprocs 16 end
| 21> %maxcore 3800
| 22> %base "TZ_S-F_9_A"
| 23>
| 24> *xyz 0 2
| 25> S         1.327972   -0.000005   -0.049790
| 26> C        -0.426421   -0.000001    0.375268
| 27> F        -1.003896    1.096968   -0.161228
| 28> F        -1.003914   -1.096959   -0.161230
| 29> H        -0.618740   -0.000001    1.447150
| 30> *
| 31>
| 32> $new_job
| 33> ! ri-mp2 aug-cc-pvqz aug-cc-pvqz/c tightscf
| 34> %pal nprocs 16 end
| 35> %maxcore 3800
| 36> %base "QZ_S-F_9_A"
| 37>
| 38> *xyz 0 2
| 39> S         1.327972   -0.000005   -0.049790
| 40> C        -0.426421   -0.000001    0.375268
| 41> F        -1.003896    1.096968   -0.161228
| 42> F        -1.003914   -1.096959   -0.161230
| 43> H        -0.618740   -0.000001    1.447150
| 44> *
| 45>
| 46>
| 47>
| 48>
| 49>                          ****END OF INPUT****
 Total Charge           Charge          ....    0
 Multiplicity           Mult            ....    2
 Number of Electrons    NEL             ....   41
MP2 TOTAL ENERGY:     -635.511303870 Eh
FINAL SINGLE POINT ENERGY      -635.511303870150
MP2 TOTAL ENERGY:     -635.757547022 Eh
FINAL SINGLE POINT ENERGY      -635.757547022389

CARTESIAN COORDINATES (ANGSTROEM)
---------------------------------
  S      1.327972   -0.000005   -0.049790
  C     -0.426421   -0.000001    0.375268
  F     -1.003896    1.096968   -0.161228
  F     -1.003914   -1.096959   -0.161230
  H     -0.618740   -0.000001    1.447150

 Multiplicity           Mult            ....    2
 Number of Electrons    NEL             ....   41
 Basis Dimension        Dim             ....  370

ORBITAL ENERGIES
----------------
                 SPIN UP ORBITALS
  NO   OCC          E(Eh)            E(eV)
   0   1.0000     -92.005740     -2503.6035
   1   1.0000     -26.327837      -716.4169
   2   1.0000     -26.327819      -716.4164
   3   1.0000     -11.452128      -311.6282
   4   1.0000      -9.008123      -245.1235
   5   1.0000      -6.703987      -182.4248
   6   1.0000      -6.685346      -181.9175
   7   1.0000      -6.683758      -181.8743
   8   1.0000      -1.684551       -45.8390
   9   1.0000      -1.622159       -44.1412
  10   1.0000      -1.069691       -29.1078
  11   1.0000      -0.917939       -24.9784
  12   1.0000      -0.803398       -21.8616
  13   1.0000      -0.781253       -21.2590
  14   1.0000      -0.741308       -20.1720
  15   1.0000      -0.687364       -18.7041
  16   1.0000      -0.651810       -17.7366
  17   1.0000      -0.629610       -17.1326
  18   1.0000      -0.514626       -14.0037
  19   1.0000      -0.481862       -13.1121
  20   1.0000      -0.416386       -11.3305
  21   0.0000       0.026355         0.7171
  22   0.0000       0.046906         1.2764
  23   0.0000       0.067711         1.8425
  24   0.0000       0.071750         1.9524
  25   0.0000       0.084301         2.2939

                 SPIN DOWN ORBITALS
  NO   OCC          E(Eh)            E(eV)
   0   1.0000     -91.996559     -2503.3536
   1   1.0000     -26.327511      -716.4080
   2   1.0000     -26.327492      -716.4075
   3   1.0000     -11.453375      -311.6622
   4   1.0000      -8.998015      -244.8484
   5   1.0000      -6.680348      -181.7815
   6   1.0000      -6.678546      -181.7325
   7   1.0000      -6.662321      -181.2910
   8   1.0000      -1.683411       -45.8080
   9   1.0000      -1.620991       -44.1094
  10   1.0000      -1.028593       -27.9894
  11   1.0000      -0.876677       -23.8556
  12   1.0000      -0.798362       -21.7245
  13   1.0000      -0.779819       -21.2199
  14   1.0000      -0.723571       -19.6894
  15   1.0000      -0.686949       -18.6928
  16   1.0000      -0.651063       -17.7163
  17   1.0000      -0.622457       -16.9379
  18   1.0000      -0.503703       -13.7065
  19   1.0000      -0.396218       -10.7816
  20   0.0000      -0.013863        -0.3772
  21   0.0000       0.026913         0.7323
  22   0.0000       0.047857         1.3023
  23   0.0000       0.072022         1.9598
  24   0.0000       0.073630         2.0036

MULLIKEN ATOMIC CHARGES AND SPIN POPULATIONS
--------------------------------------------
   0 S :    0.068066    1.059202
   1 C :    0.669760   -0.078221
   2 F :   -0.534840    0.000534
   3 F :   -0.534839    0.000532
   4 H :    0.331853    0.017954
Sum of atomic charges         :    0.0000000

LOEWDIN ATOMIC CHARGES AND SPIN POPULATIONS
-------------------------------------------
   0 S :    0.933661    0.766381
   1 C :   -1.732337    0.192208
   2 F :    0.665096    0.009199
   3 F :    0.665095    0.009195
   4 H :   -0.531514    0.023017

  Mayer bond orders larger than 0.100000
B(  0-S ,  1-C ) :   1.0504 B(  1-C ,  2-F ) :   0.6465 B(  1-C ,  3-F ) :   0.6465
B(  1-C ,  4-H ) :   0.8121

MP2 TOTAL ENERGY:     -635.838366799 Eh
FINAL SINGLE POINT ENERGY      -635.838366799136

DIPOLE MOMENT
-------------
                                X             Y             Z
Electronic contribution:     -1.00745       0.00001      -1.02568
Nuclear contribution   :      1.22643      -0.00001       1.63794
                        -----------------------------------------
Total Dipole Moment    :      0.21899      -0.00000       0.61226
                        -----------------------------------------
Magnitude (a.u.)       :      0.65024
Magnitude (Debye)      :      1.65278

Rotational constants in cm-1:     0.333556     0.164927     0.117789
Rotational constants in MHz :  9999.750986  4944.372930  3531.227533

                             ****ORCA TERMINATED NORMALLY****
TOTAL RUN TIME: 0 days 0 hours 5 minutes 46 seconds 161 msec
