                         Program Version 5.0.4 -  RELEASE  -
|  1> ! ri-mp2 aug-cc-pvdz aug-cc-pvdz/c tightscf
|  2> %pal nprocs 16 end
|  3> %maxcore 3800
|  4> %base "DZ_Si-Si_71_A"
|  5> %scf
|  6> STABPerform true
|  7> STABRestartUHFifUnstable true
|  8> end
|  9>
| 10> *xyz 0 2
| 11> Si        -1.854788   -0.294361   -0.083209
| 12> C        -0.039436    0.292530   -0.007184
| 13> H        -2.030444   -1.662700    0.468244
| 14> H        -2.724337    0.687386    0.591547
| 15> O         0.203441    1.486044    0.006155
| 16> N         0.934138   -0.649654   -0.023478
| 17> C         2.337384   -0.296656    0.021305
| 18> H         0.671745   -1.615823    0.059812
| 19> H         2.498704    0.590241   -0.586754
| 20> H         2.928377   -1.119432   -0.375226
| 21> H         2.668795   -0.074648    1.037693
| 22> *
| 23>
| 24> $new_job
| 25> ! ri-mp2 aug-cc-pvtz aug-cc-pvtz/c tightscf
| 26> %pal nprocs 16 end
| 27> %maxcore 3800
| 28> %base "TZ_Si-Si_71_A"
| 29>
| 30> *xyz 0 2
| 31> Si        -1.854788   -0.294361   -0.083209
| 32> C        -0.039436    0.292530   -0.007184
| 33> H        -2.030444   -1.662700    0.468244
| 34> H        -2.724337    0.687386    0.591547
| 35> O         0.203441    1.486044    0.006155
| 36> N         0.934138   -0.649654   -0.023478
| 37> C         2.337384   -0.296656    0.021305
| 38> H         0.671745   -1.615823    0.059812
| 39> H         2.498704    0.590241   -0.586754
| 40> H         2.928377   -1.119432   -0.375226
| 41> H         2.668795   -0.074648    1.037693
| 42> *
| 43>
| 44> $new_job
| 45> ! ri-mp2 aug-cc-pvqz aug-cc-pvqz/c tightscf
| 46> %pal nprocs 16 end
| 47> %maxcore 3800
| 48> %base "QZ_Si-Si_71_A"
| 49>
| 50> *xyz 0 2
| 51> Si        -1.854788   -0.294361   -0.083209
| 52> C        -0.039436    0.292530   -0.007184
| 53> H        -2.030444   -1.662700    0.468244
| 54> H        -2.724337    0.687386    0.591547
| 55> O         0.203441    1.486044    0.006155
| 56> N         0.934138   -0.649654   -0.023478
| 57> C         2.337384   -0.296656    0.021305
| 58> H         0.671745   -1.615823    0.059812
| 59> H         2.498704    0.590241   -0.586754
| 60> H         2.928377   -1.119432   -0.375226
| 61> H         2.668795   -0.074648    1.037693
| 62> *
| 63>
| 64>
| 65>
| 66>
| 67>                          ****END OF INPUT****
 Total Charge           Charge          ....    0
 Multiplicity           Mult            ....    2
 Number of Electrons    NEL             ....   47
MP2 TOTAL ENERGY:     -498.204351562 Eh
FINAL SINGLE POINT ENERGY      -498.204351561548
MP2 TOTAL ENERGY:     -498.419058167 Eh
FINAL SINGLE POINT ENERGY      -498.419058167461

CARTESIAN COORDINATES (ANGSTROEM)
---------------------------------
  Si    -1.854788   -0.294361   -0.083209
  C     -0.039436    0.292530   -0.007184
  H     -2.030444   -1.662700    0.468244
  H     -2.724337    0.687386    0.591547
  O      0.203441    1.486044    0.006155
  N      0.934138   -0.649654   -0.023478
  C      2.337384   -0.296656    0.021305
  H      0.671745   -1.615823    0.059812
  H      2.498704    0.590241   -0.586754
  H      2.928377   -1.119432   -0.375226
  H      2.668795   -0.074648    1.037693

 Multiplicity           Mult            ....    2
 Number of Electrons    NEL             ....   47
 Basis Dimension        Dim             ....  680

ORBITAL ENERGIES
----------------
                 SPIN UP ORBITALS
  NO   OCC          E(Eh)            E(eV)
   0   1.0000     -68.794688     -1871.9986
   1   1.0000     -20.523635      -558.4765
   2   1.0000     -15.590606      -424.2419
   3   1.0000     -11.336514      -308.4822
   4   1.0000     -11.261775      -306.4485
   5   1.0000      -6.145689      -167.2327
   6   1.0000      -4.258578      -115.8818
   7   1.0000      -4.248451      -115.6062
   8   1.0000      -4.248244      -115.6006
   9   1.0000      -1.384847       -37.6836
  10   1.0000      -1.235588       -33.6221
  11   1.0000      -0.964315       -26.2404
  12   1.0000      -0.808555       -22.0019
  13   1.0000      -0.767787       -20.8925
  14   1.0000      -0.655522       -17.8377
  15   1.0000      -0.646921       -17.6036
  16   1.0000      -0.628981       -17.1154
  17   1.0000      -0.558978       -15.2106
  18   1.0000      -0.555503       -15.1160
  19   1.0000      -0.540692       -14.7130
  20   1.0000      -0.502021       -13.6607
  21   1.0000      -0.409721       -11.1491
  22   1.0000      -0.402169       -10.9436
  23   1.0000      -0.340486        -9.2651
  24   0.0000       0.019349         0.5265
  25   0.0000       0.030790         0.8379
  26   0.0000       0.035884         0.9765
  27   0.0000       0.038803         1.0559
  28   0.0000       0.048170         1.3108

                 SPIN DOWN ORBITALS
  NO   OCC          E(Eh)            E(eV)
   0   1.0000     -68.788826     -1871.8391
   1   1.0000     -20.521294      -558.4128
   2   1.0000     -15.590231      -424.2317
   3   1.0000     -11.337065      -308.4972
   4   1.0000     -11.261797      -306.4491
   5   1.0000      -6.136748      -166.9894
   6   1.0000      -4.244457      -115.4975
   7   1.0000      -4.244229      -115.4913
   8   1.0000      -4.235541      -115.2549
   9   1.0000      -1.380614       -37.5684
  10   1.0000      -1.233720       -33.5712
  11   1.0000      -0.963278       -26.2121
  12   1.0000      -0.802196       -21.8289
  13   1.0000      -0.747460       -20.3394
  14   1.0000      -0.645691       -17.5701
  15   1.0000      -0.636870       -17.3301
  16   1.0000      -0.627060       -17.0632
  17   1.0000      -0.556916       -15.1545
  18   1.0000      -0.554062       -15.0768
  19   1.0000      -0.529113       -14.3979
  20   1.0000      -0.494975       -13.4690
  21   1.0000      -0.400116       -10.8877
  22   1.0000      -0.393066       -10.6959
  23   0.0000       0.016617         0.4522
  24   0.0000       0.020874         0.5680
  25   0.0000       0.031784         0.8649
  26   0.0000       0.038373         1.0442
  27   0.0000       0.043815         1.1923

MULLIKEN ATOMIC CHARGES AND SPIN POPULATIONS
--------------------------------------------
   0 Si:    0.738658    0.957910
   1 C :    0.567846   -0.028810
   2 H :   -0.224681    0.006519
   3 H :   -0.190821    0.001950
   4 O :   -0.796093    0.052547
   5 N :   -0.506421    0.010340
   6 C :   -0.739285    0.000749
   7 H :    0.245893   -0.001273
   8 H :    0.296477   -0.000710
   9 H :    0.325001    0.000595
  10 H :    0.283426    0.000183
Sum of atomic charges         :    0.0000000

LOEWDIN ATOMIC CHARGES AND SPIN POPULATIONS
-------------------------------------------
   0 Si:    1.070301    0.534005
   1 C :   -0.986334    0.142458
   2 H :   -0.350286    0.133996
   3 H :   -0.350843    0.128322
   4 O :    0.587307    0.042004
   5 N :    0.710849    0.014417
   6 C :    0.762825    0.000891
   7 H :   -0.544713    0.003379
   8 H :   -0.323622    0.000050
   9 H :   -0.294573    0.000503
  10 H :   -0.280912   -0.000025

  Mayer bond orders larger than 0.100000
B(  0-Si,  1-C ) :   0.8562 B(  0-Si,  2-H ) :   0.8720 B(  0-Si,  3-H ) :   0.9153
B(  1-C ,  4-O ) :   1.4458 B(  1-C ,  5-N ) :   1.2070 B(  4-O ,  5-N ) :   0.1539
B(  5-N ,  6-C ) :   0.7827 B(  5-N ,  7-H ) :   0.9852 B(  6-C ,  8-H ) :   0.9361
B(  6-C ,  9-H ) :   0.9202 B(  6-C , 10-H ) :   0.9433

MP2 TOTAL ENERGY:     -498.488947210 Eh
FINAL SINGLE POINT ENERGY      -498.488947209536

DIPOLE MOMENT
-------------
                                X             Y             Z
Electronic contribution:     -3.93867       1.68308      -1.14490
Nuclear contribution   :      4.13917      -3.16134       1.20179
                        -----------------------------------------
Total Dipole Moment    :      0.20050      -1.47826       0.05689
                        -----------------------------------------
Magnitude (a.u.)       :      1.49288
Magnitude (Debye)      :      3.79460

Rotational constants in cm-1:     0.303938     0.079696     0.064254
Rotational constants in MHz :  9111.828040  2389.237196  1926.301087

                             ****ORCA TERMINATED NORMALLY****
TOTAL RUN TIME: 0 days 1 hours 14 minutes 42 seconds 249 msec
