                         Program Version 5.0.4 -  RELEASE  -
|  1> ! ri-mp2 aug-cc-pvdz aug-cc-pvdz/c tightscf
|  2> %pal nprocs 16 end
|  3> %maxcore 3800
|  4> %base "DZ_B-Si_44_AB"
|  5> %scf
|  6> STABPerform true
|  7> STABRestartUHFifUnstable true
|  8> end
|  9>
| 10> *xyz 0 1
| 11> C         1.114473    0.306209    0.361124
| 12> B        -2.019586    0.781675   -0.191771
| 13> O         2.047294    0.225837   -0.395114
| 14> Si        -0.567031   -0.575087    0.062419
| 15> H        -2.952123    0.583284   -0.902366
| 16> H        -1.989493    1.811368    0.404984
| 17> H        -0.398617   -1.555321   -1.028631
| 18> H        -0.899877   -1.278734    1.330194
| 19> H         1.211286    0.938298    1.274973
| 20> *
| 21>
| 22> $new_job
| 23> ! ri-mp2 aug-cc-pvtz aug-cc-pvtz/c tightscf
| 24> %pal nprocs 16 end
| 25> %maxcore 3800
| 26> %base "TZ_B-Si_44_AB"
| 27>
| 28> *xyz 0 1
| 29> C         1.114473    0.306209    0.361124
| 30> B        -2.019586    0.781675   -0.191771
| 31> O         2.047294    0.225837   -0.395114
| 32> Si        -0.567031   -0.575087    0.062419
| 33> H        -2.952123    0.583284   -0.902366
| 34> H        -1.989493    1.811368    0.404984
| 35> H        -0.398617   -1.555321   -1.028631
| 36> H        -0.899877   -1.278734    1.330194
| 37> H         1.211286    0.938298    1.274973
| 38> *
| 39>
| 40> $new_job
| 41> ! ri-mp2 aug-cc-pvqz aug-cc-pvqz/c tightscf
| 42> %pal nprocs 16 end
| 43> %maxcore 3800
| 44> %base "QZ_B-Si_44_AB"
| 45>
| 46> *xyz 0 1
| 47> C         1.114473    0.306209    0.361124
| 48> B        -2.019586    0.781675   -0.191771
| 49> O         2.047294    0.225837   -0.395114
| 50> Si        -0.567031   -0.575087    0.062419
| 51> H        -2.952123    0.583284   -0.902366
| 52> H        -1.989493    1.811368    0.404984
| 53> H        -0.398617   -1.555321   -1.028631
| 54> H        -0.899877   -1.278734    1.330194
| 55> H         1.211286    0.938298    1.274973
| 56> *
| 57>
| 58>
| 59>
| 60>
| 61>                          ****END OF INPUT****
 Total Charge           Charge          ....    0
 Multiplicity           Mult            ....    1
 Number of Electrons    NEL             ....   38
MP2 TOTAL ENERGY:     -429.723286517 Eh
FINAL SINGLE POINT ENERGY      -429.723286516879
MP2 TOTAL ENERGY:     -429.878304520 Eh
FINAL SINGLE POINT ENERGY      -429.878304519963

CARTESIAN COORDINATES (ANGSTROEM)
---------------------------------
  C      1.114473    0.306209    0.361124
  B     -2.019586    0.781675   -0.191771
  O      2.047294    0.225837   -0.395114
  Si    -0.567031   -0.575087    0.062419
  H     -2.952123    0.583284   -0.902366
  H     -1.989493    1.811368    0.404984
  H     -0.398617   -1.555321   -1.028631
  H     -0.899877   -1.278734    1.330194
  H      1.211286    0.938298    1.274973

 Multiplicity           Mult            ....    1
 Number of Electrons    NEL             ....   38
 Basis Dimension        Dim             ....  554

ORBITAL ENERGIES
----------------

  NO   OCC          E(Eh)            E(eV)
   0   2.0000     -68.773750     -1871.4289
   1   2.0000     -20.568203      -559.6893
   2   2.0000     -11.320623      -308.0498
   3   2.0000      -7.628473      -207.5813
   4   2.0000      -6.126054      -166.6984
   5   2.0000      -4.232330      -115.1676
   6   2.0000      -4.232006      -115.1588
   7   2.0000      -4.231782      -115.1526
   8   2.0000      -1.400331       -38.1049
   9   2.0000      -0.853653       -23.2291
  10   2.0000      -0.749469       -20.3941
  11   2.0000      -0.682430       -18.5699
  12   2.0000      -0.651766       -17.7354
  13   2.0000      -0.587319       -15.9818
  14   2.0000      -0.537384       -14.6230
  15   2.0000      -0.522446       -14.2165
  16   2.0000      -0.490283       -13.3413
  17   2.0000      -0.437864       -11.9149
  18   2.0000      -0.389560       -10.6005
  19   0.0000       0.016496         0.4489
  20   0.0000       0.021892         0.5957
  21   0.0000       0.029395         0.7999
  22   0.0000       0.030516         0.8304
  23   0.0000       0.047381         1.2893

MULLIKEN ATOMIC CHARGES
-----------------------
   0 C :   -0.036305
   1 B :    0.352613
   2 O :   -0.737070
   3 Si:    0.628444
   4 H :   -0.215646
   5 H :   -0.167160
   6 H :   -0.121609
   7 H :   -0.142396
   8 H :    0.439130
Sum of atomic charges:    0.0000000

LOEWDIN ATOMIC CHARGES
----------------------
   0 C :   -0.329548
   1 B :    0.351429
   2 O :    0.593920
   3 Si:    0.851297
   4 H :   -0.260165
   5 H :   -0.255601
   6 H :   -0.258815
   7 H :   -0.258088
   8 H :   -0.434429

  Mayer bond orders larger than 0.100000
B(  0-C ,  2-O ) :   1.6695 B(  0-C ,  3-Si) :   0.7322 B(  0-C ,  8-H ) :   0.7545
B(  1-B ,  3-Si) :   0.8300 B(  1-B ,  4-H ) :   0.9344 B(  1-B ,  5-H ) :   0.9217
B(  3-Si,  6-H ) :   0.8029 B(  3-Si,  7-H ) :   0.7969

MP2 TOTAL ENERGY:     -429.929347026 Eh
FINAL SINGLE POINT ENERGY      -429.929347026217

DIPOLE MOMENT
-------------
                                X             Y             Z
Electronic contribution:      2.26597       0.20196      -0.71371
Nuclear contribution   :     -3.30789      -0.09176       1.21381
                        -----------------------------------------
Total Dipole Moment    :     -1.04193       0.11020       0.50010
                        -----------------------------------------
Magnitude (a.u.)       :      1.16097
Magnitude (Debye)      :      2.95096

Rotational constants in cm-1:     0.462625     0.105298     0.095355
Rotational constants in MHz : 13869.134813  3156.764787  2858.673070

                             ****ORCA TERMINATED NORMALLY****
TOTAL RUN TIME: 0 days 0 hours 14 minutes 18 seconds 762 msec
