                         Program Version 5.0.4 -  RELEASE  -
|  1> ! ri-mp2 aug-cc-pvdz aug-cc-pvdz/c tightscf
|  2> %pal nprocs 16 end
|  3> %maxcore 3800
|  4> %base "DZ_B-P_65_AB"
|  5>
|  6> *xyz 0 1
|  7> C         2.059750   -0.792019   -0.918987
|  8> C         0.744566   -1.147753   -0.692538
|  9> C         2.701930    0.150494   -0.122199
| 10> C         1.981220    0.717081    0.917749
| 11> C         0.667127    0.348898    1.161736
| 12> C         0.020478   -0.581516    0.354094
| 13> H         2.599160   -1.249702   -1.739781
| 14> H         0.271330   -1.872366   -1.342457
| 15> B        -2.587249    0.459960   -0.249053
| 16> O        -3.893708    0.310657   -0.581456
| 17> O        -1.958800    1.629293   -0.542100
| 18> H         2.456207    1.448747    1.559757
| 19> C         4.134722    0.519154   -0.372540
| 20> H         4.314297    0.711461   -1.430717
| 21> H         4.803902   -0.289176   -0.071213
| 22> H         4.417920    1.409678    0.186529
| 23> H         0.142750    0.786310    2.003627
| 24> H        -1.018149    1.631699   -0.333585
| 25> H        -4.255403    1.083353   -1.029955
| 26> P        -1.726885   -0.986269    0.716014
| 27> H        -1.931194   -1.971410   -0.272589
| 28> *
| 29>
| 30> $new_job
| 31> ! ri-mp2 aug-cc-pvtz aug-cc-pvtz/c tightscf
| 32> %pal nprocs 16 end
| 33> %maxcore 3800
| 34> %base "TZ_B-P_65_AB"
| 35>
| 36> *xyz 0 1
| 37> C         2.059750   -0.792019   -0.918987
| 38> C         0.744566   -1.147753   -0.692538
| 39> C         2.701930    0.150494   -0.122199
| 40> C         1.981220    0.717081    0.917749
| 41> C         0.667127    0.348898    1.161736
| 42> C         0.020478   -0.581516    0.354094
| 43> H         2.599160   -1.249702   -1.739781
| 44> H         0.271330   -1.872366   -1.342457
| 45> B        -2.587249    0.459960   -0.249053
| 46> O        -3.893708    0.310657   -0.581456
| 47> O        -1.958800    1.629293   -0.542100
| 48> H         2.456207    1.448747    1.559757
| 49> C         4.134722    0.519154   -0.372540
| 50> H         4.314297    0.711461   -1.430717
| 51> H         4.803902   -0.289176   -0.071213
| 52> H         4.417920    1.409678    0.186529
| 53> H         0.142750    0.786310    2.003627
| 54> H        -1.018149    1.631699   -0.333585
| 55> H        -4.255403    1.083353   -1.029955
| 56> P        -1.726885   -0.986269    0.716014
| 57> H        -1.931194   -1.971410   -0.272589
| 58> *
| 59>
| 60> $new_job
| 61> ! ri-mp2 aug-cc-pvqz aug-cc-pvqz/c tightscf
| 62> %pal nprocs 16 end
| 63> %maxcore 3800
| 64> %base "QZ_B-P_65_AB"
| 65>
| 66> *xyz 0 1
| 67> C         2.059750   -0.792019   -0.918987
| 68> C         0.744566   -1.147753   -0.692538
| 69> C         2.701930    0.150494   -0.122199
| 70> C         1.981220    0.717081    0.917749
| 71> C         0.667127    0.348898    1.161736
| 72> C         0.020478   -0.581516    0.354094
| 73> H         2.599160   -1.249702   -1.739781
| 74> H         0.271330   -1.872366   -1.342457
| 75> B        -2.587249    0.459960   -0.249053
| 76> O        -3.893708    0.310657   -0.581456
| 77> O        -1.958800    1.629293   -0.542100
| 78> H         2.456207    1.448747    1.559757
| 79> C         4.134722    0.519154   -0.372540
| 80> H         4.314297    0.711461   -1.430717
| 81> H         4.803902   -0.289176   -0.071213
| 82> H         4.417920    1.409678    0.186529
| 83> H         0.142750    0.786310    2.003627
| 84> H        -1.018149    1.631699   -0.333585
| 85> H        -4.255403    1.083353   -1.029955
| 86> P        -1.726885   -0.986269    0.716014
| 87> H        -1.931194   -1.971410   -0.272589
| 88> *
| 89>
| 90>
| 91>
| 92>
| 93>                          ****END OF INPUT****
 Total Charge           Charge          ....    0
 Multiplicity           Mult            ....    1
 Number of Electrons    NEL             ....   88
MP2 TOTAL ENERGY:     -787.795041683 Eh
FINAL SINGLE POINT ENERGY      -787.795041683062
MP2 TOTAL ENERGY:     -788.229650425 Eh
FINAL SINGLE POINT ENERGY      -788.229650425006

CARTESIAN COORDINATES (ANGSTROEM)
---------------------------------
  C      2.059750   -0.792019   -0.918987
  C      0.744566   -1.147753   -0.692538
  C      2.701930    0.150494   -0.122199
  C      1.981220    0.717081    0.917749
  C      0.667127    0.348898    1.161736
  C      0.020478   -0.581516    0.354094
  H      2.599160   -1.249702   -1.739781
  H      0.271330   -1.872366   -1.342457
  B     -2.587249    0.459960   -0.249053
  O     -3.893708    0.310657   -0.581456
  O     -1.958800    1.629293   -0.542100
  H      2.456207    1.448747    1.559757
  C      4.134722    0.519154   -0.372540
  H      4.314297    0.711461   -1.430717
  H      4.803902   -0.289176   -0.071213
  H      4.417920    1.409678    0.186529
  H      0.142750    0.786310    2.003627
  H     -1.018149    1.631699   -0.333585
  H     -4.255403    1.083353   -1.029955
  P     -1.726885   -0.986269    0.716014
  H     -1.931194   -1.971410   -0.272589

 Multiplicity           Mult            ....    1
 Number of Electrons    NEL             ....   88
 Basis Dimension        Dim             .... 1344

ORBITAL ENERGIES
----------------

  NO   OCC          E(Eh)            E(eV)
   0   2.0000     -79.922633     -2174.8054
   1   2.0000     -20.570387      -559.7487
   2   2.0000     -20.566806      -559.6513
   3   2.0000     -11.247691      -306.0652
   4   2.0000     -11.244661      -305.9828
   5   2.0000     -11.242058      -305.9120
   6   2.0000     -11.241378      -305.8935
   7   2.0000     -11.237588      -305.7903
   8   2.0000     -11.236656      -305.7650
   9   2.0000     -11.229519      -305.5708
  10   2.0000      -7.647816      -208.1077
  11   2.0000      -7.467750      -203.2078
  12   2.0000      -5.362097      -145.9101
  13   2.0000      -5.361543      -145.8950
  14   2.0000      -5.361041      -145.8813
  15   2.0000      -1.388548       -37.7843
  16   2.0000      -1.348870       -36.7046
  17   2.0000      -1.169924       -31.8353
  18   2.0000      -1.062281       -28.9061
  19   2.0000      -1.026007       -27.9191
  20   2.0000      -0.953042       -25.9336
  21   2.0000      -0.854465       -23.2512
  22   2.0000      -0.840195       -22.8629
  23   2.0000      -0.793392       -21.5893
  24   2.0000      -0.763318       -20.7709
  25   2.0000      -0.731055       -19.8930
  26   2.0000      -0.671027       -18.2596
  27   2.0000      -0.653737       -17.7891
  28   2.0000      -0.634232       -17.2583
  29   2.0000      -0.616851       -16.7854
  30   2.0000      -0.594176       -16.1683
  31   2.0000      -0.586122       -15.9492
  32   2.0000      -0.579645       -15.7730
  33   2.0000      -0.567529       -15.4433
  34   2.0000      -0.551083       -14.9957
  35   2.0000      -0.542059       -14.7502
  36   2.0000      -0.509349       -13.8601
  37   2.0000      -0.505379       -13.7521
  38   2.0000      -0.496661       -13.5148
  39   2.0000      -0.483883       -13.1671
  40   2.0000      -0.451476       -12.2853
  41   2.0000      -0.378787       -10.3073
  42   2.0000      -0.349925        -9.5219
  43   2.0000      -0.314024        -8.5450
  44   0.0000       0.019437         0.5289
  45   0.0000       0.026517         0.7216
  46   0.0000       0.027544         0.7495
  47   0.0000       0.034184         0.9302
  48   0.0000       0.037522         1.0210

MULLIKEN ATOMIC CHARGES
-----------------------
   0 C :   -0.324446
   1 C :   -0.454844
   2 C :    0.442727
   3 C :   -0.340778
   4 C :   -0.105684
   5 C :   -0.003860
   6 H :    0.266691
   7 H :    0.247072
   8 B :    1.332241
   9 O :   -1.035003
  10 O :   -1.176444
  11 H :    0.182114
  12 C :   -0.862268
  13 H :    0.222419
  14 H :    0.278892
  15 H :    0.224208
  16 H :    0.269489
  17 H :    0.413254
  18 H :    0.319049
  19 P :    0.221371
  20 H :   -0.116202
Sum of atomic charges:   -0.0000000

LOEWDIN ATOMIC CHARGES
----------------------
   0 C :    0.348391
   1 C :    0.272412
   2 C :   -0.077173
   3 C :    0.351315
   4 C :    0.241177
   5 C :   -0.329245
   6 H :   -0.310645
   7 H :   -0.338639
   8 B :   -1.415582
   9 O :    1.277628
  10 O :    1.337066
  11 H :   -0.315538
  12 C :    0.909635
  13 H :   -0.288593
  14 H :   -0.277879
  15 H :   -0.305685
  16 H :   -0.328918
  17 H :   -0.858415
  18 H :   -0.803778
  19 P :    1.359941
  20 H :   -0.447475

  Mayer bond orders larger than 0.100000
B(  0-C ,  1-C ) :   1.3431 B(  0-C ,  2-C ) :   0.9278 B(  0-C ,  3-C ) :  -0.1503
B(  0-C ,  4-C ) :   0.1493 B(  0-C ,  5-C ) :  -0.1667 B(  0-C ,  6-H ) :   1.0269
B(  0-C ,  7-H ) :  -0.1409 B(  1-C ,  2-C ) :  -0.1014 B(  1-C ,  3-C ) :   0.1849
B(  1-C ,  5-C ) :   0.9677 B(  1-C ,  6-H ) :  -0.1217 B(  1-C ,  7-H ) :   1.0375
B(  2-C ,  3-C ) :   0.9779 B(  2-C ,  4-C ) :  -0.1513 B(  2-C ,  6-H ) :  -0.1017
B(  2-C , 11-H ) :  -0.1063 B(  2-C , 12-C ) :   0.6113 B(  2-C , 13-H ) :  -0.1107
B(  2-C , 14-H ) :  -0.1255 B(  2-C , 15-H ) :  -0.1136 B(  3-C ,  4-C ) :   1.3711
B(  3-C ,  5-C ) :  -0.2369 B(  3-C , 11-H ) :   1.1275 B(  3-C , 16-H ) :  -0.1150
B(  4-C ,  5-C ) :   0.8584 B(  4-C , 11-H ) :  -0.1389 B(  4-C , 16-H ) :   1.0558
B(  4-C , 19-P ) :  -0.2940 B(  5-C , 16-H ) :  -0.1488 B(  5-C , 19-P ) :   0.7941
B(  8-B ,  9-O ) :   0.3959 B(  8-B , 10-O ) :   0.4552 B(  8-B , 19-P ) :   1.0427
B(  9-O , 10-O ) :  -0.1377 B(  9-O , 18-H ) :   0.9433 B(  9-O , 19-P ) :  -0.1482
B( 10-O , 17-H ) :   0.8545 B( 10-O , 19-P ) :   0.1004 B( 12-C , 13-H ) :   1.0354
B( 12-C , 14-H ) :   1.0009 B( 12-C , 15-H ) :   1.0486 B( 19-P , 20-H ) :   0.9767

MP2 TOTAL ENERGY:     -788.369290933 Eh
FINAL SINGLE POINT ENERGY      -788.369290932578

DIPOLE MOMENT
-------------
                                X             Y             Z
Electronic contribution:    -14.20517      -1.84313       2.46553
Nuclear contribution   :     15.19270       2.25148      -2.92214
                        -----------------------------------------
Total Dipole Moment    :      0.98753       0.40835      -0.45661
                        -----------------------------------------
Magnitude (a.u.)       :      1.16209
Magnitude (Debye)      :      2.95380

Rotational constants in cm-1:     0.076596     0.015994     0.015291
Rotational constants in MHz :  2296.282909   479.501876   458.401922

                             ****ORCA TERMINATED NORMALLY****
TOTAL RUN TIME: 0 days 1 hours 6 minutes 55 seconds 975 msec
