                         Program Version 5.0.4 -  RELEASE  -
|  1> ! ri-mp2 aug-cc-pvdz aug-cc-pvdz/c tightscf
|  2> %pal nprocs 16 end
|  3> %maxcore 3800
|  4> %base "DZ_S-S_45_AB"
|  5> %scf
|  6> STABPerform true
|  7> STABRestartUHFifUnstable true
|  8> end
|  9>
| 10> *xyz 0 1
| 11> S        -2.019441   -0.330614    0.086904
| 12> S        -0.486031    1.009127   -0.013569
| 13> C         0.955931   -0.095724    0.002042
| 14> F         2.038937    0.684549   -0.043549
| 15> F         0.989643   -0.917366   -1.047482
| 16> F         1.029220   -0.848843    1.095989
| 17> H        -2.168237   -0.546922   -1.230248
| 18> *
| 19>
| 20> $new_job
| 21> ! ri-mp2 aug-cc-pvtz aug-cc-pvtz/c tightscf
| 22> %pal nprocs 16 end
| 23> %maxcore 3800
| 24> %base "TZ_S-S_45_AB"
| 25>
| 26> *xyz 0 1
| 27> S        -2.019441   -0.330614    0.086904
| 28> S        -0.486031    1.009127   -0.013569
| 29> C         0.955931   -0.095724    0.002042
| 30> F         2.038937    0.684549   -0.043549
| 31> F         0.989643   -0.917366   -1.047482
| 32> F         1.029220   -0.848843    1.095989
| 33> H        -2.168237   -0.546922   -1.230248
| 34> *
| 35>
| 36> $new_job
| 37> ! ri-mp2 aug-cc-pvqz aug-cc-pvqz/c tightscf
| 38> %pal nprocs 16 end
| 39> %maxcore 3800
| 40> %base "QZ_S-S_45_AB"
| 41>
| 42> *xyz 0 1
| 43> S        -2.019441   -0.330614    0.086904
| 44> S        -0.486031    1.009127   -0.013569
| 45> C         0.955931   -0.095724    0.002042
| 46> F         2.038937    0.684549   -0.043549
| 47> F         0.989643   -0.917366   -1.047482
| 48> F         1.029220   -0.848843    1.095989
| 49> H        -2.168237   -0.546922   -1.230248
| 50> *
| 51>
| 52>
| 53>
| 54>
| 55>                          ****END OF INPUT****
 Total Charge           Charge          ....    0
 Multiplicity           Mult            ....    1
 Number of Electrons    NEL             ....   66
MP2 TOTAL ENERGY:    -1132.894020438 Eh
FINAL SINGLE POINT ENERGY     -1132.894020438423
MP2 TOTAL ENERGY:    -1133.282155939 Eh
FINAL SINGLE POINT ENERGY     -1133.282155938669

CARTESIAN COORDINATES (ANGSTROEM)
---------------------------------
  S     -2.019441   -0.330614    0.086904
  S     -0.486031    1.009127   -0.013569
  C      0.955931   -0.095724    0.002042
  F      2.038937    0.684549   -0.043549
  F      0.989643   -0.917366   -1.047482
  F      1.029220   -0.848843    1.095989
  H     -2.168237   -0.546922   -1.230248

 Multiplicity           Mult            ....    1
 Number of Electrons    NEL             ....   66
 Basis Dimension        Dim             ....  534

ORBITAL ENERGIES
----------------

  NO   OCC          E(Eh)            E(eV)
   0   2.0000     -92.020508     -2504.0053
   1   2.0000     -92.010702     -2503.7385
   2   2.0000     -26.354463      -717.1414
   3   2.0000     -26.351326      -717.0560
   4   2.0000     -26.350478      -717.0330
   5   2.0000     -11.539695      -314.0111
   6   2.0000      -9.021178      -245.4787
   7   2.0000      -9.011476      -245.2147
   8   2.0000      -6.702303      -182.3789
   9   2.0000      -6.701216      -182.3494
  10   2.0000      -6.700172      -182.3209
  11   2.0000      -6.692760      -182.1192
  12   2.0000      -6.691656      -182.0892
  13   2.0000      -6.690716      -182.0636
  14   2.0000      -1.749091       -47.5952
  15   2.0000      -1.653524       -44.9947
  16   2.0000      -1.650239       -44.9053
  17   2.0000      -1.110955       -30.2306
  18   2.0000      -0.994432       -27.0599
  19   2.0000      -0.909448       -24.7473
  20   2.0000      -0.841422       -22.8962
  21   2.0000      -0.840698       -22.8765
  22   2.0000      -0.782338       -21.2885
  23   2.0000      -0.727202       -19.7882
  24   2.0000      -0.724545       -19.7159
  25   2.0000      -0.681942       -18.5566
  26   2.0000      -0.680274       -18.5112
  27   2.0000      -0.664135       -18.0720
  28   2.0000      -0.602464       -16.3939
  29   2.0000      -0.554953       -15.1011
  30   2.0000      -0.504523       -13.7288
  31   2.0000      -0.413435       -11.2501
  32   2.0000      -0.406249       -11.0546
  33   0.0000       0.025943         0.7059
  34   0.0000       0.043273         1.1775
  35   0.0000       0.054553         1.4845
  36   0.0000       0.063509         1.7282
  37   0.0000       0.079964         2.1759

MULLIKEN ATOMIC CHARGES
-----------------------
   0 S :   -0.131115
   1 S :    0.079709
   2 C :    1.550736
   3 F :   -0.558858
   4 F :   -0.539087
   5 F :   -0.530179
   6 H :    0.128793
Sum of atomic charges:    0.0000000

LOEWDIN ATOMIC CHARGES
----------------------
   0 S :    1.010769
   1 S :    0.587010
   2 C :   -2.722203
   3 F :    0.664773
   4 F :    0.671571
   5 F :    0.674450
   6 H :   -0.886370

  Mayer bond orders larger than 0.100000
B(  0-S ,  1-S ) :   1.1309 B(  0-S ,  6-H ) :   0.9653 B(  1-S ,  2-C ) :   0.9643
B(  2-C ,  3-F ) :   0.5814 B(  2-C ,  4-F ) :   0.5872 B(  2-C ,  5-F ) :   0.5857

MP2 TOTAL ENERGY:    -1133.409903871 Eh
FINAL SINGLE POINT ENERGY     -1133.409903870790

DIPOLE MOMENT
-------------
                                X             Y             Z
Electronic contribution:      5.04286      -0.42103       0.80658
Nuclear contribution   :     -5.63553       0.46240      -1.14349
                        -----------------------------------------
Total Dipole Moment    :     -0.59266       0.04137      -0.33692
                        -----------------------------------------
Magnitude (a.u.)       :      0.68299
Magnitude (Debye)      :      1.73602

Rotational constants in cm-1:     0.139827     0.053190     0.048629
Rotational constants in MHz :  4191.910960  1594.610301  1457.855815

                             ****ORCA TERMINATED NORMALLY****
TOTAL RUN TIME: 0 days 0 hours 14 minutes 56 seconds 159 msec
