                         Program Version 5.0.4 -  RELEASE  -
|  1> ! ri-mp2 aug-cc-pvdz aug-cc-pvdz/c tightscf
|  2> %pal nprocs 16 end
|  3> %maxcore 3800
|  4> %base "DZ_S-Cl_5_A"
|  5> %scf
|  6> STABPerform true
|  7> STABRestartUHFifUnstable true
|  8> end
|  9>
| 10> *xyz 0 2
| 11> N         1.000310    0.000000    0.000016
| 12> S        -0.628460    0.000000   -0.000011
| 13> H         1.526597    0.857909    0.000027
| 14> H         1.526596   -0.857909    0.000027
| 15> *
| 16>
| 17> $new_job
| 18> ! ri-mp2 aug-cc-pvtz aug-cc-pvtz/c tightscf
| 19> %pal nprocs 16 end
| 20> %maxcore 3800
| 21> %base "TZ_S-Cl_5_A"
| 22>
| 23> *xyz 0 2
| 24> N         1.000310    0.000000    0.000016
| 25> S        -0.628460    0.000000   -0.000011
| 26> H         1.526597    0.857909    0.000027
| 27> H         1.526596   -0.857909    0.000027
| 28> *
| 29>
| 30> $new_job
| 31> ! ri-mp2 aug-cc-pvqz aug-cc-pvqz/c tightscf
| 32> %pal nprocs 16 end
| 33> %maxcore 3800
| 34> %base "QZ_S-Cl_5_A"
| 35>
| 36> *xyz 0 2
| 37> N         1.000310    0.000000    0.000016
| 38> S        -0.628460    0.000000   -0.000011
| 39> H         1.526597    0.857909    0.000027
| 40> H         1.526596   -0.857909    0.000027
| 41> *
| 42>
| 43>
| 44>
| 45>
| 46>                          ****END OF INPUT****
 Total Charge           Charge          ....    0
 Multiplicity           Mult            ....    2
 Number of Electrons    NEL             ....   25
MP2 TOTAL ENERGY:     -453.433978186 Eh
FINAL SINGLE POINT ENERGY      -453.433978186227
MP2 TOTAL ENERGY:     -453.535533815 Eh
FINAL SINGLE POINT ENERGY      -453.535533814719

CARTESIAN COORDINATES (ANGSTROEM)
---------------------------------
  N      1.000310    0.000000    0.000016
  S     -0.628460    0.000000   -0.000011
  H      1.526597    0.857909    0.000027
  H      1.526596   -0.857909    0.000027

 Multiplicity           Mult            ....    2
 Number of Electrons    NEL             ....   25
 Basis Dimension        Dim             ....  256

ORBITAL ENERGIES
----------------
                 SPIN UP ORBITALS
  NO   OCC          E(Eh)            E(eV)
   0   1.0000     -91.975890     -2502.7912
   1   1.0000     -15.609964      -424.7687
   2   1.0000      -8.974762      -244.2157
   3   1.0000      -6.668095      -181.4481
   4   1.0000      -6.652795      -181.0318
   5   1.0000      -6.651352      -180.9925
   6   1.0000      -1.233731       -33.5715
   7   1.0000      -0.915012       -24.8987
   8   1.0000      -0.720928       -19.6175
   9   1.0000      -0.595666       -16.2089
  10   1.0000      -0.556023       -15.1301
  11   1.0000      -0.366981        -9.9860
  12   1.0000      -0.364551        -9.9199
  13   0.0000       0.023718         0.6454
  14   0.0000       0.040346         1.0979
  15   0.0000       0.059346         1.6149
  16   0.0000       0.084531         2.3002
  17   0.0000       0.098142         2.6706

                 SPIN DOWN ORBITALS
  NO   OCC          E(Eh)            E(eV)
   0   1.0000     -91.968295     -2502.5845
   1   1.0000     -15.598354      -424.4528
   2   1.0000      -8.966381      -243.9876
   3   1.0000      -6.650147      -180.9597
   4   1.0000      -6.646910      -180.8716
   5   1.0000      -6.632744      -180.4862
   6   1.0000      -1.201251       -32.6877
   7   1.0000      -0.854149       -23.2426
   8   1.0000      -0.714051       -19.4303
   9   1.0000      -0.560680       -15.2569
  10   1.0000      -0.442954       -12.0534
  11   1.0000      -0.351748        -9.5716
  12   0.0000       0.023923         0.6510
  13   0.0000       0.040409         1.0996
  14   0.0000       0.047864         1.3025
  15   0.0000       0.060771         1.6537
  16   0.0000       0.097031         2.6404

MULLIKEN ATOMIC CHARGES AND SPIN POPULATIONS
--------------------------------------------
   0 N :   -0.810184    0.240841
   1 S :    0.215705    0.807596
   2 H :    0.297240   -0.024219
   3 H :    0.297239   -0.024219
Sum of atomic charges         :    0.0000000

LOEWDIN ATOMIC CHARGES AND SPIN POPULATIONS
-------------------------------------------
   0 N :    0.490247    0.282555
   1 S :    0.822978    0.670037
   2 H :   -0.656612    0.023704
   3 H :   -0.656613    0.023704

  Mayer bond orders larger than 0.100000
B(  0-N ,  1-S ) :   1.2211 B(  0-N ,  2-H ) :   0.9361 B(  0-N ,  3-H ) :   0.9361

MP2 TOTAL ENERGY:     -453.568327693 Eh
FINAL SINGLE POINT ENERGY      -453.568327693388

DIPOLE MOMENT
-------------
                                X             Y             Z
Electronic contribution:     -2.09301       0.00000      -0.00004
Nuclear contribution   :      3.00603       0.00000       0.00005
                        -----------------------------------------
Total Dipole Moment    :      0.91303       0.00000       0.00002
                        -----------------------------------------
Magnitude (a.u.)       :      0.91303
Magnitude (Debye)      :      2.32073

Rotational constants in cm-1:    11.361193     0.540625     0.516068
Rotational constants in MHz : 340599.988085 16207.526176 15471.319975

                             ****ORCA TERMINATED NORMALLY****
TOTAL RUN TIME: 0 days 0 hours 5 minutes 24 seconds 297 msec
