                         Program Version 5.0.4 -  RELEASE  -
|  1> ! ri-mp2 aug-cc-pvdz aug-cc-pvdz/c tightscf
|  2> %pal nprocs 16 end
|  3> %maxcore 3800
|  4> %base "DZ_B-B_6_AB"
|  5> %scf
|  6> STABPerform true
|  7> STABRestartUHFifUnstable true
|  8> end
|  9>
| 10> *xyz 0 1
| 11> B        -0.783164    0.418103   -0.339453
| 12> B         0.783164    0.418098    0.339460
| 13> F         1.729235   -0.355372   -0.176135
| 14> F        -1.729232   -0.355383    0.176121
| 15> H         1.119763    1.107842    1.260871
| 16> H        -1.119791    1.107941   -1.260784
| 17> *
| 18>
| 19> $new_job
| 20> ! ri-mp2 aug-cc-pvtz aug-cc-pvtz/c tightscf
| 21> %pal nprocs 16 end
| 22> %maxcore 3800
| 23> %base "TZ_B-B_6_AB"
| 24>
| 25> *xyz 0 1
| 26> B        -0.783164    0.418103   -0.339453
| 27> B         0.783164    0.418098    0.339460
| 28> F         1.729235   -0.355372   -0.176135
| 29> F        -1.729232   -0.355383    0.176121
| 30> H         1.119763    1.107842    1.260871
| 31> H        -1.119791    1.107941   -1.260784
| 32> *
| 33>
| 34> $new_job
| 35> ! ri-mp2 aug-cc-pvqz aug-cc-pvqz/c tightscf
| 36> %pal nprocs 16 end
| 37> %maxcore 3800
| 38> %base "QZ_B-B_6_AB"
| 39>
| 40> *xyz 0 1
| 41> B        -0.783164    0.418103   -0.339453
| 42> B         0.783164    0.418098    0.339460
| 43> F         1.729235   -0.355372   -0.176135
| 44> F        -1.729232   -0.355383    0.176121
| 45> H         1.119763    1.107842    1.260871
| 46> H        -1.119791    1.107941   -1.260784
| 47> *
| 48>
| 49>
| 50>
| 51>
| 52>                          ****END OF INPUT****
 Total Charge           Charge          ....    0
 Multiplicity           Mult            ....    1
 Number of Electrons    NEL             ....   30
MP2 TOTAL ENERGY:     -250.071719694 Eh
FINAL SINGLE POINT ENERGY      -250.071719693929
MP2 TOTAL ENERGY:     -250.291415916 Eh
FINAL SINGLE POINT ENERGY      -250.291415916346

CARTESIAN COORDINATES (ANGSTROEM)
---------------------------------
  B     -0.783164    0.418103   -0.339453
  B      0.783164    0.418098    0.339460
  F      1.729235   -0.355372   -0.176135
  F     -1.729232   -0.355383    0.176121
  H      1.119763    1.107842    1.260871
  H     -1.119791    1.107941   -1.260784

 Multiplicity           Mult            ....    1
 Number of Electrons    NEL             ....   30
 Basis Dimension        Dim             ....  412

ORBITAL ENERGIES
----------------

  NO   OCC          E(Eh)            E(eV)
   0   2.0000     -26.307806      -715.8718
   1   2.0000     -26.307806      -715.8718
   2   2.0000      -7.658195      -208.3901
   3   2.0000      -7.657500      -208.3712
   4   2.0000      -1.621070       -44.1116
   5   2.0000      -1.619615       -44.0720
   6   2.0000      -0.810952       -22.0671
   7   2.0000      -0.780702       -21.2440
   8   2.0000      -0.714530       -19.4433
   9   2.0000      -0.704184       -19.1618
  10   2.0000      -0.679279       -18.4841
  11   2.0000      -0.675904       -18.3923
  12   2.0000      -0.640453       -17.4276
  13   2.0000      -0.558339       -15.1932
  14   2.0000      -0.435724       -11.8567
  15   0.0000       0.028729         0.7818
  16   0.0000       0.030779         0.8375
  17   0.0000       0.033694         0.9169
  18   0.0000       0.034229         0.9314
  19   0.0000       0.052075         1.4170

MULLIKEN ATOMIC CHARGES
-----------------------
   0 B :    0.894353
   1 B :    0.894354
   2 F :   -0.708555
   3 F :   -0.708553
   4 H :   -0.185800
   5 H :   -0.185799
Sum of atomic charges:    0.0000000

LOEWDIN ATOMIC CHARGES
----------------------
   0 B :   -0.531922
   1 B :   -0.531920
   2 F :    0.780930
   3 F :    0.780933
   4 H :   -0.249009
   5 H :   -0.249012

  Mayer bond orders larger than 0.100000
B(  0-B ,  1-B ) :   0.9996 B(  0-B ,  3-F ) :   0.4648 B(  0-B ,  5-H ) :   0.9574
B(  1-B ,  2-F ) :   0.4648 B(  1-B ,  4-H ) :   0.9574

MP2 TOTAL ENERGY:     -250.361023290 Eh
FINAL SINGLE POINT ENERGY      -250.361023289953

DIPOLE MOMENT
-------------
                                X             Y             Z
Electronic contribution:      0.00004      -1.60613      -0.00010
Nuclear contribution   :     -0.00003       2.05131       0.00009
                        -----------------------------------------
Total Dipole Moment    :      0.00001       0.44518      -0.00001
                        -----------------------------------------
Magnitude (a.u.)       :      0.44518
Magnitude (Debye)      :      1.13155

Rotational constants in cm-1:     0.948434     0.123698     0.120026
Rotational constants in MHz : 28433.321148  3708.372858  3598.287194

                             ****ORCA TERMINATED NORMALLY****
TOTAL RUN TIME: 0 days 0 hours 6 minutes 18 seconds 119 msec
