                         Program Version 5.0.4 -  RELEASE  -
|  1> ! ri-mp2 aug-cc-pvdz aug-cc-pvdz/c tightscf
|  2> %pal nprocs 16 end
|  3> %maxcore 3800
|  4> %base "DZ_S-S_42_AB"
|  5> %scf
|  6> STABPerform true
|  7> STABRestartUHFifUnstable true
|  8> end
|  9>
| 10> *xyz 0 1
| 11> S        -1.251245   -1.050018   -0.308658
| 12> S         0.304730   -0.867433    0.974409
| 13> C        -2.206072    0.395450    0.115917
| 14> S         1.607995    0.347659   -0.106057
| 15> F         2.181270   -0.683002   -1.136514
| 16> O         0.915962    1.311888   -0.871623
| 17> O         2.659296    0.653440    0.787738
| 18> O        -1.997165    1.229180    0.907542
| 19> F        -3.289268    0.370548   -0.667915
| 20> *
| 21>
| 22> $new_job
| 23> ! ri-mp2 aug-cc-pvtz aug-cc-pvtz/c tightscf
| 24> %pal nprocs 16 end
| 25> %maxcore 3800
| 26> %base "TZ_S-S_42_AB"
| 27>
| 28> *xyz 0 1
| 29> S        -1.251245   -1.050018   -0.308658
| 30> S         0.304730   -0.867433    0.974409
| 31> C        -2.206072    0.395450    0.115917
| 32> S         1.607995    0.347659   -0.106057
| 33> F         2.181270   -0.683002   -1.136514
| 34> O         0.915962    1.311888   -0.871623
| 35> O         2.659296    0.653440    0.787738
| 36> O        -1.997165    1.229180    0.907542
| 37> F        -3.289268    0.370548   -0.667915
| 38> *
| 39>
| 40> $new_job
| 41> ! ri-mp2 aug-cc-pvqz aug-cc-pvqz/c tightscf
| 42> %pal nprocs 16 end
| 43> %maxcore 3800
| 44> %base "QZ_S-S_42_AB"
| 45>
| 46> *xyz 0 1
| 47> S        -1.251245   -1.050018   -0.308658
| 48> S         0.304730   -0.867433    0.974409
| 49> C        -2.206072    0.395450    0.115917
| 50> S         1.607995    0.347659   -0.106057
| 51> F         2.181270   -0.683002   -1.136514
| 52> O         0.915962    1.311888   -0.871623
| 53> O         2.659296    0.653440    0.787738
| 54> O        -1.997165    1.229180    0.907542
| 55> F        -3.289268    0.370548   -0.667915
| 56> *
| 57>
| 58>
| 59>
| 60>
| 61>                          ****END OF INPUT****
 Total Charge           Charge          ....    0
 Multiplicity           Mult            ....    1
 Number of Electrons    NEL             ....   96
MP2 TOTAL ENERGY:    -1655.448493663 Eh
FINAL SINGLE POINT ENERGY     -1655.448493662812
MP2 TOTAL ENERGY:    -1656.036060746 Eh
FINAL SINGLE POINT ENERGY     -1656.036060746424

CARTESIAN COORDINATES (ANGSTROEM)
---------------------------------
  S     -1.251245   -1.050018   -0.308658
  S      0.304730   -0.867433    0.974409
  C     -2.206072    0.395450    0.115917
  S      1.607995    0.347659   -0.106057
  F      2.181270   -0.683002   -1.136514
  O      0.915962    1.311888   -0.871623
  O      2.659296    0.653440    0.787738
  O     -1.997165    1.229180    0.907542
  F     -3.289268    0.370548   -0.667915

 Multiplicity           Mult            ....    1
 Number of Electrons    NEL             ....   96
 Basis Dimension        Dim             ....  732

ORBITAL ENERGIES
----------------

  NO   OCC          E(Eh)            E(eV)
   0   2.0000     -92.277958     -2511.0109
   1   2.0000     -92.070517     -2505.3661
   2   2.0000     -92.065445     -2505.2281
   3   2.0000     -26.384104      -717.9480
   4   2.0000     -26.373935      -717.6712
   5   2.0000     -20.619639      -561.0889
   6   2.0000     -20.611787      -560.8752
   7   2.0000     -20.611195      -560.8591
   8   2.0000     -11.480667      -312.4048
   9   2.0000      -9.240029      -251.4340
  10   2.0000      -9.070373      -246.8174
  11   2.0000      -9.065883      -246.6952
  12   2.0000      -6.926699      -188.4851
  13   2.0000      -6.925144      -188.4427
  14   2.0000      -6.924070      -188.4135
  15   2.0000      -6.751066      -183.7058
  16   2.0000      -6.749966      -183.6759
  17   2.0000      -6.748799      -183.6442
  18   2.0000      -6.746928      -183.5932
  19   2.0000      -6.745660      -183.5587
  20   2.0000      -6.744808      -183.5355
  21   2.0000      -1.715487       -46.6808
  22   2.0000      -1.703841       -46.3639
  23   2.0000      -1.513339       -41.1801
  24   2.0000      -1.480180       -40.2777
  25   2.0000      -1.422053       -38.6960
  26   2.0000      -1.157331       -31.4926
  27   2.0000      -1.027991       -27.9731
  28   2.0000      -0.927361       -25.2348
  29   2.0000      -0.878115       -23.8947
  30   2.0000      -0.806010       -21.9326
  31   2.0000      -0.778457       -21.1829
  32   2.0000      -0.777644       -21.1608
  33   2.0000      -0.766868       -20.8675
  34   2.0000      -0.762274       -20.7425
  35   2.0000      -0.749267       -20.3886
  36   2.0000      -0.690694       -18.7947
  37   2.0000      -0.684065       -18.6143
  38   2.0000      -0.650945       -17.7131
  39   2.0000      -0.605063       -16.4646
  40   2.0000      -0.601799       -16.3758
  41   2.0000      -0.582370       -15.8471
  42   2.0000      -0.550230       -14.9725
  43   2.0000      -0.544740       -14.8231
  44   2.0000      -0.530492       -14.4354
  45   2.0000      -0.514435       -13.9985
  46   2.0000      -0.455818       -12.4034
  47   2.0000      -0.446192       -12.1415
  48   0.0000       0.028974         0.7884
  49   0.0000       0.035367         0.9624
  50   0.0000       0.048622         1.3231
  51   0.0000       0.054067         1.4713
  52   0.0000       0.057425         1.5626

MULLIKEN ATOMIC CHARGES
-----------------------
   0 S :    0.199562
   1 S :    0.124554
   2 C :    0.879225
   3 S :    2.510300
   4 F :   -0.588267
   5 O :   -1.027514
   6 O :   -1.040775
   7 O :   -0.548627
   8 F :   -0.508458
Sum of atomic charges:   -0.0000000

LOEWDIN ATOMIC CHARGES
----------------------
   0 S :    0.629284
   1 S :    0.511005
   2 C :   -1.861785
   3 S :   -1.251270
   4 F :    0.388416
   5 O :    0.201463
   6 O :    0.190026
   7 O :    0.541248
   8 F :    0.651612

  Mayer bond orders larger than 0.100000
B(  0-S ,  1-S ) :   1.1440 B(  0-S ,  2-C ) :   1.0135 B(  1-S ,  3-S ) :   0.9786
B(  2-C ,  7-O ) :   1.7932 B(  2-C ,  8-F ) :   0.6852 B(  3-S ,  4-F ) :   0.4886
B(  3-S ,  5-O ) :   1.3140 B(  3-S ,  6-O ) :   1.2892

MP2 TOTAL ENERGY:    -1656.231779081 Eh
FINAL SINGLE POINT ENERGY     -1656.231779080797

DIPOLE MOMENT
-------------
                                X             Y             Z
Electronic contribution:     -1.52163      -1.73187      -1.68718
Nuclear contribution   :      1.02013       0.37824       1.65060
                        -----------------------------------------
Total Dipole Moment    :     -0.50150      -1.35363      -0.03658
                        -----------------------------------------
Magnitude (a.u.)       :      1.44400
Magnitude (Debye)      :      3.67037

Rotational constants in cm-1:     0.070981     0.021526     0.020657
Rotational constants in MHz :  2127.958827   645.348215   619.283176

                             ****ORCA TERMINATED NORMALLY****
TOTAL RUN TIME: 0 days 0 hours 48 minutes 28 seconds 404 msec
