                         Program Version 5.0.4 -  RELEASE  -
|  1> ! ri-mp2 aug-cc-pvdz aug-cc-pvdz/c tightscf
|  2> %pal nprocs 16 end
|  3> %maxcore 3800
|  4> %base "DZ_B-S_45_AB"
|  5>
|  6> *xyz 0 1
|  7> F         0.378695    2.334594   -0.000150
|  8> F         0.378686   -2.334592    0.000151
|  9> S        -2.062213    0.000174    1.600980
| 10> S        -2.062213   -0.000170   -1.600980
| 11> B        -1.265514    0.000002   -0.000000
| 12> C         1.046898    1.168421   -0.000081
| 13> C         2.423915    1.202663   -0.000078
| 14> C         3.108991   -0.000004   -0.000000
| 15> C         2.423911   -1.202669    0.000077
| 16> C         1.046893   -1.168421    0.000080
| 17> C         0.304313    0.000001   -0.000000
| 18> H         2.934734    2.154366   -0.000138
| 19> H         4.190150   -0.000006    0.000000
| 20> H         2.934726   -2.154374    0.000138
| 21> H        -3.343587    0.000135    1.208429
| 22> H        -3.343588   -0.000154   -1.208429
| 23> *
| 24>
| 25> $new_job
| 26> ! ri-mp2 aug-cc-pvtz aug-cc-pvtz/c tightscf
| 27> %pal nprocs 16 end
| 28> %maxcore 3800
| 29> %base "TZ_B-S_45_AB"
| 30>
| 31> *xyz 0 1
| 32> F         0.378695    2.334594   -0.000150
| 33> F         0.378686   -2.334592    0.000151
| 34> S        -2.062213    0.000174    1.600980
| 35> S        -2.062213   -0.000170   -1.600980
| 36> B        -1.265514    0.000002   -0.000000
| 37> C         1.046898    1.168421   -0.000081
| 38> C         2.423915    1.202663   -0.000078
| 39> C         3.108991   -0.000004   -0.000000
| 40> C         2.423911   -1.202669    0.000077
| 41> C         1.046893   -1.168421    0.000080
| 42> C         0.304313    0.000001   -0.000000
| 43> H         2.934734    2.154366   -0.000138
| 44> H         4.190150   -0.000006    0.000000
| 45> H         2.934726   -2.154374    0.000138
| 46> H        -3.343587    0.000135    1.208429
| 47> H        -3.343588   -0.000154   -1.208429
| 48> *
| 49>
| 50> $new_job
| 51> ! ri-mp2 aug-cc-pvqz aug-cc-pvqz/c tightscf
| 52> %pal nprocs 16 end
| 53> %maxcore 3800
| 54> %base "QZ_B-S_45_AB"
| 55>
| 56> *xyz 0 1
| 57> F         0.378695    2.334594   -0.000150
| 58> F         0.378686   -2.334592    0.000151
| 59> S        -2.062213    0.000174    1.600980
| 60> S        -2.062213   -0.000170   -1.600980
| 61> B        -1.265514    0.000002   -0.000000
| 62> C         1.046898    1.168421   -0.000081
| 63> C         2.423915    1.202663   -0.000078
| 64> C         3.108991   -0.000004   -0.000000
| 65> C         2.423911   -1.202669    0.000077
| 66> C         1.046893   -1.168421    0.000080
| 67> C         0.304313    0.000001   -0.000000
| 68> H         2.934734    2.154366   -0.000138
| 69> H         4.190150   -0.000006    0.000000
| 70> H         2.934726   -2.154374    0.000138
| 71> H        -3.343587    0.000135    1.208429
| 72> H        -3.343588   -0.000154   -1.208429
| 73> *
| 74>
| 75>
| 76>
| 77>
| 78>                          ****END OF INPUT****
 Total Charge           Charge          ....    0
 Multiplicity           Mult            ....    1
 Number of Electrons    NEL             ....   96
MP2 TOTAL ENERGY:    -1250.431758348 Eh
FINAL SINGLE POINT ENERGY     -1250.431758348198
MP2 TOTAL ENERGY:    -1250.914191400 Eh
FINAL SINGLE POINT ENERGY     -1250.914191399576

CARTESIAN COORDINATES (ANGSTROEM)
---------------------------------
  F      0.378695    2.334594   -0.000150
  F      0.378686   -2.334592    0.000151
  S     -2.062213    0.000174    1.600980
  S     -2.062213   -0.000170   -1.600980
  B     -1.265514    0.000002   -0.000000
  C      1.046898    1.168421   -0.000081
  C      2.423915    1.202663   -0.000078
  C      3.108991   -0.000004   -0.000000
  C      2.423911   -1.202669    0.000077
  C      1.046893   -1.168421    0.000080
  C      0.304313    0.000001   -0.000000
  H      2.934734    2.154366   -0.000138
  H      4.190150   -0.000006    0.000000
  H      2.934726   -2.154374    0.000138
  H     -3.343587    0.000135    1.208429
  H     -3.343588   -0.000154   -1.208429

 Multiplicity           Mult            ....    1
 Number of Electrons    NEL             ....   96
 Basis Dimension        Dim             .... 1118

ORBITAL ENERGIES
----------------

  NO   OCC          E(Eh)            E(eV)
   0   2.0000     -91.964348     -2502.4771
   1   2.0000     -91.964348     -2502.4771
   2   2.0000     -26.317228      -716.1282
   3   2.0000     -26.317228      -716.1282
   4   2.0000     -11.344442      -308.6980
   5   2.0000     -11.344435      -308.6978
   6   2.0000     -11.264059      -306.5106
   7   2.0000     -11.247130      -306.0500
   8   2.0000     -11.247067      -306.0482
   9   2.0000     -11.242237      -305.9168
  10   2.0000      -8.969362      -244.0688
  11   2.0000      -8.969354      -244.0685
  12   2.0000      -7.667471      -208.6425
  13   2.0000      -6.650892      -180.9800
  14   2.0000      -6.650889      -180.9799
  15   2.0000      -6.649821      -180.9508
  16   2.0000      -6.649819      -180.9508
  17   2.0000      -6.649405      -180.9395
  18   2.0000      -6.649404      -180.9395
  19   2.0000      -1.639537       -44.6141
  20   2.0000      -1.638915       -44.5971
  21   2.0000      -1.185272       -32.2529
  22   2.0000      -1.060043       -28.8452
  23   2.0000      -1.039093       -28.2751
  24   2.0000      -1.013282       -27.5728
  25   2.0000      -0.970455       -26.4074
  26   2.0000      -0.878938       -23.9171
  27   2.0000      -0.869185       -23.6517
  28   2.0000      -0.779901       -21.2222
  29   2.0000      -0.748520       -20.3683
  30   2.0000      -0.719008       -19.5652
  31   2.0000      -0.711053       -19.3487
  32   2.0000      -0.701936       -19.1006
  33   2.0000      -0.686761       -18.6877
  34   2.0000      -0.673131       -18.3168
  35   2.0000      -0.657741       -17.8980
  36   2.0000      -0.594365       -16.1735
  37   2.0000      -0.592621       -16.1260
  38   2.0000      -0.571179       -15.5426
  39   2.0000      -0.559548       -15.2261
  40   2.0000      -0.534723       -14.5505
  41   2.0000      -0.518042       -14.0966
  42   2.0000      -0.500176       -13.6105
  43   2.0000      -0.442936       -12.0529
  44   2.0000      -0.435245       -11.8436
  45   2.0000      -0.377630       -10.2758
  46   2.0000      -0.359745        -9.7892
  47   2.0000      -0.352878        -9.6023
  48   0.0000       0.021356         0.5811
  49   0.0000       0.026018         0.7080
  50   0.0000       0.031379         0.8539
  51   0.0000       0.039605         1.0777
  52   0.0000       0.041182         1.1206

MULLIKEN ATOMIC CHARGES
-----------------------
   0 F :   -0.794069
   1 F :   -0.794069
   2 S :   -0.052077
   3 S :   -0.052077
   4 B :    0.458225
   5 C :    0.764232
   6 C :   -0.408692
   7 C :   -0.394998
   8 C :   -0.408696
   9 C :    0.764247
  10 C :    0.009110
  11 H :    0.376202
  12 H :    0.224564
  13 H :    0.376202
  14 H :   -0.034053
  15 H :   -0.034052
Sum of atomic charges:    0.0000000

LOEWDIN ATOMIC CHARGES
----------------------
   0 F :    0.812550
   1 F :    0.812550
   2 S :    1.742799
   3 S :    1.742798
   4 B :   -1.733728
   5 C :   -0.745107
   6 C :    0.309087
   7 C :    0.323158
   8 C :    0.309089
   9 C :   -0.745107
  10 C :   -0.265780
  11 H :   -0.329132
  12 H :   -0.313049
  13 H :   -0.329132
  14 H :   -0.795499
  15 H :   -0.795497

  Mayer bond orders larger than 0.100000
B(  0-F ,  5-C ) :  -0.1374 B(  0-F , 10-C ) :   0.1114 B(  1-F ,  9-C ) :  -0.1374
B(  1-F , 10-C ) :   0.1114 B(  2-S ,  4-B ) :   1.0446 B(  2-S , 10-C ) :  -0.1148
B(  2-S , 14-H ) :   1.1007 B(  3-S ,  4-B ) :   1.0446 B(  3-S , 10-C ) :  -0.1148
B(  3-S , 15-H ) :   1.1007 B(  4-B , 10-C ) :   0.7988 B(  5-C ,  6-C ) :   1.3699
B(  5-C ,  8-C ) :   0.1358 B(  5-C , 10-C ) :   1.2747 B(  6-C ,  7-C ) :   1.2296
B(  6-C ,  9-C ) :   0.1358 B(  6-C , 10-C ) :  -0.2192 B(  6-C , 11-H ) :   0.8690
B(  6-C , 12-H ) :  -0.1252 B(  7-C ,  8-C ) :   1.2296 B(  7-C , 12-H ) :   1.1551
B(  8-C ,  9-C ) :   1.3699 B(  8-C , 10-C ) :  -0.2192 B(  8-C , 12-H ) :  -0.1252
B(  8-C , 13-H ) :   0.8690 B(  9-C , 10-C ) :   1.2747

MP2 TOTAL ENERGY:    -1251.072318252 Eh
FINAL SINGLE POINT ENERGY     -1251.072318251699

DIPOLE MOMENT
-------------
                                X             Y             Z
Electronic contribution:     -3.29187       0.00003       0.00000
Nuclear contribution   :      3.57823      -0.00003      -0.00000
                        -----------------------------------------
Total Dipole Moment    :      0.28636      -0.00001      -0.00000
                        -----------------------------------------
Magnitude (a.u.)       :      0.28636
Magnitude (Debye)      :      0.72787

Rotational constants in cm-1:     0.037355     0.020943     0.018291
Rotational constants in MHz :  1119.879349   627.849427   548.352158

                             ****ORCA TERMINATED NORMALLY****
TOTAL RUN TIME: 0 days 0 hours 44 minutes 33 seconds 550 msec
