                         Program Version 5.0.4 -  RELEASE  -
|  1> ! ri-mp2 aug-cc-pvdz aug-cc-pvdz/c tightscf
|  2> %pal nprocs 16 end
|  3> %maxcore 3800
|  4> %base "DZ_Si-F_16_AB"
|  5>
|  6> *xyz 0 1
|  7> Si        -0.937501    0.000001   -0.000001
|  8> C         0.023019    1.451568   -0.000001
|  9> F        -2.521644   -0.000001   -0.000001
| 10> C         0.023017   -1.451567    0.000001
| 11> C         1.398863    1.234160    0.000000
| 12> C         2.042261   -0.000001    0.000001
| 13> C         1.398862   -1.234162    0.000001
| 14> H        -0.347586   -2.466104    0.000001
| 15> H         3.123519   -0.000002    0.000002
| 16> H         2.037661   -2.111814    0.000002
| 17> H        -0.347581    2.466106   -0.000002
| 18> H         2.037663    2.111812    0.000000
| 19> *
| 20>
| 21> $new_job
| 22> ! ri-mp2 aug-cc-pvtz aug-cc-pvtz/c tightscf
| 23> %pal nprocs 16 end
| 24> %maxcore 3800
| 25> %base "TZ_Si-F_16_AB"
| 26>
| 27> *xyz 0 1
| 28> Si        -0.937501    0.000001   -0.000001
| 29> C         0.023019    1.451568   -0.000001
| 30> F        -2.521644   -0.000001   -0.000001
| 31> C         0.023017   -1.451567    0.000001
| 32> C         1.398863    1.234160    0.000000
| 33> C         2.042261   -0.000001    0.000001
| 34> C         1.398862   -1.234162    0.000001
| 35> H        -0.347586   -2.466104    0.000001
| 36> H         3.123519   -0.000002    0.000002
| 37> H         2.037661   -2.111814    0.000002
| 38> H        -0.347581    2.466106   -0.000002
| 39> H         2.037663    2.111812    0.000000
| 40> *
| 41>
| 42> $new_job
| 43> ! ri-mp2 aug-cc-pvqz aug-cc-pvqz/c tightscf
| 44> %pal nprocs 16 end
| 45> %maxcore 3800
| 46> %base "QZ_Si-F_16_AB"
| 47>
| 48> *xyz 0 1
| 49> Si        -0.937501    0.000001   -0.000001
| 50> C         0.023019    1.451568   -0.000001
| 51> F        -2.521644   -0.000001   -0.000001
| 52> C         0.023017   -1.451567    0.000001
| 53> C         1.398863    1.234160    0.000000
| 54> C         2.042261   -0.000001    0.000001
| 55> C         1.398862   -1.234162    0.000001
| 56> H        -0.347586   -2.466104    0.000001
| 57> H         3.123519   -0.000002    0.000002
| 58> H         2.037661   -2.111814    0.000002
| 59> H        -0.347581    2.466106   -0.000002
| 60> H         2.037663    2.111812    0.000000
| 61> *
| 62>
| 63>
| 64>
| 65>
| 66>                          ****END OF INPUT****
 Total Charge           Charge          ....    0
 Multiplicity           Mult            ....    1
 Number of Electrons    NEL             ....   58
MP2 TOTAL ENERGY:     -581.639574939 Eh
FINAL SINGLE POINT ENERGY      -581.639574939072
MP2 TOTAL ENERGY:     -581.931346295 Eh
FINAL SINGLE POINT ENERGY      -581.931346294785

CARTESIAN COORDINATES (ANGSTROEM)
---------------------------------
  Si    -0.937501    0.000001   -0.000001
  C      0.023019    1.451568   -0.000001
  F     -2.521644   -0.000001   -0.000001
  C      0.023017   -1.451567    0.000001
  C      1.398863    1.234160    0.000000
  C      2.042261   -0.000001    0.000001
  C      1.398862   -1.234162    0.000001
  H     -0.347586   -2.466104    0.000001
  H      3.123519   -0.000002    0.000002
  H      2.037661   -2.111814    0.000002
  H     -0.347581    2.466106   -0.000002
  H      2.037663    2.111812    0.000000

 Multiplicity           Mult            ....    1
 Number of Electrons    NEL             ....   58
 Basis Dimension        Dim             ....  794

ORBITAL ENERGIES
----------------

  NO   OCC          E(Eh)            E(eV)
   0   2.0000     -68.808939     -1872.3864
   1   2.0000     -26.312612      -716.0026
   2   2.0000     -11.257849      -306.3417
   3   2.0000     -11.257842      -306.3415
   4   2.0000     -11.221269      -305.3462
   5   2.0000     -11.221260      -305.3460
   6   2.0000     -11.216605      -305.2193
   7   2.0000      -6.158848      -167.5908
   8   2.0000      -4.266438      -116.0957
   9   2.0000      -4.264910      -116.0541
  10   2.0000      -4.263518      -116.0162
  11   2.0000      -1.614639       -43.9366
  12   2.0000      -1.119398       -30.4604
  13   2.0000      -1.022580       -27.8258
  14   2.0000      -0.939092       -25.5540
  15   2.0000      -0.811031       -22.0693
  16   2.0000      -0.781583       -21.2679
  17   2.0000      -0.716321       -19.4921
  18   2.0000      -0.691595       -18.8193
  19   2.0000      -0.689879       -18.7726
  20   2.0000      -0.680690       -18.5225
  21   2.0000      -0.603949       -16.4343
  22   2.0000      -0.583452       -15.8765
  23   2.0000      -0.568196       -15.4614
  24   2.0000      -0.519035       -14.1237
  25   2.0000      -0.485172       -13.2022
  26   2.0000      -0.455216       -12.3870
  27   2.0000      -0.362368        -9.8605
  28   2.0000      -0.291233        -7.9249
  29   0.0000       0.023234         0.6322
  30   0.0000       0.028260         0.7690
  31   0.0000       0.030219         0.8223
  32   0.0000       0.042272         1.1503
  33   0.0000       0.042488         1.1562

MULLIKEN ATOMIC CHARGES
-----------------------
   0 Si:    1.944660
   1 C :   -0.978433
   2 F :   -0.728485
   3 C :   -0.978434
   4 C :   -0.310119
   5 C :   -0.326171
   6 C :   -0.310118
   7 H :    0.401468
   8 H :    0.293310
   9 H :    0.295427
  10 H :    0.401470
  11 H :    0.295425
Sum of atomic charges:    0.0000000

LOEWDIN ATOMIC CHARGES
----------------------
   0 Si:    0.033827
   1 C :    0.338616
   2 F :    0.420003
   3 C :    0.338615
   4 C :    0.211505
   5 C :    0.289339
   6 C :    0.211506
   7 H :   -0.418252
   8 H :   -0.350426
   9 H :   -0.328241
  10 H :   -0.418252
  11 H :   -0.328240

  Mayer bond orders larger than 0.100000
B(  0-Si,  1-C ) :   1.0720 B(  0-Si,  2-F ) :   0.6775 B(  0-Si,  3-C ) :   1.0720
B(  1-C ,  2-F ) :  -0.1357 B(  1-C ,  3-C ) :   0.1713 B(  1-C ,  4-C ) :   1.3308
B(  1-C , 10-H ) :   0.8546 B(  2-F ,  3-C ) :  -0.1357 B(  3-C ,  6-C ) :   1.3308
B(  3-C ,  7-H ) :   0.8546 B(  4-C ,  5-C ) :   1.2110 B(  4-C , 11-H ) :   0.9936
B(  5-C ,  6-C ) :   1.2110 B(  5-C ,  8-H ) :   0.9919 B(  6-C ,  9-H ) :   0.9936

MP2 TOTAL ENERGY:     -582.025933516 Eh
FINAL SINGLE POINT ENERGY      -582.025933515533

DIPOLE MOMENT
-------------
                                X             Y             Z
Electronic contribution:     -8.52990       0.00000      -0.00001
Nuclear contribution   :      8.78866      -0.00000       0.00000
                        -----------------------------------------
Total Dipole Moment    :      0.25875       0.00000      -0.00000
                        -----------------------------------------
Magnitude (a.u.)       :      0.25875
Magnitude (Debye)      :      0.65770

Rotational constants in cm-1:     0.155433     0.064755     0.045711
Rotational constants in MHz :  4659.755557  1941.304349  1370.386553

                             ****ORCA TERMINATED NORMALLY****
TOTAL RUN TIME: 0 days 0 hours 13 minutes 48 seconds 495 msec
