                         Program Version 5.0.4 -  RELEASE  -
|  1> ! ri-mp2 aug-cc-pvdz aug-cc-pvdz/c tightscf
|  2> %pal nprocs 16 end
|  3> %maxcore 3800
|  4> %base "DZ_B-S_47_A"
|  5> %scf
|  6> STABPerform true
|  7> STABRestartUHFifUnstable true
|  8> end
|  9>
| 10> *xyz 0 2
| 11> S        -2.502102   -0.032669    0.000006
| 12> S        -0.940373    1.098454   -0.000013
| 13> C         0.538324   -0.026203   -0.000001
| 14> Cl         1.918325    1.081394   -0.000028
| 15> Cl         0.565820   -1.037644   -1.442058
| 16> Cl         0.565835   -1.037593    1.442092
| 17> *
| 18>
| 19> $new_job
| 20> ! ri-mp2 aug-cc-pvtz aug-cc-pvtz/c tightscf
| 21> %pal nprocs 16 end
| 22> %maxcore 3800
| 23> %base "TZ_B-S_47_A"
| 24>
| 25> *xyz 0 2
| 26> S        -2.502102   -0.032669    0.000006
| 27> S        -0.940373    1.098454   -0.000013
| 28> C         0.538324   -0.026203   -0.000001
| 29> Cl         1.918325    1.081394   -0.000028
| 30> Cl         0.565820   -1.037644   -1.442058
| 31> Cl         0.565835   -1.037593    1.442092
| 32> *
| 33>
| 34> $new_job
| 35> ! ri-mp2 aug-cc-pvqz aug-cc-pvqz/c tightscf
| 36> %pal nprocs 16 end
| 37> %maxcore 3800
| 38> %base "QZ_B-S_47_A"
| 39>
| 40> *xyz 0 2
| 41> S        -2.502102   -0.032669    0.000006
| 42> S        -0.940373    1.098454   -0.000013
| 43> C         0.538324   -0.026203   -0.000001
| 44> Cl         1.918325    1.081394   -0.000028
| 45> Cl         0.565820   -1.037644   -1.442058
| 46> Cl         0.565835   -1.037593    1.442092
| 47> *
| 48>
| 49>
| 50>
| 51>
| 52>                          ****END OF INPUT****
 Total Charge           Charge          ....    0
 Multiplicity           Mult            ....    2
 Number of Electrons    NEL             ....   89
MP2 TOTAL ENERGY:    -2212.264083198 Eh
FINAL SINGLE POINT ENERGY     -2212.264083198194
MP2 TOTAL ENERGY:    -2212.579059555 Eh
FINAL SINGLE POINT ENERGY     -2212.579059555479

CARTESIAN COORDINATES (ANGSTROEM)
---------------------------------
  S     -2.502102   -0.032669    0.000006
  S     -0.940373    1.098454   -0.000013
  C      0.538324   -0.026203   -0.000001
  Cl     1.918325    1.081394   -0.000028
  Cl     0.565820   -1.037644   -1.442058
  Cl     0.565835   -1.037593    1.442092

 Multiplicity           Mult            ....    2
 Number of Electrons    NEL             ....   89
 Basis Dimension        Dim             ....  500

ORBITAL ENERGIES
----------------
                 SPIN UP ORBITALS
  NO   OCC          E(Eh)            E(eV)
   0   1.0000    -104.876546     -2853.8359
   1   1.0000    -104.872409     -2853.7233
   2   1.0000    -104.872409     -2853.7233
   3   1.0000     -92.038532     -2504.4958
   4   1.0000     -92.007559     -2503.6530
   5   1.0000     -11.464953      -311.9772
   6   1.0000     -10.602240      -288.5016
   7   1.0000     -10.598192      -288.3915
   8   1.0000     -10.598182      -288.3912
   9   1.0000      -9.037805      -245.9312
  10   1.0000      -9.009208      -245.1530
  11   1.0000      -8.069197      -219.5740
  12   1.0000      -8.067213      -219.5200
  13   1.0000      -8.067146      -219.5182
  14   1.0000      -8.065333      -219.4689
  15   1.0000      -8.065331      -219.4688
  16   1.0000      -8.063133      -219.4090
  17   1.0000      -8.063133      -219.4090
  18   1.0000      -8.063066      -219.4072
  19   1.0000      -8.063064      -219.4071
  20   1.0000      -6.721222      -182.8938
  21   1.0000      -6.717936      -182.8043
  22   1.0000      -6.716320      -182.7603
  23   1.0000      -6.702416      -182.3820
  24   1.0000      -6.687187      -181.9676
  25   1.0000      -6.685400      -181.9190
  26   1.0000      -1.264637       -34.4125
  27   1.0000      -1.127646       -30.6848
  28   1.0000      -1.124737       -30.6056
  29   1.0000      -1.111647       -30.2495
  30   1.0000      -0.922747       -25.1092
  31   1.0000      -0.797102       -21.6902
  32   1.0000      -0.650304       -17.6957
  33   1.0000      -0.648043       -17.6341
  34   1.0000      -0.641792       -17.4640
  35   1.0000      -0.548988       -14.9387
  36   1.0000      -0.537975       -14.6390
  37   1.0000      -0.505669       -13.7599
  38   1.0000      -0.502453       -13.6724
  39   1.0000      -0.482400       -13.1268
  40   1.0000      -0.471716       -12.8360
  41   1.0000      -0.467358       -12.7175
  42   1.0000      -0.459049       -12.4914
  43   1.0000      -0.399256       -10.8643
  44   1.0000      -0.383698       -10.4410
  45   0.0000       0.039022         1.0618
  46   0.0000       0.045530         1.2389
  47   0.0000       0.054319         1.4781
  48   0.0000       0.056601         1.5402
  49   0.0000       0.065366         1.7787

                 SPIN DOWN ORBITALS
  NO   OCC          E(Eh)            E(eV)
   0   1.0000    -104.876568     -2853.8365
   1   1.0000    -104.872317     -2853.7208
   2   1.0000    -104.872317     -2853.7208
   3   1.0000     -92.035999     -2504.4268
   4   1.0000     -91.999410     -2503.4312
   5   1.0000     -11.465640      -311.9959
   6   1.0000     -10.602265      -288.5023
   7   1.0000     -10.598102      -288.3890
   8   1.0000     -10.598093      -288.3888
   9   1.0000      -9.034962      -245.8538
  10   1.0000      -9.000252      -244.9093
  11   1.0000      -8.069253      -219.5755
  12   1.0000      -8.067246      -219.5209
  13   1.0000      -8.067163      -219.5187
  14   1.0000      -8.064933      -219.4580
  15   1.0000      -8.064931      -219.4579
  16   1.0000      -8.063077      -219.4075
  17   1.0000      -8.063075      -219.4074
  18   1.0000      -8.063018      -219.4059
  19   1.0000      -8.063018      -219.4059
  20   1.0000      -6.716573      -182.7672
  21   1.0000      -6.715577      -182.7401
  22   1.0000      -6.709684      -182.5798
  23   1.0000      -6.682949      -181.8523
  24   1.0000      -6.680478      -181.7850
  25   1.0000      -6.665983      -181.3906
  26   1.0000      -1.263282       -34.3756
  27   1.0000      -1.127396       -30.6780
  28   1.0000      -1.123905       -30.5830
  29   1.0000      -1.083991       -29.4969
  30   1.0000      -0.884225       -24.0610
  31   1.0000      -0.770920       -20.9778
  32   1.0000      -0.646891       -17.6028
  33   1.0000      -0.645409       -17.5625
  34   1.0000      -0.633433       -17.2366
  35   1.0000      -0.531209       -14.4549
  36   1.0000      -0.520470       -14.1627
  37   1.0000      -0.495822       -13.4920
  38   1.0000      -0.480767       -13.0823
  39   1.0000      -0.478682       -13.0256
  40   1.0000      -0.466277       -12.6880
  41   1.0000      -0.458705       -12.4820
  42   1.0000      -0.423447       -11.5226
  43   1.0000      -0.384450       -10.4614
  44   0.0000      -0.004025        -0.1095
  45   0.0000       0.039386         1.0717
  46   0.0000       0.046609         1.2683
  47   0.0000       0.054349         1.4789
  48   0.0000       0.057203         1.5566

MULLIKEN ATOMIC CHARGES AND SPIN POPULATIONS
--------------------------------------------
   0 S :   -0.083259    0.866487
   1 S :    0.128036    0.143619
   2 C :    0.333859   -0.027643
   3 Cl:   -0.142499    0.000350
   4 Cl:   -0.118068    0.008594
   5 Cl:   -0.118068    0.008594
Sum of atomic charges         :    0.0000000

LOEWDIN ATOMIC CHARGES AND SPIN POPULATIONS
-------------------------------------------
   0 S :    0.332903    0.664435
   1 S :    0.059163    0.290799
   2 C :   -3.112669    0.029687
   3 Cl:    0.903675    0.002040
   4 Cl:    0.908464    0.006520
   5 Cl:    0.908463    0.006520

  Mayer bond orders larger than 0.100000
B(  0-S ,  1-S ) :   1.4513 B(  1-S ,  2-C ) :   0.8069 B(  2-C ,  3-Cl) :   0.8415
B(  2-C ,  4-Cl) :   0.8291 B(  2-C ,  5-Cl) :   0.8291

MP2 TOTAL ENERGY:    -2212.685234007 Eh
FINAL SINGLE POINT ENERGY     -2212.685234007070

DIPOLE MOMENT
-------------
                                X             Y             Z
Electronic contribution:      3.86005      -1.22146       0.00001
Nuclear contribution   :     -3.89935       1.27219      -0.00001
                        -----------------------------------------
Total Dipole Moment    :     -0.03930       0.05073      -0.00000
                        -----------------------------------------
Magnitude (a.u.)       :      0.06417
Magnitude (Debye)      :      0.16312

Rotational constants in cm-1:     0.055459     0.031623     0.031095
Rotational constants in MHz :  1662.632175   948.046397   932.213149

                             ****ORCA TERMINATED NORMALLY****
TOTAL RUN TIME: 0 days 0 hours 24 minutes 39 seconds 988 msec
