                         Program Version 5.0.4 -  RELEASE  -
|  1> ! ri-mp2 aug-cc-pvdz aug-cc-pvdz/c tightscf
|  2> %pal nprocs 16 end
|  3> %maxcore 3800
|  4> %base "DZ_Si-Si_89_AB"
|  5> %scf
|  6> STABPerform true
|  7> STABRestartUHFifUnstable true
|  8> end
|  9>
| 10> *xyz 0 1
| 11> Si         2.380791   -0.463518    0.480219
| 12> Si         0.836927    0.936892   -0.565402
| 13> H         1.771630   -1.021429    1.708691
| 14> H         3.585303    0.304885    0.883608
| 15> H         2.807211   -1.557961   -0.413131
| 16> N        -0.819229    0.603824   -0.020280
| 17> H         0.921934    0.859521   -2.039042
| 18> H         1.018992    2.358593   -0.179397
| 19> C        -1.148082   -0.703463   -0.174475
| 20> O        -0.312429   -1.463588   -0.648591
| 21> C        -2.510431   -1.176320    0.243417
| 22> H        -3.292498   -0.628191   -0.282805
| 23> H        -2.662011   -1.018057    1.311886
| 24> H        -2.593139   -2.234806    0.019400
| 25> C        -1.745419    1.584102    0.518887
| 26> H        -1.238603    2.541810    0.600884
| 27> H        -2.094729    1.304775    1.514034
| 28> H        -2.614525    1.719641   -0.127849
| 29> *
| 30>
| 31> $new_job
| 32> ! ri-mp2 aug-cc-pvtz aug-cc-pvtz/c tightscf
| 33> %pal nprocs 16 end
| 34> %maxcore 3800
| 35> %base "TZ_Si-Si_89_AB"
| 36>
| 37> *xyz 0 1
| 38> Si         2.380791   -0.463518    0.480219
| 39> Si         0.836927    0.936892   -0.565402
| 40> H         1.771630   -1.021429    1.708691
| 41> H         3.585303    0.304885    0.883608
| 42> H         2.807211   -1.557961   -0.413131
| 43> N        -0.819229    0.603824   -0.020280
| 44> H         0.921934    0.859521   -2.039042
| 45> H         1.018992    2.358593   -0.179397
| 46> C        -1.148082   -0.703463   -0.174475
| 47> O        -0.312429   -1.463588   -0.648591
| 48> C        -2.510431   -1.176320    0.243417
| 49> H        -3.292498   -0.628191   -0.282805
| 50> H        -2.662011   -1.018057    1.311886
| 51> H        -2.593139   -2.234806    0.019400
| 52> C        -1.745419    1.584102    0.518887
| 53> H        -1.238603    2.541810    0.600884
| 54> H        -2.094729    1.304775    1.514034
| 55> H        -2.614525    1.719641   -0.127849
| 56> *
| 57>
| 58> $new_job
| 59> ! ri-mp2 aug-cc-pvqz aug-cc-pvqz/c tightscf
| 60> %pal nprocs 16 end
| 61> %maxcore 3800
| 62> %base "QZ_Si-Si_89_AB"
| 63>
| 64> *xyz 0 1
| 65> Si         2.380791   -0.463518    0.480219
| 66> Si         0.836927    0.936892   -0.565402
| 67> H         1.771630   -1.021429    1.708691
| 68> H         3.585303    0.304885    0.883608
| 69> H         2.807211   -1.557961   -0.413131
| 70> N        -0.819229    0.603824   -0.020280
| 71> H         0.921934    0.859521   -2.039042
| 72> H         1.018992    2.358593   -0.179397
| 73> C        -1.148082   -0.703463   -0.174475
| 74> O        -0.312429   -1.463588   -0.648591
| 75> C        -2.510431   -1.176320    0.243417
| 76> H        -3.292498   -0.628191   -0.282805
| 77> H        -2.662011   -1.018057    1.311886
| 78> H        -2.593139   -2.234806    0.019400
| 79> C        -1.745419    1.584102    0.518887
| 80> H        -1.238603    2.541810    0.600884
| 81> H        -2.094729    1.304775    1.514034
| 82> H        -2.614525    1.719641   -0.127849
| 83> *
| 84>
| 85>
| 86>
| 87>
| 88>                          ****END OF INPUT****
 Total Charge           Charge          ....    0
 Multiplicity           Mult            ....    1
 Number of Electrons    NEL             ....   72
MP2 TOTAL ENERGY:     -828.261696108 Eh
FINAL SINGLE POINT ENERGY      -828.261696107733
MP2 TOTAL ENERGY:     -828.559771598 Eh
FINAL SINGLE POINT ENERGY      -828.559771598235

CARTESIAN COORDINATES (ANGSTROEM)
---------------------------------
  Si     2.380791   -0.463518    0.480219
  Si     0.836927    0.936892   -0.565402
  H      1.771630   -1.021429    1.708691
  H      3.585303    0.304885    0.883608
  H      2.807211   -1.557961   -0.413131
  N     -0.819229    0.603824   -0.020280
  H      0.921934    0.859521   -2.039042
  H      1.018992    2.358593   -0.179397
  C     -1.148082   -0.703463   -0.174475
  O     -0.312429   -1.463588   -0.648591
  C     -2.510431   -1.176320    0.243417
  H     -3.292498   -0.628191   -0.282805
  H     -2.662011   -1.018057    1.311886
  H     -2.593139   -2.234806    0.019400
  C     -1.745419    1.584102    0.518887
  H     -1.238603    2.541810    0.600884
  H     -2.094729    1.304775    1.514034
  H     -2.614525    1.719641   -0.127849

 Multiplicity           Mult            ....    1
 Number of Electrons    NEL             ....   72
 Basis Dimension        Dim             .... 1074

ORBITAL ENERGIES
----------------

  NO   OCC          E(Eh)            E(eV)
   0   2.0000     -68.780124     -1871.6023
   1   2.0000     -68.753518     -1870.8783
   2   2.0000     -20.526017      -558.5413
   3   2.0000     -15.573046      -423.7641
   4   2.0000     -11.355372      -308.9954
   5   2.0000     -11.273681      -306.7725
   6   2.0000     -11.241774      -305.9042
   7   2.0000      -6.126995      -166.7240
   8   2.0000      -6.104149      -166.1023
   9   2.0000      -4.233796      -115.2074
  10   2.0000      -4.233069      -115.1877
  11   2.0000      -4.232906      -115.1832
  12   2.0000      -4.210263      -114.5671
  13   2.0000      -4.210233      -114.5663
  14   2.0000      -4.210071      -114.5619
  15   2.0000      -1.395195       -37.9652
  16   2.0000      -1.226012       -33.3615
  17   2.0000      -1.016685       -27.6654
  18   2.0000      -0.958728       -26.0883
  19   2.0000      -0.790001       -21.4970
  20   2.0000      -0.720941       -19.6178
  21   2.0000      -0.689796       -18.7703
  22   2.0000      -0.680808       -18.5257
  23   2.0000      -0.653397       -17.7798
  24   2.0000      -0.622069       -16.9273
  25   2.0000      -0.588609       -16.0169
  26   2.0000      -0.578327       -15.7371
  27   2.0000      -0.570049       -15.5118
  28   2.0000      -0.536375       -14.5955
  29   2.0000      -0.517065       -14.0701
  30   2.0000      -0.487895       -13.2763
  31   2.0000      -0.471339       -12.8258
  32   2.0000      -0.458730       -12.4827
  33   2.0000      -0.441302       -12.0084
  34   2.0000      -0.411221       -11.1899
  35   2.0000      -0.374010       -10.1773
  36   0.0000       0.018855         0.5131
  37   0.0000       0.029955         0.8151
  38   0.0000       0.030521         0.8305
  39   0.0000       0.034970         0.9516
  40   0.0000       0.042181         1.1478

MULLIKEN ATOMIC CHARGES
-----------------------
   0 Si:    0.472482
   1 Si:    0.685344
   2 H :   -0.156945
   3 H :   -0.233130
   4 H :   -0.144546
   5 N :   -0.310131
   6 H :   -0.246332
   7 H :   -0.322263
   8 C :    0.989789
   9 O :   -0.860525
  10 C :   -0.715385
  11 H :    0.241227
  12 H :    0.236661
  13 H :    0.316856
  14 C :   -0.963954
  15 H :    0.400198
  16 H :    0.300418
  17 H :    0.310234
Sum of atomic charges:   -0.0000000

LOEWDIN ATOMIC CHARGES
----------------------
   0 Si:    1.037612
   1 Si:    0.496649
   2 H :   -0.296584
   3 H :   -0.323383
   4 H :   -0.300775
   5 N :    0.314840
   6 H :   -0.238213
   7 H :   -0.249802
   8 C :   -0.953419
   9 O :    0.708341
  10 C :    0.902207
  11 H :   -0.291150
  12 H :   -0.289471
  13 H :   -0.309793
  14 C :    0.697902
  15 H :   -0.331655
  16 H :   -0.290363
  17 H :   -0.282942

  Mayer bond orders larger than 0.100000
B(  0-Si,  1-Si) :   0.7599 B(  0-Si,  2-H ) :   0.7537 B(  0-Si,  3-H ) :   0.7097
B(  0-Si,  4-H ) :   0.7688 B(  0-Si,  5-N ) :  -0.1022 B(  1-Si,  5-N ) :   0.9117
B(  1-Si,  6-H ) :   0.7950 B(  1-Si,  7-H ) :   0.8029 B(  5-N ,  8-C ) :   1.0611
B(  5-N ,  9-O ) :   0.1753 B(  5-N , 14-C ) :   0.7808 B(  8-C ,  9-O ) :   1.2519
B(  8-C , 10-C ) :   0.7418 B( 10-C , 11-H ) :   1.0001 B( 10-C , 12-H ) :   0.9694
B( 10-C , 13-H ) :   0.9597 B( 14-C , 15-H ) :   0.8267 B( 14-C , 16-H ) :   0.9572
B( 14-C , 17-H ) :   0.9666

MP2 TOTAL ENERGY:     -828.654621443 Eh
FINAL SINGLE POINT ENERGY      -828.654621442717

DIPOLE MOMENT
-------------
                                X             Y             Z
Electronic contribution:      3.38701      -1.75533      -2.48193
Nuclear contribution   :     -4.66178       2.61773       3.03424
                        -----------------------------------------
Total Dipole Moment    :     -1.27476       0.86240       0.55231
                        -----------------------------------------
Magnitude (a.u.)       :      1.63518
Magnitude (Debye)      :      4.15629

Rotational constants in cm-1:     0.089018     0.040085     0.031696
Rotational constants in MHz :  2668.696618  1201.719846   950.213620

                             ****ORCA TERMINATED NORMALLY****
TOTAL RUN TIME: 0 days 2 hours 38 minutes 31 seconds 900 msec
