                         Program Version 5.0.4 -  RELEASE  -
|  1> ! ri-mp2 aug-cc-pvdz aug-cc-pvdz/c tightscf
|  2> %pal nprocs 16 end
|  3> %maxcore 3800
|  4> %base "DZ_Si-Si_144_AB"
|  5> %scf
|  6> STABPerform true
|  7> STABRestartUHFifUnstable true
|  8> end
|  9>
| 10> *xyz 0 1
| 11> Si         1.072383    2.034578    0.696026
| 12> Si        -0.837883    2.067924   -0.667591
| 13> P        -1.899176   -0.632115    0.145016
| 14> O        -3.411176   -0.948322    0.432611
| 15> O        -1.562666   -1.463627   -1.123764
| 16> H        -3.538456   -1.431218    1.256153
| 17> H        -0.611569   -1.308403   -1.389779
| 18> O        -1.021828   -0.874204    1.313769
| 19> P         1.817757   -0.720485   -0.177922
| 20> O         3.246743   -1.212954   -0.598958
| 21> H         3.813628   -1.484168    0.131634
| 22> O         1.401657   -1.670528    0.981498
| 23> H         0.447974   -1.494170    1.253931
| 24> O         0.893510   -0.652215   -1.324914
| 25> O        -1.930547    0.869783   -0.282147
| 26> H        -0.512906    1.981670   -2.101227
| 27> H        -1.550231    3.334207   -0.396948
| 28> O         2.043098    0.697985    0.457984
| 29> H         0.712971    2.079798    2.126285
| 30> H         1.906538    3.208908    0.366821
| 31> *
| 32>
| 33> $new_job
| 34> ! ri-mp2 aug-cc-pvtz aug-cc-pvtz/c tightscf
| 35> %pal nprocs 16 end
| 36> %maxcore 3800
| 37> %base "TZ_Si-Si_144_AB"
| 38>
| 39> *xyz 0 1
| 40> Si         1.072383    2.034578    0.696026
| 41> Si        -0.837883    2.067924   -0.667591
| 42> P        -1.899176   -0.632115    0.145016
| 43> O        -3.411176   -0.948322    0.432611
| 44> O        -1.562666   -1.463627   -1.123764
| 45> H        -3.538456   -1.431218    1.256153
| 46> H        -0.611569   -1.308403   -1.389779
| 47> O        -1.021828   -0.874204    1.313769
| 48> P         1.817757   -0.720485   -0.177922
| 49> O         3.246743   -1.212954   -0.598958
| 50> H         3.813628   -1.484168    0.131634
| 51> O         1.401657   -1.670528    0.981498
| 52> H         0.447974   -1.494170    1.253931
| 53> O         0.893510   -0.652215   -1.324914
| 54> O        -1.930547    0.869783   -0.282147
| 55> H        -0.512906    1.981670   -2.101227
| 56> H        -1.550231    3.334207   -0.396948
| 57> O         2.043098    0.697985    0.457984
| 58> H         0.712971    2.079798    2.126285
| 59> H         1.906538    3.208908    0.366821
| 60> *
| 61>
| 62> $new_job
| 63> ! ri-mp2 aug-cc-pvqz aug-cc-pvqz/c tightscf
| 64> %pal nprocs 16 end
| 65> %maxcore 3800
| 66> %base "QZ_Si-Si_144_AB"
| 67>
| 68> *xyz 0 1
| 69> Si         1.072383    2.034578    0.696026
| 70> Si        -0.837883    2.067924   -0.667591
| 71> P        -1.899176   -0.632115    0.145016
| 72> O        -3.411176   -0.948322    0.432611
| 73> O        -1.562666   -1.463627   -1.123764
| 74> H        -3.538456   -1.431218    1.256153
| 75> H        -0.611569   -1.308403   -1.389779
| 76> O        -1.021828   -0.874204    1.313769
| 77> P         1.817757   -0.720485   -0.177922
| 78> O         3.246743   -1.212954   -0.598958
| 79> H         3.813628   -1.484168    0.131634
| 80> O         1.401657   -1.670528    0.981498
| 81> H         0.447974   -1.494170    1.253931
| 82> O         0.893510   -0.652215   -1.324914
| 83> O        -1.930547    0.869783   -0.282147
| 84> H        -0.512906    1.981670   -2.101227
| 85> H        -1.550231    3.334207   -0.396948
| 86> O         2.043098    0.697985    0.457984
| 87> H         0.712971    2.079798    2.126285
| 88> H         1.906538    3.208908    0.366821
| 89> *
| 90>
| 91>
| 92>
| 93>
| 94>                          ****END OF INPUT****
 Total Charge           Charge          ....    0
 Multiplicity           Mult            ....    1
 Number of Electrons    NEL             ....  130
MP2 TOTAL ENERGY:    -1865.341903356 Eh
FINAL SINGLE POINT ENERGY     -1865.341903355685
MP2 TOTAL ENERGY:    -1866.110410485 Eh
FINAL SINGLE POINT ENERGY     -1866.110410485043

CARTESIAN COORDINATES (ANGSTROEM)
---------------------------------
  Si     1.072383    2.034578    0.696026
  Si    -0.837883    2.067924   -0.667591
  P     -1.899176   -0.632115    0.145016
  O     -3.411176   -0.948322    0.432611
  O     -1.562666   -1.463627   -1.123764
  H     -3.538456   -1.431218    1.256153
  H     -0.611569   -1.308403   -1.389779
  O     -1.021828   -0.874204    1.313769
  P      1.817757   -0.720485   -0.177922
  O      3.246743   -1.212954   -0.598958
  H      3.813628   -1.484168    0.131634
  O      1.401657   -1.670528    0.981498
  H      0.447974   -1.494170    1.253931
  O      0.893510   -0.652215   -1.324914
  O     -1.930547    0.869783   -0.282147
  H     -0.512906    1.981670   -2.101227
  H     -1.550231    3.334207   -0.396948
  O      2.043098    0.697985    0.457984
  H      0.712971    2.079798    2.126285
  H      1.906538    3.208908    0.366821

 Multiplicity           Mult            ....    1
 Number of Electrons    NEL             ....  130
 Basis Dimension        Dim             .... 1344

ORBITAL ENERGIES
----------------

  NO   OCC          E(Eh)            E(eV)
   0   2.0000     -80.109970     -2179.9031
   1   2.0000     -80.109752     -2179.8972
   2   2.0000     -68.816901     -1872.6031
   3   2.0000     -68.816205     -1872.5841
   4   2.0000     -20.613161      -560.9126
   5   2.0000     -20.610589      -560.8426
   6   2.0000     -20.595106      -560.4213
   7   2.0000     -20.593982      -560.3907
   8   2.0000     -20.585063      -560.1481
   9   2.0000     -20.582381      -560.0750
  10   2.0000     -20.533946      -558.7571
  11   2.0000     -20.532151      -558.7082
  12   2.0000      -7.627110      -207.5442
  13   2.0000      -7.627095      -207.5438
  14   2.0000      -6.162223      -167.6826
  15   2.0000      -6.161247      -167.6560
  16   2.0000      -5.526274      -150.3776
  17   2.0000      -5.526240      -150.3766
  18   2.0000      -5.525852      -150.3661
  19   2.0000      -5.525802      -150.3647
  20   2.0000      -5.525038      -150.3439
  21   2.0000      -5.524962      -150.3418
  22   2.0000      -4.269210      -116.1711
  23   2.0000      -4.268569      -116.1537
  24   2.0000      -4.268352      -116.1478
  25   2.0000      -4.268188      -116.1433
  26   2.0000      -4.267498      -116.1245
  27   2.0000      -4.267230      -116.1172
  28   2.0000      -1.472514       -40.0691
  29   2.0000      -1.466528       -39.9062
  30   2.0000      -1.397135       -38.0180
  31   2.0000      -1.394389       -37.9433
  32   2.0000      -1.381974       -37.6054
  33   2.0000      -1.379852       -37.5477
  34   2.0000      -1.328139       -36.1405
  35   2.0000      -1.320819       -35.9413
  36   2.0000      -0.891602       -24.2617
  37   2.0000      -0.870856       -23.6972
  38   2.0000      -0.799698       -21.7609
  39   2.0000      -0.783387       -21.3171
  40   2.0000      -0.776235       -21.1224
  41   2.0000      -0.743338       -20.2273
  42   2.0000      -0.707468       -19.2512
  43   2.0000      -0.703435       -19.1415
  44   2.0000      -0.676222       -18.4009
  45   2.0000      -0.664089       -18.0708
  46   2.0000      -0.641273       -17.4499
  47   2.0000      -0.629526       -17.1303
  48   2.0000      -0.628842       -17.1117
  49   2.0000      -0.615288       -16.7428
  50   2.0000      -0.608794       -16.5661
  51   2.0000      -0.601263       -16.3612
  52   2.0000      -0.583061       -15.8659
  53   2.0000      -0.579677       -15.7738
  54   2.0000      -0.572208       -15.5706
  55   2.0000      -0.556382       -15.1399
  56   2.0000      -0.549601       -14.9554
  57   2.0000      -0.544477       -14.8160
  58   2.0000      -0.505607       -13.7583
  59   2.0000      -0.500128       -13.6092
  60   2.0000      -0.496470       -13.5096
  61   2.0000      -0.492373       -13.3981
  62   2.0000      -0.484000       -13.1703
  63   2.0000      -0.474111       -12.9012
  64   2.0000      -0.414956       -11.2915
  65   0.0000       0.020848         0.5673
  66   0.0000       0.026055         0.7090
  67   0.0000       0.028665         0.7800
  68   0.0000       0.033759         0.9186
  69   0.0000       0.043235         1.1765

MULLIKEN ATOMIC CHARGES
-----------------------
   0 Si:    1.159124
   1 Si:    1.288035
   2 P :    2.964079
   3 O :   -1.090060
   4 O :   -1.035755
   5 H :    0.357343
   6 H :    0.405656
   7 O :   -1.192337
   8 P :    3.031303
   9 O :   -1.109818
  10 H :    0.388340
  11 O :   -1.028342
  12 H :    0.406571
  13 O :   -1.161412
  14 O :   -0.973262
  15 H :   -0.247770
  16 H :   -0.487955
  17 O :   -1.049684
  18 H :   -0.244509
  19 H :   -0.379548
Sum of atomic charges:    0.0000000

LOEWDIN ATOMIC CHARGES
----------------------
   0 Si:    0.438093
   1 Si:    0.425727
   2 P :   -0.990366
   3 O :    1.104967
   4 O :    1.092479
   5 H :   -0.855637
   6 H :   -1.245265
   7 O :    0.580711
   8 P :   -1.008651
   9 O :    1.101510
  10 H :   -0.842146
  11 O :    1.085649
  12 H :   -1.276502
  13 O :    0.547793
  14 O :    0.458763
  15 H :   -0.258358
  16 H :   -0.276083
  17 O :    0.455355
  18 H :   -0.263636
  19 H :   -0.274403

  Mayer bond orders larger than 0.100000
B(  0-Si,  1-Si) :   1.0281 B(  0-Si, 17-O ) :   0.4265 B(  0-Si, 18-H ) :   0.8487
B(  0-Si, 19-H ) :   0.7765 B(  1-Si, 14-O ) :   0.4084 B(  1-Si, 15-H ) :   0.8320
B(  1-Si, 16-H ) :   0.6674 B(  2-P ,  3-O ) :   0.2539 B(  2-P ,  4-O ) :   0.6763
B(  2-P ,  7-O ) :   1.1466 B(  2-P , 14-O ) :   0.6934 B(  3-O ,  5-H ) :   0.9229
B(  3-O ,  7-O ) :  -0.1057 B(  3-O , 14-O ) :  -0.1414 B(  4-O ,  6-H ) :   0.7331
B(  6-H , 13-O ) :   0.1443 B(  7-O , 12-H ) :   0.1839 B(  8-P ,  9-O ) :   0.2221
B(  8-P , 11-O ) :   0.6290 B(  8-P , 13-O ) :   1.1197 B(  8-P , 17-O ) :   0.6859
B(  9-O , 10-H ) :   0.8661 B(  9-O , 13-O ) :  -0.1406 B( 11-O , 12-H ) :   0.7730

MP2 TOTAL ENERGY:    -1866.357758536 Eh
FINAL SINGLE POINT ENERGY     -1866.357758535823

DIPOLE MOMENT
-------------
                                X             Y             Z
Electronic contribution:     -0.33722      -5.03338      -0.32324
Nuclear contribution   :      0.69724       5.61244       1.22395
                        -----------------------------------------
Total Dipole Moment    :      0.36002       0.57905       0.90071
                        -----------------------------------------
Magnitude (a.u.)       :      1.12969
Magnitude (Debye)      :      2.87145

Rotational constants in cm-1:     0.027841     0.016385     0.012574
Rotational constants in MHz :   834.654735   491.197407   376.962986

                             ****ORCA TERMINATED NORMALLY****
TOTAL RUN TIME: 0 days 4 hours 7 minutes 57 seconds 152 msec
