                         Program Version 5.0.4 -  RELEASE  -
|  1> ! ri-mp2 aug-cc-pvdz aug-cc-pvdz/c tightscf
|  2> %pal nprocs 16 end
|  3> %maxcore 3800
|  4> %base "DZ_P-Si_39_AB"
|  5> %scf
|  6> STABPerform true
|  7> STABRestartUHFifUnstable true
|  8> end
|  9>
| 10> *xyz 0 1
| 11> Si        -1.090136    0.000000    0.007067
| 12> P         1.159765    0.000000   -0.118070
| 13> H         1.324923   -1.034898    0.832154
| 14> H         1.324923    1.034899    0.832153
| 15> H        -1.588153   -1.203785   -0.692098
| 16> H        -1.588153    1.203784   -0.692100
| 17> H        -1.608111    0.000001    1.392004
| 18> *
| 19>
| 20> $new_job
| 21> ! ri-mp2 aug-cc-pvtz aug-cc-pvtz/c tightscf
| 22> %pal nprocs 16 end
| 23> %maxcore 3800
| 24> %base "TZ_P-Si_39_AB"
| 25>
| 26> *xyz 0 1
| 27> Si        -1.090136    0.000000    0.007067
| 28> P         1.159765    0.000000   -0.118070
| 29> H         1.324923   -1.034898    0.832154
| 30> H         1.324923    1.034899    0.832153
| 31> H        -1.588153   -1.203785   -0.692098
| 32> H        -1.588153    1.203784   -0.692100
| 33> H        -1.608111    0.000001    1.392004
| 34> *
| 35>
| 36> $new_job
| 37> ! ri-mp2 aug-cc-pvqz aug-cc-pvqz/c tightscf
| 38> %pal nprocs 16 end
| 39> %maxcore 3800
| 40> %base "QZ_P-Si_39_AB"
| 41>
| 42> *xyz 0 1
| 43> Si        -1.090136    0.000000    0.007067
| 44> P         1.159765    0.000000   -0.118070
| 45> H         1.324923   -1.034898    0.832154
| 46> H         1.324923    1.034899    0.832153
| 47> H        -1.588153   -1.203785   -0.692098
| 48> H        -1.588153    1.203784   -0.692100
| 49> H        -1.608111    0.000001    1.392004
| 50> *
| 51>
| 52>
| 53>
| 54>
| 55>                          ****END OF INPUT****
 Total Charge           Charge          ....    0
 Multiplicity           Mult            ....    1
 Number of Electrons    NEL             ....   34
MP2 TOTAL ENERGY:     -632.820346928 Eh
FINAL SINGLE POINT ENERGY      -632.820346927731
MP2 TOTAL ENERGY:     -632.903975737 Eh
FINAL SINGLE POINT ENERGY      -632.903975736786

CARTESIAN COORDINATES (ANGSTROEM)
---------------------------------
  Si    -1.090136    0.000000    0.007067
  P      1.159765    0.000000   -0.118070
  H      1.324923   -1.034898    0.832154
  H      1.324923    1.034899    0.832153
  H     -1.588153   -1.203785   -0.692098
  H     -1.588153    1.203784   -0.692100
  H     -1.608111    0.000001    1.392004

 Multiplicity           Mult            ....    1
 Number of Electrons    NEL             ....   34
 Basis Dimension        Dim             ....  398

ORBITAL ENERGIES
----------------

  NO   OCC          E(Eh)            E(eV)
   0   2.0000     -79.936311     -2175.1776
   1   2.0000     -68.781062     -1871.6279
   2   2.0000      -7.481017      -203.5688
   3   2.0000      -6.130306      -166.8141
   4   2.0000      -5.374830      -146.2566
   5   2.0000      -5.374544      -146.2488
   6   2.0000      -5.373914      -146.2316
   7   2.0000      -4.236607      -115.2839
   8   2.0000      -4.236410      -115.2786
   9   2.0000      -4.236243      -115.2740
  10   2.0000      -0.858888       -23.3715
  11   2.0000      -0.702564       -19.1177
  12   2.0000      -0.536676       -14.6037
  13   2.0000      -0.501085       -13.6352
  14   2.0000      -0.482375       -13.1261
  15   2.0000      -0.445517       -12.1231
  16   2.0000      -0.370729       -10.0880
  17   0.0000       0.025801         0.7021
  18   0.0000       0.033546         0.9128
  19   0.0000       0.039571         1.0768
  20   0.0000       0.042596         1.1591
  21   0.0000       0.056546         1.5387

MULLIKEN ATOMIC CHARGES
-----------------------
   0 Si:    0.545390
   1 P :    0.015256
   2 H :   -0.060304
   3 H :   -0.060303
   4 H :   -0.151547
   5 H :   -0.151547
   6 H :   -0.136945
Sum of atomic charges:    0.0000000

LOEWDIN ATOMIC CHARGES
----------------------
   0 Si:    0.774604
   1 P :    1.344540
   2 H :   -0.575313
   3 H :   -0.575313
   4 H :   -0.326739
   5 H :   -0.326739
   6 H :   -0.315041

  Mayer bond orders larger than 0.100000
B(  0-Si,  1-P ) :   0.8638 B(  0-Si,  4-H ) :   0.8067 B(  0-Si,  5-H ) :   0.8067
B(  0-Si,  6-H ) :   0.8109 B(  1-P ,  2-H ) :   0.8972 B(  1-P ,  3-H ) :   0.8972

MP2 TOTAL ENERGY:     -632.931028338 Eh
FINAL SINGLE POINT ENERGY      -632.931028337875

DIPOLE MOMENT
-------------
                                X             Y             Z
Electronic contribution:      3.02221      -0.00000      -1.50695
Nuclear contribution   :     -3.16077       0.00000       1.77730
                        -----------------------------------------
Total Dipole Moment    :     -0.13855       0.00000       0.27035
                        -----------------------------------------
Magnitude (a.u.)       :      0.30379
Magnitude (Debye)      :      0.77216

Rotational constants in cm-1:     1.734183     0.185630     0.184734
Rotational constants in MHz : 51989.494246  5565.032692  5538.181860

                             ****ORCA TERMINATED NORMALLY****
TOTAL RUN TIME: 0 days 0 hours 4 minutes 17 seconds 946 msec
