                         Program Version 5.0.4 -  RELEASE  -
|  1> ! ri-mp2 aug-cc-pvdz aug-cc-pvdz/c tightscf
|  2> %pal nprocs 16 end
|  3> %maxcore 3800
|  4> %base "DZ_B-Cl_4_AB"
|  5> %scf
|  6> STABPerform true
|  7> STABRestartUHFifUnstable true
|  8> end
|  9>
| 10> *xyz 0 1
| 11> Cl         1.522790   -0.540658   -0.000008
| 12> Cl        -1.522791   -0.540657    0.000004
| 13> N         0.000001    1.729444    0.000004
| 14> B        -0.000000    0.348323    0.000007
| 15> H         0.849282    2.267313   -0.000001
| 16> H        -0.849279    2.267315    0.000005
| 17> *
| 18>
| 19> $new_job
| 20> ! ri-mp2 aug-cc-pvtz aug-cc-pvtz/c tightscf
| 21> %pal nprocs 16 end
| 22> %maxcore 3800
| 23> %base "TZ_B-Cl_4_AB"
| 24>
| 25> *xyz 0 1
| 26> Cl         1.522790   -0.540658   -0.000008
| 27> Cl        -1.522791   -0.540657    0.000004
| 28> N         0.000001    1.729444    0.000004
| 29> B        -0.000000    0.348323    0.000007
| 30> H         0.849282    2.267313   -0.000001
| 31> H        -0.849279    2.267315    0.000005
| 32> *
| 33>
| 34> $new_job
| 35> ! ri-mp2 aug-cc-pvqz aug-cc-pvqz/c tightscf
| 36> %pal nprocs 16 end
| 37> %maxcore 3800
| 38> %base "QZ_B-Cl_4_AB"
| 39>
| 40> *xyz 0 1
| 41> Cl         1.522790   -0.540658   -0.000008
| 42> Cl        -1.522791   -0.540657    0.000004
| 43> N         0.000001    1.729444    0.000004
| 44> B        -0.000000    0.348323    0.000007
| 45> H         0.849282    2.267313   -0.000001
| 46> H        -0.849279    2.267315    0.000005
| 47> *
| 48>
| 49>
| 50>
| 51>
| 52>                          ****END OF INPUT****
 Total Charge           Charge          ....    0
 Multiplicity           Mult            ....    1
 Number of Electrons    NEL             ....   48
MP2 TOTAL ENERGY:    -1000.020920602 Eh
FINAL SINGLE POINT ENERGY     -1000.020920602255
MP2 TOTAL ENERGY:    -1000.212432605 Eh
FINAL SINGLE POINT ENERGY     -1000.212432604873

CARTESIAN COORDINATES (ANGSTROEM)
---------------------------------
  Cl     1.522790   -0.540658   -0.000008
  Cl    -1.522791   -0.540657    0.000004
  N      0.000001    1.729444    0.000004
  B     -0.000000    0.348323    0.000007
  H      0.849282    2.267313   -0.000001
  H     -0.849279    2.267315    0.000005

 Multiplicity           Mult            ....    1
 Number of Electrons    NEL             ....   48
 Basis Dimension        Dim             ....  420

ORBITAL ENERGIES
----------------

  NO   OCC          E(Eh)            E(eV)
   0   2.0000    -104.832202     -2852.6292
   1   2.0000    -104.832202     -2852.6292
   2   2.0000     -15.579512      -423.9401
   3   2.0000     -10.559969      -287.3514
   4   2.0000     -10.559961      -287.3511
   5   2.0000      -8.026870      -218.4222
   6   2.0000      -8.026869      -218.4222
   7   2.0000      -8.025712      -218.3907
   8   2.0000      -8.025710      -218.3907
   9   2.0000      -8.025585      -218.3873
  10   2.0000      -8.025584      -218.3872
  11   2.0000      -7.706639      -209.7083
  12   2.0000      -1.206012       -32.8173
  13   2.0000      -1.118327       -30.4312
  14   2.0000      -1.092244       -29.7215
  15   2.0000      -0.735281       -20.0080
  16   2.0000      -0.715031       -19.4570
  17   2.0000      -0.616363       -16.7721
  18   2.0000      -0.546407       -14.8685
  19   2.0000      -0.534438       -14.5428
  20   2.0000      -0.480044       -13.0627
  21   2.0000      -0.463011       -12.5992
  22   2.0000      -0.448760       -12.2114
  23   2.0000      -0.440693       -11.9919
  24   0.0000       0.021885         0.5955
  25   0.0000       0.037405         1.0178
  26   0.0000       0.040378         1.0988
  27   0.0000       0.042127         1.1463
  28   0.0000       0.058674         1.5966

MULLIKEN ATOMIC CHARGES
-----------------------
   0 Cl:   -0.226059
   1 Cl:   -0.226059
   2 N :   -0.629882
   3 B :    0.629527
   4 H :    0.226236
   5 H :    0.226236
Sum of atomic charges:    0.0000000

LOEWDIN ATOMIC CHARGES
----------------------
   0 Cl:    1.209364
   1 Cl:    1.209363
   2 N :    1.143938
   3 B :   -2.466665
   4 H :   -0.548000
   5 H :   -0.548000

  Mayer bond orders larger than 0.100000
B(  0-Cl,  2-N ) :   0.1126 B(  0-Cl,  3-B ) :   0.9979 B(  1-Cl,  2-N ) :   0.1126
B(  1-Cl,  3-B ) :   0.9979 B(  2-N ,  3-B ) :   1.2931 B(  2-N ,  4-H ) :   0.9746
B(  2-N ,  5-H ) :   0.9746

MP2 TOTAL ENERGY:    -1000.277124758 Eh
FINAL SINGLE POINT ENERGY     -1000.277124757773

DIPOLE MOMENT
-------------
                                X             Y             Z
Electronic contribution:     -0.00000      -4.26761       0.00000
Nuclear contribution   :      0.00000       5.35973       0.00000
                        -----------------------------------------
Total Dipole Moment    :      0.00000       1.09212       0.00000
                        -----------------------------------------
Magnitude (a.u.)       :      1.09212
Magnitude (Debye)      :      2.77596

Rotational constants in cm-1:     0.227944     0.101627     0.070289
Rotational constants in MHz :  6833.592347  3046.705334  2107.218115

                             ****ORCA TERMINATED NORMALLY****
TOTAL RUN TIME: 0 days 0 hours 7 minutes 57 seconds 202 msec
