                         Program Version 5.0.4 -  RELEASE  -
|  1> ! ri-mp2 aug-cc-pvdz aug-cc-pvdz/c tightscf
|  2> %pal nprocs 16 end
|  3> %maxcore 3800
|  4> %base "DZ_S-Cl_30_AB"
|  5> %scf
|  6> STABPerform true
|  7> STABRestartUHFifUnstable true
|  8> end
|  9>
| 10> *xyz 0 1
| 11> Cl         2.262019    0.374901   -0.000015
| 12> S         0.744604   -0.943495    0.000009
| 13> C        -0.643708    0.175843    0.000001
| 14> O        -0.609540    1.363794   -0.000005
| 15> O        -1.732239   -0.590242    0.000010
| 16> C        -2.983125    0.111470    0.000008
| 17> H        -3.747331   -0.658343    0.000016
| 18> H        -3.062711    0.734313   -0.888392
| 19> H        -3.062706    0.734326    0.888399
| 20> *
| 21>
| 22> $new_job
| 23> ! ri-mp2 aug-cc-pvtz aug-cc-pvtz/c tightscf
| 24> %pal nprocs 16 end
| 25> %maxcore 3800
| 26> %base "TZ_S-Cl_30_AB"
| 27>
| 28> *xyz 0 1
| 29> Cl         2.262019    0.374901   -0.000015
| 30> S         0.744604   -0.943495    0.000009
| 31> C        -0.643708    0.175843    0.000001
| 32> O        -0.609540    1.363794   -0.000005
| 33> O        -1.732239   -0.590242    0.000010
| 34> C        -2.983125    0.111470    0.000008
| 35> H        -3.747331   -0.658343    0.000016
| 36> H        -3.062711    0.734313   -0.888392
| 37> H        -3.062706    0.734326    0.888399
| 38> *
| 39>
| 40> $new_job
| 41> ! ri-mp2 aug-cc-pvqz aug-cc-pvqz/c tightscf
| 42> %pal nprocs 16 end
| 43> %maxcore 3800
| 44> %base "QZ_S-Cl_30_AB"
| 45>
| 46> *xyz 0 1
| 47> Cl         2.262019    0.374901   -0.000015
| 48> S         0.744604   -0.943495    0.000009
| 49> C        -0.643708    0.175843    0.000001
| 50> O        -0.609540    1.363794   -0.000005
| 51> O        -1.732239   -0.590242    0.000010
| 52> C        -2.983125    0.111470    0.000008
| 53> H        -3.747331   -0.658343    0.000016
| 54> H        -3.062711    0.734313   -0.888392
| 55> H        -3.062706    0.734326    0.888399
| 56> *
| 57>
| 58>
| 59>
| 60>
| 61>                          ****END OF INPUT****
 Total Charge           Charge          ....    0
 Multiplicity           Mult            ....    1
 Number of Electrons    NEL             ....   64
MP2 TOTAL ENERGY:    -1085.220465952 Eh
FINAL SINGLE POINT ENERGY     -1085.220465951755
MP2 TOTAL ENERGY:    -1085.532842288 Eh
FINAL SINGLE POINT ENERGY     -1085.532842287938

CARTESIAN COORDINATES (ANGSTROEM)
---------------------------------
  Cl     2.262019    0.374901   -0.000015
  S      0.744604   -0.943495    0.000009
  C     -0.643708    0.175843    0.000001
  O     -0.609540    1.363794   -0.000005
  O     -1.732239   -0.590242    0.000010
  C     -2.983125    0.111470    0.000008
  H     -3.747331   -0.658343    0.000016
  H     -3.062711    0.734313   -0.888392
  H     -3.062706    0.734326    0.888399

 Multiplicity           Mult            ....    1
 Number of Electrons    NEL             ....   64
 Basis Dimension        Dim             ....  626

ORBITAL ENERGIES
----------------

  NO   OCC          E(Eh)            E(eV)
   0   2.0000    -104.865120     -2853.5250
   1   2.0000     -92.035219     -2504.4056
   2   2.0000     -20.630916      -561.3958
   3   2.0000     -20.571576      -559.7810
   4   2.0000     -11.424842      -310.8858
   5   2.0000     -11.304910      -307.6222
   6   2.0000     -10.589371      -288.1514
   7   2.0000      -9.033706      -245.8196
   8   2.0000      -8.056425      -219.2265
   9   2.0000      -8.054331      -219.1695
  10   2.0000      -8.054145      -219.1644
  11   2.0000      -6.714838      -182.7200
  12   2.0000      -6.713373      -182.6802
  13   2.0000      -6.712218      -182.6487
  14   2.0000      -1.497150       -40.7395
  15   2.0000      -1.398667       -38.0597
  16   2.0000      -1.164316       -31.6827
  17   2.0000      -1.030010       -28.0280
  18   2.0000      -0.941913       -25.6308
  19   2.0000      -0.798912       -21.7395
  20   2.0000      -0.712826       -19.3970
  21   2.0000      -0.705324       -19.1928
  22   2.0000      -0.703233       -19.1359
  23   2.0000      -0.609586       -16.5877
  24   2.0000      -0.589172       -16.0322
  25   2.0000      -0.555656       -15.1202
  26   2.0000      -0.550175       -14.9710
  27   2.0000      -0.523414       -14.2428
  28   2.0000      -0.492588       -13.4040
  29   2.0000      -0.487206       -13.2576
  30   2.0000      -0.449099       -12.2206
  31   2.0000      -0.385788       -10.4978
  32   0.0000       0.022961         0.6248
  33   0.0000       0.039130         1.0648
  34   0.0000       0.041435         1.1275
  35   0.0000       0.046595         1.2679
  36   0.0000       0.052532         1.4295

MULLIKEN ATOMIC CHARGES
-----------------------
   0 Cl:   -0.258836
   1 S :    0.406187
   2 C :    0.679670
   3 O :   -0.639615
   4 O :   -0.573639
   5 C :   -0.617673
   6 H :    0.435393
   7 H :    0.284257
   8 H :    0.284257
Sum of atomic charges:   -0.0000000

LOEWDIN ATOMIC CHARGES
----------------------
   0 Cl:    0.485612
   1 S :    0.343023
   2 C :   -1.727868
   3 O :    0.577856
   4 O :    0.701308
   5 C :    0.574224
   6 H :   -0.322184
   7 H :   -0.315985
   8 H :   -0.315985

  Mayer bond orders larger than 0.100000
B(  0-Cl,  1-S ) :   1.0095 B(  1-S ,  2-C ) :   0.9440 B(  2-C ,  3-O ) :   1.6677
B(  2-C ,  4-O ) :   1.0432 B(  4-O ,  5-C ) :   0.7856 B(  5-C ,  6-H ) :   0.8077
B(  5-C ,  7-H ) :   0.9244 B(  5-C ,  8-H ) :   0.9244

MP2 TOTAL ENERGY:    -1085.635510050 Eh
FINAL SINGLE POINT ENERGY     -1085.635510050495

DIPOLE MOMENT
-------------
                                X             Y             Z
Electronic contribution:     11.53557      -0.79669      -0.00004
Nuclear contribution   :    -12.50699       0.29941       0.00004
                        -----------------------------------------
Total Dipole Moment    :     -0.97141      -0.49728       0.00001
                        -----------------------------------------
Magnitude (a.u.)       :      1.09130
Magnitude (Debye)      :      2.77386

Rotational constants in cm-1:     0.232660     0.042321     0.036051
Rotational constants in MHz :  6974.985232  1268.750438  1080.789199

                             ****ORCA TERMINATED NORMALLY****
TOTAL RUN TIME: 0 days 0 hours 20 minutes 38 seconds 958 msec
