                         Program Version 5.0.4 -  RELEASE  -
|  1> ! ri-mp2 aug-cc-pvdz aug-cc-pvdz/c tightscf
|  2> %pal nprocs 16 end
|  3> %maxcore 3800
|  4> %base "DZ_P-S_8_AB"
|  5> %scf
|  6> STABPerform true
|  7> STABRestartUHFifUnstable true
|  8> end
|  9>
| 10> *xyz 0 1
| 11> P        -1.045041    0.130178   -0.000015
| 12> S         1.063917   -0.098661    0.000012
| 13> H        -1.332801   -0.794501    1.028685
| 14> H        -1.332785   -0.794653   -1.028581
| 15> H         1.318527    1.215053   -0.000071
| 16> *
| 17>
| 18> $new_job
| 19> ! ri-mp2 aug-cc-pvtz aug-cc-pvtz/c tightscf
| 20> %pal nprocs 16 end
| 21> %maxcore 3800
| 22> %base "TZ_P-S_8_AB"
| 23>
| 24> *xyz 0 1
| 25> P        -1.045041    0.130178   -0.000015
| 26> S         1.063917   -0.098661    0.000012
| 27> H        -1.332801   -0.794501    1.028685
| 28> H        -1.332785   -0.794653   -1.028581
| 29> H         1.318527    1.215053   -0.000071
| 30> *
| 31>
| 32> $new_job
| 33> ! ri-mp2 aug-cc-pvqz aug-cc-pvqz/c tightscf
| 34> %pal nprocs 16 end
| 35> %maxcore 3800
| 36> %base "QZ_P-S_8_AB"
| 37>
| 38> *xyz 0 1
| 39> P        -1.045041    0.130178   -0.000015
| 40> S         1.063917   -0.098661    0.000012
| 41> H        -1.332801   -0.794501    1.028685
| 42> H        -1.332785   -0.794653   -1.028581
| 43> H         1.318527    1.215053   -0.000071
| 44> *
| 45>
| 46>
| 47>
| 48>
| 49>                          ****END OF INPUT****
 Total Charge           Charge          ....    0
 Multiplicity           Mult            ....    1
 Number of Electrons    NEL             ....   34
MP2 TOTAL ENERGY:     -740.299821429 Eh
FINAL SINGLE POINT ENERGY      -740.299821428938
MP2 TOTAL ENERGY:     -740.399712202 Eh
FINAL SINGLE POINT ENERGY      -740.399712202055

CARTESIAN COORDINATES (ANGSTROEM)
---------------------------------
  P     -1.045041    0.130178   -0.000015
  S      1.063917   -0.098661    0.000012
  H     -1.332801   -0.794501    1.028685
  H     -1.332785   -0.794653   -1.028581
  H      1.318527    1.215053   -0.000071

 Multiplicity           Mult            ....    1
 Number of Electrons    NEL             ....   34
 Basis Dimension        Dim             ....  306

ORBITAL ENERGIES
----------------

  NO   OCC          E(Eh)            E(eV)
   0   2.0000     -91.964003     -2502.4678
   1   2.0000     -79.973619     -2176.1928
   2   2.0000      -8.966867      -244.0009
   3   2.0000      -7.514127      -204.4698
   4   2.0000      -6.648178      -180.9061
   5   2.0000      -6.647515      -180.8881
   6   2.0000      -6.646568      -180.8623
   7   2.0000      -5.407788      -147.1534
   8   2.0000      -5.407330      -147.1409
   9   2.0000      -5.406722      -147.1244
  10   2.0000      -0.998529       -27.1714
  11   2.0000      -0.816829       -22.2271
  12   2.0000      -0.551499       -15.0070
  13   2.0000      -0.547547       -14.8995
  14   2.0000      -0.498000       -13.5513
  15   2.0000      -0.379962       -10.3393
  16   2.0000      -0.377519       -10.2728
  17   0.0000       0.026732         0.7274
  18   0.0000       0.035534         0.9669
  19   0.0000       0.048395         1.3169
  20   0.0000       0.049434         1.3452
  21   0.0000       0.074550         2.0286

MULLIKEN ATOMIC CHARGES
-----------------------
   0 P :    0.293289
   1 S :   -0.289566
   2 H :   -0.054210
   3 H :   -0.054210
   4 H :    0.104698
Sum of atomic charges:   -0.0000000

LOEWDIN ATOMIC CHARGES
----------------------
   0 P :    0.947024
   1 S :    1.157673
   2 H :   -0.582899
   3 H :   -0.582901
   4 H :   -0.938897

  Mayer bond orders larger than 0.100000
B(  0-P ,  1-S ) :   0.9567 B(  0-P ,  2-H ) :   0.8899 B(  0-P ,  3-H ) :   0.8899
B(  1-S ,  4-H ) :   0.9900

MP2 TOTAL ENERGY:     -740.431932873 Eh
FINAL SINGLE POINT ENERGY      -740.431932873037

DIPOLE MOMENT
-------------
                                X             Y             Z
Electronic contribution:      0.13292       0.52963      -0.00005
Nuclear contribution   :     -0.37179      -0.47852       0.00005
                        -----------------------------------------
Total Dipole Moment    :     -0.23887       0.05111      -0.00000
                        -----------------------------------------
Magnitude (a.u.)       :      0.24428
Magnitude (Debye)      :      0.62090

Rotational constants in cm-1:     3.051935     0.216722     0.213275
Rotational constants in MHz : 91494.721719  6497.169413  6393.813255

                             ****ORCA TERMINATED NORMALLY****
TOTAL RUN TIME: 0 days 0 hours 2 minutes 57 seconds 356 msec
