                         Program Version 5.0.4 -  RELEASE  -
|  1> ! ri-mp2 aug-cc-pvdz aug-cc-pvdz/c tightscf
|  2> %pal nprocs 16 end
|  3> %maxcore 3800
|  4> %base "DZ_Si-Si_85_AB"
|  5> %scf
|  6> STABPerform true
|  7> STABRestartUHFifUnstable true
|  8> end
|  9>
| 10> *xyz 0 1
| 11> Si        -1.116722    1.286677    0.358485
| 12> Si         1.116721    1.286678   -0.358485
| 13> C         1.853252   -0.429863   -0.005077
| 14> H         1.911238    2.292078    0.383657
| 15> H         1.173328    1.579235   -1.809359
| 16> N         2.498087   -0.699768    1.054348
| 17> H         2.614812    0.116255    1.654974
| 18> C        -1.853252   -0.429864    0.005077
| 19> H        -1.911240    2.292077   -0.383656
| 20> H        -1.173329    1.579233    1.809359
| 21> N        -2.498091   -0.699769   -1.054346
| 22> H        -2.614819    0.116255   -1.654970
| 23> C         1.611797   -1.523712   -1.002846
| 24> H         2.106781   -1.285453   -1.946940
| 25> H         0.547412   -1.628485   -1.225920
| 26> H         1.998427   -2.467264   -0.621757
| 27> C        -1.611792   -1.523715    1.002844
| 28> H        -0.547407   -1.628487    1.225913
| 29> H        -1.998423   -2.467266    0.621755
| 30> H        -2.106773   -1.285457    1.946940
| 31> *
| 32>
| 33> $new_job
| 34> ! ri-mp2 aug-cc-pvtz aug-cc-pvtz/c tightscf
| 35> %pal nprocs 16 end
| 36> %maxcore 3800
| 37> %base "TZ_Si-Si_85_AB"
| 38>
| 39> *xyz 0 1
| 40> Si        -1.116722    1.286677    0.358485
| 41> Si         1.116721    1.286678   -0.358485
| 42> C         1.853252   -0.429863   -0.005077
| 43> H         1.911238    2.292078    0.383657
| 44> H         1.173328    1.579235   -1.809359
| 45> N         2.498087   -0.699768    1.054348
| 46> H         2.614812    0.116255    1.654974
| 47> C        -1.853252   -0.429864    0.005077
| 48> H        -1.911240    2.292077   -0.383656
| 49> H        -1.173329    1.579233    1.809359
| 50> N        -2.498091   -0.699769   -1.054346
| 51> H        -2.614819    0.116255   -1.654970
| 52> C         1.611797   -1.523712   -1.002846
| 53> H         2.106781   -1.285453   -1.946940
| 54> H         0.547412   -1.628485   -1.225920
| 55> H         1.998427   -2.467264   -0.621757
| 56> C        -1.611792   -1.523715    1.002844
| 57> H        -0.547407   -1.628487    1.225913
| 58> H        -1.998423   -2.467266    0.621755
| 59> H        -2.106773   -1.285457    1.946940
| 60> *
| 61>
| 62> $new_job
| 63> ! ri-mp2 aug-cc-pvqz aug-cc-pvqz/c tightscf
| 64> %pal nprocs 16 end
| 65> %maxcore 3800
| 66> %base "QZ_Si-Si_85_AB"
| 67>
| 68> *xyz 0 1
| 69> Si        -1.116722    1.286677    0.358485
| 70> Si         1.116721    1.286678   -0.358485
| 71> C         1.853252   -0.429863   -0.005077
| 72> H         1.911238    2.292078    0.383657
| 73> H         1.173328    1.579235   -1.809359
| 74> N         2.498087   -0.699768    1.054348
| 75> H         2.614812    0.116255    1.654974
| 76> C        -1.853252   -0.429864    0.005077
| 77> H        -1.911240    2.292077   -0.383656
| 78> H        -1.173329    1.579233    1.809359
| 79> N        -2.498091   -0.699769   -1.054346
| 80> H        -2.614819    0.116255   -1.654970
| 81> C         1.611797   -1.523712   -1.002846
| 82> H         2.106781   -1.285453   -1.946940
| 83> H         0.547412   -1.628485   -1.225920
| 84> H         1.998427   -2.467264   -0.621757
| 85> C        -1.611792   -1.523715    1.002844
| 86> H        -0.547407   -1.628487    1.225913
| 87> H        -1.998423   -2.467266    0.621755
| 88> H        -2.106773   -1.285457    1.946940
| 89> *
| 90>
| 91>
| 92>
| 93>
| 94>                          ****END OF INPUT****
 Total Charge           Charge          ....    0
 Multiplicity           Mult            ....    1
 Number of Electrons    NEL             ....   78
MP2 TOTAL ENERGY:     -846.345649250 Eh
FINAL SINGLE POINT ENERGY      -846.345649250270
MP2 TOTAL ENERGY:     -846.655349116 Eh
FINAL SINGLE POINT ENERGY      -846.655349115655

CARTESIAN COORDINATES (ANGSTROEM)
---------------------------------
  Si    -1.116722    1.286677    0.358485
  Si     1.116721    1.286678   -0.358485
  C      1.853252   -0.429863   -0.005077
  H      1.911238    2.292078    0.383657
  H      1.173328    1.579235   -1.809359
  N      2.498087   -0.699768    1.054348
  H      2.614812    0.116255    1.654974
  C     -1.853252   -0.429864    0.005077
  H     -1.911240    2.292077   -0.383656
  H     -1.173329    1.579233    1.809359
  N     -2.498091   -0.699769   -1.054346
  H     -2.614819    0.116255   -1.654970
  C      1.611797   -1.523712   -1.002846
  H      2.106781   -1.285453   -1.946940
  H      0.547412   -1.628485   -1.225920
  H      1.998427   -2.467264   -0.621757
  C     -1.611792   -1.523715    1.002844
  H     -0.547407   -1.628487    1.225913
  H     -1.998423   -2.467266    0.621755
  H     -2.106773   -1.285457    1.946940

 Multiplicity           Mult            ....    1
 Number of Electrons    NEL             ....   78
 Basis Dimension        Dim             .... 1200

ORBITAL ENERGIES
----------------

  NO   OCC          E(Eh)            E(eV)
   0   2.0000     -68.781834     -1871.6488
   1   2.0000     -68.781832     -1871.6488
   2   2.0000     -15.558576      -423.3704
   3   2.0000     -15.558576      -423.3704
   4   2.0000     -11.278476      -306.9029
   5   2.0000     -11.278476      -306.9029
   6   2.0000     -11.226269      -305.4823
   7   2.0000     -11.226269      -305.4823
   8   2.0000      -6.133182      -166.8924
   9   2.0000      -6.133035      -166.8884
  10   2.0000      -4.239464      -115.3617
  11   2.0000      -4.239243      -115.3557
  12   2.0000      -4.239202      -115.3545
  13   2.0000      -4.238958      -115.3479
  14   2.0000      -4.238949      -115.3477
  15   2.0000      -4.238721      -115.3415
  16   2.0000      -1.216835       -33.1118
  17   2.0000      -1.215790       -33.0833
  18   2.0000      -0.997070       -27.1317
  19   2.0000      -0.992442       -27.0057
  20   2.0000      -0.806899       -21.9568
  21   2.0000      -0.775595       -21.1050
  22   2.0000      -0.742003       -20.1909
  23   2.0000      -0.715616       -19.4729
  24   2.0000      -0.630293       -17.1512
  25   2.0000      -0.603911       -16.4332
  26   2.0000      -0.600674       -16.3452
  27   2.0000      -0.573737       -15.6122
  28   2.0000      -0.570237       -15.5169
  29   2.0000      -0.568957       -15.4821
  30   2.0000      -0.540212       -14.6999
  31   2.0000      -0.535111       -14.5611
  32   2.0000      -0.500849       -13.6288
  33   2.0000      -0.488821       -13.3015
  34   2.0000      -0.460866       -12.5408
  35   2.0000      -0.443194       -12.0599
  36   2.0000      -0.410434       -11.1685
  37   2.0000      -0.390965       -10.6387
  38   2.0000      -0.377628       -10.2758
  39   0.0000       0.020688         0.5630
  40   0.0000       0.026857         0.7308
  41   0.0000       0.031809         0.8656
  42   0.0000       0.033638         0.9153
  43   0.0000       0.042533         1.1574

MULLIKEN ATOMIC CHARGES
-----------------------
   0 Si:    0.942861
   1 Si:    0.942860
   2 C :    0.289679
   3 H :   -0.341783
   4 H :   -0.258596
   5 N :   -0.919418
   6 H :    0.301106
   7 C :    0.289675
   8 H :   -0.341783
   9 H :   -0.258596
  10 N :   -0.919417
  11 H :    0.301106
  12 C :   -0.966637
  13 H :    0.322528
  14 H :    0.294410
  15 H :    0.335852
  16 C :   -0.966637
  17 H :    0.294412
  18 H :    0.335852
  19 H :    0.322527
Sum of atomic charges:   -0.0000000

LOEWDIN ATOMIC CHARGES
----------------------
   0 Si:    0.759469
   1 Si:    0.759469
   2 C :   -0.370040
   3 H :   -0.253864
   4 H :   -0.249884
   5 N :    0.941725
   6 H :   -0.697736
   7 C :   -0.370040
   8 H :   -0.253864
   9 H :   -0.249884
  10 N :    0.941725
  11 H :   -0.697737
  12 C :    0.804766
  13 H :   -0.296821
  14 H :   -0.324667
  15 H :   -0.312946
  16 C :    0.804767
  17 H :   -0.324669
  18 H :   -0.312947
  19 H :   -0.296821

  Mayer bond orders larger than 0.100000
B(  0-Si,  1-Si) :   0.8441 B(  0-Si,  7-C ) :   0.5901 B(  0-Si,  8-H ) :   0.7060
B(  0-Si,  9-H ) :   0.7842 B(  1-Si,  2-C ) :   0.5901 B(  1-Si,  3-H ) :   0.7060
B(  1-Si,  4-H ) :   0.7842 B(  2-C ,  5-N ) :   1.2990 B(  2-C , 12-C ) :   0.8690
B(  5-N ,  6-H ) :   0.7990 B(  7-C , 10-N ) :   1.2990 B(  7-C , 16-C ) :   0.8690
B( 10-N , 11-H ) :   0.7990 B( 12-C , 13-H ) :   0.9052 B( 12-C , 14-H ) :   0.8984
B( 12-C , 15-H ) :   0.9462 B( 16-C , 17-H ) :   0.8984 B( 16-C , 18-H ) :   0.9462
B( 16-C , 19-H ) :   0.9052

MP2 TOTAL ENERGY:     -846.753837812 Eh
FINAL SINGLE POINT ENERGY      -846.753837811722

DIPOLE MOMENT
-------------
                                X             Y             Z
Electronic contribution:     -0.00001       3.93806       0.00000
Nuclear contribution   :      0.00001      -2.99597      -0.00000
                        -----------------------------------------
Total Dipole Moment    :      0.00000       0.94209      -0.00000
                        -----------------------------------------
Magnitude (a.u.)       :      0.94209
Magnitude (Debye)      :      2.39460

Rotational constants in cm-1:     0.058181     0.032563     0.026553
Rotational constants in MHz :  1744.229732   976.206667   796.031487

                             ****ORCA TERMINATED NORMALLY****
TOTAL RUN TIME: 0 days 3 hours 55 minutes 0 seconds 734 msec
