                         Program Version 5.0.4 -  RELEASE  -
|  1> ! ri-mp2 aug-cc-pvdz aug-cc-pvdz/c tightscf
|  2> %pal nprocs 16 end
|  3> %maxcore 3800
|  4> %base "DZ_Si-S_17_AB"
|  5> %scf
|  6> STABPerform true
|  7> STABRestartUHFifUnstable true
|  8> end
|  9>
| 10> *xyz 0 1
| 11> S         0.682395    0.111842   -0.350484
| 12> Si         2.671857   -0.404649    0.489290
| 13> O         0.806190    1.400165   -0.995718
| 14> O         0.242536   -1.030510   -1.121679
| 15> C        -0.416941    0.311672    1.049704
| 16> C        -1.723308    1.004674    0.675020
| 17> H         0.134146    0.914833    1.773627
| 18> H        -0.571267   -0.684072    1.464094
| 19> C        -2.622136    0.249036   -0.299841
| 20> H        -1.484602    1.987233    0.267025
| 21> H        -2.264569    1.173422    1.609887
| 22> C        -3.015160   -1.144108    0.166872
| 23> H        -3.520938    0.851668   -0.447680
| 24> H        -2.133456    0.180662   -1.272178
| 25> H        -3.456778   -1.120027    1.166162
| 26> H        -2.156071   -1.814652    0.186126
| 27> H        -3.748978   -1.584527   -0.507834
| 28> H         3.513336   -0.590993   -0.701615
| 29> H         2.521629   -1.641417    1.276687
| 30> H         3.118702    0.718605    1.332036
| 31> *
| 32>
| 33> $new_job
| 34> ! ri-mp2 aug-cc-pvtz aug-cc-pvtz/c tightscf
| 35> %pal nprocs 16 end
| 36> %maxcore 3800
| 37> %base "TZ_Si-S_17_AB"
| 38>
| 39> *xyz 0 1
| 40> S         0.682395    0.111842   -0.350484
| 41> Si         2.671857   -0.404649    0.489290
| 42> O         0.806190    1.400165   -0.995718
| 43> O         0.242536   -1.030510   -1.121679
| 44> C        -0.416941    0.311672    1.049704
| 45> C        -1.723308    1.004674    0.675020
| 46> H         0.134146    0.914833    1.773627
| 47> H        -0.571267   -0.684072    1.464094
| 48> C        -2.622136    0.249036   -0.299841
| 49> H        -1.484602    1.987233    0.267025
| 50> H        -2.264569    1.173422    1.609887
| 51> C        -3.015160   -1.144108    0.166872
| 52> H        -3.520938    0.851668   -0.447680
| 53> H        -2.133456    0.180662   -1.272178
| 54> H        -3.456778   -1.120027    1.166162
| 55> H        -2.156071   -1.814652    0.186126
| 56> H        -3.748978   -1.584527   -0.507834
| 57> H         3.513336   -0.590993   -0.701615
| 58> H         2.521629   -1.641417    1.276687
| 59> H         3.118702    0.718605    1.332036
| 60> *
| 61>
| 62> $new_job
| 63> ! ri-mp2 aug-cc-pvqz aug-cc-pvqz/c tightscf
| 64> %pal nprocs 16 end
| 65> %maxcore 3800
| 66> %base "QZ_Si-S_17_AB"
| 67>
| 68> *xyz 0 1
| 69> S         0.682395    0.111842   -0.350484
| 70> Si         2.671857   -0.404649    0.489290
| 71> O         0.806190    1.400165   -0.995718
| 72> O         0.242536   -1.030510   -1.121679
| 73> C        -0.416941    0.311672    1.049704
| 74> C        -1.723308    1.004674    0.675020
| 75> H         0.134146    0.914833    1.773627
| 76> H        -0.571267   -0.684072    1.464094
| 77> C        -2.622136    0.249036   -0.299841
| 78> H        -1.484602    1.987233    0.267025
| 79> H        -2.264569    1.173422    1.609887
| 80> C        -3.015160   -1.144108    0.166872
| 81> H        -3.520938    0.851668   -0.447680
| 82> H        -2.133456    0.180662   -1.272178
| 83> H        -3.456778   -1.120027    1.166162
| 84> H        -2.156071   -1.814652    0.186126
| 85> H        -3.748978   -1.584527   -0.507834
| 86> H         3.513336   -0.590993   -0.701615
| 87> H         2.521629   -1.641417    1.276687
| 88> H         3.118702    0.718605    1.332036
| 89> *
| 90>
| 91>
| 92>
| 93>
| 94>                          ****END OF INPUT****
 Total Charge           Charge          ....    0
 Multiplicity           Mult            ....    1
 Number of Electrons    NEL             ....   82
MP2 TOTAL ENERGY:     -995.860472152 Eh
FINAL SINGLE POINT ENERGY      -995.860472151780
MP2 TOTAL ENERGY:     -996.267132338 Eh
FINAL SINGLE POINT ENERGY      -996.267132338466

CARTESIAN COORDINATES (ANGSTROEM)
---------------------------------
  S      0.682395    0.111842   -0.350484
  Si     2.671857   -0.404649    0.489290
  O      0.806190    1.400165   -0.995718
  O      0.242536   -1.030510   -1.121679
  C     -0.416941    0.311672    1.049704
  C     -1.723308    1.004674    0.675020
  H      0.134146    0.914833    1.773627
  H     -0.571267   -0.684072    1.464094
  C     -2.622136    0.249036   -0.299841
  H     -1.484602    1.987233    0.267025
  H     -2.264569    1.173422    1.609887
  C     -3.015160   -1.144108    0.166872
  H     -3.520938    0.851668   -0.447680
  H     -2.133456    0.180662   -1.272178
  H     -3.456778   -1.120027    1.166162
  H     -2.156071   -1.814652    0.186126
  H     -3.748978   -1.584527   -0.507834
  H      3.513336   -0.590993   -0.701615
  H      2.521629   -1.641417    1.276687
  H      3.118702    0.718605    1.332036

 Multiplicity           Mult            ....    1
 Number of Electrons    NEL             ....   82
 Basis Dimension        Dim             .... 1200

ORBITAL ENERGIES
----------------

  NO   OCC          E(Eh)            E(eV)
   0   2.0000     -92.147595     -2507.4635
   1   2.0000     -68.818488     -1872.6463
   2   2.0000     -20.534901      -558.7831
   3   2.0000     -20.534041      -558.7597
   4   2.0000     -11.270709      -306.6916
   5   2.0000     -11.238284      -305.8093
   6   2.0000     -11.217900      -305.2546
   7   2.0000     -11.208732      -305.0051
   8   2.0000      -9.121617      -248.2118
   9   2.0000      -6.806392      -185.2113
  10   2.0000      -6.805879      -185.1974
  11   2.0000      -6.805813      -185.1956
  12   2.0000      -6.168186      -167.8449
  13   2.0000      -4.274571      -116.3170
  14   2.0000      -4.273883      -116.2983
  15   2.0000      -4.273832      -116.2969
  16   2.0000      -1.441746       -39.2319
  17   2.0000      -1.331428       -36.2300
  18   2.0000      -1.102719       -30.0065
  19   2.0000      -1.020665       -27.7737
  20   2.0000      -0.927396       -25.2357
  21   2.0000      -0.851307       -23.1652
  22   2.0000      -0.789909       -21.4945
  23   2.0000      -0.749565       -20.3967
  24   2.0000      -0.676712       -18.4143
  25   2.0000      -0.665303       -18.1038
  26   2.0000      -0.644110       -17.5271
  27   2.0000      -0.623548       -16.9676
  28   2.0000      -0.614139       -16.7116
  29   2.0000      -0.567259       -15.4359
  30   2.0000      -0.556632       -15.1467
  31   2.0000      -0.553281       -15.0555
  32   2.0000      -0.531609       -14.4658
  33   2.0000      -0.522914       -14.2292
  34   2.0000      -0.495814       -13.4918
  35   2.0000      -0.489051       -13.3078
  36   2.0000      -0.479173       -13.0389
  37   2.0000      -0.477124       -12.9832
  38   2.0000      -0.469591       -12.7782
  39   2.0000      -0.464114       -12.6292
  40   2.0000      -0.398839       -10.8530
  41   0.0000       0.017615         0.4793
  42   0.0000       0.025807         0.7023
  43   0.0000       0.031647         0.8612
  44   0.0000       0.032669         0.8890
  45   0.0000       0.042050         1.1442

MULLIKEN ATOMIC CHARGES
-----------------------
   0 S :    2.180920
   1 Si:    0.644960
   2 O :   -1.329011
   3 O :   -1.346710
   4 C :   -0.543802
   5 C :   -0.421211
   6 H :    0.366512
   7 H :    0.349437
   8 C :   -0.398547
   9 H :    0.278112
  10 H :    0.217278
  11 C :   -0.894113
  12 H :    0.260282
  13 H :    0.233458
  14 H :    0.180992
  15 H :    0.224843
  16 H :    0.316350
  17 H :   -0.103702
  18 H :   -0.107591
  19 H :   -0.108456
Sum of atomic charges:   -0.0000000

LOEWDIN ATOMIC CHARGES
----------------------
   0 S :   -0.285014
   1 Si:    1.016836
   2 O :    0.256484
   3 O :    0.263803
   4 C :    0.349608
   5 C :    0.479804
   6 H :   -0.330282
   7 H :   -0.341125
   8 C :    0.500854
   9 H :   -0.291576
  10 H :   -0.269697
  11 C :    0.919333
  12 H :   -0.269932
  13 H :   -0.303843
  14 H :   -0.276362
  15 H :   -0.307266
  16 H :   -0.275580
  17 H :   -0.278663
  18 H :   -0.278445
  19 H :   -0.278937

  Mayer bond orders larger than 0.100000
B(  0-S ,  1-Si) :   0.3625 B(  0-S ,  2-O ) :   0.9202 B(  0-S ,  3-O ) :   0.8916
B(  0-S ,  4-C ) :   0.7769 B(  1-Si, 17-H ) :   0.7391 B(  1-Si, 18-H ) :   0.7285
B(  1-Si, 19-H ) :   0.7336 B(  4-C ,  5-C ) :   0.8455 B(  4-C ,  6-H ) :   0.8936
B(  4-C ,  7-H ) :   0.8502 B(  5-C ,  8-C ) :   0.8761 B(  5-C ,  9-H ) :   0.8970
B(  5-C , 10-H ) :   0.9523 B(  8-C , 11-C ) :   0.9392 B(  8-C , 12-H ) :   0.9204
B(  8-C , 13-H ) :   0.9052 B( 11-C , 14-H ) :   1.0009 B( 11-C , 15-H ) :   0.9489
B( 11-C , 16-H ) :   0.9350

MP2 TOTAL ENERGY:     -996.396909031 Eh
FINAL SINGLE POINT ENERGY      -996.396909030600

DIPOLE MOMENT
-------------
                                X             Y             Z
Electronic contribution:     10.70025       1.42287      -4.36098
Nuclear contribution   :    -10.33082      -1.60018       6.16282
                        -----------------------------------------
Total Dipole Moment    :      0.36943      -0.17731       1.80184
                        -----------------------------------------
Magnitude (a.u.)       :      1.84784
Magnitude (Debye)      :      4.69685

Rotational constants in cm-1:     0.092010     0.027104     0.026287
Rotational constants in MHz :  2758.392433   812.569750   788.065724

                             ****ORCA TERMINATED NORMALLY****
TOTAL RUN TIME: 0 days 4 hours 36 minutes 36 seconds 70 msec
