                         Program Version 5.0.4 -  RELEASE  -
|  1> ! ri-mp2 aug-cc-pvdz aug-cc-pvdz/c tightscf
|  2> %pal nprocs 16 end
|  3> %maxcore 3800
|  4> %base "DZ_P-Si_20_AB"
|  5>
|  6> *xyz 0 1
|  7> C         2.811711    0.930003   -0.587709
|  8> C         1.446765    1.110391   -0.440469
|  9> C         0.648220    0.104981    0.101474
| 10> Si        -1.183121    0.311092    0.293791
| 11> O        -1.695535   -0.133419    1.790587
| 12> P        -2.314281   -1.102307   -1.034307
| 13> C         3.399464   -0.261379   -0.197153
| 14> C         2.620942   -1.272650    0.342015
| 15> C         1.257514   -1.088918    0.488312
| 16> H         0.658469   -1.887259    0.910736
| 17> H         3.418811    1.720980   -1.008300
| 18> H         0.991848    2.044027   -0.744239
| 19> H         4.466077   -0.403062   -0.313334
| 20> H         3.077541   -2.204984    0.647226
| 21> H        -2.050303   -0.358343   -2.208510
| 22> H        -3.569885   -0.490694   -0.800837
| 23> H        -1.266688    0.263909    2.552216
| 24> O        -1.454044    1.903203   -0.010255
| 25> H        -2.359040    2.201907   -0.114905
| 26> *
| 27>
| 28> $new_job
| 29> ! ri-mp2 aug-cc-pvtz aug-cc-pvtz/c tightscf
| 30> %pal nprocs 16 end
| 31> %maxcore 3800
| 32> %base "TZ_P-Si_20_AB"
| 33>
| 34> *xyz 0 1
| 35> C         2.811711    0.930003   -0.587709
| 36> C         1.446765    1.110391   -0.440469
| 37> C         0.648220    0.104981    0.101474
| 38> Si        -1.183121    0.311092    0.293791
| 39> O        -1.695535   -0.133419    1.790587
| 40> P        -2.314281   -1.102307   -1.034307
| 41> C         3.399464   -0.261379   -0.197153
| 42> C         2.620942   -1.272650    0.342015
| 43> C         1.257514   -1.088918    0.488312
| 44> H         0.658469   -1.887259    0.910736
| 45> H         3.418811    1.720980   -1.008300
| 46> H         0.991848    2.044027   -0.744239
| 47> H         4.466077   -0.403062   -0.313334
| 48> H         3.077541   -2.204984    0.647226
| 49> H        -2.050303   -0.358343   -2.208510
| 50> H        -3.569885   -0.490694   -0.800837
| 51> H        -1.266688    0.263909    2.552216
| 52> O        -1.454044    1.903203   -0.010255
| 53> H        -2.359040    2.201907   -0.114905
| 54> *
| 55>
| 56> $new_job
| 57> ! ri-mp2 aug-cc-pvqz aug-cc-pvqz/c tightscf
| 58> %pal nprocs 16 end
| 59> %maxcore 3800
| 60> %base "QZ_P-Si_20_AB"
| 61>
| 62> *xyz 0 1
| 63> C         2.811711    0.930003   -0.587709
| 64> C         1.446765    1.110391   -0.440469
| 65> C         0.648220    0.104981    0.101474
| 66> Si        -1.183121    0.311092    0.293791
| 67> O        -1.695535   -0.133419    1.790587
| 68> P        -2.314281   -1.102307   -1.034307
| 69> C         3.399464   -0.261379   -0.197153
| 70> C         2.620942   -1.272650    0.342015
| 71> C         1.257514   -1.088918    0.488312
| 72> H         0.658469   -1.887259    0.910736
| 73> H         3.418811    1.720980   -1.008300
| 74> H         0.991848    2.044027   -0.744239
| 75> H         4.466077   -0.403062   -0.313334
| 76> H         3.077541   -2.204984    0.647226
| 77> H        -2.050303   -0.358343   -2.208510
| 78> H        -3.569885   -0.490694   -0.800837
| 79> H        -1.266688    0.263909    2.552216
| 80> O        -1.454044    1.903203   -0.010255
| 81> H        -2.359040    2.201907   -0.114905
| 82> *
| 83>
| 84>
| 85>
| 86>
| 87>                          ****END OF INPUT****
 Total Charge           Charge          ....    0
 Multiplicity           Mult            ....    1
 Number of Electrons    NEL             ....   90
MP2 TOTAL ENERGY:    -1013.449757021 Eh
FINAL SINGLE POINT ENERGY     -1013.449757020784
MP2 TOTAL ENERGY:    -1013.872125096 Eh
FINAL SINGLE POINT ENERGY     -1013.872125095987

CARTESIAN COORDINATES (ANGSTROEM)
---------------------------------
  C      2.811711    0.930003   -0.587709
  C      1.446765    1.110391   -0.440469
  C      0.648220    0.104981    0.101474
  Si    -1.183121    0.311092    0.293791
  O     -1.695535   -0.133419    1.790587
  P     -2.314281   -1.102307   -1.034307
  C      3.399464   -0.261379   -0.197153
  C      2.620942   -1.272650    0.342015
  C      1.257514   -1.088918    0.488312
  H      0.658469   -1.887259    0.910736
  H      3.418811    1.720980   -1.008300
  H      0.991848    2.044027   -0.744239
  H      4.466077   -0.403062   -0.313334
  H      3.077541   -2.204984    0.647226
  H     -2.050303   -0.358343   -2.208510
  H     -3.569885   -0.490694   -0.800837
  H     -1.266688    0.263909    2.552216
  O     -1.454044    1.903203   -0.010255
  H     -2.359040    2.201907   -0.114905

 Multiplicity           Mult            ....    1
 Number of Electrons    NEL             ....   90
 Basis Dimension        Dim             .... 1222

ORBITAL ENERGIES
----------------

  NO   OCC          E(Eh)            E(eV)
   0   2.0000     -79.924710     -2174.8619
   1   2.0000     -68.808632     -1872.3781
   2   2.0000     -20.560589      -559.4821
   3   2.0000     -20.557443      -559.3965
   4   2.0000     -11.239046      -305.8300
   5   2.0000     -11.238836      -305.8243
   6   2.0000     -11.236561      -305.7624
   7   2.0000     -11.233091      -305.6679
   8   2.0000     -11.232271      -305.6456
   9   2.0000     -11.217785      -305.2514
  10   2.0000      -7.469980      -203.2685
  11   2.0000      -6.149875      -167.3466
  12   2.0000      -5.363856      -145.9579
  13   2.0000      -5.363477      -145.9476
  14   2.0000      -5.362898      -145.9319
  15   2.0000      -4.257481      -115.8519
  16   2.0000      -4.257187      -115.8439
  17   2.0000      -4.256816      -115.8339
  18   2.0000      -1.357963       -36.9521
  19   2.0000      -1.335814       -36.3494
  20   2.0000      -1.156788       -31.4778
  21   2.0000      -1.020037       -27.7566
  22   2.0000      -1.018587       -27.7172
  23   2.0000      -0.855656       -23.2836
  24   2.0000      -0.829045       -22.5595
  25   2.0000      -0.823243       -22.4016
  26   2.0000      -0.754547       -20.5323
  27   2.0000      -0.715760       -19.4768
  28   2.0000      -0.701083       -19.0774
  29   2.0000      -0.636946       -17.3322
  30   2.0000      -0.626101       -17.0371
  31   2.0000      -0.594505       -16.1773
  32   2.0000      -0.586922       -15.9710
  33   2.0000      -0.586322       -15.9546
  34   2.0000      -0.569117       -15.4865
  35   2.0000      -0.536903       -14.6099
  36   2.0000      -0.521401       -14.1880
  37   2.0000      -0.508998       -13.8505
  38   2.0000      -0.505980       -13.7684
  39   2.0000      -0.494080       -13.4446
  40   2.0000      -0.479074       -13.0363
  41   2.0000      -0.432122       -11.7586
  42   2.0000      -0.365409        -9.9433
  43   2.0000      -0.341754        -9.2996
  44   2.0000      -0.341031        -9.2799
  45   0.0000       0.020187         0.5493
  46   0.0000       0.027330         0.7437
  47   0.0000       0.030525         0.8306
  48   0.0000       0.036301         0.9878
  49   0.0000       0.040542         1.1032

MULLIKEN ATOMIC CHARGES
-----------------------
   0 C :   -0.218197
   1 C :   -0.536564
   2 C :   -0.065456
   3 Si:    2.068833
   4 O :   -1.114351
   5 P :   -0.012128
   6 C :   -0.363801
   7 C :   -0.086084
   8 C :   -0.619813
   9 H :    0.321526
  10 H :    0.240312
  11 H :    0.366635
  12 H :    0.348332
  13 H :    0.257465
  14 H :   -0.057569
  15 H :   -0.119766
  16 H :    0.357914
  17 O :   -1.103021
  18 H :    0.335734
Sum of atomic charges:    0.0000000

LOEWDIN ATOMIC CHARGES
----------------------
   0 C :    0.343166
   1 C :    0.269462
   2 C :   -0.078882
   3 Si:   -0.740597
   4 O :    1.106278
   5 P :    1.513830
   6 C :    0.335566
   7 C :    0.342401
   8 C :    0.253155
   9 H :   -0.332010
  10 H :   -0.320671
  11 H :   -0.349154
  12 H :   -0.318610
  13 H :   -0.320199
  14 H :   -0.546771
  15 H :   -0.549485
  16 H :   -0.866506
  17 O :    1.131092
  18 H :   -0.872067

  Mayer bond orders larger than 0.100000
B(  0-C ,  1-C ) :   1.3488 B(  0-C ,  2-C ) :  -0.3587 B(  0-C ,  6-C ) :   1.1337
B(  0-C ,  7-C ) :  -0.1189 B(  0-C ,  8-C ) :   0.1359 B(  0-C , 10-H ) :   1.1245
B(  1-C ,  2-C ) :   0.7281 B(  1-C ,  3-Si) :  -0.1256 B(  1-C ,  6-C ) :   0.1705
B(  1-C ,  7-C ) :   0.1297 B(  1-C ,  8-C ) :   0.1528 B(  1-C , 10-H ) :  -0.1501
B(  1-C , 11-H ) :   0.8890 B(  2-C ,  3-Si) :   1.0869 B(  2-C ,  6-C ) :  -0.1112
B(  2-C ,  7-C ) :  -0.3666 B(  2-C ,  8-C ) :   0.9778 B(  2-C ,  9-H ) :  -0.1164
B(  2-C , 11-H ) :  -0.1209 B(  3-Si,  4-O ) :   0.2922 B(  3-Si,  5-P ) :   0.8780
B(  3-Si,  8-C ) :  -0.1172 B(  3-Si, 17-O ) :   0.3259 B(  4-O , 16-H ) :   0.9163
B(  5-P , 14-H ) :   0.9275 B(  5-P , 15-H ) :   0.9056 B(  6-C ,  7-C ) :   1.0841
B(  6-C ,  8-C ) :   0.1682 B(  6-C , 10-H ) :  -0.1009 B(  6-C , 12-H ) :   0.9771
B(  7-C ,  8-C ) :   1.2719 B(  7-C , 13-H ) :   1.1037 B(  8-C ,  9-H ) :   0.9446
B(  8-C , 13-H ) :  -0.1572 B( 17-O , 18-H ) :   0.9532

MP2 TOTAL ENERGY:    -1014.008120131 Eh
FINAL SINGLE POINT ENERGY     -1014.008120131225

DIPOLE MOMENT
-------------
                                X             Y             Z
Electronic contribution:     -5.28179      -1.36565       0.27159
Nuclear contribution   :      5.49012       1.90950      -0.08311
                        -----------------------------------------
Total Dipole Moment    :      0.20833       0.54385       0.18848
                        -----------------------------------------
Magnitude (a.u.)       :      0.61212
Magnitude (Debye)      :      1.55589

Rotational constants in cm-1:     0.057579     0.020302     0.018782
Rotational constants in MHz :  1726.177461   608.629476   563.061256

                             ****ORCA TERMINATED NORMALLY****
TOTAL RUN TIME: 0 days 0 hours 54 minutes 59 seconds 132 msec
