                         Program Version 5.0.4 -  RELEASE  -
|  1> ! ri-mp2 aug-cc-pvdz aug-cc-pvdz/c tightscf
|  2> %pal nprocs 16 end
|  3> %maxcore 3800
|  4> %base "DZ_Si-S_55_AB"
|  5> %scf
|  6> STABPerform true
|  7> STABRestartUHFifUnstable true
|  8> end
|  9>
| 10> *xyz 0 1
| 11> S        -0.198308   -0.522587    0.144856
| 12> C         1.175481    0.452660   -0.502498
| 13> Si        -2.084949    0.584834   -0.250507
| 14> O        -0.037610   -0.621440    1.579193
| 15> O        -0.277956   -1.730128   -0.647960
| 16> C         1.244967    1.805603    0.182057
| 17> H         0.339395    2.395188    0.034507
| 18> H         2.077747    2.377979   -0.226533
| 19> H         1.401283    1.682859    1.252967
| 20> C         2.444701   -0.368291   -0.330887
| 21> H         0.942951    0.562519   -1.564233
| 22> H         3.282156    0.170646   -0.773695
| 23> H         2.357807   -1.337119   -0.818226
| 24> H         2.657723   -0.527035    0.725717
| 25> H        -2.147866    1.782478    0.603737
| 26> H        -3.116781   -0.403766    0.093905
| 27> H        -2.098556    0.942682   -1.680649
| 28> *
| 29>
| 30> $new_job
| 31> ! ri-mp2 aug-cc-pvtz aug-cc-pvtz/c tightscf
| 32> %pal nprocs 16 end
| 33> %maxcore 3800
| 34> %base "TZ_Si-S_55_AB"
| 35>
| 36> *xyz 0 1
| 37> S        -0.198308   -0.522587    0.144856
| 38> C         1.175481    0.452660   -0.502498
| 39> Si        -2.084949    0.584834   -0.250507
| 40> O        -0.037610   -0.621440    1.579193
| 41> O        -0.277956   -1.730128   -0.647960
| 42> C         1.244967    1.805603    0.182057
| 43> H         0.339395    2.395188    0.034507
| 44> H         2.077747    2.377979   -0.226533
| 45> H         1.401283    1.682859    1.252967
| 46> C         2.444701   -0.368291   -0.330887
| 47> H         0.942951    0.562519   -1.564233
| 48> H         3.282156    0.170646   -0.773695
| 49> H         2.357807   -1.337119   -0.818226
| 50> H         2.657723   -0.527035    0.725717
| 51> H        -2.147866    1.782478    0.603737
| 52> H        -3.116781   -0.403766    0.093905
| 53> H        -2.098556    0.942682   -1.680649
| 54> *
| 55>
| 56> $new_job
| 57> ! ri-mp2 aug-cc-pvqz aug-cc-pvqz/c tightscf
| 58> %pal nprocs 16 end
| 59> %maxcore 3800
| 60> %base "QZ_Si-S_55_AB"
| 61>
| 62> *xyz 0 1
| 63> S        -0.198308   -0.522587    0.144856
| 64> C         1.175481    0.452660   -0.502498
| 65> Si        -2.084949    0.584834   -0.250507
| 66> O        -0.037610   -0.621440    1.579193
| 67> O        -0.277956   -1.730128   -0.647960
| 68> C         1.244967    1.805603    0.182057
| 69> H         0.339395    2.395188    0.034507
| 70> H         2.077747    2.377979   -0.226533
| 71> H         1.401283    1.682859    1.252967
| 72> C         2.444701   -0.368291   -0.330887
| 73> H         0.942951    0.562519   -1.564233
| 74> H         3.282156    0.170646   -0.773695
| 75> H         2.357807   -1.337119   -0.818226
| 76> H         2.657723   -0.527035    0.725717
| 77> H        -2.147866    1.782478    0.603737
| 78> H        -3.116781   -0.403766    0.093905
| 79> H        -2.098556    0.942682   -1.680649
| 80> *
| 81>
| 82>
| 83>
| 84>
| 85>                          ****END OF INPUT****
 Total Charge           Charge          ....    0
 Multiplicity           Mult            ....    1
 Number of Electrons    NEL             ....   74
MP2 TOTAL ENERGY:     -956.678841670 Eh
FINAL SINGLE POINT ENERGY      -956.678841670178
MP2 TOTAL ENERGY:     -957.047401609 Eh
FINAL SINGLE POINT ENERGY      -957.047401609119

CARTESIAN COORDINATES (ANGSTROEM)
---------------------------------
  S     -0.198308   -0.522587    0.144856
  C      1.175481    0.452660   -0.502498
  Si    -2.084949    0.584834   -0.250507
  O     -0.037610   -0.621440    1.579193
  O     -0.277956   -1.730128   -0.647960
  C      1.244967    1.805603    0.182057
  H      0.339395    2.395188    0.034507
  H      2.077747    2.377979   -0.226533
  H      1.401283    1.682859    1.252967
  C      2.444701   -0.368291   -0.330887
  H      0.942951    0.562519   -1.564233
  H      3.282156    0.170646   -0.773695
  H      2.357807   -1.337119   -0.818226
  H      2.657723   -0.527035    0.725717
  H     -2.147866    1.782478    0.603737
  H     -3.116781   -0.403766    0.093905
  H     -2.098556    0.942682   -1.680649

 Multiplicity           Mult            ....    1
 Number of Electrons    NEL             ....   74
 Basis Dimension        Dim             .... 1028

ORBITAL ENERGIES
----------------

  NO   OCC          E(Eh)            E(eV)
   0   2.0000     -92.143884     -2507.3626
   1   2.0000     -68.817425     -1872.6173
   2   2.0000     -20.533524      -558.7456
   3   2.0000     -20.533016      -558.7318
   4   2.0000     -11.277394      -306.8735
   5   2.0000     -11.242785      -305.9317
   6   2.0000     -11.232067      -305.6401
   7   2.0000      -9.118321      -248.1221
   8   2.0000      -6.803013      -185.1194
   9   2.0000      -6.802486      -185.1050
  10   2.0000      -6.802466      -185.1045
  11   2.0000      -6.167104      -167.8154
  12   2.0000      -4.273488      -116.2875
  13   2.0000      -4.272800      -116.2688
  14   2.0000      -4.272758      -116.2677
  15   2.0000      -1.439923       -39.1823
  16   2.0000      -1.329769       -36.1849
  17   2.0000      -1.110934       -30.2300
  18   2.0000      -0.961785       -26.1715
  19   2.0000      -0.916894       -24.9500
  20   2.0000      -0.811646       -22.0860
  21   2.0000      -0.746622       -20.3166
  22   2.0000      -0.683221       -18.5914
  23   2.0000      -0.650824       -17.7098
  24   2.0000      -0.643433       -17.5087
  25   2.0000      -0.624386       -16.9904
  26   2.0000      -0.586466       -15.9585
  27   2.0000      -0.569024       -15.4839
  28   2.0000      -0.559126       -15.2146
  29   2.0000      -0.532106       -14.4793
  30   2.0000      -0.521519       -14.1912
  31   2.0000      -0.515435       -14.0257
  32   2.0000      -0.512746       -13.9525
  33   2.0000      -0.492068       -13.3899
  34   2.0000      -0.473224       -12.8771
  35   2.0000      -0.463843       -12.6218
  36   2.0000      -0.397701       -10.8220
  37   0.0000       0.017584         0.4785
  38   0.0000       0.025802         0.7021
  39   0.0000       0.032991         0.8977
  40   0.0000       0.034424         0.9367
  41   0.0000       0.044725         1.2170

MULLIKEN ATOMIC CHARGES
-----------------------
   0 S :    2.198777
   1 C :    0.148801
   2 Si:    0.807517
   3 O :   -1.315023
   4 O :   -1.372629
   5 C :   -0.983298
   6 H :    0.271340
   7 H :    0.310362
   8 H :    0.250695
   9 C :   -1.002007
  10 H :    0.342563
  11 H :    0.296650
  12 H :    0.293001
  13 H :    0.237809
  14 H :   -0.111609
  15 H :   -0.221031
  16 H :   -0.151918
Sum of atomic charges:   -0.0000000

LOEWDIN ATOMIC CHARGES
----------------------
   0 S :   -0.289350
   1 C :   -0.080374
   2 Si:    1.010374
   3 O :    0.258761
   4 O :    0.255671
   5 C :    0.857824
   6 H :   -0.313074
   7 H :   -0.270767
   8 H :   -0.291041
   9 C :    0.873133
  10 H :   -0.333456
  11 H :   -0.274267
  12 H :   -0.296737
  13 H :   -0.287296
  14 H :   -0.272045
  15 H :   -0.276801
  16 H :   -0.270556

  Mayer bond orders larger than 0.100000
B(  0-S ,  1-C ) :   0.7776 B(  0-S ,  2-Si) :   0.4957 B(  0-S ,  3-O ) :   0.9526
B(  0-S ,  4-O ) :   0.9511 B(  1-C ,  3-O ) :  -0.1219 B(  1-C ,  5-C ) :   0.7072
B(  1-C ,  9-C ) :   0.6328 B(  1-C , 10-H ) :   0.8991 B(  2-Si, 14-H ) :   0.7679
B(  2-Si, 15-H ) :   0.7487 B(  2-Si, 16-H ) :   0.7520 B(  5-C ,  6-H ) :   0.9831
B(  5-C ,  7-H ) :   0.9451 B(  5-C ,  8-H ) :   0.9635 B(  5-C ,  9-C ) :   0.1195
B(  9-C , 11-H ) :   0.9733 B(  9-C , 12-H ) :   0.9736 B(  9-C , 13-H ) :   0.9683

MP2 TOTAL ENERGY:     -957.165800129 Eh
FINAL SINGLE POINT ENERGY      -957.165800128571

DIPOLE MOMENT
-------------
                                X             Y             Z
Electronic contribution:     -5.86970      -5.81333       1.51035
Nuclear contribution   :      5.85392       7.62953      -2.33921
                        -----------------------------------------
Total Dipole Moment    :     -0.01579       1.81620      -0.82886
                        -----------------------------------------
Magnitude (a.u.)       :      1.99646
Magnitude (Debye)      :      5.07459

Rotational constants in cm-1:     0.084633     0.048996     0.040379
Rotational constants in MHz :  2537.218725  1468.869219  1210.546596

                             ****ORCA TERMINATED NORMALLY****
TOTAL RUN TIME: 0 days 2 hours 11 minutes 5 seconds 703 msec
