                         Program Version 5.0.4 -  RELEASE  -
|  1> ! ri-mp2 aug-cc-pvdz aug-cc-pvdz/c tightscf
|  2> %pal nprocs 16 end
|  3> %maxcore 3800
|  4> %base "DZ_P-C_76_AB"
|  5>
|  6> *xyz 0 1
|  7> C        -2.879508   -1.111562    0.216560
|  8> C        -1.594381   -1.261874   -0.276664
|  9> C        -3.413509    0.153946    0.386421
| 10> C        -2.654522    1.266799    0.062825
| 11> C        -1.370940    1.115385   -0.430116
| 12> C        -0.829759   -0.152235   -0.609217
| 13> H        -1.179191   -2.253601   -0.405294
| 14> P         1.800150    0.115273    0.111298
| 15> O         1.815514    1.507431    0.561094
| 16> O         3.132984   -0.404756   -0.583231
| 17> H        -3.464680   -1.986542    0.466832
| 18> H        -3.063190    2.259563    0.196643
| 19> H        -4.417925    0.273485    0.770072
| 20> H        -0.772566    1.986643   -0.662120
| 21> C         0.573314   -0.318017   -1.126281
| 22> H         0.759589    0.327215   -1.985972
| 23> H         0.759885   -1.345988   -1.436076
| 24> H         3.926942    0.014735   -0.231465
| 25> O         1.588258   -0.932207    1.298605
| 26> H         1.170667   -0.522995    2.065003
| 27> *
| 28>
| 29> $new_job
| 30> ! ri-mp2 aug-cc-pvtz aug-cc-pvtz/c tightscf
| 31> %pal nprocs 16 end
| 32> %maxcore 3800
| 33> %base "TZ_P-C_76_AB"
| 34>
| 35> *xyz 0 1
| 36> C        -2.879508   -1.111562    0.216560
| 37> C        -1.594381   -1.261874   -0.276664
| 38> C        -3.413509    0.153946    0.386421
| 39> C        -2.654522    1.266799    0.062825
| 40> C        -1.370940    1.115385   -0.430116
| 41> C        -0.829759   -0.152235   -0.609217
| 42> H        -1.179191   -2.253601   -0.405294
| 43> P         1.800150    0.115273    0.111298
| 44> O         1.815514    1.507431    0.561094
| 45> O         3.132984   -0.404756   -0.583231
| 46> H        -3.464680   -1.986542    0.466832
| 47> H        -3.063190    2.259563    0.196643
| 48> H        -4.417925    0.273485    0.770072
| 49> H        -0.772566    1.986643   -0.662120
| 50> C         0.573314   -0.318017   -1.126281
| 51> H         0.759589    0.327215   -1.985972
| 52> H         0.759885   -1.345988   -1.436076
| 53> H         3.926942    0.014735   -0.231465
| 54> O         1.588258   -0.932207    1.298605
| 55> H         1.170667   -0.522995    2.065003
| 56> *
| 57>
| 58> $new_job
| 59> ! ri-mp2 aug-cc-pvqz aug-cc-pvqz/c tightscf
| 60> %pal nprocs 16 end
| 61> %maxcore 3800
| 62> %base "QZ_P-C_76_AB"
| 63>
| 64> *xyz 0 1
| 65> C        -2.879508   -1.111562    0.216560
| 66> C        -1.594381   -1.261874   -0.276664
| 67> C        -3.413509    0.153946    0.386421
| 68> C        -2.654522    1.266799    0.062825
| 69> C        -1.370940    1.115385   -0.430116
| 70> C        -0.829759   -0.152235   -0.609217
| 71> H        -1.179191   -2.253601   -0.405294
| 72> P         1.800150    0.115273    0.111298
| 73> O         1.815514    1.507431    0.561094
| 74> O         3.132984   -0.404756   -0.583231
| 75> H        -3.464680   -1.986542    0.466832
| 76> H        -3.063190    2.259563    0.196643
| 77> H        -4.417925    0.273485    0.770072
| 78> H        -0.772566    1.986643   -0.662120
| 79> C         0.573314   -0.318017   -1.126281
| 80> H         0.759589    0.327215   -1.985972
| 81> H         0.759885   -1.345988   -1.436076
| 82> H         3.926942    0.014735   -0.231465
| 83> O         1.588258   -0.932207    1.298605
| 84> H         1.170667   -0.522995    2.065003
| 85> *
| 86>
| 87>
| 88>
| 89>
| 90>                          ****END OF INPUT****
 Total Charge           Charge          ....    0
 Multiplicity           Mult            ....    1
 Number of Electrons    NEL             ....   90
MP2 TOTAL ENERGY:     -837.476224773 Eh
FINAL SINGLE POINT ENERGY      -837.476224772590
MP2 TOTAL ENERGY:     -837.983215279 Eh
FINAL SINGLE POINT ENERGY      -837.983215278608

CARTESIAN COORDINATES (ANGSTROEM)
---------------------------------
  C     -2.879508   -1.111562    0.216560
  C     -1.594381   -1.261874   -0.276664
  C     -3.413509    0.153946    0.386421
  C     -2.654522    1.266799    0.062825
  C     -1.370940    1.115385   -0.430116
  C     -0.829759   -0.152235   -0.609217
  H     -1.179191   -2.253601   -0.405294
  P      1.800150    0.115273    0.111298
  O      1.815514    1.507431    0.561094
  O      3.132984   -0.404756   -0.583231
  H     -3.464680   -1.986542    0.466832
  H     -3.063190    2.259563    0.196643
  H     -4.417925    0.273485    0.770072
  H     -0.772566    1.986643   -0.662120
  C      0.573314   -0.318017   -1.126281
  H      0.759589    0.327215   -1.985972
  H      0.759885   -1.345988   -1.436076
  H      3.926942    0.014735   -0.231465
  O      1.588258   -0.932207    1.298605
  H      1.170667   -0.522995    2.065003

 Multiplicity           Mult            ....    1
 Number of Electrons    NEL             ....   90
 Basis Dimension        Dim             .... 1298

ORBITAL ENERGIES
----------------

  NO   OCC          E(Eh)            E(eV)
   0   2.0000     -80.065678     -2178.6979
   1   2.0000     -20.600031      -560.5554
   2   2.0000     -20.595061      -560.4201
   3   2.0000     -20.502968      -557.9141
   4   2.0000     -11.250747      -306.1484
   5   2.0000     -11.246916      -306.0441
   6   2.0000     -11.237216      -305.7802
   7   2.0000     -11.236046      -305.7484
   8   2.0000     -11.235637      -305.7372
   9   2.0000     -11.234159      -305.6970
  10   2.0000     -11.232843      -305.6612
  11   2.0000      -7.588756      -206.5006
  12   2.0000      -5.487066      -149.3106
  13   2.0000      -5.486358      -149.2914
  14   2.0000      -5.485312      -149.2629
  15   2.0000      -1.436407       -39.0866
  16   2.0000      -1.384474       -37.6735
  17   2.0000      -1.297072       -35.2951
  18   2.0000      -1.168361       -31.7927
  19   2.0000      -1.067799       -29.0563
  20   2.0000      -1.022626       -27.8271
  21   2.0000      -0.967908       -26.3381
  22   2.0000      -0.847226       -23.0542
  23   2.0000      -0.836124       -22.7521
  24   2.0000      -0.802924       -21.8487
  25   2.0000      -0.743646       -20.2356
  26   2.0000      -0.702881       -19.1264
  27   2.0000      -0.679988       -18.5034
  28   2.0000      -0.655559       -17.8387
  29   2.0000      -0.649552       -17.6752
  30   2.0000      -0.639644       -17.4056
  31   2.0000      -0.622061       -16.9271
  32   2.0000      -0.593893       -16.1607
  33   2.0000      -0.587187       -15.9782
  34   2.0000      -0.575355       -15.6562
  35   2.0000      -0.559554       -15.2262
  36   2.0000      -0.550924       -14.9914
  37   2.0000      -0.528076       -14.3697
  38   2.0000      -0.500878       -13.6296
  39   2.0000      -0.500537       -13.6203
  40   2.0000      -0.495903       -13.4942
  41   2.0000      -0.465370       -12.6634
  42   2.0000      -0.454066       -12.3558
  43   2.0000      -0.343688        -9.3522
  44   2.0000      -0.336431        -9.1548
  45   0.0000       0.023085         0.6282
  46   0.0000       0.027110         0.7377
  47   0.0000       0.030622         0.8333
  48   0.0000       0.035174         0.9571
  49   0.0000       0.039242         1.0678

MULLIKEN ATOMIC CHARGES
-----------------------
   0 C :   -0.247427
   1 C :   -0.553950
   2 C :   -0.338343
   3 C :   -0.312032
   4 C :   -0.459403
   5 C :    0.456168
   6 H :    0.268577
   7 P :    2.555427
   8 O :   -1.231558
   9 O :   -1.057128
  10 H :    0.243311
  11 H :    0.234672
  12 H :    0.327982
  13 H :    0.333309
  14 C :   -0.583192
  15 H :    0.327973
  16 H :    0.224912
  17 H :    0.378849
  18 O :   -0.973520
  19 H :    0.405373
Sum of atomic charges:    0.0000000

LOEWDIN ATOMIC CHARGES
----------------------
   0 C :    0.344451
   1 C :    0.337358
   2 C :    0.337082
   3 C :    0.350094
   4 C :    0.330739
   5 C :   -0.142523
   6 H :   -0.314333
   7 P :   -0.623591
   8 O :    0.333707
   9 O :    1.113433
  10 H :   -0.319739
  11 H :   -0.317527
  12 H :   -0.321729
  13 H :   -0.318133
  14 C :    0.458632
  15 H :   -0.321296
  16 H :   -0.341989
  17 H :   -0.847851
  18 O :    1.120459
  19 H :   -0.857244

  Mayer bond orders larger than 0.100000
B(  0-C ,  1-C ) :   1.3554 B(  0-C ,  2-C ) :   1.1209 B(  0-C ,  4-C ) :   0.1317
B(  0-C ,  5-C ) :  -0.4150 B(  0-C , 10-H ) :   1.1421 B(  1-C ,  2-C ) :   0.1136
B(  1-C ,  3-C ) :   0.1529 B(  1-C ,  5-C ) :   0.9860 B(  1-C ,  6-H ) :   0.9873
B(  1-C , 10-H ) :  -0.1419 B(  1-C , 14-C ) :  -0.1535 B(  2-C ,  3-C ) :   1.1345
B(  2-C , 10-H ) :  -0.1068 B(  2-C , 12-H ) :   1.0075 B(  3-C ,  4-C ) :   1.3425
B(  3-C ,  5-C ) :  -0.3359 B(  3-C , 11-H ) :   1.1455 B(  4-C ,  5-C ) :   1.0331
B(  4-C , 11-H ) :  -0.1386 B(  4-C , 13-H ) :   0.9366 B(  4-C , 14-C ) :  -0.1540
B(  5-C , 14-C ) :   0.7469 B(  7-P ,  8-O ) :   1.3030 B(  7-P ,  9-O ) :   0.4411
B(  7-P , 14-C ) :   0.8525 B(  7-P , 18-O ) :   0.6025 B(  9-O , 17-H ) :   0.9250
B( 14-C , 15-H ) :   0.9048 B( 14-C , 16-H ) :   1.0127 B( 18-O , 19-H ) :   0.8858

MP2 TOTAL ENERGY:     -838.146127806 Eh
FINAL SINGLE POINT ENERGY      -838.146127805673

DIPOLE MOMENT
-------------
                                X             Y             Z
Electronic contribution:      7.53366       0.67811       1.22347
Nuclear contribution   :     -7.75000      -1.33024      -1.28474
                        -----------------------------------------
Total Dipole Moment    :     -0.21634      -0.65213      -0.06127
                        -----------------------------------------
Magnitude (a.u.)       :      0.68980
Magnitude (Debye)      :      1.75334

Rotational constants in cm-1:     0.077101     0.019246     0.017843
Rotational constants in MHz :  2311.438658   576.970586   534.921168

                             ****ORCA TERMINATED NORMALLY****
TOTAL RUN TIME: 0 days 1 hours 0 minutes 47 seconds 660 msec
