                         Program Version 5.0.4 -  RELEASE  -
|  1> ! ri-mp2 aug-cc-pvdz aug-cc-pvdz/c tightscf
|  2> %pal nprocs 16 end
|  3> %maxcore 3800
|  4> %base "DZ_P-Si_63_AB"
|  5>
|  6> *xyz 0 1
|  7> C         2.108101   -1.155519    0.037270
|  8> Si         2.044575    0.724715    0.450654
|  9> O         3.163452   -1.715890    0.114205
| 10> O         1.002746   -1.844810   -0.300569
| 11> P         0.396137    1.908526   -0.531223
| 12> C        -0.989360    0.750633   -0.215175
| 13> H         0.219668   -1.274718   -0.328703
| 14> C        -1.524107    0.674671    1.070357
| 15> C        -1.555517   -0.033150   -1.218984
| 16> C        -2.619807   -0.876263   -0.940507
| 17> C        -3.132149   -0.952286    0.342418
| 18> C        -2.580525   -0.173392    1.346841
| 19> H        -2.976503   -0.224677    2.352201
| 20> H        -1.110398    1.286165    1.862850
| 21> H        -1.160931    0.011711   -2.225853
| 22> H        -3.044259   -1.479073   -1.732098
| 23> H        -3.957984   -1.615606    0.559865
| 24> H         0.699632    1.487878   -1.845481
| 25> H         3.350208    1.285372    0.063083
| 26> H         1.845072    0.826476    1.910909
| 27> *
| 28>
| 29> $new_job
| 30> ! ri-mp2 aug-cc-pvtz aug-cc-pvtz/c tightscf
| 31> %pal nprocs 16 end
| 32> %maxcore 3800
| 33> %base "TZ_P-Si_63_AB"
| 34>
| 35> *xyz 0 1
| 36> C         2.108101   -1.155519    0.037270
| 37> Si         2.044575    0.724715    0.450654
| 38> O         3.163452   -1.715890    0.114205
| 39> O         1.002746   -1.844810   -0.300569
| 40> P         0.396137    1.908526   -0.531223
| 41> C        -0.989360    0.750633   -0.215175
| 42> H         0.219668   -1.274718   -0.328703
| 43> C        -1.524107    0.674671    1.070357
| 44> C        -1.555517   -0.033150   -1.218984
| 45> C        -2.619807   -0.876263   -0.940507
| 46> C        -3.132149   -0.952286    0.342418
| 47> C        -2.580525   -0.173392    1.346841
| 48> H        -2.976503   -0.224677    2.352201
| 49> H        -1.110398    1.286165    1.862850
| 50> H        -1.160931    0.011711   -2.225853
| 51> H        -3.044259   -1.479073   -1.732098
| 52> H        -3.957984   -1.615606    0.559865
| 53> H         0.699632    1.487878   -1.845481
| 54> H         3.350208    1.285372    0.063083
| 55> H         1.845072    0.826476    1.910909
| 56> *
| 57>
| 58> $new_job
| 59> ! ri-mp2 aug-cc-pvqz aug-cc-pvqz/c tightscf
| 60> %pal nprocs 16 end
| 61> %maxcore 3800
| 62> %base "QZ_P-Si_63_AB"
| 63>
| 64> *xyz 0 1
| 65> C         2.108101   -1.155519    0.037270
| 66> Si         2.044575    0.724715    0.450654
| 67> O         3.163452   -1.715890    0.114205
| 68> O         1.002746   -1.844810   -0.300569
| 69> P         0.396137    1.908526   -0.531223
| 70> C        -0.989360    0.750633   -0.215175
| 71> H         0.219668   -1.274718   -0.328703
| 72> C        -1.524107    0.674671    1.070357
| 73> C        -1.555517   -0.033150   -1.218984
| 74> C        -2.619807   -0.876263   -0.940507
| 75> C        -3.132149   -0.952286    0.342418
| 76> C        -2.580525   -0.173392    1.346841
| 77> H        -2.976503   -0.224677    2.352201
| 78> H        -1.110398    1.286165    1.862850
| 79> H        -1.160931    0.011711   -2.225853
| 80> H        -3.044259   -1.479073   -1.732098
| 81> H        -3.957984   -1.615606    0.559865
| 82> H         0.699632    1.487878   -1.845481
| 83> H         3.350208    1.285372    0.063083
| 84> H         1.845072    0.826476    1.910909
| 85> *
| 86>
| 87>
| 88>
| 89>
| 90>                          ****END OF INPUT****
 Total Charge           Charge          ....    0
 Multiplicity           Mult            ....    1
 Number of Electrons    NEL             ....   96
MP2 TOTAL ENERGY:    -1051.346178645 Eh
FINAL SINGLE POINT ENERGY     -1051.346178644589
MP2 TOTAL ENERGY:    -1051.782827427 Eh
FINAL SINGLE POINT ENERGY     -1051.782827427333

CARTESIAN COORDINATES (ANGSTROEM)
---------------------------------
  C      2.108101   -1.155519    0.037270
  Si     2.044575    0.724715    0.450654
  O      3.163452   -1.715890    0.114205
  O      1.002746   -1.844810   -0.300569
  P      0.396137    1.908526   -0.531223
  C     -0.989360    0.750633   -0.215175
  H      0.219668   -1.274718   -0.328703
  C     -1.524107    0.674671    1.070357
  C     -1.555517   -0.033150   -1.218984
  C     -2.619807   -0.876263   -0.940507
  C     -3.132149   -0.952286    0.342418
  C     -2.580525   -0.173392    1.346841
  H     -2.976503   -0.224677    2.352201
  H     -1.110398    1.286165    1.862850
  H     -1.160931    0.011711   -2.225853
  H     -3.044259   -1.479073   -1.732098
  H     -3.957984   -1.615606    0.559865
  H      0.699632    1.487878   -1.845481
  H      3.350208    1.285372    0.063083
  H      1.845072    0.826476    1.910909

 Multiplicity           Mult            ....    1
 Number of Electrons    NEL             ....   96
 Basis Dimension        Dim             .... 1302

ORBITAL ENERGIES
----------------

  NO   OCC          E(Eh)            E(eV)
   0   2.0000     -79.956089     -2175.7158
   1   2.0000     -68.801181     -1872.1753
   2   2.0000     -20.601949      -560.6075
   3   2.0000     -20.545381      -559.0682
   4   2.0000     -11.365558      -309.2726
   5   2.0000     -11.272367      -306.7367
   6   2.0000     -11.260984      -306.4270
   7   2.0000     -11.260543      -306.4149
   8   2.0000     -11.258747      -306.3661
   9   2.0000     -11.258324      -306.3546
  10   2.0000     -11.255770      -306.2851
  11   2.0000      -7.500284      -204.0931
  12   2.0000      -6.150696      -167.3690
  13   2.0000      -5.394236      -146.7846
  14   2.0000      -5.393875      -146.7748
  15   2.0000      -5.393233      -146.7573
  16   2.0000      -4.256922      -115.8367
  17   2.0000      -4.256605      -115.8281
  18   2.0000      -4.256527      -115.8260
  19   2.0000      -1.453997       -39.5653
  20   2.0000      -1.361257       -37.0417
  21   2.0000      -1.185729       -32.2653
  22   2.0000      -1.054484       -28.6940
  23   2.0000      -1.045756       -28.4565
  24   2.0000      -0.897879       -24.4325
  25   2.0000      -0.856348       -23.3024
  26   2.0000      -0.843290       -22.9471
  27   2.0000      -0.815358       -22.1870
  28   2.0000      -0.774970       -21.0880
  29   2.0000      -0.719487       -19.5782
  30   2.0000      -0.664857       -18.0917
  31   2.0000      -0.658241       -17.9116
  32   2.0000      -0.654692       -17.8151
  33   2.0000      -0.644651       -17.5418
  34   2.0000      -0.621438       -16.9102
  35   2.0000      -0.614894       -16.7321
  36   2.0000      -0.580759       -15.8032
  37   2.0000      -0.564966       -15.3735
  38   2.0000      -0.535835       -14.5808
  39   2.0000      -0.523462       -14.2441
  40   2.0000      -0.517920       -14.0933
  41   2.0000      -0.498280       -13.5589
  42   2.0000      -0.474492       -12.9116
  43   2.0000      -0.457532       -12.4501
  44   2.0000      -0.437579       -11.9071
  45   2.0000      -0.402654       -10.9568
  46   2.0000      -0.368283       -10.0215
  47   2.0000      -0.333733        -9.0813
  48   0.0000       0.018049         0.4911
  49   0.0000       0.024179         0.6580
  50   0.0000       0.026068         0.7093
  51   0.0000       0.035529         0.9668
  52   0.0000       0.037361         1.0167

MULLIKEN ATOMIC CHARGES
-----------------------
   0 C :    0.763446
   1 Si:    0.994661
   2 O :   -0.863961
   3 O :   -0.898250
   4 P :    0.086543
   5 C :    0.236874
   6 H :    0.591119
   7 C :   -0.482440
   8 C :   -0.276069
   9 C :   -0.382127
  10 C :   -0.303017
  11 C :   -0.280282
  12 H :    0.234522
  13 H :    0.362891
  14 H :    0.292137
  15 H :    0.191291
  16 H :    0.380032
  17 H :   -0.097241
  18 H :   -0.335514
  19 H :   -0.214616
Sum of atomic charges:   -0.0000000

LOEWDIN ATOMIC CHARGES
----------------------
   0 C :   -1.064278
   1 Si:    0.558247
   2 O :    0.575389
   3 O :    1.196496
   4 P :    1.190978
   5 C :   -0.382892
   6 H :   -0.962984
   7 C :    0.228105
   8 C :    0.231635
   9 C :    0.350712
  10 C :    0.349293
  11 C :    0.348557
  12 H :   -0.312655
  13 H :   -0.336193
  14 H :   -0.332803
  15 H :   -0.310101
  16 H :   -0.315268
  17 H :   -0.489687
  18 H :   -0.266064
  19 H :   -0.256486

  Mayer bond orders larger than 0.100000
B(  0-C ,  1-Si) :   0.7621 B(  0-C ,  2-O ) :   1.3984 B(  0-C ,  3-O ) :   0.9187
B(  1-Si,  4-P ) :   0.8705 B(  1-Si, 18-H ) :   0.7258 B(  1-Si, 19-H ) :   0.7928
B(  3-O ,  6-H ) :   0.5782 B(  4-P ,  5-C ) :   0.7237 B(  4-P ,  7-C ) :  -0.2385
B(  4-P , 17-H ) :   0.9439 B(  5-C ,  7-C ) :   0.8616 B(  5-C ,  8-C ) :   0.9355
B(  5-C ,  9-C ) :  -0.2140 B(  5-C , 11-C ) :  -0.2783 B(  5-C , 17-H ) :  -0.1259
B(  7-C ,  8-C ) :   0.1672 B(  7-C ,  9-C ) :   0.1296 B(  7-C , 10-C ) :   0.1117
B(  7-C , 11-C ) :   1.3200 B(  7-C , 12-H ) :  -0.1086 B(  7-C , 13-H ) :   0.9020
B(  8-C ,  9-C ) :   1.3492 B(  8-C , 11-C ) :   0.1868 B(  8-C , 14-H ) :   0.9894
B(  8-C , 15-H ) :  -0.1075 B(  9-C , 10-C ) :   1.1261 B(  9-C , 15-H ) :   1.2018
B( 10-C , 11-C ) :   1.1560 B( 10-C , 16-H ) :   0.9572 B( 11-C , 12-H ) :   1.1308

MP2 TOTAL ENERGY:    -1051.924986190 Eh
FINAL SINGLE POINT ENERGY     -1051.924986190003

DIPOLE MOMENT
-------------
                                X             Y             Z
Electronic contribution:      4.71479       2.47537      -1.07480
Nuclear contribution   :     -6.43166      -1.57994       1.06920
                        -----------------------------------------
Total Dipole Moment    :     -1.71687       0.89542      -0.00560
                        -----------------------------------------
Magnitude (a.u.)       :      1.93635
Magnitude (Debye)      :      4.92181

Rotational constants in cm-1:     0.042479     0.019608     0.016159
Rotational constants in MHz :  1273.494201   587.839768   484.421984

                             ****ORCA TERMINATED NORMALLY****
TOTAL RUN TIME: 0 days 1 hours 0 minutes 33 seconds 725 msec
