                         Program Version 5.0.4 -  RELEASE  -
|  1> ! ri-mp2 aug-cc-pvdz aug-cc-pvdz/c tightscf
|  2> %pal nprocs 16 end
|  3> %maxcore 3800
|  4> %base "DZ_B-B_62_A"
|  5> %scf
|  6> STABPerform true
|  7> STABRestartUHFifUnstable true
|  8> end
|  9>
| 10> *xyz 0 2
| 11> B         0.841647   -0.000001    0.000002
| 12> B        -0.715365   -0.000000   -0.000001
| 13> H        -1.324602    1.026224    0.000000
| 14> H        -1.324613   -1.026217   -0.000005
| 15> H         2.017803    0.000001    0.000004
| 16> *
| 17>
| 18> $new_job
| 19> ! ri-mp2 aug-cc-pvtz aug-cc-pvtz/c tightscf
| 20> %pal nprocs 16 end
| 21> %maxcore 3800
| 22> %base "TZ_B-B_62_A"
| 23>
| 24> *xyz 0 2
| 25> B         0.841647   -0.000001    0.000002
| 26> B        -0.715365   -0.000000   -0.000001
| 27> H        -1.324602    1.026224    0.000000
| 28> H        -1.324613   -1.026217   -0.000005
| 29> H         2.017803    0.000001    0.000004
| 30> *
| 31>
| 32> $new_job
| 33> ! ri-mp2 aug-cc-pvqz aug-cc-pvqz/c tightscf
| 34> %pal nprocs 16 end
| 35> %maxcore 3800
| 36> %base "QZ_B-B_62_A"
| 37>
| 38> *xyz 0 2
| 39> B         0.841647   -0.000001    0.000002
| 40> B        -0.715365   -0.000000   -0.000001
| 41> H        -1.324602    1.026224    0.000000
| 42> H        -1.324613   -1.026217   -0.000005
| 43> H         2.017803    0.000001    0.000004
| 44> *
| 45>
| 46>
| 47>
| 48>
| 49>                          ****END OF INPUT****
 Total Charge           Charge          ....    0
 Multiplicity           Mult            ....    2
 Number of Electrons    NEL             ....   13
MP2 TOTAL ENERGY:      -51.172298002 Eh
FINAL SINGLE POINT ENERGY       -51.172298002018
MP2 TOTAL ENERGY:      -51.218071070 Eh
FINAL SINGLE POINT ENERGY       -51.218071070234

CARTESIAN COORDINATES (ANGSTROEM)
---------------------------------
  B      0.841647   -0.000001    0.000002
  B     -0.715365   -0.000000   -0.000001
  H     -1.324602    1.026224    0.000000
  H     -1.324613   -1.026217   -0.000005
  H      2.017803    0.000001    0.000004

 Multiplicity           Mult            ....    2
 Number of Electrons    NEL             ....   13
 Basis Dimension        Dim             ....  298

ORBITAL ENERGIES
----------------
                 SPIN UP ORBITALS
  NO   OCC          E(Eh)            E(eV)
   0   1.0000      -7.641004      -207.9223
   1   1.0000      -7.572202      -206.0501
   2   1.0000      -0.758203       -20.6318
   3   1.0000      -0.632912       -17.2224
   4   1.0000      -0.487027       -13.2527
   5   1.0000      -0.485961       -13.2237
   6   1.0000      -0.329713        -8.9719
   7   0.0000       0.024733         0.6730
   8   0.0000       0.028803         0.7838
   9   0.0000       0.032814         0.8929
  10   0.0000       0.043324         1.1789
  11   0.0000       0.047526         1.2932

                 SPIN DOWN ORBITALS
  NO   OCC          E(Eh)            E(eV)
   0   1.0000      -7.631883      -207.6741
   1   1.0000      -7.570380      -206.0005
   2   1.0000      -0.709168       -19.2975
   3   1.0000      -0.618361       -16.8265
   4   1.0000      -0.485283       -13.2052
   5   1.0000      -0.475896       -12.9498
   6   0.0000       0.020508         0.5581
   7   0.0000       0.025275         0.6878
   8   0.0000       0.030768         0.8372
   9   0.0000       0.033236         0.9044
  10   0.0000       0.045108         1.2275

MULLIKEN ATOMIC CHARGES AND SPIN POPULATIONS
--------------------------------------------
   0 B :    0.473913    0.795988
   1 B :    0.101527    0.288438
   2 H :   -0.144920   -0.023780
   3 H :   -0.144922   -0.023780
   4 H :   -0.285598   -0.036867
Sum of atomic charges         :    0.0000000

LOEWDIN ATOMIC CHARGES AND SPIN POPULATIONS
-------------------------------------------
   0 B :    0.485424    0.436237
   1 B :    0.350949    0.307268
   2 H :   -0.285404    0.060096
   3 H :   -0.285403    0.060095
   4 H :   -0.265566    0.136304

  Mayer bond orders larger than 0.100000
B(  0-B ,  1-B ) :   1.4335 B(  0-B ,  4-H ) :   0.9510 B(  1-B ,  2-H ) :   0.9531
B(  1-B ,  3-H ) :   0.9531

MP2 TOTAL ENERGY:      -51.231732007 Eh
FINAL SINGLE POINT ENERGY       -51.231732006837

DIPOLE MOMENT
-------------
                                X             Y             Z
Electronic contribution:      1.27895      -0.00001       0.00000
Nuclear contribution   :     -0.72636       0.00001      -0.00000
                        -----------------------------------------
Total Dipole Moment    :      0.55259      -0.00000       0.00000
                        -----------------------------------------
Magnitude (a.u.)       :      0.55259
Magnitude (Debye)      :      1.40457

Rotational constants in cm-1:     7.940082     0.810103     0.735103
Rotational constants in MHz : 238037.677484 24286.274808 22037.821555

                             ****ORCA TERMINATED NORMALLY****
TOTAL RUN TIME: 0 days 0 hours 3 minutes 45 seconds 349 msec
