                         Program Version 5.0.4 -  RELEASE  -
|  1> ! ri-mp2 aug-cc-pvdz aug-cc-pvdz/c tightscf
|  2> %pal nprocs 16 end
|  3> %maxcore 3800
|  4> %base "DZ_B-Cl_18_A"
|  5> %scf
|  6> STABPerform true
|  7> STABRestartUHFifUnstable true
|  8> end
|  9>
| 10> *xyz 0 2
| 11> Cl         2.261527   -0.522217    0.036934
| 12> B         0.627383   -0.340872   -0.492698
| 13> C        -0.481566    0.470094    0.236073
| 14> C        -1.903497    0.111436   -0.196447
| 15> C        -0.190747    1.966886    0.023107
| 16> H        -0.245367    2.232834   -1.033826
| 17> H         0.795796    2.246792    0.391246
| 18> H        -0.932311    2.566428    0.552651
| 19> H        -0.381293    0.262897    1.310462
| 20> C        -2.274506   -1.330948    0.106970
| 21> H        -2.008214    0.301660   -1.267823
| 22> H        -2.604686    0.784019    0.306072
| 23> H        -1.611047   -2.024270   -0.414463
| 24> H        -3.295553   -1.553835   -0.203044
| 25> H        -2.198311   -1.539275    1.176115
| 26> *
| 27>
| 28> $new_job
| 29> ! ri-mp2 aug-cc-pvtz aug-cc-pvtz/c tightscf
| 30> %pal nprocs 16 end
| 31> %maxcore 3800
| 32> %base "TZ_B-Cl_18_A"
| 33>
| 34> *xyz 0 2
| 35> Cl         2.261527   -0.522217    0.036934
| 36> B         0.627383   -0.340872   -0.492698
| 37> C        -0.481566    0.470094    0.236073
| 38> C        -1.903497    0.111436   -0.196447
| 39> C        -0.190747    1.966886    0.023107
| 40> H        -0.245367    2.232834   -1.033826
| 41> H         0.795796    2.246792    0.391246
| 42> H        -0.932311    2.566428    0.552651
| 43> H        -0.381293    0.262897    1.310462
| 44> C        -2.274506   -1.330948    0.106970
| 45> H        -2.008214    0.301660   -1.267823
| 46> H        -2.604686    0.784019    0.306072
| 47> H        -1.611047   -2.024270   -0.414463
| 48> H        -3.295553   -1.553835   -0.203044
| 49> H        -2.198311   -1.539275    1.176115
| 50> *
| 51>
| 52> $new_job
| 53> ! ri-mp2 aug-cc-pvqz aug-cc-pvqz/c tightscf
| 54> %pal nprocs 16 end
| 55> %maxcore 3800
| 56> %base "QZ_B-Cl_18_A"
| 57>
| 58> *xyz 0 2
| 59> Cl         2.261527   -0.522217    0.036934
| 60> B         0.627383   -0.340872   -0.492698
| 61> C        -0.481566    0.470094    0.236073
| 62> C        -1.903497    0.111436   -0.196447
| 63> C        -0.190747    1.966886    0.023107
| 64> H        -0.245367    2.232834   -1.033826
| 65> H         0.795796    2.246792    0.391246
| 66> H        -0.932311    2.566428    0.552651
| 67> H        -0.381293    0.262897    1.310462
| 68> C        -2.274506   -1.330948    0.106970
| 69> H        -2.008214    0.301660   -1.267823
| 70> H        -2.604686    0.784019    0.306072
| 71> H        -1.611047   -2.024270   -0.414463
| 72> H        -3.295553   -1.553835   -0.203044
| 73> H        -2.198311   -1.539275    1.176115
| 74> *
| 75>
| 76>
| 77>
| 78>
| 79>                          ****END OF INPUT****
 Total Charge           Charge          ....    0
 Multiplicity           Mult            ....    2
 Number of Electrons    NEL             ....   55
MP2 TOTAL ENERGY:     -641.714209137 Eh
FINAL SINGLE POINT ENERGY      -641.714209136913
MP2 TOTAL ENERGY:     -641.945364074 Eh
FINAL SINGLE POINT ENERGY      -641.945364073843

CARTESIAN COORDINATES (ANGSTROEM)
---------------------------------
  Cl     2.261527   -0.522217    0.036934
  B      0.627383   -0.340872   -0.492698
  C     -0.481566    0.470094    0.236073
  C     -1.903497    0.111436   -0.196447
  C     -0.190747    1.966886    0.023107
  H     -0.245367    2.232834   -1.033826
  H      0.795796    2.246792    0.391246
  H     -0.932311    2.566428    0.552651
  H     -0.381293    0.262897    1.310462
  C     -2.274506   -1.330948    0.106970
  H     -2.008214    0.301660   -1.267823
  H     -2.604686    0.784019    0.306072
  H     -1.611047   -2.024270   -0.414463
  H     -3.295553   -1.553835   -0.203044
  H     -2.198311   -1.539275    1.176115

 Multiplicity           Mult            ....    2
 Number of Electrons    NEL             ....   55
 Basis Dimension        Dim             ....  898

ORBITAL ENERGIES
----------------
                 SPIN UP ORBITALS
  NO   OCC          E(Eh)            E(eV)
   0   1.0000    -104.837829     -2852.7823
   1   1.0000     -11.225763      -305.4685
   2   1.0000     -11.223442      -305.4054
   3   1.0000     -11.219971      -305.3109
   4   1.0000     -11.214678      -305.1669
   5   1.0000     -10.565564      -287.5036
   6   1.0000      -8.033292      -218.5970
   7   1.0000      -8.031136      -218.5383
   8   1.0000      -8.030852      -218.5306
   9   1.0000      -7.666409      -208.6136
  10   1.0000      -1.124890       -30.6098
  11   1.0000      -1.083364       -29.4798
  12   1.0000      -0.994000       -27.0481
  13   1.0000      -0.873361       -23.7654
  14   1.0000      -0.809191       -22.0192
  15   1.0000      -0.676937       -18.4204
  16   1.0000      -0.625845       -17.0301
  17   1.0000      -0.597335       -16.2543
  18   1.0000      -0.588663       -16.0183
  19   1.0000      -0.577636       -15.7183
  20   1.0000      -0.528497       -14.3811
  21   1.0000      -0.508393       -13.8341
  22   1.0000      -0.505984       -13.7685
  23   1.0000      -0.489747       -13.3267
  24   1.0000      -0.474164       -12.9026
  25   1.0000      -0.471534       -12.8311
  26   1.0000      -0.459160       -12.4944
  27   1.0000      -0.326790        -8.8924
  28   0.0000       0.023982         0.6526
  29   0.0000       0.030437         0.8282
  30   0.0000       0.032602         0.8871
  31   0.0000       0.033712         0.9174
  32   0.0000       0.047801         1.3007

                 SPIN DOWN ORBITALS
  NO   OCC          E(Eh)            E(eV)
   0   1.0000    -104.837039     -2852.7609
   1   1.0000     -11.225766      -305.4686
   2   1.0000     -11.223201      -305.3988
   3   1.0000     -11.218577      -305.2730
   4   1.0000     -11.214564      -305.1638
   5   1.0000     -10.564622      -287.4780
   6   1.0000      -8.031599      -218.5509
   7   1.0000      -8.031002      -218.5347
   8   1.0000      -8.028869      -218.4766
   9   1.0000      -7.647013      -208.0858
  10   1.0000      -1.115528       -30.3551
  11   1.0000      -1.080680       -29.4068
  12   1.0000      -0.992875       -27.0175
  13   1.0000      -0.871129       -23.7046
  14   1.0000      -0.802480       -21.8366
  15   1.0000      -0.657226       -17.8840
  16   1.0000      -0.617749       -16.8098
  17   1.0000      -0.588804       -16.0222
  18   1.0000      -0.586150       -15.9499
  19   1.0000      -0.573187       -15.5972
  20   1.0000      -0.526720       -14.3328
  21   1.0000      -0.502811       -13.6822
  22   1.0000      -0.493528       -13.4296
  23   1.0000      -0.482755       -13.1364
  24   1.0000      -0.471736       -12.8366
  25   1.0000      -0.466968       -12.7069
  26   1.0000      -0.445609       -12.1256
  27   0.0000       0.022334         0.6078
  28   0.0000       0.030678         0.8348
  29   0.0000       0.032844         0.8937
  30   0.0000       0.033128         0.9015
  31   0.0000       0.047837         1.3017

MULLIKEN ATOMIC CHARGES AND SPIN POPULATIONS
--------------------------------------------
   0 Cl:   -0.330651    0.024593
   1 B :    0.306233    1.024705
   2 C :    0.066182   -0.045414
   3 C :   -0.434019   -0.013201
   4 C :   -0.954021    0.028321
   5 H :    0.243864    0.001444
   6 H :    0.266123   -0.002110
   7 H :    0.266066    0.001408
   8 H :    0.208702    0.010938
   9 C :   -0.869474   -0.003291
  10 H :    0.265025   -0.019672
  11 H :    0.236233   -0.003400
  12 H :    0.248259   -0.005022
  13 H :    0.264746    0.000319
  14 H :    0.216732    0.000382
Sum of atomic charges         :   -0.0000000

LOEWDIN ATOMIC CHARGES AND SPIN POPULATIONS
-------------------------------------------
   0 Cl:    1.265674    0.165993
   1 B :   -1.027642    0.541666
   2 C :    0.066206    0.153582
   3 C :    0.454276    0.035765
   4 C :    0.874289    0.023104
   5 H :   -0.273045    0.004997
   6 H :   -0.290820    0.003234
   7 H :   -0.272603    0.001895
   8 H :   -0.325818    0.018154
   9 C :    0.921196    0.017480
  10 H :   -0.275566    0.011657
  11 H :   -0.270741    0.001166
  12 H :   -0.294136    0.018440
  13 H :   -0.274421    0.001098
  14 H :   -0.276848    0.001769

  Mayer bond orders larger than 0.100000
B(  0-Cl,  1-B ) :   0.9848 B(  1-B ,  2-C ) :   0.8663 B(  1-B ,  4-C ) :   0.1176
B(  2-C ,  3-C ) :   0.7092 B(  2-C ,  4-C ) :   0.7495 B(  2-C ,  8-H ) :   0.9353
B(  3-C ,  9-C ) :   0.9481 B(  3-C , 10-H ) :   0.8973 B(  3-C , 11-H ) :   0.9246
B(  4-C ,  5-H ) :   0.9469 B(  4-C ,  6-H ) :   0.9971 B(  4-C ,  7-H ) :   0.9631
B(  9-C , 12-H ) :   0.9308 B(  9-C , 13-H ) :   1.0127 B(  9-C , 14-H ) :   0.9567

MP2 TOTAL ENERGY:     -642.017519982 Eh
FINAL SINGLE POINT ENERGY      -642.017519981896

DIPOLE MOMENT
-------------
                                X             Y             Z
Electronic contribution:     15.69926      -4.01493      -0.98250
Nuclear contribution   :    -16.20866       4.29550       1.16061
                        -----------------------------------------
Total Dipole Moment    :     -0.50941       0.28058       0.17811
                        -----------------------------------------
Magnitude (a.u.)       :      0.60823
Magnitude (Debye)      :      1.54599

Rotational constants in cm-1:     0.142939     0.050486     0.039132
Rotational constants in MHz :  4285.215196  1513.525746  1173.149230

                             ****ORCA TERMINATED NORMALLY****
TOTAL RUN TIME: 0 days 3 hours 51 minutes 2 seconds 521 msec
