                         Program Version 5.0.4 -  RELEASE  -
|  1> ! ri-mp2 aug-cc-pvdz aug-cc-pvdz/c tightscf
|  2> %pal nprocs 16 end
|  3> %maxcore 3800
|  4> %base "DZ_B-F_61_AB"
|  5> %scf
|  6> STABPerform true
|  7> STABRestartUHFifUnstable true
|  8> end
|  9>
| 10> *xyz 0 1
| 11> F         2.174154   -0.912696    0.801905
| 12> B         1.869441    0.110033    0.036719
| 13> F         2.839561    0.897981   -0.381008
| 14> O         0.597891    0.456330   -0.288841
| 15> C        -0.463658   -0.423961   -0.242512
| 16> O        -0.316501   -1.596448   -0.456840
| 17> N        -1.626016    0.202478    0.017323
| 18> C        -1.767341    1.617606    0.283843
| 19> H        -2.126060    1.778053    1.303528
| 20> H        -2.494621    2.051463   -0.405525
| 21> H        -0.820285    2.126394    0.157433
| 22> C        -2.841857   -0.581656    0.059473
| 23> H        -3.555624   -0.208671   -0.677996
| 24> H        -3.299955   -0.516032    1.048768
| 25> H        -2.605965   -1.617274   -0.158511
| 26> *
| 27>
| 28> $new_job
| 29> ! ri-mp2 aug-cc-pvtz aug-cc-pvtz/c tightscf
| 30> %pal nprocs 16 end
| 31> %maxcore 3800
| 32> %base "TZ_B-F_61_AB"
| 33>
| 34> *xyz 0 1
| 35> F         2.174154   -0.912696    0.801905
| 36> B         1.869441    0.110033    0.036719
| 37> F         2.839561    0.897981   -0.381008
| 38> O         0.597891    0.456330   -0.288841
| 39> C        -0.463658   -0.423961   -0.242512
| 40> O        -0.316501   -1.596448   -0.456840
| 41> N        -1.626016    0.202478    0.017323
| 42> C        -1.767341    1.617606    0.283843
| 43> H        -2.126060    1.778053    1.303528
| 44> H        -2.494621    2.051463   -0.405525
| 45> H        -0.820285    2.126394    0.157433
| 46> C        -2.841857   -0.581656    0.059473
| 47> H        -3.555624   -0.208671   -0.677996
| 48> H        -3.299955   -0.516032    1.048768
| 49> H        -2.605965   -1.617274   -0.158511
| 50> *
| 51>
| 52> $new_job
| 53> ! ri-mp2 aug-cc-pvqz aug-cc-pvqz/c tightscf
| 54> %pal nprocs 16 end
| 55> %maxcore 3800
| 56> %base "QZ_B-F_61_AB"
| 57>
| 58> *xyz 0 1
| 59> F         2.174154   -0.912696    0.801905
| 60> B         1.869441    0.110033    0.036719
| 61> F         2.839561    0.897981   -0.381008
| 62> O         0.597891    0.456330   -0.288841
| 63> C        -0.463658   -0.423961   -0.242512
| 64> O        -0.316501   -1.596448   -0.456840
| 65> N        -1.626016    0.202478    0.017323
| 66> C        -1.767341    1.617606    0.283843
| 67> H        -2.126060    1.778053    1.303528
| 68> H        -2.494621    2.051463   -0.405525
| 69> H        -0.820285    2.126394    0.157433
| 70> C        -2.841857   -0.581656    0.059473
| 71> H        -3.555624   -0.208671   -0.677996
| 72> H        -3.299955   -0.516032    1.048768
| 73> H        -2.605965   -1.617274   -0.158511
| 74> *
| 75>
| 76>
| 77>
| 78>
| 79>                          ****END OF INPUT****
 Total Charge           Charge          ....    0
 Multiplicity           Mult            ....    1
 Number of Electrons    NEL             ....   70
MP2 TOTAL ENERGY:     -546.562630497 Eh
FINAL SINGLE POINT ENERGY      -546.562630497035
MP2 TOTAL ENERGY:     -547.043263866 Eh
FINAL SINGLE POINT ENERGY      -547.043263865771

CARTESIAN COORDINATES (ANGSTROEM)
---------------------------------
  F      2.174154   -0.912696    0.801905
  B      1.869441    0.110033    0.036719
  F      2.839561    0.897981   -0.381008
  O      0.597891    0.456330   -0.288841
  C     -0.463658   -0.423961   -0.242512
  O     -0.316501   -1.596448   -0.456840
  N     -1.626016    0.202478    0.017323
  C     -1.767341    1.617606    0.283843
  H     -2.126060    1.778053    1.303528
  H     -2.494621    2.051463   -0.405525
  H     -0.820285    2.126394    0.157433
  C     -2.841857   -0.581656    0.059473
  H     -3.555624   -0.208671   -0.677996
  H     -3.299955   -0.516032    1.048768
  H     -2.605965   -1.617274   -0.158511

 Multiplicity           Mult            ....    1
 Number of Electrons    NEL             ....   70
 Basis Dimension        Dim             ....  996

ORBITAL ENERGIES
----------------

  NO   OCC          E(Eh)            E(eV)
   0   2.0000     -26.316230      -716.1010
   1   2.0000     -26.315825      -716.0900
   2   2.0000     -20.617016      -561.0175
   3   2.0000     -20.535617      -558.8025
   4   2.0000     -15.607137      -424.6918
   5   2.0000     -11.420754      -310.7745
   6   2.0000     -11.276427      -306.8472
   7   2.0000     -11.268330      -306.6269
   8   2.0000      -7.746921      -210.8044
   9   2.0000      -1.652747       -44.9735
  10   2.0000      -1.620797       -44.1041
  11   2.0000      -1.480869       -40.2965
  12   2.0000      -1.375860       -37.4391
  13   2.0000      -1.275739       -34.7146
  14   2.0000      -0.993232       -27.0272
  15   2.0000      -0.977191       -26.5907
  16   2.0000      -0.857493       -23.3336
  17   2.0000      -0.811836       -22.0912
  18   2.0000      -0.779527       -21.2120
  19   2.0000      -0.745714       -20.2919
  20   2.0000      -0.728185       -19.8149
  21   2.0000      -0.712030       -19.3753
  22   2.0000      -0.690065       -18.7776
  23   2.0000      -0.686188       -18.6721
  24   2.0000      -0.666521       -18.1370
  25   2.0000      -0.658441       -17.9171
  26   2.0000      -0.627183       -17.0665
  27   2.0000      -0.615187       -16.7401
  28   2.0000      -0.596780       -16.2392
  29   2.0000      -0.579491       -15.7688
  30   2.0000      -0.574225       -15.6255
  31   2.0000      -0.548782       -14.9331
  32   2.0000      -0.519512       -14.1367
  33   2.0000      -0.469316       -12.7707
  34   2.0000      -0.397489       -10.8162
  35   0.0000       0.019394         0.5277
  36   0.0000       0.030705         0.8355
  37   0.0000       0.032088         0.8732
  38   0.0000       0.037767         1.0277
  39   0.0000       0.047036         1.2799

MULLIKEN ATOMIC CHARGES
-----------------------
   0 F :   -0.732120
   1 B :    1.886700
   2 F :   -0.766415
   3 O :   -0.858895
   4 C :    1.452588
   5 O :   -0.784483
   6 N :   -0.395340
   7 C :   -0.838386
   8 H :    0.315326
   9 H :    0.292754
  10 H :    0.334735
  11 C :   -0.766058
  12 H :    0.283874
  13 H :    0.281834
  14 H :    0.293885
Sum of atomic charges:   -0.0000000

LOEWDIN ATOMIC CHARGES
----------------------
   0 F :    0.832710
   1 B :   -2.124465
   2 F :    0.799825
   3 O :    0.864781
   4 C :   -1.234317
   5 O :    0.727315
   6 N :    0.382719
   7 C :    0.778897
   8 H :   -0.272022
   9 H :   -0.277379
  10 H :   -0.346254
  11 C :    0.766602
  12 H :   -0.274792
  13 H :   -0.272512
  14 H :   -0.351108

  Mayer bond orders larger than 0.100000
B(  0-F ,  1-B ) :   0.5343 B(  0-F ,  3-O ) :  -0.1455 B(  1-B ,  2-F ) :   0.4527
B(  1-B ,  3-O ) :   0.6282 B(  3-O ,  4-C ) :   0.8719 B(  3-O ,  6-N ) :  -0.1058
B(  4-C ,  5-O ) :   1.3255 B(  4-C ,  6-N ) :   1.2807 B(  5-O ,  6-N ) :   0.2474
B(  6-N ,  7-C ) :   0.7866 B(  6-N , 11-C ) :   0.8100 B(  7-C ,  8-H ) :   0.9372
B(  7-C ,  9-H ) :   0.9610 B(  7-C , 10-H ) :   0.8933 B( 11-C , 12-H ) :   0.9588
B( 11-C , 13-H ) :   0.9656 B( 11-C , 14-H ) :   0.9227

MP2 TOTAL ENERGY:     -547.197324106 Eh
FINAL SINGLE POINT ENERGY      -547.197324105789

DIPOLE MOMENT
-------------
                                X             Y             Z
Electronic contribution:     19.20776      -2.27015      -0.45783
Nuclear contribution   :    -20.51851       3.38335       0.77864
                        -----------------------------------------
Total Dipole Moment    :     -1.31075       1.11320       0.32081
                        -----------------------------------------
Magnitude (a.u.)       :      1.74934
Magnitude (Debye)      :      4.44648

Rotational constants in cm-1:     0.110009     0.032056     0.026777
Rotational constants in MHz :  3297.989260   961.020751   802.759065

                             ****ORCA TERMINATED NORMALLY****
TOTAL RUN TIME: 0 days 2 hours 5 minutes 49 seconds 806 msec
