                         Program Version 5.0.4 -  RELEASE  -
|  1> ! ri-mp2 aug-cc-pvdz aug-cc-pvdz/c tightscf
|  2> %pal nprocs 16 end
|  3> %maxcore 3800
|  4> %base "DZ_S-F_81_AB"
|  5>
|  6> *xyz 0 1
|  7> F         3.246366   -0.190233    1.107017
|  8> S         2.770995   -0.135666   -0.462177
|  9> C         1.047416    0.026560   -0.267923
| 10> C         0.457465    1.289015   -0.158414
| 11> C        -0.902477    1.416237   -0.021099
| 12> C        -1.709602    0.278472    0.004736
| 13> C         0.233014   -1.098660   -0.243978
| 14> H         0.685717   -2.076791   -0.331087
| 15> C        -1.138326   -0.984748   -0.108945
| 16> H        -1.747308   -1.875189   -0.094245
| 17> H         1.087132    2.167725   -0.181477
| 18> O        -3.030040    0.500263    0.139588
| 19> C        -3.907111   -0.607212    0.177191
| 20> H        -3.857959   -1.182478   -0.749928
| 21> H        -4.905301   -0.195608    0.293306
| 22> H        -3.683533   -1.260139    1.023642
| 23> H        -1.373920    2.385139    0.065347
| 24> *
| 25>
| 26> $new_job
| 27> ! ri-mp2 aug-cc-pvtz aug-cc-pvtz/c tightscf
| 28> %pal nprocs 16 end
| 29> %maxcore 3800
| 30> %base "TZ_S-F_81_AB"
| 31>
| 32> *xyz 0 1
| 33> F         3.246366   -0.190233    1.107017
| 34> S         2.770995   -0.135666   -0.462177
| 35> C         1.047416    0.026560   -0.267923
| 36> C         0.457465    1.289015   -0.158414
| 37> C        -0.902477    1.416237   -0.021099
| 38> C        -1.709602    0.278472    0.004736
| 39> C         0.233014   -1.098660   -0.243978
| 40> H         0.685717   -2.076791   -0.331087
| 41> C        -1.138326   -0.984748   -0.108945
| 42> H        -1.747308   -1.875189   -0.094245
| 43> H         1.087132    2.167725   -0.181477
| 44> O        -3.030040    0.500263    0.139588
| 45> C        -3.907111   -0.607212    0.177191
| 46> H        -3.857959   -1.182478   -0.749928
| 47> H        -4.905301   -0.195608    0.293306
| 48> H        -3.683533   -1.260139    1.023642
| 49> H        -1.373920    2.385139    0.065347
| 50> *
| 51>
| 52> $new_job
| 53> ! ri-mp2 aug-cc-pvqz aug-cc-pvqz/c tightscf
| 54> %pal nprocs 16 end
| 55> %maxcore 3800
| 56> %base "QZ_S-F_81_AB"
| 57>
| 58> *xyz 0 1
| 59> F         3.246366   -0.190233    1.107017
| 60> S         2.770995   -0.135666   -0.462177
| 61> C         1.047416    0.026560   -0.267923
| 62> C         0.457465    1.289015   -0.158414
| 63> C        -0.902477    1.416237   -0.021099
| 64> C        -1.709602    0.278472    0.004736
| 65> C         0.233014   -1.098660   -0.243978
| 66> H         0.685717   -2.076791   -0.331087
| 67> C        -1.138326   -0.984748   -0.108945
| 68> H        -1.747308   -1.875189   -0.094245
| 69> H         1.087132    2.167725   -0.181477
| 70> O        -3.030040    0.500263    0.139588
| 71> C        -3.907111   -0.607212    0.177191
| 72> H        -3.857959   -1.182478   -0.749928
| 73> H        -4.905301   -0.195608    0.293306
| 74> H        -3.683533   -1.260139    1.023642
| 75> H        -1.373920    2.385139    0.065347
| 76> *
| 77>
| 78>
| 79>
| 80>
| 81>                          ****END OF INPUT****
 Total Charge           Charge          ....    0
 Multiplicity           Mult            ....    1
 Number of Electrons    NEL             ....   82
MP2 TOTAL ENERGY:     -842.484515399 Eh
FINAL SINGLE POINT ENERGY      -842.484515399144
MP2 TOTAL ENERGY:     -842.922651003 Eh
FINAL SINGLE POINT ENERGY      -842.922651002779

CARTESIAN COORDINATES (ANGSTROEM)
---------------------------------
  F      3.246366   -0.190233    1.107017
  S      2.770995   -0.135666   -0.462177
  C      1.047416    0.026560   -0.267923
  C      0.457465    1.289015   -0.158414
  C     -0.902477    1.416237   -0.021099
  C     -1.709602    0.278472    0.004736
  C      0.233014   -1.098660   -0.243978
  H      0.685717   -2.076791   -0.331087
  C     -1.138326   -0.984748   -0.108945
  H     -1.747308   -1.875189   -0.094245
  H      1.087132    2.167725   -0.181477
  O     -3.030040    0.500263    0.139588
  C     -3.907111   -0.607212    0.177191
  H     -3.857959   -1.182478   -0.749928
  H     -4.905301   -0.195608    0.293306
  H     -3.683533   -1.260139    1.023642
  H     -1.373920    2.385139    0.065347

 Multiplicity           Mult            ....    1
 Number of Electrons    NEL             ....   82
 Basis Dimension        Dim             .... 1126

ORBITAL ENERGIES
----------------

  NO   OCC          E(Eh)            E(eV)
   0   2.0000     -92.017276     -2503.9174
   1   2.0000     -26.284209      -715.2297
   2   2.0000     -20.603219      -560.6421
   3   2.0000     -11.325264      -308.1761
   4   2.0000     -11.297680      -307.4255
   5   2.0000     -11.263344      -306.4912
   6   2.0000     -11.260474      -306.4131
   7   2.0000     -11.259273      -306.3804
   8   2.0000     -11.243674      -305.9559
   9   2.0000     -11.239058      -305.8303
  10   2.0000      -9.011537      -245.2164
  11   2.0000      -6.693200      -182.1312
  12   2.0000      -6.691314      -182.0799
  13   2.0000      -6.690133      -182.0478
  14   2.0000      -1.580292       -43.0019
  15   2.0000      -1.437708       -39.1220
  16   2.0000      -1.178570       -32.0705
  17   2.0000      -1.064707       -28.9721
  18   2.0000      -1.044486       -28.4219
  19   2.0000      -0.981722       -26.7140
  20   2.0000      -0.921040       -25.0628
  21   2.0000      -0.857284       -23.3279
  22   2.0000      -0.813090       -22.1253
  23   2.0000      -0.742163       -20.1953
  24   2.0000      -0.694693       -18.9036
  25   2.0000      -0.691514       -18.8171
  26   2.0000      -0.676247       -18.4016
  27   2.0000      -0.662297       -18.0220
  28   2.0000      -0.657537       -17.8925
  29   2.0000      -0.641059       -17.4441
  30   2.0000      -0.613278       -16.6881
  31   2.0000      -0.601838       -16.3768
  32   2.0000      -0.595174       -16.1955
  33   2.0000      -0.547736       -14.9047
  34   2.0000      -0.541660       -14.7393
  35   2.0000      -0.501015       -13.6333
  36   2.0000      -0.493192       -13.4204
  37   2.0000      -0.475753       -12.9459
  38   2.0000      -0.365735        -9.9522
  39   2.0000      -0.361786        -9.8447
  40   2.0000      -0.338678        -9.2159
  41   0.0000       0.019396         0.5278
  42   0.0000       0.027434         0.7465
  43   0.0000       0.031628         0.8606
  44   0.0000       0.036845         1.0026
  45   0.0000       0.043358         1.1798

MULLIKEN ATOMIC CHARGES
-----------------------
   0 F :   -0.661094
   1 S :    0.398712
   2 C :   -0.552841
   3 C :   -0.163668
   4 C :   -0.456845
   5 C :    1.139781
   6 C :   -0.113909
   7 H :    0.376590
   8 C :   -0.410547
   9 H :    0.220476
  10 H :    0.376093
  11 O :   -0.778374
  12 C :   -0.649179
  13 H :    0.246268
  14 H :    0.498903
  15 H :    0.246104
  16 H :    0.283531
Sum of atomic charges:    0.0000000

LOEWDIN ATOMIC CHARGES
----------------------
   0 F :    0.069326
   1 S :    0.726401
   2 C :   -0.605076
   3 C :    0.215968
   4 C :    0.326450
   5 C :   -0.463823
   6 C :    0.220490
   7 H :   -0.346194
   8 C :    0.333519
   9 H :   -0.359407
  10 H :   -0.345985
  11 O :    0.890559
  12 C :    0.585852
  13 H :   -0.304327
  14 H :   -0.314059
  15 H :   -0.304114
  16 H :   -0.325582

  Mayer bond orders larger than 0.100000
B(  0-F ,  1-S ) :   0.5854 B(  0-F ,  2-C ) :  -0.1630 B(  1-S ,  2-C ) :   1.4772
B(  1-S ,  3-C ) :  -0.3670 B(  1-S ,  6-C ) :  -0.3151 B(  2-C ,  3-C ) :   1.0258
B(  2-C ,  6-C ) :   1.0991 B(  2-C ,  8-C ) :  -0.1277 B(  3-C ,  4-C ) :   1.4267
B(  3-C ,  5-C ) :  -0.2834 B(  3-C , 10-H ) :   0.9415 B(  4-C ,  5-C ) :   0.9918
B(  4-C ,  6-C ) :   0.1428 B(  4-C ,  8-C ) :  -0.1076 B(  4-C , 10-H ) :  -0.1201
B(  4-C , 11-O ) :   0.2297 B(  4-C , 16-H ) :   0.9771 B(  5-C ,  6-C ) :  -0.1912
B(  5-C ,  8-C ) :   1.2318 B(  5-C ,  9-H ) :  -0.1109 B(  5-C , 11-O ) :   0.1854
B(  5-C , 12-C ) :  -0.1280 B(  5-C , 16-H ) :  -0.1236 B(  6-C ,  7-H ) :   0.9422
B(  6-C ,  8-C ) :   1.0609 B(  6-C ,  9-H ) :  -0.1068 B(  7-H ,  8-C ) :  -0.1272
B(  8-C ,  9-H ) :   1.0950 B(  8-C , 11-O ) :   0.1500 B(  8-C , 12-C ) :   0.1201
B( 11-O , 12-C ) :   0.9081 B( 12-C , 13-H ) :   0.9290 B( 12-C , 14-H ) :   0.7404
B( 12-C , 15-H ) :   0.9269

MP2 TOTAL ENERGY:     -843.064363620 Eh
FINAL SINGLE POINT ENERGY      -843.064363619575

DIPOLE MOMENT
-------------
                                X             Y             Z
Electronic contribution:     15.03253       1.40417       0.66424
Nuclear contribution   :    -16.68089      -1.78875      -1.02343
                        -----------------------------------------
Total Dipole Moment    :     -1.64836      -0.38458      -0.35919
                        -----------------------------------------
Magnitude (a.u.)       :      1.73032
Magnitude (Debye)      :      4.39813

Rotational constants in cm-1:     0.123296     0.017819     0.016634
Rotational constants in MHz :  3696.319070   534.200323   498.673137

                             ****ORCA TERMINATED NORMALLY****
TOTAL RUN TIME: 0 days 0 hours 43 minutes 40 seconds 494 msec
