                         Program Version 5.0.4 -  RELEASE  -
|  1> ! ri-mp2 aug-cc-pvdz aug-cc-pvdz/c tightscf
|  2> %pal nprocs 16 end
|  3> %maxcore 3800
|  4> %base "DZ_B-F_16_A"
|  5> %scf
|  6> STABPerform true
|  7> STABRestartUHFifUnstable true
|  8> end
|  9>
| 10> *xyz 0 2
| 11> F        -2.237301   -0.030728   -1.067452
| 12> B        -0.978363    0.203383   -1.252806
| 13> C         0.102761   -0.007477   -0.105753
| 14> Cl         1.694670   -0.381866   -0.768615
| 15> Cl        -0.379511   -1.255982    1.056509
| 16> Cl         0.120780    1.596936    0.683024
| 17> *
| 18>
| 19> $new_job
| 20> ! ri-mp2 aug-cc-pvtz aug-cc-pvtz/c tightscf
| 21> %pal nprocs 16 end
| 22> %maxcore 3800
| 23> %base "TZ_B-F_16_A"
| 24>
| 25> *xyz 0 2
| 26> F        -2.237301   -0.030728   -1.067452
| 27> B        -0.978363    0.203383   -1.252806
| 28> C         0.102761   -0.007477   -0.105753
| 29> Cl         1.694670   -0.381866   -0.768615
| 30> Cl        -0.379511   -1.255982    1.056509
| 31> Cl         0.120780    1.596936    0.683024
| 32> *
| 33>
| 34> $new_job
| 35> ! ri-mp2 aug-cc-pvqz aug-cc-pvqz/c tightscf
| 36> %pal nprocs 16 end
| 37> %maxcore 3800
| 38> %base "QZ_B-F_16_A"
| 39>
| 40> *xyz 0 2
| 41> F        -2.237301   -0.030728   -1.067452
| 42> B        -0.978363    0.203383   -1.252806
| 43> C         0.102761   -0.007477   -0.105753
| 44> Cl         1.694670   -0.381866   -0.768615
| 45> Cl        -0.379511   -1.255982    1.056509
| 46> Cl         0.120780    1.596936    0.683024
| 47> *
| 48>
| 49>
| 50>
| 51>
| 52>                          ****END OF INPUT****
 Total Charge           Charge          ....    0
 Multiplicity           Mult            ....    2
 Number of Electrons    NEL             ....   71
MP2 TOTAL ENERGY:    -1541.336961585 Eh
FINAL SINGLE POINT ENERGY     -1541.336961584904
MP2 TOTAL ENERGY:    -1541.655379073 Eh
FINAL SINGLE POINT ENERGY     -1541.655379073488

CARTESIAN COORDINATES (ANGSTROEM)
---------------------------------
  F     -2.237301   -0.030728   -1.067452
  B     -0.978363    0.203383   -1.252806
  C      0.102761   -0.007477   -0.105753
  Cl     1.694670   -0.381866   -0.768615
  Cl    -0.379511   -1.255982    1.056509
  Cl     0.120780    1.596936    0.683024

 Multiplicity           Mult            ....    2
 Number of Electrons    NEL             ....   71
 Basis Dimension        Dim             ....  492

ORBITAL ENERGIES
----------------
                 SPIN UP ORBITALS
  NO   OCC          E(Eh)            E(eV)
   0   1.0000    -104.875615     -2853.8106
   1   1.0000    -104.870744     -2853.6780
   2   1.0000    -104.869229     -2853.6368
   3   1.0000     -26.350055      -717.0215
   4   1.0000     -11.429508      -311.0127
   5   1.0000     -10.601085      -288.4702
   6   1.0000     -10.596389      -288.3424
   7   1.0000     -10.594811      -288.2995
   8   1.0000      -8.068010      -219.5417
   9   1.0000      -8.066090      -219.4895
  10   1.0000      -8.065971      -219.4862
  11   1.0000      -8.063233      -219.4117
  12   1.0000      -8.062390      -219.3888
  13   1.0000      -8.061443      -219.3630
  14   1.0000      -8.061382      -219.3614
  15   1.0000      -8.059745      -219.3168
  16   1.0000      -8.059713      -219.3159
  17   1.0000      -7.729463      -210.3294
  18   1.0000      -1.671050       -45.4716
  19   1.0000      -1.248773       -33.9808
  20   1.0000      -1.123171       -30.5630
  21   1.0000      -1.120367       -30.4867
  22   1.0000      -0.896024       -24.3820
  23   1.0000      -0.819160       -22.2905
  24   1.0000      -0.748653       -20.3719
  25   1.0000      -0.720843       -19.6151
  26   1.0000      -0.680779       -18.5249
  27   1.0000      -0.633286       -17.2326
  28   1.0000      -0.631110       -17.1734
  29   1.0000      -0.514629       -14.0038
  30   1.0000      -0.513485       -13.9726
  31   1.0000      -0.477176       -12.9846
  32   1.0000      -0.475177       -12.9302
  33   1.0000      -0.468253       -12.7418
  34   1.0000      -0.457907       -12.4603
  35   1.0000      -0.392002       -10.6669
  36   0.0000       0.032264         0.8780
  37   0.0000       0.034198         0.9306
  38   0.0000       0.039037         1.0623
  39   0.0000       0.043514         1.1841
  40   0.0000       0.062721         1.7067

                 SPIN DOWN ORBITALS
  NO   OCC          E(Eh)            E(eV)
   0   1.0000    -104.875676     -2853.8122
   1   1.0000    -104.870808     -2853.6798
   2   1.0000    -104.868844     -2853.6263
   3   1.0000     -26.347106      -716.9412
   4   1.0000     -11.426205      -310.9228
   5   1.0000     -10.601153      -288.4720
   6   1.0000     -10.596445      -288.3439
   7   1.0000     -10.594414      -288.2887
   8   1.0000      -8.068092      -219.5440
   9   1.0000      -8.066215      -219.4929
  10   1.0000      -8.066074      -219.4890
  11   1.0000      -8.063593      -219.4215
  12   1.0000      -8.061468      -219.3637
  13   1.0000      -8.061372      -219.3611
  14   1.0000      -8.060947      -219.3495
  15   1.0000      -8.059540      -219.3112
  16   1.0000      -8.059322      -219.3053
  17   1.0000      -7.707938      -209.7436
  18   1.0000      -1.662629       -45.2424
  19   1.0000      -1.245351       -33.8877
  20   1.0000      -1.123043       -30.5595
  21   1.0000      -1.118374       -30.4325
  22   1.0000      -0.879928       -23.9440
  23   1.0000      -0.808811       -22.0089
  24   1.0000      -0.724134       -19.7047
  25   1.0000      -0.721523       -19.6336
  26   1.0000      -0.660015       -17.9599
  27   1.0000      -0.631921       -17.1954
  28   1.0000      -0.626197       -17.0397
  29   1.0000      -0.514275       -13.9941
  30   1.0000      -0.510714       -13.8972
  31   1.0000      -0.475215       -12.9313
  32   1.0000      -0.472901       -12.8683
  33   1.0000      -0.457681       -12.4541
  34   1.0000      -0.456278       -12.4160
  35   0.0000       0.023927         0.6511
  36   0.0000       0.035587         0.9684
  37   0.0000       0.038889         1.0582
  38   0.0000       0.043486         1.1833
  39   0.0000       0.058050         1.5796

MULLIKEN ATOMIC CHARGES AND SPIN POPULATIONS
--------------------------------------------
   0 F :   -0.709046   -0.020916
   1 B :    0.937600    1.002651
   2 C :    0.281505   -0.007397
   3 Cl:   -0.165321   -0.007660
   4 Cl:   -0.184570    0.032491
   5 Cl:   -0.160168    0.000831
Sum of atomic charges         :    0.0000000

LOEWDIN ATOMIC CHARGES AND SPIN POPULATIONS
-------------------------------------------
   0 F :    0.731799    0.145816
   1 B :   -1.310410    0.587708
   2 C :   -2.449078    0.181131
   3 Cl:    0.999405    0.024061
   4 Cl:    1.004235    0.037760
   5 Cl:    1.024049    0.023522

  Mayer bond orders larger than 0.100000
B(  0-F ,  1-B ) :   0.4508 B(  1-B ,  2-C ) :   0.7829 B(  2-C ,  3-Cl) :   0.8261
B(  2-C ,  4-Cl) :   0.8244 B(  2-C ,  5-Cl) :   0.8460

MP2 TOTAL ENERGY:    -1541.760844789 Eh
FINAL SINGLE POINT ENERGY     -1541.760844788964

DIPOLE MOMENT
-------------
                                X             Y             Z
Electronic contribution:     -0.83655       0.09158      -0.79016
Nuclear contribution   :      0.84910      -0.06750       0.60712
                        -----------------------------------------
Total Dipole Moment    :      0.01255       0.02408      -0.18304
                        -----------------------------------------
Magnitude (a.u.)       :      0.18504
Magnitude (Debye)      :      0.47034

Rotational constants in cm-1:     0.062957     0.051269     0.046187
Rotational constants in MHz :  1887.389607  1537.012911  1384.640550

                             ****ORCA TERMINATED NORMALLY****
TOTAL RUN TIME: 0 days 0 hours 34 minutes 5 seconds 61 msec
