                         Program Version 5.0.4 -  RELEASE  -
|  1> ! ri-mp2 aug-cc-pvdz aug-cc-pvdz/c tightscf
|  2> %pal nprocs 16 end
|  3> %maxcore 3800
|  4> %base "DZ_S-Cl_8_A"
|  5> %scf
|  6> STABPerform true
|  7> STABRestartUHFifUnstable true
|  8> end
|  9>
| 10> *xyz 0 2
| 11> S         0.814555    1.491863   -0.088032
| 12> C        -0.031048    0.033591    0.481472
| 13> Cl        -1.704772   -0.076896   -0.093946
| 14> Cl         0.953186   -1.337175   -0.084975
| 15> H        -0.069624   -0.032149    1.561323
| 16> *
| 17>
| 18> $new_job
| 19> ! ri-mp2 aug-cc-pvtz aug-cc-pvtz/c tightscf
| 20> %pal nprocs 16 end
| 21> %maxcore 3800
| 22> %base "TZ_S-Cl_8_A"
| 23>
| 24> *xyz 0 2
| 25> S         0.814555    1.491863   -0.088032
| 26> C        -0.031048    0.033591    0.481472
| 27> Cl        -1.704772   -0.076896   -0.093946
| 28> Cl         0.953186   -1.337175   -0.084975
| 29> H        -0.069624   -0.032149    1.561323
| 30> *
| 31>
| 32> $new_job
| 33> ! ri-mp2 aug-cc-pvqz aug-cc-pvqz/c tightscf
| 34> %pal nprocs 16 end
| 35> %maxcore 3800
| 36> %base "QZ_S-Cl_8_A"
| 37>
| 38> *xyz 0 2
| 39> S         0.814555    1.491863   -0.088032
| 40> C        -0.031048    0.033591    0.481472
| 41> Cl        -1.704772   -0.076896   -0.093946
| 42> Cl         0.953186   -1.337175   -0.084975
| 43> H        -0.069624   -0.032149    1.561323
| 44> *
| 45>
| 46>
| 47>
| 48>
| 49>                          ****END OF INPUT****
 Total Charge           Charge          ....    0
 Multiplicity           Mult            ....    2
 Number of Electrons    NEL             ....   57
MP2 TOTAL ENERGY:    -1355.512895599 Eh
FINAL SINGLE POINT ENERGY     -1355.512895598876
MP2 TOTAL ENERGY:    -1355.715673925 Eh
FINAL SINGLE POINT ENERGY     -1355.715673924750

CARTESIAN COORDINATES (ANGSTROEM)
---------------------------------
  S      0.814555    1.491863   -0.088032
  C     -0.031048    0.033591    0.481472
  Cl    -1.704772   -0.076896   -0.093946
  Cl     0.953186   -1.337175   -0.084975
  H     -0.069624   -0.032149    1.561323

 Multiplicity           Mult            ....    2
 Number of Electrons    NEL             ....   57
 Basis Dimension        Dim             ....  378

ORBITAL ENERGIES
----------------
                 SPIN UP ORBITALS
  NO   OCC          E(Eh)            E(eV)
   0   1.0000    -104.864858     -2853.5179
   1   1.0000    -104.858060     -2853.3329
   2   1.0000     -92.006763     -2503.6313
   3   1.0000     -11.402533      -310.2787
   4   1.0000     -10.590372      -288.1787
   5   1.0000     -10.583731      -287.9980
   6   1.0000      -9.008892      -245.1444
   7   1.0000      -8.058363      -219.2792
   8   1.0000      -8.055575      -219.2034
   9   1.0000      -8.055141      -219.1915
  10   1.0000      -8.050856      -219.0749
  11   1.0000      -8.048944      -219.0229
  12   1.0000      -8.048729      -219.0170
  13   1.0000      -6.704681      -182.4436
  14   1.0000      -6.686070      -181.9372
  15   1.0000      -6.684372      -181.8910
  16   1.0000      -1.220713       -33.2173
  17   1.0000      -1.112649       -30.2767
  18   1.0000      -1.027765       -27.9669
  19   1.0000      -0.847506       -23.0618
  20   1.0000      -0.665798       -18.1173
  21   1.0000      -0.620996       -16.8982
  22   1.0000      -0.591499       -16.0955
  23   1.0000      -0.506831       -13.7916
  24   1.0000      -0.487033       -13.2528
  25   1.0000      -0.464099       -12.6288
  26   1.0000      -0.456064       -12.4101
  27   1.0000      -0.445468       -12.1218
  28   1.0000      -0.404147       -10.9974
  29   0.0000       0.029664         0.8072
  30   0.0000       0.047629         1.2960
  31   0.0000       0.055132         1.5002
  32   0.0000       0.057197         1.5564
  33   0.0000       0.085107         2.3159

                 SPIN DOWN ORBITALS
  NO   OCC          E(Eh)            E(eV)
   0   1.0000    -104.863899     -2853.4918
   1   1.0000    -104.857903     -2853.3286
   2   1.0000     -91.997511     -2503.3796
   3   1.0000     -11.404055      -310.3201
   4   1.0000     -10.589327      -288.1502
   5   1.0000     -10.583567      -287.9935
   6   1.0000      -8.998680      -244.8665
   7   1.0000      -8.055937      -219.2132
   8   1.0000      -8.054586      -219.1764
   9   1.0000      -8.053658      -219.1512
  10   1.0000      -8.050445      -219.0637
  11   1.0000      -8.048695      -219.0161
  12   1.0000      -8.048554      -219.0123
  13   1.0000      -6.681193      -181.8045
  14   1.0000      -6.679038      -181.7459
  15   1.0000      -6.662794      -181.3038
  16   1.0000      -1.213763       -33.0282
  17   1.0000      -1.108076       -30.1523
  18   1.0000      -0.973109       -26.4796
  19   1.0000      -0.815991       -22.2042
  20   1.0000      -0.658144       -17.9090
  21   1.0000      -0.605336       -16.4720
  22   1.0000      -0.578929       -15.7535
  23   1.0000      -0.487185       -13.2570
  24   1.0000      -0.480746       -13.0818
  25   1.0000      -0.459575       -12.5057
  26   1.0000      -0.450456       -12.2575
  27   1.0000      -0.385381       -10.4867
  28   0.0000      -0.008548        -0.2326
  29   0.0000       0.030003         0.8164
  30   0.0000       0.048595         1.3223
  31   0.0000       0.056307         1.5322
  32   0.0000       0.060962         1.6588

MULLIKEN ATOMIC CHARGES AND SPIN POPULATIONS
--------------------------------------------
   0 S :    0.085267    1.052827
   1 C :   -0.199811   -0.115197
   2 Cl:   -0.157363    0.009674
   3 Cl:   -0.126520    0.044935
   4 H :    0.398428    0.007761
Sum of atomic charges         :    0.0000000

LOEWDIN ATOMIC CHARGES AND SPIN POPULATIONS
-------------------------------------------
   0 S :    0.783055    0.734170
   1 C :   -2.018043    0.180607
   2 Cl:    0.967892    0.013877
   3 Cl:    0.962971    0.065186
   4 H :   -0.695876    0.006161

  Mayer bond orders larger than 0.100000
B(  0-S ,  1-C ) :   0.9636 B(  1-C ,  2-Cl) :   0.9037 B(  1-C ,  3-Cl) :   0.9048
B(  1-C ,  4-H ) :   0.7818

MP2 TOTAL ENERGY:    -1355.782740726 Eh
FINAL SINGLE POINT ENERGY     -1355.782740726086

DIPOLE MOMENT
-------------
                                X             Y             Z
Electronic contribution:     -0.83872      -1.65808      -1.22488
Nuclear contribution   :      0.90497       1.79504       1.67981
                        -----------------------------------------
Total Dipole Moment    :      0.06625       0.13697       0.45493
                        -----------------------------------------
Magnitude (a.u.)       :      0.47970
Magnitude (Debye)      :      1.21929

Rotational constants in cm-1:     0.119686     0.103627     0.057838
Rotational constants in MHz :  3588.086687  3106.663778  1733.928930

                             ****ORCA TERMINATED NORMALLY****
TOTAL RUN TIME: 0 days 0 hours 10 minutes 58 seconds 460 msec
