                         Program Version 5.0.4 -  RELEASE  -
|  1> ! ri-mp2 aug-cc-pvdz aug-cc-pvdz/c tightscf
|  2> %pal nprocs 16 end
|  3> %maxcore 3800
|  4> %base "DZ_B-F_9_AB"
|  5> %scf
|  6> STABPerform true
|  7> STABRestartUHFifUnstable true
|  8> end
|  9>
| 10> *xyz 0 1
| 11> F         1.561907   -1.029497   -0.148754
| 12> F         1.331877    1.180295    0.251801
| 13> B         0.795691    0.029837   -0.060424
| 14> C        -0.765161   -0.106518   -0.369310
| 15> F        -1.289293   -1.101328    0.410285
| 16> F        -1.426778    1.045035   -0.076784
| 17> H        -0.986908   -0.360619   -1.410947
| 18> *
| 19>
| 20> $new_job
| 21> ! ri-mp2 aug-cc-pvtz aug-cc-pvtz/c tightscf
| 22> %pal nprocs 16 end
| 23> %maxcore 3800
| 24> %base "TZ_B-F_9_AB"
| 25>
| 26> *xyz 0 1
| 27> F         1.561907   -1.029497   -0.148754
| 28> F         1.331877    1.180295    0.251801
| 29> B         0.795691    0.029837   -0.060424
| 30> C        -0.765161   -0.106518   -0.369310
| 31> F        -1.289293   -1.101328    0.410285
| 32> F        -1.426778    1.045035   -0.076784
| 33> H        -0.986908   -0.360619   -1.410947
| 34> *
| 35>
| 36> $new_job
| 37> ! ri-mp2 aug-cc-pvqz aug-cc-pvqz/c tightscf
| 38> %pal nprocs 16 end
| 39> %maxcore 3800
| 40> %base "QZ_B-F_9_AB"
| 41>
| 42> *xyz 0 1
| 43> F         1.561907   -1.029497   -0.148754
| 44> F         1.331877    1.180295    0.251801
| 45> B         0.795691    0.029837   -0.060424
| 46> C        -0.765161   -0.106518   -0.369310
| 47> F        -1.289293   -1.101328    0.410285
| 48> F        -1.426778    1.045035   -0.076784
| 49> H        -0.986908   -0.360619   -1.410947
| 50> *
| 51>
| 52>
| 53>
| 54>
| 55>                          ****END OF INPUT****
 Total Charge           Charge          ....    0
 Multiplicity           Mult            ....    1
 Number of Electrons    NEL             ....   48
MP2 TOTAL ENERGY:     -462.079011209 Eh
FINAL SINGLE POINT ENERGY      -462.079011209329
MP2 TOTAL ENERGY:     -462.473644014 Eh
FINAL SINGLE POINT ENERGY      -462.473644013621

CARTESIAN COORDINATES (ANGSTROEM)
---------------------------------
  F      1.561907   -1.029497   -0.148754
  F      1.331877    1.180295    0.251801
  B      0.795691    0.029837   -0.060424
  C     -0.765161   -0.106518   -0.369310
  F     -1.289293   -1.101328    0.410285
  F     -1.426778    1.045035   -0.076784
  H     -0.986908   -0.360619   -1.410947

 Multiplicity           Mult            ....    1
 Number of Electrons    NEL             ....   48
 Basis Dimension        Dim             ....  526

ORBITAL ENERGIES
----------------

  NO   OCC          E(Eh)            E(eV)
   0   2.0000     -26.340952      -716.7737
   1   2.0000     -26.340346      -716.7573
   2   2.0000     -26.322098      -716.2607
   3   2.0000     -26.321053      -716.2323
   4   2.0000     -11.409757      -310.4753
   5   2.0000      -7.742274      -210.6780
   6   2.0000      -1.677845       -45.6565
   7   2.0000      -1.667800       -45.3832
   8   2.0000      -1.644919       -44.7605
   9   2.0000      -1.610680       -43.8288
  10   2.0000      -0.987722       -26.8773
  11   2.0000      -0.850188       -23.1348
  12   2.0000      -0.803575       -21.8664
  13   2.0000      -0.799112       -21.7449
  14   2.0000      -0.785322       -21.3697
  15   2.0000      -0.760097       -20.6833
  16   2.0000      -0.738992       -20.1090
  17   2.0000      -0.714798       -19.4507
  18   2.0000      -0.688764       -18.7422
  19   2.0000      -0.685606       -18.6563
  20   2.0000      -0.673273       -18.3207
  21   2.0000      -0.643531       -17.5114
  22   2.0000      -0.622968       -16.9518
  23   2.0000      -0.522176       -14.2091
  24   0.0000       0.022144         0.6026
  25   0.0000       0.037383         1.0172
  26   0.0000       0.038576         1.0497
  27   0.0000       0.040397         1.0993
  28   0.0000       0.068844         1.8733

MULLIKEN ATOMIC CHARGES
-----------------------
   0 F :   -0.742216
   1 F :   -0.754070
   2 B :    1.610752
   3 C :    0.819580
   4 F :   -0.615993
   5 F :   -0.606608
   6 H :    0.288554
Sum of atomic charges:   -0.0000000

LOEWDIN ATOMIC CHARGES
----------------------
   0 F :    0.824495
   1 F :    0.826602
   2 B :   -1.767795
   3 C :   -0.953998
   4 F :    0.743743
   5 F :    0.750297
   6 H :   -0.423343

  Mayer bond orders larger than 0.100000
B(  0-F ,  2-B ) :   0.4354 B(  1-F ,  2-B ) :   0.4319 B(  2-B ,  3-C ) :   0.9284
B(  3-C ,  4-F ) :   0.5736 B(  3-C ,  5-F ) :   0.5957 B(  3-C ,  6-H ) :   0.8453

MP2 TOTAL ENERGY:     -462.601900493 Eh
FINAL SINGLE POINT ENERGY      -462.601900492527

DIPOLE MOMENT
-------------
                                X             Y             Z
Electronic contribution:      1.81274       0.32815       0.98151
Nuclear contribution   :     -1.62880      -0.43167      -1.61959
                        -----------------------------------------
Total Dipole Moment    :      0.18393      -0.10352      -0.63808
                        -----------------------------------------
Magnitude (a.u.)       :      0.67209
Magnitude (Debye)      :      1.70831

Rotational constants in cm-1:     0.169881     0.097043     0.065897
Rotational constants in MHz :  5092.917918  2909.284565  1975.542218

                             ****ORCA TERMINATED NORMALLY****
TOTAL RUN TIME: 0 days 0 hours 11 minutes 54 seconds 111 msec
