                         Program Version 5.0.4 -  RELEASE  -
|  1> ! ri-mp2 aug-cc-pvdz aug-cc-pvdz/c tightscf
|  2> %pal nprocs 16 end
|  3> %maxcore 3800
|  4> %base "DZ_B-S_37_A"
|  5> %scf
|  6> STABPerform true
|  7> STABRestartUHFifUnstable true
|  8> end
|  9>
| 10> *xyz 0 2
| 11> C         0.956599   -0.761252   -0.000008
| 12> C        -0.139113    0.268974    0.000001
| 13> S        -1.806858   -0.314834    0.000005
| 14> O         0.028934    1.457762    0.000001
| 15> C         2.345531   -0.148234   -0.000004
| 16> H         0.802526   -1.401704   -0.872432
| 17> H         0.802527   -1.401720    0.872405
| 18> H         2.496823    0.477092   -0.878102
| 19> H         3.101452   -0.932424   -0.000011
| 20> H         2.496825    0.477076    0.878106
| 21> *
| 22>
| 23> $new_job
| 24> ! ri-mp2 aug-cc-pvtz aug-cc-pvtz/c tightscf
| 25> %pal nprocs 16 end
| 26> %maxcore 3800
| 27> %base "TZ_B-S_37_A"
| 28>
| 29> *xyz 0 2
| 30> C         0.956599   -0.761252   -0.000008
| 31> C        -0.139113    0.268974    0.000001
| 32> S        -1.806858   -0.314834    0.000005
| 33> O         0.028934    1.457762    0.000001
| 34> C         2.345531   -0.148234   -0.000004
| 35> H         0.802526   -1.401704   -0.872432
| 36> H         0.802527   -1.401720    0.872405
| 37> H         2.496823    0.477092   -0.878102
| 38> H         3.101452   -0.932424   -0.000011
| 39> H         2.496825    0.477076    0.878106
| 40> *
| 41>
| 42> $new_job
| 43> ! ri-mp2 aug-cc-pvqz aug-cc-pvqz/c tightscf
| 44> %pal nprocs 16 end
| 45> %maxcore 3800
| 46> %base "QZ_B-S_37_A"
| 47>
| 48> *xyz 0 2
| 49> C         0.956599   -0.761252   -0.000008
| 50> C        -0.139113    0.268974    0.000001
| 51> S        -1.806858   -0.314834    0.000005
| 52> O         0.028934    1.457762    0.000001
| 53> C         2.345531   -0.148234   -0.000004
| 54> H         0.802526   -1.401704   -0.872432
| 55> H         0.802527   -1.401720    0.872405
| 56> H         2.496823    0.477092   -0.878102
| 57> H         3.101452   -0.932424   -0.000011
| 58> H         2.496825    0.477076    0.878106
| 59> *
| 60>
| 61>
| 62>
| 63>
| 64>                          ****END OF INPUT****
 Total Charge           Charge          ....    0
 Multiplicity           Mult            ....    2
 Number of Electrons    NEL             ....   47
MP2 TOTAL ENERGY:     -589.656102305 Eh
FINAL SINGLE POINT ENERGY      -589.656102304758
MP2 TOTAL ENERGY:     -589.871932563 Eh
FINAL SINGLE POINT ENERGY      -589.871932562798

CARTESIAN COORDINATES (ANGSTROEM)
---------------------------------
  C      0.956599   -0.761252   -0.000008
  C     -0.139113    0.268974    0.000001
  S     -1.806858   -0.314834    0.000005
  O      0.028934    1.457762    0.000001
  C      2.345531   -0.148234   -0.000004
  H      0.802526   -1.401704   -0.872432
  H      0.802527   -1.401720    0.872405
  H      2.496823    0.477092   -0.878102
  H      3.101452   -0.932424   -0.000011
  H      2.496825    0.477076    0.878106

 Multiplicity           Mult            ....    2
 Number of Electrons    NEL             ....   47
 Basis Dimension        Dim             ....  634

ORBITAL ENERGIES
----------------
                 SPIN UP ORBITALS
  NO   OCC          E(Eh)            E(eV)
   0   1.0000     -91.997973     -2503.3921
   1   1.0000     -20.563724      -559.5674
   2   1.0000     -11.369355      -309.3759
   3   1.0000     -11.258179      -306.3506
   4   1.0000     -11.229285      -305.5644
   5   1.0000      -9.001023      -244.9303
   6   1.0000      -6.697064      -182.2364
   7   1.0000      -6.678047      -181.7189
   8   1.0000      -6.676889      -181.6874
   9   1.0000      -1.419084       -38.6152
  10   1.0000      -1.087933       -29.6042
  11   1.0000      -1.026212       -27.9247
  12   1.0000      -0.896264       -24.3886
  13   1.0000      -0.743323       -20.2269
  14   1.0000      -0.669764       -18.2252
  15   1.0000      -0.653142       -17.7729
  16   1.0000      -0.627256       -17.0685
  17   1.0000      -0.558963       -15.2102
  18   1.0000      -0.557638       -15.1741
  19   1.0000      -0.531507       -14.4630
  20   1.0000      -0.509502       -13.8642
  21   1.0000      -0.467701       -12.7268
  22   1.0000      -0.424371       -11.5477
  23   1.0000      -0.405770       -11.0416
  24   0.0000       0.023122         0.6292
  25   0.0000       0.035702         0.9715
  26   0.0000       0.035781         0.9737
  27   0.0000       0.042077         1.1450
  28   0.0000       0.056013         1.5242

                 SPIN DOWN ORBITALS
  NO   OCC          E(Eh)            E(eV)
   0   1.0000     -91.988625     -2503.1377
   1   1.0000     -20.562281      -559.5281
   2   1.0000     -11.370244      -309.4001
   3   1.0000     -11.258072      -306.3477
   4   1.0000     -11.229088      -305.5590
   5   1.0000      -8.990705      -244.6495
   6   1.0000      -6.673135      -181.5852
   7   1.0000      -6.671280      -181.5348
   8   1.0000      -6.654911      -181.0893
   9   1.0000      -1.414655       -38.4947
  10   1.0000      -1.080607       -29.4048
  11   1.0000      -0.973134       -26.4803
  12   1.0000      -0.876111       -23.8402
  13   1.0000      -0.733570       -19.9615
  14   1.0000      -0.656934       -17.8761
  15   1.0000      -0.652823       -17.7642
  16   1.0000      -0.612235       -16.6598
  17   1.0000      -0.556290       -15.1374
  18   1.0000      -0.550203       -14.9718
  19   1.0000      -0.529562       -14.4101
  20   1.0000      -0.509081       -13.8528
  21   1.0000      -0.416068       -11.3218
  22   1.0000      -0.386035       -10.5045
  23   0.0000      -0.001634        -0.0445
  24   0.0000       0.023504         0.6396
  25   0.0000       0.035806         0.9743
  26   0.0000       0.037364         1.0167
  27   0.0000       0.042584         1.1588

MULLIKEN ATOMIC CHARGES AND SPIN POPULATIONS
--------------------------------------------
   0 C :   -0.343848    0.002017
   1 C :    0.444667   -0.135001
   2 S :    0.048919    1.121778
   3 O :   -0.700376    0.010651
   4 C :   -0.768664    0.004505
   5 H :    0.275750   -0.001969
   6 H :    0.275752   -0.001969
   7 H :    0.228320    0.000060
   8 H :    0.311162   -0.000132
   9 H :    0.228318    0.000060
Sum of atomic charges         :    0.0000000

LOEWDIN ATOMIC CHARGES AND SPIN POPULATIONS
-------------------------------------------
   0 C :    0.324024    0.021724
   1 C :   -1.343701    0.190508
   2 S :    1.031487    0.740545
   3 O :    0.593239    0.028949
   4 C :    0.889877    0.002145
   5 H :   -0.315523    0.007394
   6 H :   -0.315523    0.007394
   7 H :   -0.290219    0.000430
   8 H :   -0.283444    0.000481
   9 H :   -0.290218    0.000430

  Mayer bond orders larger than 0.100000
B(  0-C ,  1-C ) :   0.8921 B(  0-C ,  2-S ) :  -0.1318 B(  0-C ,  3-O ) :   0.1351
B(  0-C ,  4-C ) :   0.9694 B(  0-C ,  5-H ) :   0.8770 B(  0-C ,  6-H ) :   0.8770
B(  1-C ,  2-S ) :   0.9927 B(  1-C ,  3-O ) :   1.4743 B(  4-C ,  7-H ) :   0.9512
B(  4-C ,  8-H ) :   0.9283 B(  4-C ,  9-H ) :   0.9512

MP2 TOTAL ENERGY:     -589.941522729 Eh
FINAL SINGLE POINT ENERGY      -589.941522728592

DIPOLE MOMENT
-------------
                                X             Y             Z
Electronic contribution:     -9.23987       1.62052       0.00003
Nuclear contribution   :      9.66195      -2.72238      -0.00003
                        -----------------------------------------
Total Dipole Moment    :      0.42208      -1.10186      -0.00000
                        -----------------------------------------
Magnitude (a.u.)       :      1.17993
Magnitude (Debye)      :      2.99915

Rotational constants in cm-1:     0.315032     0.081187     0.066115
Rotational constants in MHz :  9444.425291  2433.920581  1982.088541

                             ****ORCA TERMINATED NORMALLY****
TOTAL RUN TIME: 0 days 1 hours 0 minutes 33 seconds 962 msec
