                         Program Version 5.0.4 -  RELEASE  -
|  1> ! ri-mp2 aug-cc-pvdz aug-cc-pvdz/c tightscf
|  2> %pal nprocs 16 end
|  3> %maxcore 3800
|  4> %base "DZ_Si-F_18_AB"
|  5>
|  6> *xyz 0 1
|  7> Si         0.000000    0.130485    0.000000
|  8> O         0.000000    1.627407    0.000000
|  9> F         1.237000   -0.824780    0.000000
| 10> F        -1.237000   -0.824780    0.000000
| 11> *
| 12>
| 13> $new_job
| 14> ! ri-mp2 aug-cc-pvtz aug-cc-pvtz/c tightscf
| 15> %pal nprocs 16 end
| 16> %maxcore 3800
| 17> %base "TZ_Si-F_18_AB"
| 18>
| 19> *xyz 0 1
| 20> Si         0.000000    0.130485    0.000000
| 21> O         0.000000    1.627407    0.000000
| 22> F         1.237000   -0.824780    0.000000
| 23> F        -1.237000   -0.824780    0.000000
| 24> *
| 25>
| 26> $new_job
| 27> ! ri-mp2 aug-cc-pvqz aug-cc-pvqz/c tightscf
| 28> %pal nprocs 16 end
| 29> %maxcore 3800
| 30> %base "QZ_Si-F_18_AB"
| 31>
| 32> *xyz 0 1
| 33> Si         0.000000    0.130485    0.000000
| 34> O         0.000000    1.627407    0.000000
| 35> F         1.237000   -0.824780    0.000000
| 36> F        -1.237000   -0.824780    0.000000
| 37> *
| 38>
| 39>
| 40>
| 41>
| 42>                          ****END OF INPUT****
 Total Charge           Charge          ....    0
 Multiplicity           Mult            ....    1
 Number of Electrons    NEL             ....   40
MP2 TOTAL ENERGY:     -563.506823661 Eh
FINAL SINGLE POINT ENERGY      -563.506823661353
MP2 TOTAL ENERGY:     -563.790189833 Eh
FINAL SINGLE POINT ENERGY      -563.790189833186

CARTESIAN COORDINATES (ANGSTROEM)
---------------------------------
  Si     0.000000    0.130485    0.000000
  O      0.000000    1.627407    0.000000
  F      1.237000   -0.824780    0.000000
  F     -1.237000   -0.824780    0.000000

 Multiplicity           Mult            ....    1
 Number of Electrons    NEL             ....   40
 Basis Dimension        Dim             ....  324

ORBITAL ENERGIES
----------------

  NO   OCC          E(Eh)            E(eV)
   0   2.0000     -68.903543     -1874.9607
   1   2.0000     -26.360943      -717.3177
   2   2.0000     -26.360931      -717.3174
   3   2.0000     -20.539654      -558.9124
   4   2.0000      -6.244477      -169.9209
   5   2.0000      -4.355133      -118.5092
   6   2.0000      -4.351545      -118.4116
   7   2.0000      -4.349879      -118.3662
   8   2.0000      -1.676731       -45.6262
   9   2.0000      -1.653990       -45.0074
  10   2.0000      -1.282215       -34.8908
  11   2.0000      -0.842235       -22.9184
  12   2.0000      -0.780611       -21.2415
  13   2.0000      -0.755133       -20.5482
  14   2.0000      -0.749708       -20.4006
  15   2.0000      -0.721092       -19.6219
  16   2.0000      -0.707821       -19.2608
  17   2.0000      -0.571472       -15.5505
  18   2.0000      -0.497579       -13.5398
  19   2.0000      -0.494947       -13.4682
  20   0.0000       0.013109         0.3567
  21   0.0000       0.035076         0.9545
  22   0.0000       0.042901         1.1674
  23   0.0000       0.044576         1.2130
  24   0.0000       0.092189         2.5086

MULLIKEN ATOMIC CHARGES
-----------------------
   0 Si:    2.344216
   1 O :   -1.041397
   2 F :   -0.651409
   3 F :   -0.651409
Sum of atomic charges:   -0.0000000

LOEWDIN ATOMIC CHARGES
----------------------
   0 Si:   -0.904674
   1 O :    0.101219
   2 F :    0.401727
   3 F :    0.401727

  Mayer bond orders larger than 0.100000
B(  0-Si,  1-O ) :   1.6090 B(  0-Si,  2-F ) :   0.5575 B(  0-Si,  3-F ) :   0.5575

MP2 TOTAL ENERGY:     -563.884413454 Eh
FINAL SINGLE POINT ENERGY      -563.884413454232

DIPOLE MOMENT
-------------
                                X             Y             Z
Electronic contribution:     -0.00000      -2.59862      -0.00000
Nuclear contribution   :      0.00000       1.50722       0.00000
                        -----------------------------------------
Total Dipole Moment    :     -0.00000      -1.09140      -0.00000
                        -----------------------------------------
Magnitude (a.u.)       :      1.09140
Magnitude (Debye)      :      2.77412

Rotational constants in cm-1:     0.289948     0.245504     0.132941
Rotational constants in MHz :  8692.412461  7360.029752  3985.462989

                             ****ORCA TERMINATED NORMALLY****
TOTAL RUN TIME: 0 days 0 hours 1 minutes 5 seconds 327 msec
