                         Program Version 5.0.4 -  RELEASE  -
|  1> ! ri-mp2 aug-cc-pvdz aug-cc-pvdz/c tightscf
|  2> %pal nprocs 16 end
|  3> %maxcore 3800
|  4> %base "DZ_P-Si_60_AB"
|  5> %scf
|  6> STABPerform true
|  7> STABRestartUHFifUnstable true
|  8> end
|  9>
| 10> *xyz 0 1
| 11> Si        -0.890414    0.000000    0.028948
| 12> P         1.299617    0.000000   -0.686103
| 13> F         1.793307    1.216612    0.243666
| 14> F         1.793307   -1.216612    0.243666
| 15> C        -1.688843   -1.543193   -0.659151
| 16> H        -1.662698   -1.557054   -1.749717
| 17> H        -2.734900   -1.602379   -0.352418
| 18> H        -1.185764   -2.441481   -0.299016
| 19> C        -1.688843    1.543192   -0.659151
| 20> H        -1.662699    1.557053   -1.749717
| 21> H        -1.185765    2.441481   -0.299017
| 22> H        -2.734901    1.602379   -0.352418
| 23> C        -0.875807    0.000000    1.894046
| 24> H        -0.363264   -0.881520    2.279792
| 25> H        -1.893762   -0.000003    2.288553
| 26> H        -0.363268    0.881523    2.279792
| 27> *
| 28>
| 29> $new_job
| 30> ! ri-mp2 aug-cc-pvtz aug-cc-pvtz/c tightscf
| 31> %pal nprocs 16 end
| 32> %maxcore 3800
| 33> %base "TZ_P-Si_60_AB"
| 34>
| 35> *xyz 0 1
| 36> Si        -0.890414    0.000000    0.028948
| 37> P         1.299617    0.000000   -0.686103
| 38> F         1.793307    1.216612    0.243666
| 39> F         1.793307   -1.216612    0.243666
| 40> C        -1.688843   -1.543193   -0.659151
| 41> H        -1.662698   -1.557054   -1.749717
| 42> H        -2.734900   -1.602379   -0.352418
| 43> H        -1.185764   -2.441481   -0.299016
| 44> C        -1.688843    1.543192   -0.659151
| 45> H        -1.662699    1.557053   -1.749717
| 46> H        -1.185765    2.441481   -0.299017
| 47> H        -2.734901    1.602379   -0.352418
| 48> C        -0.875807    0.000000    1.894046
| 49> H        -0.363264   -0.881520    2.279792
| 50> H        -1.893762   -0.000003    2.288553
| 51> H        -0.363268    0.881523    2.279792
| 52> *
| 53>
| 54> $new_job
| 55> ! ri-mp2 aug-cc-pvqz aug-cc-pvqz/c tightscf
| 56> %pal nprocs 16 end
| 57> %maxcore 3800
| 58> %base "QZ_P-Si_60_AB"
| 59>
| 60> *xyz 0 1
| 61> Si        -0.890414    0.000000    0.028948
| 62> P         1.299617    0.000000   -0.686103
| 63> F         1.793307    1.216612    0.243666
| 64> F         1.793307   -1.216612    0.243666
| 65> C        -1.688843   -1.543193   -0.659151
| 66> H        -1.662698   -1.557054   -1.749717
| 67> H        -2.734900   -1.602379   -0.352418
| 68> H        -1.185764   -2.441481   -0.299016
| 69> C        -1.688843    1.543192   -0.659151
| 70> H        -1.662699    1.557053   -1.749717
| 71> H        -1.185765    2.441481   -0.299017
| 72> H        -2.734901    1.602379   -0.352418
| 73> C        -0.875807    0.000000    1.894046
| 74> H        -0.363264   -0.881520    2.279792
| 75> H        -1.893762   -0.000003    2.288553
| 76> H        -0.363268    0.881523    2.279792
| 77> *
| 78>
| 79>
| 80>
| 81>
| 82>                          ****END OF INPUT****
 Total Charge           Charge          ....    0
 Multiplicity           Mult            ....    1
 Number of Electrons    NEL             ....   74
MP2 TOTAL ENERGY:     -948.597904369 Eh
FINAL SINGLE POINT ENERGY      -948.597904368749
MP2 TOTAL ENERGY:     -948.971976075 Eh
FINAL SINGLE POINT ENERGY      -948.971976075039

CARTESIAN COORDINATES (ANGSTROEM)
---------------------------------
  Si    -0.890414    0.000000    0.028948
  P      1.299617    0.000000   -0.686103
  F      1.793307    1.216612    0.243666
  F      1.793307   -1.216612    0.243666
  C     -1.688843   -1.543193   -0.659151
  H     -1.662698   -1.557054   -1.749717
  H     -2.734900   -1.602379   -0.352418
  H     -1.185764   -2.441481   -0.299016
  C     -1.688843    1.543192   -0.659151
  H     -1.662699    1.557053   -1.749717
  H     -1.185765    2.441481   -0.299017
  H     -2.734901    1.602379   -0.352418
  C     -0.875807    0.000000    1.894046
  H     -0.363264   -0.881520    2.279792
  H     -1.893762   -0.000003    2.288553
  H     -0.363268    0.881523    2.279792

 Multiplicity           Mult            ....    1
 Number of Electrons    NEL             ....   74
 Basis Dimension        Dim             ....  982

ORBITAL ENERGIES
----------------

  NO   OCC          E(Eh)            E(eV)
   0   2.0000     -80.035054     -2177.8646
   1   2.0000     -68.766955     -1871.2440
   2   2.0000     -26.299712      -715.6516
   3   2.0000     -26.299702      -715.6513
   4   2.0000     -11.212160      -305.0984
   5   2.0000     -11.212153      -305.0982
   6   2.0000     -11.207466      -304.9707
   7   2.0000      -7.564138      -205.8307
   8   2.0000      -6.117224      -166.4581
   9   2.0000      -5.458315      -148.5283
  10   2.0000      -5.457102      -148.4953
  11   2.0000      -5.455327      -148.4470
  12   2.0000      -4.223815      -114.9359
  13   2.0000      -4.223179      -114.9186
  14   2.0000      -4.223092      -114.9162
  15   2.0000      -1.621366       -44.1196
  16   2.0000      -1.590874       -43.2899
  17   2.0000      -0.984507       -26.7898
  18   2.0000      -0.941034       -25.6068
  19   2.0000      -0.937986       -25.5239
  20   2.0000      -0.864050       -23.5120
  21   2.0000      -0.727709       -19.8020
  22   2.0000      -0.718817       -19.5600
  23   2.0000      -0.704261       -19.1639
  24   2.0000      -0.668680       -18.1957
  25   2.0000      -0.639870       -17.4117
  26   2.0000      -0.638668       -17.3790
  27   2.0000      -0.588205       -16.0059
  28   2.0000      -0.577487       -15.7142
  29   2.0000      -0.573832       -15.6148
  30   2.0000      -0.557966       -15.1830
  31   2.0000      -0.554811       -15.0972
  32   2.0000      -0.545069       -14.8321
  33   2.0000      -0.509885       -13.8747
  34   2.0000      -0.451081       -12.2745
  35   2.0000      -0.448387       -12.2012
  36   2.0000      -0.345439        -9.3999
  37   0.0000       0.018644         0.5073
  38   0.0000       0.032838         0.8936
  39   0.0000       0.032927         0.8960
  40   0.0000       0.037478         1.0198
  41   0.0000       0.048867         1.3298

MULLIKEN ATOMIC CHARGES
-----------------------
   0 Si:    1.611093
   1 P :    1.097580
   2 F :   -0.723887
   3 F :   -0.723887
   4 C :   -1.269235
   5 H :    0.279686
   6 H :    0.287946
   7 H :    0.271829
   8 C :   -1.269236
   9 H :    0.279686
  10 H :    0.271829
  11 H :    0.287945
  12 C :   -1.243472
  13 H :    0.272360
  14 H :    0.297403
  15 H :    0.272360
Sum of atomic charges:    0.0000000

LOEWDIN ATOMIC CHARGES
----------------------
   0 Si:   -0.010775
   1 P :   -0.123982
   2 F :    0.213863
   3 F :    0.213863
   4 C :    0.935923
   5 H :   -0.348525
   6 H :   -0.340367
   7 H :   -0.347925
   8 C :    0.935923
   9 H :   -0.348525
  10 H :   -0.347925
  11 H :   -0.340366
  12 C :    0.943339
  13 H :   -0.347899
  14 H :   -0.338727
  15 H :   -0.347898

  Mayer bond orders larger than 0.100000
B(  0-Si,  1-P ) :   0.7124 B(  0-Si,  2-F ) :  -0.2035 B(  0-Si,  3-F ) :  -0.2035
B(  0-Si,  4-C ) :   0.7561 B(  0-Si,  8-C ) :   0.7561 B(  0-Si, 12-C ) :   0.8018
B(  1-P ,  2-F ) :   0.5110 B(  1-P ,  3-F ) :   0.5110 B(  4-C ,  5-H ) :   0.9622
B(  4-C ,  6-H ) :   0.9339 B(  4-C ,  7-H ) :   0.9680 B(  8-C ,  9-H ) :   0.9622
B(  8-C , 10-H ) :   0.9680 B(  8-C , 11-H ) :   0.9339 B( 12-C , 13-H ) :   0.9611
B( 12-C , 14-H ) :   0.9162 B( 12-C , 15-H ) :   0.9611

MP2 TOTAL ENERGY:     -949.090612846 Eh
FINAL SINGLE POINT ENERGY      -949.090612845521

DIPOLE MOMENT
-------------
                                X             Y             Z
Electronic contribution:     16.92117       0.00000      -2.27673
Nuclear contribution   :    -18.09821      -0.00000       2.16659
                        -----------------------------------------
Total Dipole Moment    :     -1.17704       0.00000      -0.11014
                        -----------------------------------------
Magnitude (a.u.)       :      1.18218
Magnitude (Debye)      :      3.00486

Rotational constants in cm-1:     0.073363     0.042982     0.038611
Rotational constants in MHz :  2199.374473  1288.567163  1157.513805

                             ****ORCA TERMINATED NORMALLY****
TOTAL RUN TIME: 0 days 1 hours 28 minutes 15 seconds 194 msec
