                         Program Version 5.0.4 -  RELEASE  -
|  1> ! ri-mp2 aug-cc-pvdz aug-cc-pvdz/c tightscf
|  2> %pal nprocs 16 end
|  3> %maxcore 3800
|  4> %base "DZ_Si-Cl_20_AB"
|  5> %scf
|  6> STABPerform true
|  7> STABRestartUHFifUnstable true
|  8> end
|  9>
| 10> *xyz 0 1
| 11> Si         0.285402   -0.365697   -0.000960
| 12> C        -1.400298   -0.518632   -0.785208
| 13> C        -2.526585    0.215918   -0.060029
| 14> H        -1.629502   -1.587530   -0.853832
| 15> H        -1.321840   -0.163602   -1.816332
| 16> H        -2.660849   -0.160027    0.955249
| 17> H        -3.478207    0.098351   -0.579318
| 18> H        -2.317997    1.283696    0.010916
| 19> C         1.570396   -1.266659   -0.997123
| 20> H         1.353864   -2.336724   -1.022101
| 21> H         2.563434   -1.132836   -0.567450
| 22> H         1.596111   -0.902357   -2.024398
| 23> C         0.280989   -0.925724    1.772289
| 24> H         0.001723   -1.979395    1.839770
| 25> H        -0.426048   -0.348693    2.368162
| 26> H         1.268805   -0.808673    2.218642
| 27> Cl         0.794581    1.654596   -0.005614
| 28> *
| 29>
| 30> $new_job
| 31> ! ri-mp2 aug-cc-pvtz aug-cc-pvtz/c tightscf
| 32> %pal nprocs 16 end
| 33> %maxcore 3800
| 34> %base "TZ_Si-Cl_20_AB"
| 35>
| 36> *xyz 0 1
| 37> Si         0.285402   -0.365697   -0.000960
| 38> C        -1.400298   -0.518632   -0.785208
| 39> C        -2.526585    0.215918   -0.060029
| 40> H        -1.629502   -1.587530   -0.853832
| 41> H        -1.321840   -0.163602   -1.816332
| 42> H        -2.660849   -0.160027    0.955249
| 43> H        -3.478207    0.098351   -0.579318
| 44> H        -2.317997    1.283696    0.010916
| 45> C         1.570396   -1.266659   -0.997123
| 46> H         1.353864   -2.336724   -1.022101
| 47> H         2.563434   -1.132836   -0.567450
| 48> H         1.596111   -0.902357   -2.024398
| 49> C         0.280989   -0.925724    1.772289
| 50> H         0.001723   -1.979395    1.839770
| 51> H        -0.426048   -0.348693    2.368162
| 52> H         1.268805   -0.808673    2.218642
| 53> Cl         0.794581    1.654596   -0.005614
| 54> *
| 55>
| 56> $new_job
| 57> ! ri-mp2 aug-cc-pvqz aug-cc-pvqz/c tightscf
| 58> %pal nprocs 16 end
| 59> %maxcore 3800
| 60> %base "QZ_Si-Cl_20_AB"
| 61>
| 62> *xyz 0 1
| 63> Si         0.285402   -0.365697   -0.000960
| 64> C        -1.400298   -0.518632   -0.785208
| 65> C        -2.526585    0.215918   -0.060029
| 66> H        -1.629502   -1.587530   -0.853832
| 67> H        -1.321840   -0.163602   -1.816332
| 68> H        -2.660849   -0.160027    0.955249
| 69> H        -3.478207    0.098351   -0.579318
| 70> H        -2.317997    1.283696    0.010916
| 71> C         1.570396   -1.266659   -0.997123
| 72> H         1.353864   -2.336724   -1.022101
| 73> H         2.563434   -1.132836   -0.567450
| 74> H         1.596111   -0.902357   -2.024398
| 75> C         0.280989   -0.925724    1.772289
| 76> H         0.001723   -1.979395    1.839770
| 77> H        -0.426048   -0.348693    2.368162
| 78> H         1.268805   -0.808673    2.218642
| 79> Cl         0.794581    1.654596   -0.005614
| 80> *
| 81>
| 82>
| 83>
| 84>
| 85>                          ****END OF INPUT****
 Total Charge           Charge          ....    0
 Multiplicity           Mult            ....    1
 Number of Electrons    NEL             ....   66
MP2 TOTAL ENERGY:     -907.279445120 Eh
FINAL SINGLE POINT ENERGY      -907.279445120076
MP2 TOTAL ENERGY:     -907.539893926 Eh
FINAL SINGLE POINT ENERGY      -907.539893925559

CARTESIAN COORDINATES (ANGSTROEM)
---------------------------------
  Si     0.285402   -0.365697   -0.000960
  C     -1.400298   -0.518632   -0.785208
  C     -2.526585    0.215918   -0.060029
  H     -1.629502   -1.587530   -0.853832
  H     -1.321840   -0.163602   -1.816332
  H     -2.660849   -0.160027    0.955249
  H     -3.478207    0.098351   -0.579318
  H     -2.317997    1.283696    0.010916
  C      1.570396   -1.266659   -0.997123
  H      1.353864   -2.336724   -1.022101
  H      2.563434   -1.132836   -0.567450
  H      1.596111   -0.902357   -2.024398
  C      0.280989   -0.925724    1.772289
  H      0.001723   -1.979395    1.839770
  H     -0.426048   -0.348693    2.368162
  H      1.268805   -0.808673    2.218642
  Cl     0.794581    1.654596   -0.005614

 Multiplicity           Mult            ....    1
 Number of Electrons    NEL             ....   66
 Basis Dimension        Dim             ....  994

ORBITAL ENERGIES
----------------

  NO   OCC          E(Eh)            E(eV)
   0   2.0000    -104.805260     -2851.8961
   1   2.0000     -68.786850     -1871.7853
   2   2.0000     -11.218087      -305.2597
   3   2.0000     -11.209806      -305.0343
   4   2.0000     -11.205586      -304.9195
   5   2.0000     -11.205364      -304.9134
   6   2.0000     -10.532947      -286.6161
   7   2.0000      -7.999734      -217.6838
   8   2.0000      -7.998744      -217.6569
   9   2.0000      -7.998740      -217.6568
  10   2.0000      -6.133294      -166.8954
  11   2.0000      -4.240602      -115.3926
  12   2.0000      -4.239078      -115.3512
  13   2.0000      -4.238953      -115.3478
  14   2.0000      -1.080038       -29.3893
  15   2.0000      -1.024258       -27.8715
  16   2.0000      -0.961346       -26.1596
  17   2.0000      -0.936611       -25.4865
  18   2.0000      -0.846638       -23.0382
  19   2.0000      -0.650770       -17.7084
  20   2.0000      -0.612509       -16.6672
  21   2.0000      -0.587156       -15.9773
  22   2.0000      -0.574630       -15.6365
  23   2.0000      -0.565936       -15.3999
  24   2.0000      -0.556145       -15.1335
  25   2.0000      -0.547629       -14.9017
  26   2.0000      -0.517997       -14.0954
  27   2.0000      -0.501363       -13.6428
  28   2.0000      -0.481030       -13.0895
  29   2.0000      -0.471992       -12.8436
  30   2.0000      -0.462529       -12.5860
  31   2.0000      -0.424261       -11.5447
  32   2.0000      -0.412160       -11.2154
  33   0.0000       0.020267         0.5515
  34   0.0000       0.031689         0.8623
  35   0.0000       0.033578         0.9137
  36   0.0000       0.035958         0.9785
  37   0.0000       0.047461         1.2915

MULLIKEN ATOMIC CHARGES
-----------------------
   0 Si:    2.081420
   1 C :   -0.687332
   2 C :   -0.894809
   3 H :    0.213979
   4 H :    0.208548
   5 H :    0.244820
   6 H :    0.305028
   7 H :    0.227251
   8 C :   -1.221418
   9 H :    0.250787
  10 H :    0.260690
  11 H :    0.245392
  12 C :   -1.219462
  13 H :    0.255541
  14 H :    0.255658
  15 H :    0.295979
  16 Cl:   -0.822072
Sum of atomic charges:   -0.0000000

LOEWDIN ATOMIC CHARGES
----------------------
   0 Si:   -0.597529
   1 C :    0.511923
   2 C :    0.853019
   3 H :   -0.327412
   4 H :   -0.338253
   5 H :   -0.298860
   6 H :   -0.282018
   7 H :   -0.308887
   8 C :    0.929616
   9 H :   -0.340721
  10 H :   -0.352359
  11 H :   -0.351406
  12 C :    0.932077
  13 H :   -0.336766
  14 H :   -0.354037
  15 H :   -0.349888
  16 Cl:    1.011502

  Mayer bond orders larger than 0.100000
B(  0-Si,  1-C ) :   0.7087 B(  0-Si,  8-C ) :   0.8056 B(  0-Si, 12-C ) :   0.7549
B(  0-Si, 16-Cl) :  -0.1118 B(  1-C ,  2-C ) :   0.9344 B(  1-C ,  3-H ) :   0.9261
B(  1-C ,  4-H ) :   0.9534 B(  2-C ,  5-H ) :   0.9397 B(  2-C ,  6-H ) :   0.9583
B(  2-C ,  7-H ) :   0.9540 B(  8-C ,  9-H ) :   0.9561 B(  8-C , 10-H ) :   0.9589
B(  8-C , 11-H ) :   0.9676 B( 12-C , 13-H ) :   0.9515 B( 12-C , 14-H ) :   0.9592
B( 12-C , 15-H ) :   0.9457

MP2 TOTAL ENERGY:     -907.620207575 Eh
FINAL SINGLE POINT ENERGY      -907.620207574810

DIPOLE MOMENT
-------------
                                X             Y             Z
Electronic contribution:      6.01849       9.60588      -0.55844
Nuclear contribution   :     -6.26944     -10.49124       0.54301
                        -----------------------------------------
Total Dipole Moment    :     -0.25095      -0.88536      -0.01543
                        -----------------------------------------
Magnitude (a.u.)       :      0.92037
Magnitude (Debye)      :      2.33939

Rotational constants in cm-1:     0.073314     0.059971     0.048566
Rotational constants in MHz :  2197.905329  1797.896326  1455.959778

                             ****ORCA TERMINATED NORMALLY****
TOTAL RUN TIME: 0 days 3 hours 47 minutes 56 seconds 118 msec
