                         Program Version 5.0.4 -  RELEASE  -
|  1> ! ri-mp2 aug-cc-pvdz aug-cc-pvdz/c tightscf
|  2> %pal nprocs 16 end
|  3> %maxcore 3800
|  4> %base "DZ_P-Si_29_AB"
|  5> %scf
|  6> STABPerform true
|  7> STABRestartUHFifUnstable true
|  8> end
|  9>
| 10> *xyz 0 1
| 11> P        -0.608855   -0.740649   -0.107937
| 12> Si         1.419469    0.219397    0.006889
| 13> C        -1.674126    0.773344    0.024766
| 14> H        -0.620898   -1.124658    1.254363
| 15> H        -1.625871    1.317129   -0.918332
| 16> H        -1.385773    1.444955    0.831025
| 17> H        -2.708277    0.466244    0.174195
| 18> H         1.681250    0.913731   -1.273744
| 19> H         2.441878   -0.830956    0.203730
| 20> H         1.522713    1.211664    1.102778
| 21> *
| 22>
| 23> $new_job
| 24> ! ri-mp2 aug-cc-pvtz aug-cc-pvtz/c tightscf
| 25> %pal nprocs 16 end
| 26> %maxcore 3800
| 27> %base "TZ_P-Si_29_AB"
| 28>
| 29> *xyz 0 1
| 30> P        -0.608855   -0.740649   -0.107937
| 31> Si         1.419469    0.219397    0.006889
| 32> C        -1.674126    0.773344    0.024766
| 33> H        -0.620898   -1.124658    1.254363
| 34> H        -1.625871    1.317129   -0.918332
| 35> H        -1.385773    1.444955    0.831025
| 36> H        -2.708277    0.466244    0.174195
| 37> H         1.681250    0.913731   -1.273744
| 38> H         2.441878   -0.830956    0.203730
| 39> H         1.522713    1.211664    1.102778
| 40> *
| 41>
| 42> $new_job
| 43> ! ri-mp2 aug-cc-pvqz aug-cc-pvqz/c tightscf
| 44> %pal nprocs 16 end
| 45> %maxcore 3800
| 46> %base "QZ_P-Si_29_AB"
| 47>
| 48> *xyz 0 1
| 49> P        -0.608855   -0.740649   -0.107937
| 50> Si         1.419469    0.219397    0.006889
| 51> C        -1.674126    0.773344    0.024766
| 52> H        -0.620898   -1.124658    1.254363
| 53> H        -1.625871    1.317129   -0.918332
| 54> H        -1.385773    1.444955    0.831025
| 55> H        -2.708277    0.466244    0.174195
| 56> H         1.681250    0.913731   -1.273744
| 57> H         2.441878   -0.830956    0.203730
| 58> H         1.522713    1.211664    1.102778
| 59> *
| 60>
| 61>
| 62>
| 63>
| 64>                          ****END OF INPUT****
 Total Charge           Charge          ....    0
 Multiplicity           Mult            ....    1
 Number of Electrons    NEL             ....   42
MP2 TOTAL ENERGY:     -672.008415126 Eh
FINAL SINGLE POINT ENERGY      -672.008415125933
MP2 TOTAL ENERGY:     -672.132400412 Eh
FINAL SINGLE POINT ENERGY      -672.132400411656

CARTESIAN COORDINATES (ANGSTROEM)
---------------------------------
  P     -0.608855   -0.740649   -0.107937
  Si     1.419469    0.219397    0.006889
  C     -1.674126    0.773344    0.024766
  H     -0.620898   -1.124658    1.254363
  H     -1.625871    1.317129   -0.918332
  H     -1.385773    1.444955    0.831025
  H     -2.708277    0.466244    0.174195
  H      1.681250    0.913731   -1.273744
  H      2.441878   -0.830956    0.203730
  H      1.522713    1.211664    1.102778

 Multiplicity           Mult            ....    1
 Number of Electrons    NEL             ....   42
 Basis Dimension        Dim             ....  570

ORBITAL ENERGIES
----------------

  NO   OCC          E(Eh)            E(eV)
   0   2.0000     -79.929831     -2175.0013
   1   2.0000     -68.774173     -1871.4404
   2   2.0000     -11.232905      -305.6629
   3   2.0000      -7.473621      -203.3676
   4   2.0000      -6.123864      -166.6388
   5   2.0000      -5.367613      -146.0602
   6   2.0000      -5.367379      -146.0538
   7   2.0000      -5.366574      -146.0319
   8   2.0000      -4.230027      -115.1049
   9   2.0000      -4.229950      -115.1028
  10   2.0000      -4.229803      -115.0988
  11   2.0000      -0.983999       -26.7760
  12   2.0000      -0.804464       -21.8906
  13   2.0000      -0.692958       -18.8563
  14   2.0000      -0.585525       -15.9330
  15   2.0000      -0.578174       -15.7329
  16   2.0000      -0.505219       -13.7477
  17   2.0000      -0.491131       -13.3644
  18   2.0000      -0.473381       -12.8814
  19   2.0000      -0.429310       -11.6821
  20   2.0000      -0.348295        -9.4776
  21   0.0000       0.024787         0.6745
  22   0.0000       0.033094         0.9005
  23   0.0000       0.035887         0.9765
  24   0.0000       0.039767         1.0821
  25   0.0000       0.048238         1.3126

MULLIKEN ATOMIC CHARGES
-----------------------
   0 P :    0.202455
   1 Si:    0.501071
   2 C :   -1.056228
   3 H :   -0.080860
   4 H :    0.261957
   5 H :    0.284354
   6 H :    0.365770
   7 H :   -0.153427
   8 H :   -0.180603
   9 H :   -0.144490
Sum of atomic charges:   -0.0000000

LOEWDIN ATOMIC CHARGES
----------------------
   0 P :    1.088394
   1 Si:    0.827984
   2 C :    0.646546
   3 H :   -0.510740
   4 H :   -0.378999
   5 H :   -0.371254
   6 H :   -0.375016
   7 H :   -0.312045
   8 H :   -0.317844
   9 H :   -0.297026

  Mayer bond orders larger than 0.100000
B(  0-P ,  1-Si) :   0.8582 B(  0-P ,  2-C ) :   0.8766 B(  0-P ,  3-H ) :   0.9151
B(  1-Si,  7-H ) :   0.7753 B(  1-Si,  8-H ) :   0.7709 B(  1-Si,  9-H ) :   0.7729
B(  2-C ,  4-H ) :   0.9296 B(  2-C ,  5-H ) :   0.9099 B(  2-C ,  6-H ) :   0.8576

MP2 TOTAL ENERGY:     -672.171007870 Eh
FINAL SINGLE POINT ENERGY      -672.171007870357

DIPOLE MOMENT
-------------
                                X             Y             Z
Electronic contribution:      0.03014      -3.74603      -1.25282
Nuclear contribution   :     -0.20323       4.12954       1.49060
                        -----------------------------------------
Total Dipole Moment    :     -0.17309       0.38351       0.23779
                        -----------------------------------------
Magnitude (a.u.)       :      0.48330
Magnitude (Debye)      :      1.22846

Rotational constants in cm-1:     0.422256     0.127886     0.105981
Rotational constants in MHz : 12658.916520  3833.917707  3177.223215

                             ****ORCA TERMINATED NORMALLY****
TOTAL RUN TIME: 0 days 0 hours 14 minutes 3 seconds 520 msec
