                         Program Version 5.0.4 -  RELEASE  -
|  1> ! ri-mp2 aug-cc-pvdz aug-cc-pvdz/c tightscf
|  2> %pal nprocs 16 end
|  3> %maxcore 3800
|  4> %base "DZ_B-F_39_AB"
|  5> %scf
|  6> STABPerform true
|  7> STABRestartUHFifUnstable true
|  8> end
|  9>
| 10> *xyz 0 1
| 11> F         1.678091    1.304856    0.000005
| 12> F         2.006362   -0.940935   -0.000011
| 13> B         1.207982    0.083893   -0.000002
| 14> S        -0.658598   -0.217114    0.000001
| 15> O        -0.978378   -0.853974    1.250050
| 16> C        -1.391603    1.393923   -0.000008
| 17> O        -0.978391   -0.853995   -1.250034
| 18> H        -1.095812    1.929022    0.899028
| 19> H        -2.467017    1.221255   -0.000001
| 20> H        -1.095823    1.929006   -0.899058
| 21> *
| 22>
| 23> $new_job
| 24> ! ri-mp2 aug-cc-pvtz aug-cc-pvtz/c tightscf
| 25> %pal nprocs 16 end
| 26> %maxcore 3800
| 27> %base "TZ_B-F_39_AB"
| 28>
| 29> *xyz 0 1
| 30> F         1.678091    1.304856    0.000005
| 31> F         2.006362   -0.940935   -0.000011
| 32> B         1.207982    0.083893   -0.000002
| 33> S        -0.658598   -0.217114    0.000001
| 34> O        -0.978378   -0.853974    1.250050
| 35> C        -1.391603    1.393923   -0.000008
| 36> O        -0.978391   -0.853995   -1.250034
| 37> H        -1.095812    1.929022    0.899028
| 38> H        -2.467017    1.221255   -0.000001
| 39> H        -1.095823    1.929006   -0.899058
| 40> *
| 41>
| 42> $new_job
| 43> ! ri-mp2 aug-cc-pvqz aug-cc-pvqz/c tightscf
| 44> %pal nprocs 16 end
| 45> %maxcore 3800
| 46> %base "QZ_B-F_39_AB"
| 47>
| 48> *xyz 0 1
| 49> F         1.678091    1.304856    0.000005
| 50> F         2.006362   -0.940935   -0.000011
| 51> B         1.207982    0.083893   -0.000002
| 52> S        -0.658598   -0.217114    0.000001
| 53> O        -0.978378   -0.853974    1.250050
| 54> C        -1.391603    1.393923   -0.000008
| 55> O        -0.978391   -0.853995   -1.250034
| 56> H        -1.095812    1.929022    0.899028
| 57> H        -2.467017    1.221255   -0.000001
| 58> H        -1.095823    1.929006   -0.899058
| 59> *
| 60>
| 61>
| 62>
| 63>
| 64>                          ****END OF INPUT****
 Total Charge           Charge          ....    0
 Multiplicity           Mult            ....    1
 Number of Electrons    NEL             ....   64
MP2 TOTAL ENERGY:     -811.688019815 Eh
FINAL SINGLE POINT ENERGY      -811.688019815019
MP2 TOTAL ENERGY:     -812.141610662 Eh
FINAL SINGLE POINT ENERGY      -812.141610662194

CARTESIAN COORDINATES (ANGSTROEM)
---------------------------------
  F      1.678091    1.304856    0.000005
  F      2.006362   -0.940935   -0.000011
  B      1.207982    0.083893   -0.000002
  S     -0.658598   -0.217114    0.000001
  O     -0.978378   -0.853974    1.250050
  C     -1.391603    1.393923   -0.000008
  O     -0.978391   -0.853995   -1.250034
  H     -1.095812    1.929022    0.899028
  H     -2.467017    1.221255   -0.000001
  H     -1.095823    1.929006   -0.899058

 Multiplicity           Mult            ....    1
 Number of Electrons    NEL             ....   64
 Basis Dimension        Dim             ....  702

ORBITAL ENERGIES
----------------

  NO   OCC          E(Eh)            E(eV)
   0   2.0000     -92.178271     -2508.2983
   1   2.0000     -26.367984      -717.5093
   2   2.0000     -26.360112      -717.2951
   3   2.0000     -20.558598      -559.4279
   4   2.0000     -20.558579      -559.4274
   5   2.0000     -11.286272      -307.1151
   6   2.0000      -9.151060      -249.0130
   7   2.0000      -7.779446      -211.6895
   8   2.0000      -6.836311      -186.0255
   9   2.0000      -6.835664      -186.0079
  10   2.0000      -6.835510      -186.0037
  11   2.0000      -1.698626       -46.2220
  12   2.0000      -1.669014       -45.4162
  13   2.0000      -1.470522       -40.0149
  14   2.0000      -1.358860       -36.9765
  15   2.0000      -1.064640       -28.9703
  16   2.0000      -0.906717       -24.6730
  17   2.0000      -0.854633       -23.2557
  18   2.0000      -0.817199       -22.2371
  19   2.0000      -0.776838       -21.1388
  20   2.0000      -0.765042       -20.8178
  21   2.0000      -0.708862       -19.2891
  22   2.0000      -0.707765       -19.2593
  23   2.0000      -0.695982       -18.9386
  24   2.0000      -0.678055       -18.4508
  25   2.0000      -0.669759       -18.2251
  26   2.0000      -0.618457       -16.8291
  27   2.0000      -0.610217       -16.6048
  28   2.0000      -0.522480       -14.2174
  29   2.0000      -0.512090       -13.9347
  30   2.0000      -0.490647       -13.3512
  31   2.0000      -0.449650       -12.2356
  32   0.0000       0.018193         0.4950
  33   0.0000       0.031042         0.8447
  34   0.0000       0.033327         0.9069
  35   0.0000       0.039553         1.0763
  36   0.0000       0.049484         1.3465

MULLIKEN ATOMIC CHARGES
-----------------------
   0 F :   -0.765446
   1 F :   -0.799480
   2 B :    1.631849
   3 S :    2.323312
   4 O :   -1.206057
   5 C :   -1.050473
   6 O :   -1.206058
   7 H :    0.345359
   8 H :    0.381637
   9 H :    0.345356
Sum of atomic charges:    0.0000000

LOEWDIN ATOMIC CHARGES
----------------------
   0 F :    0.815088
   1 F :    0.816908
   2 B :   -1.863063
   3 S :   -0.155672
   4 O :    0.290897
   5 C :    0.790241
   6 O :    0.290897
   7 H :   -0.327191
   8 H :   -0.330915
   9 H :   -0.327190

  Mayer bond orders larger than 0.100000
B(  0-F ,  2-B ) :   0.3385 B(  1-F ,  2-B ) :   0.3204 B(  2-B ,  3-S ) :   0.8895
B(  3-S ,  4-O ) :   1.0379 B(  3-S ,  5-C ) :   0.9375 B(  3-S ,  6-O ) :   1.0379
B(  5-C ,  7-H ) :   0.8838 B(  5-C ,  8-H ) :   0.8309 B(  5-C ,  9-H ) :   0.8838

MP2 TOTAL ENERGY:     -812.288345609 Eh
FINAL SINGLE POINT ENERGY      -812.288345608929

DIPOLE MOMENT
-------------
                                X             Y             Z
Electronic contribution:      8.97161      -2.64921       0.00001
Nuclear contribution   :     -8.72236       4.35310      -0.00002
                        -----------------------------------------
Total Dipole Moment    :      0.24925       1.70389      -0.00002
                        -----------------------------------------
Magnitude (a.u.)       :      1.72203
Magnitude (Debye)      :      4.37705

Rotational constants in cm-1:     0.107128     0.061614     0.051442
Rotational constants in MHz :  3211.618104  1847.136286  1542.192518

                             ****ORCA TERMINATED NORMALLY****
TOTAL RUN TIME: 0 days 0 hours 39 minutes 19 seconds 138 msec
