                         Program Version 5.0.4 -  RELEASE  -
|  1> ! ri-mp2 aug-cc-pvdz aug-cc-pvdz/c tightscf
|  2> %pal nprocs 16 end
|  3> %maxcore 3800
|  4> %base "DZ_S-Cl_66_A"
|  5> %scf
|  6> STABPerform true
|  7> STABRestartUHFifUnstable true
|  8> end
|  9>
| 10> *xyz 0 2
| 11> S         2.224951    0.000279    0.000002
| 12> O         0.745794   -0.693011   -0.000004
| 13> C        -0.368914    0.113373   -0.000001
| 14> O        -0.373934    1.300578    0.000001
| 15> O        -1.408435   -0.697373   -0.000001
| 16> C        -2.683368   -0.045178    0.000000
| 17> H        -2.787858    0.574406    0.888238
| 18> H        -3.417210   -0.844004    0.000001
| 19> H        -2.787860    0.574405   -0.888237
| 20> *
| 21>
| 22> $new_job
| 23> ! ri-mp2 aug-cc-pvtz aug-cc-pvtz/c tightscf
| 24> %pal nprocs 16 end
| 25> %maxcore 3800
| 26> %base "TZ_S-Cl_66_A"
| 27>
| 28> *xyz 0 2
| 29> S         2.224951    0.000279    0.000002
| 30> O         0.745794   -0.693011   -0.000004
| 31> C        -0.368914    0.113373   -0.000001
| 32> O        -0.373934    1.300578    0.000001
| 33> O        -1.408435   -0.697373   -0.000001
| 34> C        -2.683368   -0.045178    0.000000
| 35> H        -2.787858    0.574406    0.888238
| 36> H        -3.417210   -0.844004    0.000001
| 37> H        -2.787860    0.574405   -0.888237
| 38> *
| 39>
| 40> $new_job
| 41> ! ri-mp2 aug-cc-pvqz aug-cc-pvqz/c tightscf
| 42> %pal nprocs 16 end
| 43> %maxcore 3800
| 44> %base "QZ_S-Cl_66_A"
| 45>
| 46> *xyz 0 2
| 47> S         2.224951    0.000279    0.000002
| 48> O         0.745794   -0.693011   -0.000004
| 49> C        -0.368914    0.113373   -0.000001
| 50> O        -0.373934    1.300578    0.000001
| 51> O        -1.408435   -0.697373   -0.000001
| 52> C        -2.683368   -0.045178    0.000000
| 53> H        -2.787858    0.574406    0.888238
| 54> H        -3.417210   -0.844004    0.000001
| 55> H        -2.787860    0.574405   -0.888237
| 56> *
| 57>
| 58>
| 59>
| 60>
| 61>                          ****END OF INPUT****
 Total Charge           Charge          ....    0
 Multiplicity           Mult            ....    2
 Number of Electrons    NEL             ....   55
MP2 TOTAL ENERGY:     -700.582950020 Eh
FINAL SINGLE POINT ENERGY      -700.582950020037
MP2 TOTAL ENERGY:     -700.891971618 Eh
FINAL SINGLE POINT ENERGY      -700.891971618226

CARTESIAN COORDINATES (ANGSTROEM)
---------------------------------
  S      2.224951    0.000279    0.000002
  O      0.745794   -0.693011   -0.000004
  C     -0.368914    0.113373   -0.000001
  O     -0.373934    1.300578    0.000001
  O     -1.408435   -0.697373   -0.000001
  C     -2.683368   -0.045178    0.000000
  H     -2.787858    0.574406    0.888238
  H     -3.417210   -0.844004    0.000001
  H     -2.787860    0.574405   -0.888237

 Multiplicity           Mult            ....    2
 Number of Electrons    NEL             ....   55
 Basis Dimension        Dim             ....  622

ORBITAL ENERGIES
----------------
                 SPIN UP ORBITALS
  NO   OCC          E(Eh)            E(eV)
   0   1.0000     -92.032678     -2504.3365
   1   1.0000     -20.650942      -561.9407
   2   1.0000     -20.628281      -561.3241
   3   1.0000     -20.565239      -559.6086
   4   1.0000     -11.448626      -311.5330
   5   1.0000     -11.302599      -307.5593
   6   1.0000      -9.029275      -245.6991
   7   1.0000      -6.724215      -182.9752
   8   1.0000      -6.706613      -182.4962
   9   1.0000      -6.704226      -182.4313
  10   1.0000      -1.532823       -41.7102
  11   1.0000      -1.429923       -38.9102
  12   1.0000      -1.397159       -38.0186
  13   1.0000      -1.032870       -28.1058
  14   1.0000      -0.955056       -25.9884
  15   1.0000      -0.804440       -21.8899
  16   1.0000      -0.765275       -20.8242
  17   1.0000      -0.728477       -19.8229
  18   1.0000      -0.714015       -19.4293
  19   1.0000      -0.651213       -17.7204
  20   1.0000      -0.636455       -17.3188
  21   1.0000      -0.601687       -16.3727
  22   1.0000      -0.558143       -15.1878
  23   1.0000      -0.557017       -15.1572
  24   1.0000      -0.496032       -13.4977
  25   1.0000      -0.492214       -13.3938
  26   1.0000      -0.438468       -11.9313
  27   1.0000      -0.393997       -10.7212
  28   0.0000       0.024143         0.6570
  29   0.0000       0.040455         1.1008
  30   0.0000       0.041305         1.1240
  31   0.0000       0.045174         1.2292
  32   0.0000       0.056370         1.5339

                 SPIN DOWN ORBITALS
  NO   OCC          E(Eh)            E(eV)
   0   1.0000     -92.023773     -2504.0942
   1   1.0000     -20.645633      -561.7962
   2   1.0000     -20.628084      -561.3187
   3   1.0000     -20.565333      -559.6112
   4   1.0000     -11.448759      -311.5366
   5   1.0000     -11.302624      -307.5600
   6   1.0000      -9.019457      -245.4319
   7   1.0000      -6.702989      -182.3976
   8   1.0000      -6.699183      -182.2940
   9   1.0000      -6.682908      -181.8512
  10   1.0000      -1.528282       -41.5867
  11   1.0000      -1.420398       -38.6510
  12   1.0000      -1.395147       -37.9639
  13   1.0000      -1.016781       -27.6680
  14   1.0000      -0.914262       -24.8783
  15   1.0000      -0.790894       -21.5213
  16   1.0000      -0.753328       -20.4991
  17   1.0000      -0.716550       -19.4983
  18   1.0000      -0.704715       -19.1763
  19   1.0000      -0.635160       -17.2836
  20   1.0000      -0.622468       -16.9382
  21   1.0000      -0.584493       -15.9049
  22   1.0000      -0.557957       -15.1828
  23   1.0000      -0.531401       -14.4602
  24   1.0000      -0.495486       -13.4829
  25   1.0000      -0.490892       -13.3578
  26   1.0000      -0.376488       -10.2448
  27   0.0000       0.009578         0.2606
  28   0.0000       0.024180         0.6580
  29   0.0000       0.040705         1.1076
  30   0.0000       0.042089         1.1453
  31   0.0000       0.046021         1.2523

MULLIKEN ATOMIC CHARGES AND SPIN POPULATIONS
--------------------------------------------
   0 S :    0.263410    0.989060
   1 O :   -0.579199    0.020931
   2 C :    1.178871   -0.010242
   3 O :   -0.623668   -0.000627
   4 O :   -0.590482    0.001947
   5 C :   -0.643726   -0.001456
   6 H :    0.281287    0.000147
   7 H :    0.432220    0.000092
   8 H :    0.281288    0.000147
Sum of atomic charges         :   -0.0000000

LOEWDIN ATOMIC CHARGES AND SPIN POPULATIONS
-------------------------------------------
   0 S :    0.643268    0.770549
   1 O :    0.038530    0.208680
   2 C :   -1.736671    0.019177
   3 O :    0.636205   -0.001303
   4 O :    0.790761    0.003014
   5 C :    0.580047   -0.000002
   6 H :   -0.315550   -0.000023
   7 H :   -0.321038   -0.000068
   8 H :   -0.315552   -0.000023

  Mayer bond orders larger than 0.100000
B(  0-S ,  1-O ) :   0.8610 B(  1-O ,  2-C ) :   1.0150 B(  2-C ,  3-O ) :   1.6938
B(  2-C ,  4-O ) :   1.0736 B(  4-O ,  5-C ) :   0.8397 B(  5-C ,  6-H ) :   0.9217
B(  5-C ,  7-H ) :   0.8185 B(  5-C ,  8-H ) :   0.9217

MP2 TOTAL ENERGY:     -700.992729328 Eh
FINAL SINGLE POINT ENERGY      -700.992729327858

DIPOLE MOMENT
-------------
                                X             Y             Z
Electronic contribution:      8.03354      -0.51035      -0.00000
Nuclear contribution   :     -8.75508       0.29259       0.00000
                        -----------------------------------------
Total Dipole Moment    :     -0.72154      -0.21776       0.00000
                        -----------------------------------------
Magnitude (a.u.)       :      0.75368
Magnitude (Debye)      :      1.91571

Rotational constants in cm-1:     0.369052     0.053016     0.046766
Rotational constants in MHz : 11063.893842  1589.379475  1402.001580

                             ****ORCA TERMINATED NORMALLY****
TOTAL RUN TIME: 0 days 0 hours 56 minutes 56 seconds 829 msec
