                         Program Version 5.0.4 -  RELEASE  -
|  1> ! ri-mp2 aug-cc-pvdz aug-cc-pvdz/c tightscf
|  2> %pal nprocs 16 end
|  3> %maxcore 3800
|  4> %base "DZ_B-B_40_AB"
|  5> %scf
|  6> STABPerform true
|  7> STABRestartUHFifUnstable true
|  8> end
|  9>
| 10> *xyz 0 1
| 11> B         0.697937   -1.180936    0.427101
| 12> B        -0.697941   -1.180940   -0.427089
| 13> C        -1.968883   -0.340987   -0.038850
| 14> N        -2.228308    0.833426   -0.428873
| 15> C         1.968880   -0.340990    0.038851
| 16> N         2.228312    0.833423    0.428867
| 17> C        -2.939402   -1.040413    0.875179
| 18> H        -2.465629   -1.295886    1.825953
| 19> H        -3.291511   -1.973914    0.429980
| 20> H        -3.790208   -0.388020    1.061706
| 21> C         2.939392   -1.040425   -0.875179
| 22> H         2.465612   -1.295901   -1.825949
| 23> H         3.291500   -1.973926   -0.429978
| 24> H         3.790200   -0.388037   -1.061715
| 25> C        -1.288408    1.483524   -1.314696
| 26> H        -1.772278    1.677773   -2.273292
| 27> H        -0.366329    0.914661   -1.505356
| 28> H        -1.004490    2.450254   -0.897304
| 29> C         1.288420    1.483530    1.314691
| 30> H         1.772295    1.677782    2.273284
| 31> H         0.366340    0.914671    1.505359
| 32> H         1.004503    2.450259    0.897296
| 33> H        -0.804276   -1.926869   -1.358430
| 34> H         0.804269   -1.926853    1.358452
| 35> *
| 36>
| 37> $new_job
| 38> ! ri-mp2 aug-cc-pvtz aug-cc-pvtz/c tightscf
| 39> %pal nprocs 16 end
| 40> %maxcore 3800
| 41> %base "TZ_B-B_40_AB"
| 42>
| 43> *xyz 0 1
| 44> B         0.697937   -1.180936    0.427101
| 45> B        -0.697941   -1.180940   -0.427089
| 46> C        -1.968883   -0.340987   -0.038850
| 47> N        -2.228308    0.833426   -0.428873
| 48> C         1.968880   -0.340990    0.038851
| 49> N         2.228312    0.833423    0.428867
| 50> C        -2.939402   -1.040413    0.875179
| 51> H        -2.465629   -1.295886    1.825953
| 52> H        -3.291511   -1.973914    0.429980
| 53> H        -3.790208   -0.388020    1.061706
| 54> C         2.939392   -1.040425   -0.875179
| 55> H         2.465612   -1.295901   -1.825949
| 56> H         3.291500   -1.973926   -0.429978
| 57> H         3.790200   -0.388037   -1.061715
| 58> C        -1.288408    1.483524   -1.314696
| 59> H        -1.772278    1.677773   -2.273292
| 60> H        -0.366329    0.914661   -1.505356
| 61> H        -1.004490    2.450254   -0.897304
| 62> C         1.288420    1.483530    1.314691
| 63> H         1.772295    1.677782    2.273284
| 64> H         0.366340    0.914671    1.505359
| 65> H         1.004503    2.450259    0.897296
| 66> H        -0.804276   -1.926869   -1.358430
| 67> H         0.804269   -1.926853    1.358452
| 68> *
| 69>
| 70> $new_job
| 71> ! ri-mp2 aug-cc-pvqz aug-cc-pvqz/c tightscf
| 72> %pal nprocs 16 end
| 73> %maxcore 3800
| 74> %base "QZ_B-B_40_AB"
| 75>
| 76> *xyz 0 1
| 77> B         0.697937   -1.180936    0.427101
| 78> B        -0.697941   -1.180940   -0.427089
| 79> C        -1.968883   -0.340987   -0.038850
| 80> N        -2.228308    0.833426   -0.428873
| 81> C         1.968880   -0.340990    0.038851
| 82> N         2.228312    0.833423    0.428867
| 83> C        -2.939402   -1.040413    0.875179
| 84> H        -2.465629   -1.295886    1.825953
| 85> H        -3.291511   -1.973914    0.429980
| 86> H        -3.790208   -0.388020    1.061706
| 87> C         2.939392   -1.040425   -0.875179
| 88> H         2.465612   -1.295901   -1.825949
| 89> H         3.291500   -1.973926   -0.429978
| 90> H         3.790200   -0.388037   -1.061715
| 91> C        -1.288408    1.483524   -1.314696
| 92> H        -1.772278    1.677773   -2.273292
| 93> H        -0.366329    0.914661   -1.505356
| 94> H        -1.004490    2.450254   -0.897304
| 95> C         1.288420    1.483530    1.314691
| 96> H         1.772295    1.677782    2.273284
| 97> H         0.366340    0.914671    1.505359
| 98> H         1.004503    2.450259    0.897296
| 99> H        -0.804276   -1.926869   -1.358430
|100> H         0.804269   -1.926853    1.358452
|101> *
|102>
|103>
|104>
|105>
|106>                          ****END OF INPUT****
 Total Charge           Charge          ....    0
 Multiplicity           Mult            ....    1
 Number of Electrons    NEL             ....   74
MP2 TOTAL ENERGY:     -394.959290023 Eh
FINAL SINGLE POINT ENERGY      -394.959290022555
MP2 TOTAL ENERGY:     -395.316661407 Eh
FINAL SINGLE POINT ENERGY      -395.316661407064

CARTESIAN COORDINATES (ANGSTROEM)
---------------------------------
  B      0.697937   -1.180936    0.427101
  B     -0.697941   -1.180940   -0.427089
  C     -1.968883   -0.340987   -0.038850
  N     -2.228308    0.833426   -0.428873
  C      1.968880   -0.340990    0.038851
  N      2.228312    0.833423    0.428867
  C     -2.939402   -1.040413    0.875179
  H     -2.465629   -1.295886    1.825953
  H     -3.291511   -1.973914    0.429980
  H     -3.790208   -0.388020    1.061706
  C      2.939392   -1.040425   -0.875179
  H      2.465612   -1.295901   -1.825949
  H      3.291500   -1.973926   -0.429978
  H      3.790200   -0.388037   -1.061715
  C     -1.288408    1.483524   -1.314696
  H     -1.772278    1.677773   -2.273292
  H     -0.366329    0.914661   -1.505356
  H     -1.004490    2.450254   -0.897304
  C      1.288420    1.483530    1.314691
  H      1.772295    1.677782    2.273284
  H      0.366340    0.914671    1.505359
  H      1.004503    2.450259    0.897296
  H     -0.804276   -1.926869   -1.358430
  H      0.804269   -1.926853    1.358452

 Multiplicity           Mult            ....    1
 Number of Electrons    NEL             ....   74
 Basis Dimension        Dim             .... 1444

ORBITAL ENERGIES
----------------

  NO   OCC          E(Eh)            E(eV)
   0   2.0000     -15.545789      -423.0224
   1   2.0000     -15.545788      -423.0224
   2   2.0000     -11.261246      -306.4341
   3   2.0000     -11.261246      -306.4341
   4   2.0000     -11.245160      -305.9964
   5   2.0000     -11.245159      -305.9963
   6   2.0000     -11.225902      -305.4723
   7   2.0000     -11.225902      -305.4723
   8   2.0000      -7.603381      -206.8985
   9   2.0000      -7.602381      -206.8713
  10   2.0000      -1.228087       -33.4179
  11   2.0000      -1.226304       -33.3694
  12   2.0000      -1.015639       -27.6369
  13   2.0000      -1.014532       -27.6068
  14   2.0000      -0.916970       -24.9520
  15   2.0000      -0.915038       -24.8994
  16   2.0000      -0.815738       -22.1974
  17   2.0000      -0.766061       -20.8456
  18   2.0000      -0.683860       -18.6088
  19   2.0000      -0.657703       -17.8970
  20   2.0000      -0.622220       -16.9315
  21   2.0000      -0.619945       -16.8696
  22   2.0000      -0.608284       -16.5523
  23   2.0000      -0.603989       -16.4354
  24   2.0000      -0.602226       -16.3874
  25   2.0000      -0.573613       -15.6088
  26   2.0000      -0.571671       -15.5559
  27   2.0000      -0.562401       -15.3037
  28   2.0000      -0.535798       -14.5798
  29   2.0000      -0.530986       -14.4489
  30   2.0000      -0.506622       -13.7859
  31   2.0000      -0.505013       -13.7421
  32   2.0000      -0.482940       -13.1415
  33   2.0000      -0.402077       -10.9411
  34   2.0000      -0.386132       -10.5072
  35   2.0000      -0.384688       -10.4679
  36   2.0000      -0.373357       -10.1595
  37   0.0000       0.017693         0.4814
  38   0.0000       0.025009         0.6805
  39   0.0000       0.027751         0.7551
  40   0.0000       0.030623         0.8333
  41   0.0000       0.039136         1.0649

MULLIKEN ATOMIC CHARGES
-----------------------
   0 B :    0.652621
   1 B :    0.652631
   2 C :    0.475051
   3 N :   -0.659991
   4 C :    0.475058
   5 N :   -0.659993
   6 C :   -0.886986
   7 H :    0.248152
   8 H :    0.275117
   9 H :    0.339115
  10 C :   -0.886988
  11 H :    0.248152
  12 H :    0.275117
  13 H :    0.339117
  14 C :   -0.769983
  15 H :    0.389091
  16 H :    0.146109
  17 H :    0.313393
  18 C :   -0.769984
  19 H :    0.389092
  20 H :    0.146109
  21 H :    0.313394
  22 H :   -0.521695
  23 H :   -0.521698
Sum of atomic charges:    0.0000000

LOEWDIN ATOMIC CHARGES
----------------------
   0 B :   -0.051995
   1 B :   -0.051994
   2 C :   -0.203647
   3 N :    0.631887
   4 C :   -0.203648
   5 N :    0.631887
   6 C :    0.888381
   7 H :   -0.281241
   8 H :   -0.280291
   9 H :   -0.311220
  10 C :    0.888381
  11 H :   -0.281241
  12 H :   -0.280290
  13 H :   -0.311220
  14 C :    0.673505
  15 H :   -0.295836
  16 H :   -0.337962
  17 H :   -0.307226
  18 C :    0.673505
  19 H :   -0.295836
  20 H :   -0.337961
  21 H :   -0.307226
  22 H :   -0.124356
  23 H :   -0.124356

  Mayer bond orders larger than 0.100000
B(  0-B ,  1-B ) :   1.1098 B(  0-B ,  4-C ) :   0.8865 B(  0-B , 23-H ) :   0.6454
B(  1-B ,  2-C ) :   0.8865 B(  1-B , 22-H ) :   0.6454 B(  2-C ,  3-N ) :   1.2360
B(  2-C ,  6-C ) :   0.7311 B(  3-N , 14-C ) :   0.9242 B(  4-C ,  5-N ) :   1.2360
B(  4-C , 10-C ) :   0.7311 B(  5-N , 18-C ) :   0.9242 B(  6-C ,  7-H ) :   0.9666
B(  6-C ,  8-H ) :   0.9747 B(  6-C ,  9-H ) :   0.9382 B( 10-C , 11-H ) :   0.9666
B( 10-C , 12-H ) :   0.9747 B( 10-C , 13-H ) :   0.9382 B( 14-C , 15-H ) :   0.8848
B( 14-C , 16-H ) :   0.9776 B( 14-C , 17-H ) :   0.9117 B( 18-C , 19-H ) :   0.8848
B( 18-C , 20-H ) :   0.9776 B( 18-C , 21-H ) :   0.9117

MP2 TOTAL ENERGY:     -395.427432821 Eh
FINAL SINGLE POINT ENERGY      -395.427432821143

DIPOLE MOMENT
-------------
                                X             Y             Z
Electronic contribution:     -0.00000      -1.80888       0.00001
Nuclear contribution   :      0.00000       0.84831      -0.00000
                        -----------------------------------------
Total Dipole Moment    :     -0.00000      -0.96058       0.00000
                        -----------------------------------------
Magnitude (a.u.)       :      0.96058
Magnitude (Debye)      :      2.44159

Rotational constants in cm-1:     0.062807     0.025467     0.022996
Rotational constants in MHz :  1882.912570   763.495032   689.415837

                             ****ORCA TERMINATED NORMALLY****
TOTAL RUN TIME: 0 days 7 hours 39 minutes 47 seconds 583 msec
