                         Program Version 5.0.4 -  RELEASE  -
|  1> ! ri-mp2 aug-cc-pvdz aug-cc-pvdz/c tightscf
|  2> %pal nprocs 16 end
|  3> %maxcore 3800
|  4> %base "DZ_B-Cl_42_A"
|  5> %scf
|  6> STABPerform true
|  7> STABRestartUHFifUnstable true
|  8> end
|  9>
| 10> *xyz 0 2
| 11> B        -0.639424    1.009937   -0.000004
| 12> C         1.501247   -0.007339    0.000006
| 13> N         2.231774   -0.889629   -0.000005
| 14> O         0.723972    1.029370   -0.000001
| 15> Cl        -1.601444   -0.412542    0.000001
| 16> *
| 17>
| 18> $new_job
| 19> ! ri-mp2 aug-cc-pvtz aug-cc-pvtz/c tightscf
| 20> %pal nprocs 16 end
| 21> %maxcore 3800
| 22> %base "TZ_B-Cl_42_A"
| 23>
| 24> *xyz 0 2
| 25> B        -0.639424    1.009937   -0.000004
| 26> C         1.501247   -0.007339    0.000006
| 27> N         2.231774   -0.889629   -0.000005
| 28> O         0.723972    1.029370   -0.000001
| 29> Cl        -1.601444   -0.412542    0.000001
| 30> *
| 31>
| 32> $new_job
| 33> ! ri-mp2 aug-cc-pvqz aug-cc-pvqz/c tightscf
| 34> %pal nprocs 16 end
| 35> %maxcore 3800
| 36> %base "QZ_B-Cl_42_A"
| 37>
| 38> *xyz 0 2
| 39> B        -0.639424    1.009937   -0.000004
| 40> C         1.501247   -0.007339    0.000006
| 41> N         2.231774   -0.889629   -0.000005
| 42> O         0.723972    1.029370   -0.000001
| 43> Cl        -1.601444   -0.412542    0.000001
| 44> *
| 45>
| 46>
| 47>
| 48>
| 49>                          ****END OF INPUT****
 Total Charge           Charge          ....    0
 Multiplicity           Mult            ....    2
 Number of Electrons    NEL             ....   43
MP2 TOTAL ENERGY:     -652.056715017 Eh
FINAL SINGLE POINT ENERGY      -652.056715016632
MP2 TOTAL ENERGY:     -652.274577873 Eh
FINAL SINGLE POINT ENERGY      -652.274577873389

CARTESIAN COORDINATES (ANGSTROEM)
---------------------------------
  B     -0.639424    1.009937   -0.000004
  C      1.501247   -0.007339    0.000006
  N      2.231774   -0.889629   -0.000005
  O      0.723972    1.029370   -0.000001
  Cl    -1.601444   -0.412542    0.000001

 Multiplicity           Mult            ....    2
 Number of Electrons    NEL             ....   43
 Basis Dimension        Dim             ....  404

ORBITAL ENERGIES
----------------
                 SPIN UP ORBITALS
  NO   OCC          E(Eh)            E(eV)
   0   1.0000    -104.879841     -2853.9256
   1   1.0000     -20.695662      -563.1576
   2   1.0000     -15.586736      -424.1366
   3   1.0000     -11.358459      -309.0794
   4   1.0000     -10.607544      -288.6460
   5   1.0000      -8.075809      -219.7539
   6   1.0000      -8.072811      -219.6724
   7   1.0000      -8.072524      -219.6645
   8   1.0000      -7.764970      -211.2956
   9   1.0000      -1.524592       -41.4863
  10   1.0000      -1.242437       -33.8084
  11   1.0000      -1.165393       -31.7120
  12   1.0000      -0.934064       -25.4172
  13   1.0000      -0.751311       -20.4442
  14   1.0000      -0.706397       -19.2220
  15   1.0000      -0.659557       -17.9475
  16   1.0000      -0.583477       -15.8772
  17   1.0000      -0.533942       -14.5293
  18   1.0000      -0.525755       -14.3065
  19   1.0000      -0.485040       -13.1986
  20   1.0000      -0.474137       -12.9019
  21   1.0000      -0.410974       -11.1832
  22   0.0000       0.029218         0.7951
  23   0.0000       0.029582         0.8050
  24   0.0000       0.034692         0.9440
  25   0.0000       0.038396         1.0448
  26   0.0000       0.060759         1.6533

                 SPIN DOWN ORBITALS
  NO   OCC          E(Eh)            E(eV)
   0   1.0000    -104.878740     -2853.8956
   1   1.0000     -20.693959      -563.1112
   2   1.0000     -15.588254      -424.1780
   3   1.0000     -11.355912      -309.0101
   4   1.0000     -10.606261      -288.6110
   5   1.0000      -8.072846      -219.6733
   6   1.0000      -8.072520      -219.6644
   7   1.0000      -8.070459      -219.6083
   8   1.0000      -7.740676      -210.6345
   9   1.0000      -1.519609       -41.3507
  10   1.0000      -1.243543       -33.8385
  11   1.0000      -1.154747       -31.4223
  12   1.0000      -0.916630       -24.9428
  13   1.0000      -0.742708       -20.2101
  14   1.0000      -0.705389       -19.1946
  15   1.0000      -0.627893       -17.0858
  16   1.0000      -0.584917       -15.9164
  17   1.0000      -0.525325       -14.2948
  18   1.0000      -0.513950       -13.9853
  19   1.0000      -0.485622       -13.2144
  20   1.0000      -0.477493       -12.9933
  21   0.0000       0.012991         0.3535
  22   0.0000       0.033243         0.9046
  23   0.0000       0.035005         0.9525
  24   0.0000       0.038116         1.0372
  25   0.0000       0.066021         1.7965

MULLIKEN ATOMIC CHARGES AND SPIN POPULATIONS
--------------------------------------------
   0 B :    0.620456    1.006606
   1 C :    0.869214    0.080837
   2 N :   -0.589693   -0.051779
   3 O :   -0.752890   -0.065420
   4 Cl:   -0.147087    0.029756
Sum of atomic charges         :    0.0000000

LOEWDIN ATOMIC CHARGES AND SPIN POPULATIONS
-------------------------------------------
   0 B :   -1.405615    0.627240
   1 C :   -0.840317    0.043862
   2 N :    0.348405   -0.017963
   3 O :    0.670474    0.176589
   4 Cl:    1.227052    0.170272

  Mayer bond orders larger than 0.100000
B(  0-B ,  3-O ) :   0.6315 B(  0-B ,  4-Cl) :   1.2002 B(  1-C ,  2-N ) :   2.6819
B(  1-C ,  3-O ) :   1.0379

MP2 TOTAL ENERGY:     -652.346647827 Eh
FINAL SINGLE POINT ENERGY      -652.346647827208

DIPOLE MOMENT
-------------
                                X             Y             Z
Electronic contribution:     -3.53659       0.97822       0.00001
Nuclear contribution   :      2.58964      -0.19448       0.00000
                        -----------------------------------------
Total Dipole Moment    :     -0.94695       0.78374       0.00001
                        -----------------------------------------
Magnitude (a.u.)       :      1.22921
Magnitude (Debye)      :      3.12441

Rotational constants in cm-1:     0.373809     0.084088     0.068646
Rotational constants in MHz : 11206.518802  2520.890985  2057.956502

                             ****ORCA TERMINATED NORMALLY****
TOTAL RUN TIME: 0 days 0 hours 16 minutes 58 seconds 279 msec
