                         Program Version 5.0.4 -  RELEASE  -
|  1> ! ri-mp2 aug-cc-pvdz aug-cc-pvdz/c tightscf
|  2> %pal nprocs 16 end
|  3> %maxcore 3800
|  4> %base "DZ_B-B_20_AB"
|  5> %scf
|  6> STABPerform true
|  7> STABRestartUHFifUnstable true
|  8> end
|  9>
| 10> *xyz 0 1
| 11> B         0.854902    0.000000    0.000001
| 12> B        -0.854902    0.000000   -0.000001
| 13> O        -1.510379   -0.848216    0.848177
| 14> H        -2.472221   -0.821180    0.821110
| 15> O         1.510379   -0.848217   -0.848177
| 16> H         2.472221   -0.821180   -0.821110
| 17> O        -1.510377    0.848216   -0.848181
| 18> H        -2.472219    0.821179   -0.821116
| 19> O         1.510378    0.848216    0.848180
| 20> H         2.472220    0.821179    0.821115
| 21> *
| 22>
| 23> $new_job
| 24> ! ri-mp2 aug-cc-pvtz aug-cc-pvtz/c tightscf
| 25> %pal nprocs 16 end
| 26> %maxcore 3800
| 27> %base "TZ_B-B_20_AB"
| 28>
| 29> *xyz 0 1
| 30> B         0.854902    0.000000    0.000001
| 31> B        -0.854902    0.000000   -0.000001
| 32> O        -1.510379   -0.848216    0.848177
| 33> H        -2.472221   -0.821180    0.821110
| 34> O         1.510379   -0.848217   -0.848177
| 35> H         2.472221   -0.821180   -0.821110
| 36> O        -1.510377    0.848216   -0.848181
| 37> H        -2.472219    0.821179   -0.821116
| 38> O         1.510378    0.848216    0.848180
| 39> H         2.472220    0.821179    0.821115
| 40> *
| 41>
| 42> $new_job
| 43> ! ri-mp2 aug-cc-pvqz aug-cc-pvqz/c tightscf
| 44> %pal nprocs 16 end
| 45> %maxcore 3800
| 46> %base "QZ_B-B_20_AB"
| 47>
| 48> *xyz 0 1
| 49> B         0.854902    0.000000    0.000001
| 50> B        -0.854902    0.000000   -0.000001
| 51> O        -1.510379   -0.848216    0.848177
| 52> H        -2.472221   -0.821180    0.821110
| 53> O         1.510379   -0.848217   -0.848177
| 54> H         2.472221   -0.821180   -0.821110
| 55> O        -1.510377    0.848216   -0.848181
| 56> H        -2.472219    0.821179   -0.821116
| 57> O         1.510378    0.848216    0.848180
| 58> H         2.472220    0.821179    0.821115
| 59> *
| 60>
| 61>
| 62>
| 63>
| 64>                          ****END OF INPUT****
 Total Charge           Charge          ....    0
 Multiplicity           Mult            ....    1
 Number of Electrons    NEL             ....   46
MP2 TOTAL ENERGY:     -352.371162265 Eh
FINAL SINGLE POINT ENERGY      -352.371162264772
MP2 TOTAL ENERGY:     -352.678260777 Eh
FINAL SINGLE POINT ENERGY      -352.678260777444

CARTESIAN COORDINATES (ANGSTROEM)
---------------------------------
  B      0.854902    0.000000    0.000001
  B     -0.854902    0.000000   -0.000001
  O     -1.510379   -0.848216    0.848177
  H     -2.472221   -0.821180    0.821110
  O      1.510379   -0.848217   -0.848177
  H      2.472221   -0.821180   -0.821110
  O     -1.510377    0.848216   -0.848181
  H     -2.472219    0.821179   -0.821116
  O      1.510378    0.848216    0.848180
  H      2.472220    0.821179    0.821115

 Multiplicity           Mult            ....    1
 Number of Electrons    NEL             ....   46
 Basis Dimension        Dim             ....  664

ORBITAL ENERGIES
----------------

  NO   OCC          E(Eh)            E(eV)
   0   2.0000     -20.564707      -559.5941
   1   2.0000     -20.564707      -559.5941
   2   2.0000     -20.564686      -559.5935
   3   2.0000     -20.564685      -559.5935
   4   2.0000      -7.619589      -207.3396
   5   2.0000      -7.618924      -207.3215
   6   2.0000      -1.383294       -37.6413
   7   2.0000      -1.378664       -37.5153
   8   2.0000      -1.340283       -36.4709
   9   2.0000      -1.340283       -36.4709
  10   2.0000      -0.798888       -21.7389
  11   2.0000      -0.744803       -20.2671
  12   2.0000      -0.731176       -19.8963
  13   2.0000      -0.731175       -19.8963
  14   2.0000      -0.636783       -17.3277
  15   2.0000      -0.628297       -17.0968
  16   2.0000      -0.566443       -15.4137
  17   2.0000      -0.566443       -15.4137
  18   2.0000      -0.526174       -14.3179
  19   2.0000      -0.526173       -14.3179
  20   2.0000      -0.503871       -13.7110
  21   2.0000      -0.497748       -13.5444
  22   2.0000      -0.447779       -12.1847
  23   0.0000       0.021321         0.5802
  24   0.0000       0.022229         0.6049
  25   0.0000       0.043791         1.1916
  26   0.0000       0.043791         1.1916
  27   0.0000       0.050110         1.3636

MULLIKEN ATOMIC CHARGES
-----------------------
   0 B :    1.332997
   1 B :    1.332997
   2 O :   -1.006923
   3 H :    0.340425
   4 O :   -1.006923
   5 H :    0.340425
   6 O :   -1.006923
   7 H :    0.340425
   8 O :   -1.006924
   9 H :    0.340425
Sum of atomic charges:    0.0000000

LOEWDIN ATOMIC CHARGES
----------------------
   0 B :   -1.079488
   1 B :   -1.079488
   2 O :    1.331510
   3 H :   -0.791765
   4 O :    1.331510
   5 H :   -0.791766
   6 O :    1.331510
   7 H :   -0.791766
   8 O :    1.331510
   9 H :   -0.791766

  Mayer bond orders larger than 0.100000
B(  0-B ,  1-B ) :   0.9450 B(  0-B ,  2-O ) :  -0.1608 B(  0-B ,  4-O ) :   0.4658
B(  0-B ,  6-O ) :  -0.1608 B(  0-B ,  8-O ) :   0.4658 B(  1-B ,  2-O ) :   0.4658
B(  1-B ,  4-O ) :  -0.1608 B(  1-B ,  6-O ) :   0.4658 B(  1-B ,  8-O ) :  -0.1608
B(  2-O ,  3-H ) :   0.9338 B(  4-O ,  5-H ) :   0.9338 B(  6-O ,  7-H ) :   0.9338
B(  8-O ,  9-H ) :   0.9338

MP2 TOTAL ENERGY:     -352.779985632 Eh
FINAL SINGLE POINT ENERGY      -352.779985631713

DIPOLE MOMENT
-------------
                                X             Y             Z
Electronic contribution:     -0.00000       0.00000       0.00000
Nuclear contribution   :      0.00000      -0.00000      -0.00000
                        -----------------------------------------
Total Dipole Moment    :     -0.00000      -0.00000       0.00000
                        -----------------------------------------
Magnitude (a.u.)       :      0.00000
Magnitude (Debye)      :      0.00000

Rotational constants in cm-1:     0.172864     0.071676     0.071675
Rotational constants in MHz :  5182.324845  2148.792952  2148.751719

                             ****ORCA TERMINATED NORMALLY****
TOTAL RUN TIME: 0 days 0 hours 18 minutes 53 seconds 960 msec
