                         Program Version 5.0.4 -  RELEASE  -
|  1> ! ri-mp2 aug-cc-pvdz aug-cc-pvdz/c tightscf
|  2> %pal nprocs 16 end
|  3> %maxcore 3800
|  4> %base "DZ_B-S_24_AB"
|  5> %scf
|  6> STABPerform true
|  7> STABRestartUHFifUnstable true
|  8> end
|  9>
| 10> *xyz 0 1
| 11> S         0.199405   -1.174211   -0.594800
| 12> B         1.408017    0.034869   -0.068990
| 13> S         1.010315    1.794910    0.029897
| 14> C        -1.320522   -0.222911   -0.905028
| 15> C        -2.163587    0.067322    0.333305
| 16> C        -3.284381    1.031525   -0.036465
| 17> H        -2.889596    1.967359   -0.434265
| 18> H        -3.895207    1.268208    0.835225
| 19> H        -3.941060    0.594257   -0.792472
| 20> C        -2.717341   -1.207667    0.952329
| 21> H        -1.520824    0.558149    1.068342
| 22> H        -3.382085   -1.719106    0.251451
| 23> H        -3.291900   -0.983022    1.851309
| 24> H        -1.920444   -1.898066    1.226821
| 25> H        -1.892007   -0.825136   -1.613084
| 26> H        -1.046684    0.698675   -1.416526
| 27> S         3.073395   -0.511457    0.363252
| 28> H         2.224008    2.227599    0.396738
| 29> H         2.900859   -1.820734    0.132974
| 30> *
| 31>
| 32> $new_job
| 33> ! ri-mp2 aug-cc-pvtz aug-cc-pvtz/c tightscf
| 34> %pal nprocs 16 end
| 35> %maxcore 3800
| 36> %base "TZ_B-S_24_AB"
| 37>
| 38> *xyz 0 1
| 39> S         0.199405   -1.174211   -0.594800
| 40> B         1.408017    0.034869   -0.068990
| 41> S         1.010315    1.794910    0.029897
| 42> C        -1.320522   -0.222911   -0.905028
| 43> C        -2.163587    0.067322    0.333305
| 44> C        -3.284381    1.031525   -0.036465
| 45> H        -2.889596    1.967359   -0.434265
| 46> H        -3.895207    1.268208    0.835225
| 47> H        -3.941060    0.594257   -0.792472
| 48> C        -2.717341   -1.207667    0.952329
| 49> H        -1.520824    0.558149    1.068342
| 50> H        -3.382085   -1.719106    0.251451
| 51> H        -3.291900   -0.983022    1.851309
| 52> H        -1.920444   -1.898066    1.226821
| 53> H        -1.892007   -0.825136   -1.613084
| 54> H        -1.046684    0.698675   -1.416526
| 55> S         3.073395   -0.511457    0.363252
| 56> H         2.224008    2.227599    0.396738
| 57> H         2.900859   -1.820734    0.132974
| 58> *
| 59>
| 60> $new_job
| 61> ! ri-mp2 aug-cc-pvqz aug-cc-pvqz/c tightscf
| 62> %pal nprocs 16 end
| 63> %maxcore 3800
| 64> %base "QZ_B-S_24_AB"
| 65>
| 66> *xyz 0 1
| 67> S         0.199405   -1.174211   -0.594800
| 68> B         1.408017    0.034869   -0.068990
| 69> S         1.010315    1.794910    0.029897
| 70> C        -1.320522   -0.222911   -0.905028
| 71> C        -2.163587    0.067322    0.333305
| 72> C        -3.284381    1.031525   -0.036465
| 73> H        -2.889596    1.967359   -0.434265
| 74> H        -3.895207    1.268208    0.835225
| 75> H        -3.941060    0.594257   -0.792472
| 76> C        -2.717341   -1.207667    0.952329
| 77> H        -1.520824    0.558149    1.068342
| 78> H        -3.382085   -1.719106    0.251451
| 79> H        -3.291900   -0.983022    1.851309
| 80> H        -1.920444   -1.898066    1.226821
| 81> H        -1.892007   -0.825136   -1.613084
| 82> H        -1.046684    0.698675   -1.416526
| 83> S         3.073395   -0.511457    0.363252
| 84> H         2.224008    2.227599    0.396738
| 85> H         2.900859   -1.820734    0.132974
| 86> *
| 87>
| 88>
| 89>
| 90>
| 91>                          ****END OF INPUT****
 Total Charge           Charge          ....    0
 Multiplicity           Mult            ....    1
 Number of Electrons    NEL             ....   88
MP2 TOTAL ENERGY:    -1376.400902395 Eh
FINAL SINGLE POINT ENERGY     -1376.400902395351
MP2 TOTAL ENERGY:    -1376.727710060 Eh
FINAL SINGLE POINT ENERGY     -1376.727710059906

CARTESIAN COORDINATES (ANGSTROEM)
---------------------------------
  S      0.199405   -1.174211   -0.594800
  B      1.408017    0.034869   -0.068990
  S      1.010315    1.794910    0.029897
  C     -1.320522   -0.222911   -0.905028
  C     -2.163587    0.067322    0.333305
  C     -3.284381    1.031525   -0.036465
  H     -2.889596    1.967359   -0.434265
  H     -3.895207    1.268208    0.835225
  H     -3.941060    0.594257   -0.792472
  C     -2.717341   -1.207667    0.952329
  H     -1.520824    0.558149    1.068342
  H     -3.382085   -1.719106    0.251451
  H     -3.291900   -0.983022    1.851309
  H     -1.920444   -1.898066    1.226821
  H     -1.892007   -0.825136   -1.613084
  H     -1.046684    0.698675   -1.416526
  S      3.073395   -0.511457    0.363252
  H      2.224008    2.227599    0.396738
  H      2.900859   -1.820734    0.132974

 Multiplicity           Mult            ....    1
 Number of Electrons    NEL             ....   88
 Basis Dimension        Dim             .... 1158

ORBITAL ENERGIES
----------------

  NO   OCC          E(Eh)            E(eV)
   0   2.0000     -91.960803     -2502.3807
   1   2.0000     -91.957317     -2502.2858
   2   2.0000     -91.949312     -2502.0680
   3   2.0000     -11.261930      -306.4527
   4   2.0000     -11.234962      -305.7189
   5   2.0000     -11.217260      -305.2372
   6   2.0000     -11.213031      -305.1221
   7   2.0000      -8.965939      -243.9756
   8   2.0000      -8.962308      -243.8768
   9   2.0000      -8.954199      -243.6561
  10   2.0000      -7.672804      -208.7876
  11   2.0000      -6.647523      -180.8883
  12   2.0000      -6.646578      -180.8626
  13   2.0000      -6.646046      -180.8481
  14   2.0000      -6.643886      -180.7893
  15   2.0000      -6.642959      -180.7641
  16   2.0000      -6.642401      -180.7489
  17   2.0000      -6.635721      -180.5671
  18   2.0000      -6.634816      -180.5425
  19   2.0000      -6.634487      -180.5336
  20   2.0000      -1.112905       -30.2837
  21   2.0000      -1.036401       -28.2019
  22   2.0000      -0.993916       -27.0458
  23   2.0000      -0.966322       -26.2950
  24   2.0000      -0.937718       -25.5166
  25   2.0000      -0.879072       -23.9208
  26   2.0000      -0.781027       -21.2528
  27   2.0000      -0.658912       -17.9299
  28   2.0000      -0.644933       -17.5495
  29   2.0000      -0.610213       -16.6047
  30   2.0000      -0.604238       -16.4422
  31   2.0000      -0.581068       -15.8117
  32   2.0000      -0.552587       -15.0367
  33   2.0000      -0.544213       -14.8088
  34   2.0000      -0.532752       -14.4969
  35   2.0000      -0.504176       -13.7193
  36   2.0000      -0.486750       -13.2451
  37   2.0000      -0.478483       -13.0202
  38   2.0000      -0.472015       -12.8442
  39   2.0000      -0.448549       -12.2056
  40   2.0000      -0.445560       -12.1243
  41   2.0000      -0.424011       -11.5379
  42   2.0000      -0.374626       -10.1941
  43   2.0000      -0.357703        -9.7336
  44   0.0000       0.024407         0.6642
  45   0.0000       0.029887         0.8133
  46   0.0000       0.031361         0.8534
  47   0.0000       0.031745         0.8638
  48   0.0000       0.042309         1.1513

MULLIKEN ATOMIC CHARGES
-----------------------
   0 S :   -0.092217
   1 B :   -0.058388
   2 S :    0.041725
   3 C :   -0.560216
   4 C :    0.396847
   5 C :   -0.946354
   6 H :    0.266835
   7 H :    0.274403
   8 H :    0.189584
   9 C :   -0.966687
  10 H :    0.299147
  11 H :    0.198132
  12 H :    0.266130
  13 H :    0.298347
  14 H :    0.293953
  15 H :    0.313996
  16 S :   -0.127365
  17 H :   -0.119554
  18 H :    0.031681
Sum of atomic charges:    0.0000000

LOEWDIN ATOMIC CHARGES
----------------------
   0 S :    1.369823
   1 B :   -2.139120
   2 S :    1.641010
   3 C :    0.112984
   4 C :   -0.002489
   5 C :    0.915730
   6 H :   -0.274144
   7 H :   -0.272474
   8 H :   -0.272894
   9 C :    0.896961
  10 H :   -0.325042
  11 H :   -0.275586
  12 H :   -0.272875
  13 H :   -0.304544
  14 H :   -0.352831
  15 H :   -0.405035
  16 S :    1.577505
  17 H :   -0.802641
  18 H :   -0.814339

  Mayer bond orders larger than 0.100000
B(  0-S ,  1-B ) :   1.3780 B(  0-S ,  3-C ) :   0.8269 B(  1-B ,  2-S ) :   1.1958
B(  1-B , 16-S ) :   1.0477 B(  1-B , 17-H ) :  -0.1004 B(  2-S , 17-H ) :   1.1262
B(  3-C ,  4-C ) :   0.7344 B(  3-C , 14-H ) :   0.8936 B(  3-C , 15-H ) :   0.9232
B(  4-C ,  5-C ) :   0.6036 B(  4-C ,  9-C ) :   0.6113 B(  4-C , 10-H ) :   0.8963
B(  4-C , 12-H ) :  -0.1095 B(  5-C ,  6-H ) :   0.9837 B(  5-C ,  7-H ) :   1.0156
B(  5-C ,  8-H ) :   0.9947 B(  5-C ,  9-C ) :   0.1386 B(  9-C , 11-H ) :   0.9998
B(  9-C , 12-H ) :   1.0362 B(  9-C , 13-H ) :   0.9721 B( 16-S , 18-H ) :   1.0781

MP2 TOTAL ENERGY:    -1376.830953297 Eh
FINAL SINGLE POINT ENERGY     -1376.830953296661

DIPOLE MOMENT
-------------
                                X             Y             Z
Electronic contribution:     19.32648       0.06523      -1.57418
Nuclear contribution   :    -19.81956       0.03652       1.56029
                        -----------------------------------------
Total Dipole Moment    :     -0.49308       0.10175      -0.01389
                        -----------------------------------------
Magnitude (a.u.)       :      0.50366
Magnitude (Debye)      :      1.28020

Rotational constants in cm-1:     0.064746     0.021405     0.017790
Rotational constants in MHz :  1941.024397   641.700724   533.323520

                             ****ORCA TERMINATED NORMALLY****
TOTAL RUN TIME: 0 days 4 hours 59 minutes 3 seconds 157 msec
