                         Program Version 5.0.4 -  RELEASE  -
|  1> ! ri-mp2 aug-cc-pvdz aug-cc-pvdz/c tightscf
|  2> %pal nprocs 16 end
|  3> %maxcore 3800
|  4> %base "DZ_B-F_25_A"
|  5> %scf
|  6> STABPerform true
|  7> STABRestartUHFifUnstable true
|  8> end
|  9>
| 10> *xyz 0 2
| 11> F        -2.006960   -0.085198   -0.226705
| 12> B        -0.974815   -0.116325    0.553898
| 13> C         0.519366    0.100664    0.082534
| 14> O         0.967192    1.207261   -0.060328
| 15> O         1.241730   -1.018823   -0.056275
| 16> H         2.149138   -0.763076   -0.291525
| 17> *
| 18>
| 19> $new_job
| 20> ! ri-mp2 aug-cc-pvtz aug-cc-pvtz/c tightscf
| 21> %pal nprocs 16 end
| 22> %maxcore 3800
| 23> %base "TZ_B-F_25_A"
| 24>
| 25> *xyz 0 2
| 26> F        -2.006960   -0.085198   -0.226705
| 27> B        -0.974815   -0.116325    0.553898
| 28> C         0.519366    0.100664    0.082534
| 29> O         0.967192    1.207261   -0.060328
| 30> O         1.241730   -1.018823   -0.056275
| 31> H         2.149138   -0.763076   -0.291525
| 32> *
| 33>
| 34> $new_job
| 35> ! ri-mp2 aug-cc-pvqz aug-cc-pvqz/c tightscf
| 36> %pal nprocs 16 end
| 37> %maxcore 3800
| 38> %base "QZ_B-F_25_A"
| 39>
| 40> *xyz 0 2
| 41> F        -2.006960   -0.085198   -0.226705
| 42> B        -0.974815   -0.116325    0.553898
| 43> C         0.519366    0.100664    0.082534
| 44> O         0.967192    1.207261   -0.060328
| 45> O         1.241730   -1.018823   -0.056275
| 46> H         2.149138   -0.763076   -0.291525
| 47> *
| 48>
| 49>
| 50>
| 51>
| 52>                          ****END OF INPUT****
 Total Charge           Charge          ....    0
 Multiplicity           Mult            ....    2
 Number of Electrons    NEL             ....   37
MP2 TOTAL ENERGY:     -313.118329035 Eh
FINAL SINGLE POINT ENERGY      -313.118329034892
MP2 TOTAL ENERGY:     -313.380535447 Eh
FINAL SINGLE POINT ENERGY      -313.380535447047

CARTESIAN COORDINATES (ANGSTROEM)
---------------------------------
  F     -2.006960   -0.085198   -0.226705
  B     -0.974815   -0.116325    0.553898
  C      0.519366    0.100664    0.082534
  O      0.967192    1.207261   -0.060328
  O      1.241730   -1.018823   -0.056275
  H      2.149138   -0.763076   -0.291525

 Multiplicity           Mult            ....    2
 Number of Electrons    NEL             ....   37
 Basis Dimension        Dim             ....  446

ORBITAL ENERGIES
----------------
                 SPIN UP ORBITALS
  NO   OCC          E(Eh)            E(eV)
   0   1.0000     -26.350861      -717.0434
   1   1.0000     -20.630931      -561.3962
   2   1.0000     -20.572046      -559.7938
   3   1.0000     -11.390794      -309.9593
   4   1.0000      -7.722452      -210.1386
   5   1.0000      -1.670342       -45.4523
   6   1.0000      -1.486324       -40.4449
   7   1.0000      -1.386050       -37.7163
   8   1.0000      -0.916762       -24.9464
   9   1.0000      -0.826274       -22.4841
  10   1.0000      -0.760966       -20.7069
  11   1.0000      -0.725812       -19.7503
  12   1.0000      -0.723250       -19.6806
  13   1.0000      -0.711813       -19.3694
  14   1.0000      -0.650677       -17.7058
  15   1.0000      -0.607710       -16.5366
  16   1.0000      -0.514880       -14.0106
  17   1.0000      -0.487136       -13.2556
  18   1.0000      -0.383594       -10.4381
  19   0.0000       0.024836         0.6758
  20   0.0000       0.036088         0.9820
  21   0.0000       0.037543         1.0216
  22   0.0000       0.039657         1.0791
  23   0.0000       0.058251         1.5851

                 SPIN DOWN ORBITALS
  NO   OCC          E(Eh)            E(eV)
   0   1.0000     -26.347583      -716.9542
   1   1.0000     -20.630960      -561.3970
   2   1.0000     -20.569273      -559.7184
   3   1.0000     -11.388351      -309.8928
   4   1.0000      -7.702593      -209.5982
   5   1.0000      -1.661480       -45.2112
   6   1.0000      -1.483983       -40.3812
   7   1.0000      -1.381230       -37.5852
   8   1.0000      -0.900682       -24.5088
   9   1.0000      -0.816540       -22.2192
  10   1.0000      -0.739013       -20.1096
  11   1.0000      -0.723545       -19.6887
  12   1.0000      -0.715898       -19.4806
  13   1.0000      -0.697959       -18.9924
  14   1.0000      -0.644459       -17.5366
  15   1.0000      -0.596462       -16.2306
  16   1.0000      -0.497994       -13.5511
  17   1.0000      -0.469932       -12.7875
  18   0.0000       0.023934         0.6513
  19   0.0000       0.029390         0.7997
  20   0.0000       0.038163         1.0385
  21   0.0000       0.039696         1.0802
  22   0.0000       0.052125         1.4184

MULLIKEN ATOMIC CHARGES AND SPIN POPULATIONS
--------------------------------------------
   0 F :   -0.657923   -0.016143
   1 B :    0.934010    0.979875
   2 C :    0.716098   -0.020410
   3 O :   -0.681164    0.058835
   4 O :   -0.644907   -0.002017
   5 H :    0.333886   -0.000140
Sum of atomic charges         :   -0.0000000

LOEWDIN ATOMIC CHARGES AND SPIN POPULATIONS
-------------------------------------------
   0 F :    0.729529    0.153687
   1 B :   -0.733473    0.585958
   2 C :   -1.012409    0.182403
   3 O :    0.639943    0.059206
   4 O :    1.189459    0.017598
   5 H :   -0.813049    0.001147

  Mayer bond orders larger than 0.100000
B(  0-F ,  1-B ) :   0.4852 B(  1-B ,  2-C ) :   0.8927 B(  2-C ,  3-O ) :   1.6314
B(  2-C ,  4-O ) :   0.9479 B(  4-O ,  5-H ) :   0.8976

MP2 TOTAL ENERGY:     -313.467262823 Eh
FINAL SINGLE POINT ENERGY      -313.467262822945

DIPOLE MOMENT
-------------
                                X             Y             Z
Electronic contribution:     -4.37307      -0.10117       0.52569
Nuclear contribution   :      4.59839      -0.54071      -0.47902
                        -----------------------------------------
Total Dipole Moment    :      0.22532      -0.64188       0.04668
                        -----------------------------------------
Magnitude (a.u.)       :      0.68188
Magnitude (Debye)      :      1.73319

Rotational constants in cm-1:     0.371020     0.121624     0.096373
Rotational constants in MHz : 11122.889746  3646.184160  2889.198156

                             ****ORCA TERMINATED NORMALLY****
TOTAL RUN TIME: 0 days 0 hours 15 minutes 6 seconds 454 msec
