                         Program Version 5.0.4 -  RELEASE  -
|  1> ! ri-mp2 aug-cc-pvdz aug-cc-pvdz/c tightscf
|  2> %pal nprocs 16 end
|  3> %maxcore 3800
|  4> %base "DZ_B-P_87_AB"
|  5>
|  6> *xyz 0 1
|  7> P        -0.130452    0.310830    0.835209
|  8> B         1.495902   -0.398774   -0.031051
|  9> N        -1.292886   -0.831258   -0.033339
| 10> Cl        -0.433728    2.024805   -0.204656
| 11> O        -2.224762   -0.442819   -0.675738
| 12> O         2.478990    0.504500   -0.201576
| 13> O         1.634989   -1.699322   -0.323992
| 14> O        -1.042326   -2.009879    0.208925
| 15> H         0.835318   -2.223746   -0.154755
| 16> H         3.290394    0.132453   -0.566553
| 17> *
| 18>
| 19> $new_job
| 20> ! ri-mp2 aug-cc-pvtz aug-cc-pvtz/c tightscf
| 21> %pal nprocs 16 end
| 22> %maxcore 3800
| 23> %base "TZ_B-P_87_AB"
| 24>
| 25> *xyz 0 1
| 26> P        -0.130452    0.310830    0.835209
| 27> B         1.495902   -0.398774   -0.031051
| 28> N        -1.292886   -0.831258   -0.033339
| 29> Cl        -0.433728    2.024805   -0.204656
| 30> O        -2.224762   -0.442819   -0.675738
| 31> O         2.478990    0.504500   -0.201576
| 32> O         1.634989   -1.699322   -0.323992
| 33> O        -1.042326   -2.009879    0.208925
| 34> H         0.835318   -2.223746   -0.154755
| 35> H         3.290394    0.132453   -0.566553
| 36> *
| 37>
| 38> $new_job
| 39> ! ri-mp2 aug-cc-pvqz aug-cc-pvqz/c tightscf
| 40> %pal nprocs 16 end
| 41> %maxcore 3800
| 42> %base "QZ_B-P_87_AB"
| 43>
| 44> *xyz 0 1
| 45> P        -0.130452    0.310830    0.835209
| 46> B         1.495902   -0.398774   -0.031051
| 47> N        -1.292886   -0.831258   -0.033339
| 48> Cl        -0.433728    2.024805   -0.204656
| 49> O        -2.224762   -0.442819   -0.675738
| 50> O         2.478990    0.504500   -0.201576
| 51> O         1.634989   -1.699322   -0.323992
| 52> O        -1.042326   -2.009879    0.208925
| 53> H         0.835318   -2.223746   -0.154755
| 54> H         3.290394    0.132453   -0.566553
| 55> *
| 56>
| 57>
| 58>
| 59>
| 60>                          ****END OF INPUT****
 Total Charge           Charge          ....    0
 Multiplicity           Mult            ....    1
 Number of Electrons    NEL             ....   78
MP2 TOTAL ENERGY:    -1181.397224615 Eh
FINAL SINGLE POINT ENERGY     -1181.397224615142
MP2 TOTAL ENERGY:    -1181.818794068 Eh
FINAL SINGLE POINT ENERGY     -1181.818794067904

CARTESIAN COORDINATES (ANGSTROEM)
---------------------------------
  P     -0.130452    0.310830    0.835209
  B      1.495902   -0.398774   -0.031051
  N     -1.292886   -0.831258   -0.033339
  Cl    -0.433728    2.024805   -0.204656
  O     -2.224762   -0.442819   -0.675738
  O      2.478990    0.504500   -0.201576
  O      1.634989   -1.699322   -0.323992
  O     -1.042326   -2.009879    0.208925
  H      0.835318   -2.223746   -0.154755
  H      3.290394    0.132453   -0.566553

 Multiplicity           Mult            ....    1
 Number of Electrons    NEL             ....   78
 Basis Dimension        Dim             ....  740

ORBITAL ENERGIES
----------------

  NO   OCC          E(Eh)            E(eV)
   0   2.0000    -104.867833     -2853.5988
   1   2.0000     -80.050844     -2178.2942
   2   2.0000     -20.633993      -561.4795
   3   2.0000     -20.616088      -560.9923
   4   2.0000     -20.604630      -560.6805
   5   2.0000     -20.597912      -560.4977
   6   2.0000     -15.855632      -431.4537
   7   2.0000     -10.593896      -288.2746
   8   2.0000      -8.060768      -219.3446
   9   2.0000      -8.059195      -219.3019
  10   2.0000      -8.058997      -219.2965
  11   2.0000      -7.694224      -209.3705
  12   2.0000      -7.587829      -206.4753
  13   2.0000      -5.481202      -149.1511
  14   2.0000      -5.480182      -149.1233
  15   2.0000      -5.478896      -149.0883
  16   2.0000      -1.631547       -44.3967
  17   2.0000      -1.430626       -38.9293
  18   2.0000      -1.420730       -38.6600
  19   2.0000      -1.385440       -37.6997
  20   2.0000      -1.151977       -31.3469
  21   2.0000      -1.003148       -27.2971
  22   2.0000      -0.850369       -23.1397
  23   2.0000      -0.814647       -22.1677
  24   2.0000      -0.775946       -21.1146
  25   2.0000      -0.749351       -20.3909
  26   2.0000      -0.739992       -20.1362
  27   2.0000      -0.720006       -19.5924
  28   2.0000      -0.649517       -17.6742
  29   2.0000      -0.614158       -16.7121
  30   2.0000      -0.605979       -16.4895
  31   2.0000      -0.553176       -15.0527
  32   2.0000      -0.538923       -14.6649
  33   2.0000      -0.533468       -14.5164
  34   2.0000      -0.517508       -14.0821
  35   2.0000      -0.504583       -13.7304
  36   2.0000      -0.481773       -13.1097
  37   2.0000      -0.470897       -12.8138
  38   2.0000      -0.402807       -10.9609
  39   0.0000       0.021101         0.5742
  40   0.0000       0.032048         0.8721
  41   0.0000       0.034205         0.9308
  42   0.0000       0.039922         1.0863
  43   0.0000       0.055067         1.4985

MULLIKEN ATOMIC CHARGES
-----------------------
   0 P :    0.868311
   1 B :    1.320310
   2 N :    0.690101
   3 Cl:   -0.400892
   4 O :   -0.556237
   5 O :   -0.968123
   6 O :   -1.063809
   7 O :   -0.617646
   8 H :    0.390097
   9 H :    0.337888
Sum of atomic charges:   -0.0000000

LOEWDIN ATOMIC CHARGES
----------------------
   0 P :    0.106567
   1 B :   -1.529684
   2 N :   -1.091407
   3 Cl:    0.792777
   4 O :    0.439671
   5 O :    1.271619
   6 O :    1.321766
   7 O :    0.496696
   8 H :   -1.025098
   9 H :   -0.782908

  Mayer bond orders larger than 0.100000
B(  0-P ,  1-B ) :   1.0055 B(  0-P ,  2-N ) :   0.6158 B(  0-P ,  3-Cl) :   0.8879
B(  1-B ,  5-O ) :   0.4524 B(  1-B ,  6-O ) :   0.5854 B(  2-N ,  4-O ) :   1.4069
B(  2-N ,  7-O ) :   1.2338 B(  4-O ,  7-O ) :   0.1340 B(  5-O ,  6-O ) :  -0.1138
B(  5-O ,  9-H ) :   0.9314 B(  6-O ,  8-H ) :   0.8627

MP2 TOTAL ENERGY:    -1181.960853523 Eh
FINAL SINGLE POINT ENERGY     -1181.960853522998

DIPOLE MOMENT
-------------
                                X             Y             Z
Electronic contribution:     -2.26211       4.90904       1.38386
Nuclear contribution   :      3.41951      -4.68112      -1.13160
                        -----------------------------------------
Total Dipole Moment    :      1.15740       0.22792       0.25227
                        -----------------------------------------
Magnitude (a.u.)       :      1.20630
Magnitude (Debye)      :      3.06616

Rotational constants in cm-1:     0.053280     0.049907     0.028736
Rotational constants in MHz :  1597.300681  1496.172801   861.494070

                             ****ORCA TERMINATED NORMALLY****
TOTAL RUN TIME: 0 days 0 hours 9 minutes 13 seconds 22 msec
