                         Program Version 5.0.4 -  RELEASE  -
|  1> ! ri-mp2 aug-cc-pvdz aug-cc-pvdz/c tightscf
|  2> %pal nprocs 16 end
|  3> %maxcore 3800
|  4> %base "DZ_S-Cl_56_AB"
|  5> %scf
|  6> STABPerform true
|  7> STABRestartUHFifUnstable true
|  8> end
|  9>
| 10> *xyz 0 1
| 11> Cl        -2.169216   -0.408936   -0.081483
| 12> S        -0.775740    1.011955    0.273688
| 13> S         0.998165   -0.016257   -0.173152
| 14> O         1.961639    1.031611   -0.025507
| 15> C         1.178494   -1.173272    1.151335
| 16> O         0.860034   -0.749524   -1.387932
| 17> H         1.260122   -0.626035    2.085372
| 18> H         2.091564   -1.728242    0.941041
| 19> H         0.321835   -1.842035    1.149716
| 20> *
| 21>
| 22> $new_job
| 23> ! ri-mp2 aug-cc-pvtz aug-cc-pvtz/c tightscf
| 24> %pal nprocs 16 end
| 25> %maxcore 3800
| 26> %base "TZ_S-Cl_56_AB"
| 27>
| 28> *xyz 0 1
| 29> Cl        -2.169216   -0.408936   -0.081483
| 30> S        -0.775740    1.011955    0.273688
| 31> S         0.998165   -0.016257   -0.173152
| 32> O         1.961639    1.031611   -0.025507
| 33> C         1.178494   -1.173272    1.151335
| 34> O         0.860034   -0.749524   -1.387932
| 35> H         1.260122   -0.626035    2.085372
| 36> H         2.091564   -1.728242    0.941041
| 37> H         0.321835   -1.842035    1.149716
| 38> *
| 39>
| 40> $new_job
| 41> ! ri-mp2 aug-cc-pvqz aug-cc-pvqz/c tightscf
| 42> %pal nprocs 16 end
| 43> %maxcore 3800
| 44> %base "QZ_S-Cl_56_AB"
| 45>
| 46> *xyz 0 1
| 47> Cl        -2.169216   -0.408936   -0.081483
| 48> S        -0.775740    1.011955    0.273688
| 49> S         0.998165   -0.016257   -0.173152
| 50> O         1.961639    1.031611   -0.025507
| 51> C         1.178494   -1.173272    1.151335
| 52> O         0.860034   -0.749524   -1.387932
| 53> H         1.260122   -0.626035    2.085372
| 54> H         2.091564   -1.728242    0.941041
| 55> H         0.321835   -1.842035    1.149716
| 56> *
| 57>
| 58>
| 59>
| 60>
| 61>                          ****END OF INPUT****
 Total Charge           Charge          ....    0
 Multiplicity           Mult            ....    1
 Number of Electrons    NEL             ....   74
MP2 TOTAL ENERGY:    -1444.820526008 Eh
FINAL SINGLE POINT ENERGY     -1444.820526008500
MP2 TOTAL ENERGY:    -1445.196420042 Eh
FINAL SINGLE POINT ENERGY     -1445.196420041786

CARTESIAN COORDINATES (ANGSTROEM)
---------------------------------
  Cl    -2.169216   -0.408936   -0.081483
  S     -0.775740    1.011955    0.273688
  S      0.998165   -0.016257   -0.173152
  O      1.961639    1.031611   -0.025507
  C      1.178494   -1.173272    1.151335
  O      0.860034   -0.749524   -1.387932
  H      1.260122   -0.626035    2.085372
  H      2.091564   -1.728242    0.941041
  H      0.321835   -1.842035    1.149716

 Multiplicity           Mult            ....    1
 Number of Electrons    NEL             ....   74
 Basis Dimension        Dim             ....  630

ORBITAL ENERGIES
----------------

  NO   OCC          E(Eh)            E(eV)
   0   2.0000    -104.884202     -2854.0442
   1   2.0000     -92.207136     -2509.0837
   2   2.0000     -92.051931     -2504.8604
   3   2.0000     -20.573604      -559.8362
   4   2.0000     -20.573282      -559.8275
   5   2.0000     -11.293354      -307.3078
   6   2.0000     -10.608289      -288.6662
   7   2.0000      -9.176491      -249.7050
   8   2.0000      -9.050014      -246.2634
   9   2.0000      -8.075306      -219.7402
  10   2.0000      -8.073256      -219.6845
  11   2.0000      -8.073036      -219.6785
  12   2.0000      -6.862281      -186.7322
  13   2.0000      -6.860798      -186.6918
  14   2.0000      -6.860635      -186.6874
  15   2.0000      -6.730692      -183.1514
  16   2.0000      -6.729388      -183.1160
  17   2.0000      -6.727979      -183.0776
  18   2.0000      -1.490119       -40.5482
  19   2.0000      -1.377428       -37.4817
  20   2.0000      -1.177925       -32.0530
  21   2.0000      -1.072499       -29.1842
  22   2.0000      -0.977023       -26.5861
  23   2.0000      -0.823213       -22.4008
  24   2.0000      -0.710144       -19.3240
  25   2.0000      -0.696080       -18.9413
  26   2.0000      -0.683228       -18.5916
  27   2.0000      -0.627536       -17.0761
  28   2.0000      -0.621708       -16.9175
  29   2.0000      -0.573847       -15.6152
  30   2.0000      -0.545861       -14.8536
  31   2.0000      -0.534742       -14.5511
  32   2.0000      -0.522315       -14.2129
  33   2.0000      -0.512243       -13.9388
  34   2.0000      -0.500709       -13.6250
  35   2.0000      -0.440043       -11.9742
  36   2.0000      -0.404724       -11.0131
  37   0.0000       0.021385         0.5819
  38   0.0000       0.033133         0.9016
  39   0.0000       0.038863         1.0575
  40   0.0000       0.048379         1.3165
  41   0.0000       0.050850         1.3837

MULLIKEN ATOMIC CHARGES
-----------------------
   0 Cl:   -0.245364
   1 S :    0.209039
   2 S :    2.359553
   3 O :   -1.205477
   4 C :   -1.006614
   5 O :   -1.157866
   6 H :    0.363034
   7 H :    0.334770
   8 H :    0.348924
Sum of atomic charges:   -0.0000000

LOEWDIN ATOMIC CHARGES
----------------------
   0 Cl:    0.454635
   1 S :    0.181234
   2 S :   -0.766654
   3 O :    0.228094
   4 C :    0.716087
   5 O :    0.233862
   6 H :   -0.347992
   7 H :   -0.334124
   8 H :   -0.365142

  Mayer bond orders larger than 0.100000
B(  0-Cl,  1-S ) :   0.9720 B(  1-S ,  2-S ) :   0.9060 B(  2-S ,  3-O ) :   1.0798
B(  2-S ,  4-C ) :   0.9393 B(  2-S ,  5-O ) :   1.0751 B(  4-C ,  6-H ) :   0.8789
B(  4-C ,  7-H ) :   0.8495 B(  4-C ,  8-H ) :   0.8889

MP2 TOTAL ENERGY:    -1445.319469397 Eh
FINAL SINGLE POINT ENERGY     -1445.319469397402

DIPOLE MOMENT
-------------
                                X             Y             Z
Electronic contribution:     -6.86083       2.75857      -2.68879
Nuclear contribution   :      6.45995      -3.44826       4.04527
                        -----------------------------------------
Total Dipole Moment    :     -0.40089      -0.68970       1.35648
                        -----------------------------------------
Magnitude (a.u.)       :      1.57367
Magnitude (Debye)      :      3.99996

Rotational constants in cm-1:     0.116562     0.045552     0.041835
Rotational constants in MHz :  3494.431168  1365.602248  1254.173725

                             ****ORCA TERMINATED NORMALLY****
TOTAL RUN TIME: 0 days 0 hours 29 minutes 28 seconds 782 msec
