                         Program Version 5.0.4 -  RELEASE  -
|  1> ! ri-mp2 aug-cc-pvdz aug-cc-pvdz/c tightscf
|  2> %pal nprocs 16 end
|  3> %maxcore 3800
|  4> %base "DZ_B-B_41_AB"
|  5>
|  6> *xyz 0 1
|  7> B        -0.411691   -0.706529    1.202865
|  8> B         0.411691    0.706525    1.202868
|  9> C         1.683371    1.018514    0.312875
| 10> N         2.268134    0.237169   -0.498861
| 11> C        -1.683370   -1.018515    0.312868
| 12> N        -2.268133   -0.237168   -0.498866
| 13> C         1.817094   -1.100336   -0.722263
| 14> H         2.644589   -1.788971   -0.546842
| 15> H         1.522892   -1.205940   -1.767757
| 16> H         0.970647   -1.424816   -0.092742
| 17> C        -1.817094    1.100338   -0.722267
| 18> H        -1.522891    1.205943   -1.767762
| 19> H        -0.970649    1.424819   -0.092746
| 20> H        -2.644590    1.788972   -0.546848
| 21> H         2.135407    2.009859    0.381153
| 22> H        -2.135408   -2.009859    0.381145
| 23> H         0.093952    1.576844    1.960277
| 24> H        -0.093955   -1.576850    1.960271
| 25> *
| 26>
| 27> $new_job
| 28> ! ri-mp2 aug-cc-pvtz aug-cc-pvtz/c tightscf
| 29> %pal nprocs 16 end
| 30> %maxcore 3800
| 31> %base "TZ_B-B_41_AB"
| 32>
| 33> *xyz 0 1
| 34> B        -0.411691   -0.706529    1.202865
| 35> B         0.411691    0.706525    1.202868
| 36> C         1.683371    1.018514    0.312875
| 37> N         2.268134    0.237169   -0.498861
| 38> C        -1.683370   -1.018515    0.312868
| 39> N        -2.268133   -0.237168   -0.498866
| 40> C         1.817094   -1.100336   -0.722263
| 41> H         2.644589   -1.788971   -0.546842
| 42> H         1.522892   -1.205940   -1.767757
| 43> H         0.970647   -1.424816   -0.092742
| 44> C        -1.817094    1.100338   -0.722267
| 45> H        -1.522891    1.205943   -1.767762
| 46> H        -0.970649    1.424819   -0.092746
| 47> H        -2.644590    1.788972   -0.546848
| 48> H         2.135407    2.009859    0.381153
| 49> H        -2.135408   -2.009859    0.381145
| 50> H         0.093952    1.576844    1.960277
| 51> H        -0.093955   -1.576850    1.960271
| 52> *
| 53>
| 54> $new_job
| 55> ! ri-mp2 aug-cc-pvqz aug-cc-pvqz/c tightscf
| 56> %pal nprocs 16 end
| 57> %maxcore 3800
| 58> %base "QZ_B-B_41_AB"
| 59>
| 60> *xyz 0 1
| 61> B        -0.411691   -0.706529    1.202865
| 62> B         0.411691    0.706525    1.202868
| 63> C         1.683371    1.018514    0.312875
| 64> N         2.268134    0.237169   -0.498861
| 65> C        -1.683370   -1.018515    0.312868
| 66> N        -2.268133   -0.237168   -0.498866
| 67> C         1.817094   -1.100336   -0.722263
| 68> H         2.644589   -1.788971   -0.546842
| 69> H         1.522892   -1.205940   -1.767757
| 70> H         0.970647   -1.424816   -0.092742
| 71> C        -1.817094    1.100338   -0.722267
| 72> H        -1.522891    1.205943   -1.767762
| 73> H        -0.970649    1.424819   -0.092746
| 74> H        -2.644590    1.788972   -0.546848
| 75> H         2.135407    2.009859    0.381153
| 76> H        -2.135408   -2.009859    0.381145
| 77> H         0.093952    1.576844    1.960277
| 78> H        -0.093955   -1.576850    1.960271
| 79> *
| 80>
| 81>
| 82>
| 83>
| 84>                          ****END OF INPUT****
 Total Charge           Charge          ....    0
 Multiplicity           Mult            ....    1
 Number of Electrons    NEL             ....   58
MP2 TOTAL ENERGY:     -316.568866403 Eh
FINAL SINGLE POINT ENERGY      -316.568866403259
MP2 TOTAL ENERGY:     -316.849673769 Eh
FINAL SINGLE POINT ENERGY      -316.849673769343

CARTESIAN COORDINATES (ANGSTROEM)
---------------------------------
  B     -0.411691   -0.706529    1.202865
  B      0.411691    0.706525    1.202868
  C      1.683371    1.018514    0.312875
  N      2.268134    0.237169   -0.498861
  C     -1.683370   -1.018515    0.312868
  N     -2.268133   -0.237168   -0.498866
  C      1.817094   -1.100336   -0.722263
  H      2.644589   -1.788971   -0.546842
  H      1.522892   -1.205940   -1.767757
  H      0.970647   -1.424816   -0.092742
  C     -1.817094    1.100338   -0.722267
  H     -1.522891    1.205943   -1.767762
  H     -0.970649    1.424819   -0.092746
  H     -2.644590    1.788972   -0.546848
  H      2.135407    2.009859    0.381153
  H     -2.135408   -2.009859    0.381145
  H      0.093952    1.576844    1.960277
  H     -0.093955   -1.576850    1.960271

 Multiplicity           Mult            ....    1
 Number of Electrons    NEL             ....   58
 Basis Dimension        Dim             .... 1100

ORBITAL ENERGIES
----------------

  NO   OCC          E(Eh)            E(eV)
   0   2.0000     -15.577691      -423.8905
   1   2.0000     -15.577690      -423.8905
   2   2.0000     -11.262090      -306.4570
   3   2.0000     -11.262089      -306.4570
   4   2.0000     -11.256692      -306.3102
   5   2.0000     -11.256691      -306.3101
   6   2.0000      -7.594177      -206.6481
   7   2.0000      -7.593176      -206.6208
   8   2.0000      -1.238593       -33.7038
   9   2.0000      -1.236443       -33.6453
  10   2.0000      -0.978489       -26.6260
  11   2.0000      -0.973843       -26.4996
  12   2.0000      -0.835507       -22.7353
  13   2.0000      -0.789520       -21.4839
  14   2.0000      -0.714566       -19.4443
  15   2.0000      -0.678423       -18.4608
  16   2.0000      -0.650073       -17.6894
  17   2.0000      -0.649148       -17.6642
  18   2.0000      -0.608487       -16.5578
  19   2.0000      -0.603383       -16.4189
  20   2.0000      -0.580070       -15.7845
  21   2.0000      -0.556910       -15.1543
  22   2.0000      -0.532753       -14.4969
  23   2.0000      -0.516706       -14.0603
  24   2.0000      -0.452450       -12.3118
  25   2.0000      -0.430099       -11.7036
  26   2.0000      -0.424935       -11.5631
  27   2.0000      -0.394698       -10.7403
  28   2.0000      -0.387823       -10.5532
  29   0.0000       0.020389         0.5548
  30   0.0000       0.025914         0.7052
  31   0.0000       0.028074         0.7639
  32   0.0000       0.029490         0.8025
  33   0.0000       0.042118         1.1461

MULLIKEN ATOMIC CHARGES
-----------------------
   0 B :    0.926923
   1 B :    0.926925
   2 C :   -0.332568
   3 N :   -0.652838
   4 C :   -0.332565
   5 N :   -0.652838
   6 C :   -0.636993
   7 H :    0.349881
   8 H :    0.292104
   9 H :    0.158668
  10 C :   -0.636998
  11 H :    0.292103
  12 H :    0.158671
  13 H :    0.349882
  14 H :    0.442978
  15 H :    0.442977
  16 H :   -0.548156
  17 H :   -0.548156
Sum of atomic charges:    0.0000000

LOEWDIN ATOMIC CHARGES
----------------------
   0 B :   -0.048259
   1 B :   -0.048259
   2 C :    0.260775
   3 N :    0.638721
   4 C :    0.260775
   5 N :    0.638720
   6 C :    0.677817
   7 H :   -0.287091
   8 H :   -0.284086
   9 H :   -0.439730
  10 C :    0.677817
  11 H :   -0.284085
  12 H :   -0.439728
  13 H :   -0.287092
  14 H :   -0.381453
  15 H :   -0.381454
  16 H :   -0.136694
  17 H :   -0.136695

  Mayer bond orders larger than 0.100000
B(  0-B ,  1-B ) :   1.0736 B(  0-B ,  4-C ) :   0.8106 B(  0-B ,  6-C ) :  -0.1502
B(  0-B ,  9-H ) :  -0.1579 B(  0-B , 17-H ) :   0.6238 B(  1-B ,  2-C ) :   0.8106
B(  1-B , 10-C ) :  -0.1502 B(  1-B , 12-H ) :  -0.1579 B(  1-B , 16-H ) :   0.6238
B(  2-C ,  3-N ) :   1.5375 B(  2-C , 14-H ) :   0.8490 B(  3-N ,  6-C ) :   0.8882
B(  4-C ,  5-N ) :   1.5375 B(  4-C , 15-H ) :   0.8490 B(  5-N , 10-C ) :   0.8882
B(  6-C ,  7-H ) :   0.9231 B(  6-C ,  8-H ) :   0.9062 B(  6-C ,  9-H ) :   0.9660
B( 10-C , 11-H ) :   0.9062 B( 10-C , 12-H ) :   0.9660 B( 10-C , 13-H ) :   0.9231

MP2 TOTAL ENERGY:     -316.937661820 Eh
FINAL SINGLE POINT ENERGY      -316.937661819778

DIPOLE MOMENT
-------------
                                X             Y             Z
Electronic contribution:      0.00001      -0.00001       2.40726
Nuclear contribution   :     -0.00001       0.00001      -2.09880
                        -----------------------------------------
Total Dipole Moment    :      0.00000      -0.00000       0.30845
                        -----------------------------------------
Magnitude (a.u.)       :      0.30845
Magnitude (Debye)      :      0.78403

Rotational constants in cm-1:     0.104821     0.042857     0.040324
Rotational constants in MHz :  3142.442882  1284.811785  1208.870111

                             ****ORCA TERMINATED NORMALLY****
TOTAL RUN TIME: 0 days 0 hours 29 minutes 54 seconds 881 msec
