                         Program Version 5.0.4 -  RELEASE  -
|  1> ! ri-mp2 aug-cc-pvdz aug-cc-pvdz/c tightscf
|  2> %pal nprocs 16 end
|  3> %maxcore 3800
|  4> %base "DZ_P-F_1_AB"
|  5>
|  6> *xyz 0 1
|  7> F         1.519929   -1.531434    0.559056
|  8> N         0.341959    1.018327   -0.507400
|  9> N         2.276780    1.323616    1.039367
| 10> P         2.353022   -0.795163   -0.605626
| 11> C         1.789019    0.944954   -0.252047
| 12> F        -1.519945   -1.531433   -0.559061
| 13> N        -0.341956    1.018333    0.507396
| 14> N        -2.276780    1.323613   -1.039370
| 15> P        -2.353016   -0.795159    0.605634
| 16> C        -1.789017    0.944957    0.252045
| 17> H        -2.108224    2.304456   -1.221646
| 18> H        -1.804286    0.797052   -1.763204
| 19> H         1.804286    0.797057    1.763203
| 20> H         2.108223    2.304460    1.221639
| 21> H        -1.422496   -1.010163    1.654821
| 22> H        -2.262266    1.555616    1.025237
| 23> H         1.422519   -1.010167   -1.654828
| 24> H         2.262269    1.555610   -1.025241
| 25> *
| 26>
| 27> $new_job
| 28> ! ri-mp2 aug-cc-pvtz aug-cc-pvtz/c tightscf
| 29> %pal nprocs 16 end
| 30> %maxcore 3800
| 31> %base "TZ_P-F_1_AB"
| 32>
| 33> *xyz 0 1
| 34> F         1.519929   -1.531434    0.559056
| 35> N         0.341959    1.018327   -0.507400
| 36> N         2.276780    1.323616    1.039367
| 37> P         2.353022   -0.795163   -0.605626
| 38> C         1.789019    0.944954   -0.252047
| 39> F        -1.519945   -1.531433   -0.559061
| 40> N        -0.341956    1.018333    0.507396
| 41> N        -2.276780    1.323613   -1.039370
| 42> P        -2.353016   -0.795159    0.605634
| 43> C        -1.789017    0.944957    0.252045
| 44> H        -2.108224    2.304456   -1.221646
| 45> H        -1.804286    0.797052   -1.763204
| 46> H         1.804286    0.797057    1.763203
| 47> H         2.108223    2.304460    1.221639
| 48> H        -1.422496   -1.010163    1.654821
| 49> H        -2.262266    1.555616    1.025237
| 50> H         1.422519   -1.010167   -1.654828
| 51> H         2.262269    1.555610   -1.025241
| 52> *
| 53>
| 54> $new_job
| 55> ! ri-mp2 aug-cc-pvqz aug-cc-pvqz/c tightscf
| 56> %pal nprocs 16 end
| 57> %maxcore 3800
| 58> %base "QZ_P-F_1_AB"
| 59>
| 60> *xyz 0 1
| 61> F         1.519929   -1.531434    0.559056
| 62> N         0.341959    1.018327   -0.507400
| 63> N         2.276780    1.323616    1.039367
| 64> P         2.353022   -0.795163   -0.605626
| 65> C         1.789019    0.944954   -0.252047
| 66> F        -1.519945   -1.531433   -0.559061
| 67> N        -0.341956    1.018333    0.507396
| 68> N        -2.276780    1.323613   -1.039370
| 69> P        -2.353016   -0.795159    0.605634
| 70> C        -1.789017    0.944957    0.252045
| 71> H        -2.108224    2.304456   -1.221646
| 72> H        -1.804286    0.797052   -1.763204
| 73> H         1.804286    0.797057    1.763203
| 74> H         2.108223    2.304460    1.221639
| 75> H        -1.422496   -1.010163    1.654821
| 76> H        -2.262266    1.555616    1.025237
| 77> H         1.422519   -1.010167   -1.654828
| 78> H         2.262269    1.555610   -1.025241
| 79> *
| 80>
| 81>
| 82>
| 83>
| 84>                          ****END OF INPUT****
 Total Charge           Charge          ....    0
 Multiplicity           Mult            ....    1
 Number of Electrons    NEL             ....   96
MP2 TOTAL ENERGY:    -1180.227899110 Eh
FINAL SINGLE POINT ENERGY     -1180.227899110248
MP2 TOTAL ENERGY:    -1180.743434179 Eh
FINAL SINGLE POINT ENERGY     -1180.743434179169

CARTESIAN COORDINATES (ANGSTROEM)
---------------------------------
  F      1.519929   -1.531434    0.559056
  N      0.341959    1.018327   -0.507400
  N      2.276780    1.323616    1.039367
  P      2.353022   -0.795163   -0.605626
  C      1.789019    0.944954   -0.252047
  F     -1.519945   -1.531433   -0.559061
  N     -0.341956    1.018333    0.507396
  N     -2.276780    1.323613   -1.039370
  P     -2.353016   -0.795159    0.605634
  C     -1.789017    0.944957    0.252045
  H     -2.108224    2.304456   -1.221646
  H     -1.804286    0.797052   -1.763204
  H      1.804286    0.797057    1.763203
  H      2.108223    2.304460    1.221639
  H     -1.422496   -1.010163    1.654821
  H     -2.262266    1.555616    1.025237
  H      1.422519   -1.010167   -1.654828
  H      2.262269    1.555610   -1.025241

 Multiplicity           Mult            ....    1
 Number of Electrons    NEL             ....   96
 Basis Dimension        Dim             .... 1176

ORBITAL ENERGIES
----------------

  NO   OCC          E(Eh)            E(eV)
   0   2.0000     -80.004420     -2177.0309
   1   2.0000     -80.004420     -2177.0309
   2   2.0000     -26.295070      -715.5252
   3   2.0000     -26.295069      -715.5252
   4   2.0000     -15.630725      -425.3337
   5   2.0000     -15.629197      -425.2921
   6   2.0000     -15.559090      -423.3844
   7   2.0000     -15.559089      -423.3843
   8   2.0000     -11.303772      -307.5913
   9   2.0000     -11.303766      -307.5911
  10   2.0000      -7.539525      -205.1609
  11   2.0000      -7.539525      -205.1609
  12   2.0000      -5.433528      -147.8538
  13   2.0000      -5.433527      -147.8538
  14   2.0000      -5.432426      -147.8238
  15   2.0000      -5.432426      -147.8238
  16   2.0000      -5.431308      -147.7934
  17   2.0000      -5.431308      -147.7934
  18   2.0000      -1.602152       -43.5968
  19   2.0000      -1.601135       -43.5691
  20   2.0000      -1.393467       -37.9182
  21   2.0000      -1.221985       -33.2519
  22   2.0000      -1.193588       -32.4792
  23   2.0000      -1.041063       -28.3288
  24   2.0000      -0.953227       -25.9386
  25   2.0000      -0.865832       -23.5605
  26   2.0000      -0.826542       -22.4913
  27   2.0000      -0.772314       -21.0157
  28   2.0000      -0.721058       -19.6210
  29   2.0000      -0.717245       -19.5172
  30   2.0000      -0.706922       -19.2363
  31   2.0000      -0.684196       -18.6179
  32   2.0000      -0.681588       -18.5469
  33   2.0000      -0.679832       -18.4992
  34   2.0000      -0.663368       -18.0512
  35   2.0000      -0.661999       -18.0139
  36   2.0000      -0.644881       -17.5481
  37   2.0000      -0.629411       -17.1271
  38   2.0000      -0.578063       -15.7299
  39   2.0000      -0.577871       -15.7247
  40   2.0000      -0.553794       -15.0695
  41   2.0000      -0.498543       -13.5660
  42   2.0000      -0.462129       -12.5752
  43   2.0000      -0.455893       -12.4055
  44   2.0000      -0.420159       -11.4331
  45   2.0000      -0.397340       -10.8122
  46   2.0000      -0.390675       -10.6308
  47   2.0000      -0.361410        -9.8345
  48   0.0000       0.019088         0.5194
  49   0.0000       0.026221         0.7135
  50   0.0000       0.035066         0.9542
  51   0.0000       0.037722         1.0265
  52   0.0000       0.042422         1.1544

MULLIKEN ATOMIC CHARGES
-----------------------
   0 F :   -0.716887
   1 N :   -0.354884
   2 N :   -0.860144
   3 P :    0.859198
   4 C :    0.251365
   5 F :   -0.716887
   6 N :   -0.354884
   7 N :   -0.860145
   8 P :    0.859197
   9 C :    0.251366
  10 H :    0.243574
  11 H :    0.267743
  12 H :    0.267742
  13 H :    0.243575
  14 H :   -0.129400
  15 H :    0.439435
  16 H :   -0.129400
  17 H :    0.439434
Sum of atomic charges:   -0.0000000

LOEWDIN ATOMIC CHARGES
----------------------
   0 F :    0.292519
   1 N :    0.297540
   2 N :    1.178780
   3 P :    0.702009
   4 C :   -0.512015
   5 F :    0.292519
   6 N :    0.297540
   7 N :    1.178781
   8 P :    0.702009
   9 C :   -0.512013
  10 H :   -0.503368
  11 H :   -0.568121
  12 H :   -0.568120
  13 H :   -0.503368
  14 H :   -0.468695
  15 H :   -0.418651
  16 H :   -0.468694
  17 H :   -0.418651

  Mayer bond orders larger than 0.100000
B(  0-F ,  3-P ) :   0.4834 B(  0-F ,  4-C ) :  -0.2119 B(  1-N ,  4-C ) :   0.6889
B(  1-N ,  6-N ) :   1.5170 B(  1-N ,  9-C ) :  -0.1369 B(  2-N ,  4-C ) :   0.8400
B(  2-N , 12-H ) :   0.8527 B(  2-N , 13-H ) :   0.9240 B(  3-P ,  4-C ) :   0.6782
B(  3-P , 16-H ) :   0.9732 B(  4-C ,  6-N ) :  -0.1369 B(  4-C , 17-H ) :   0.8491
B(  5-F ,  8-P ) :   0.4834 B(  5-F ,  9-C ) :  -0.2118 B(  6-N ,  9-C ) :   0.6889
B(  7-N ,  9-C ) :   0.8400 B(  7-N , 10-H ) :   0.9240 B(  7-N , 11-H ) :   0.8527
B(  8-P ,  9-C ) :   0.6782 B(  8-P , 14-H ) :   0.9732 B(  9-C , 15-H ) :   0.8491

MP2 TOTAL ENERGY:    -1180.912167572 Eh
FINAL SINGLE POINT ENERGY     -1180.912167572232

DIPOLE MOMENT
-------------
                                X             Y             Z
Electronic contribution:     -0.00002     -10.16796       0.00002
Nuclear contribution   :      0.00003      11.37124      -0.00002
                        -----------------------------------------
Total Dipole Moment    :      0.00001       1.20328      -0.00000
                        -----------------------------------------
Magnitude (a.u.)       :      1.20328
Magnitude (Debye)      :      3.05849

Rotational constants in cm-1:     0.050091     0.021708     0.018085
Rotational constants in MHz :  1501.686976   650.777193   542.180161

                             ****ORCA TERMINATED NORMALLY****
TOTAL RUN TIME: 0 days 0 hours 47 minutes 17 seconds 896 msec
