                         Program Version 5.0.4 -  RELEASE  -
|  1> ! ri-mp2 aug-cc-pvdz aug-cc-pvdz/c tightscf
|  2> %pal nprocs 16 end
|  3> %maxcore 3800
|  4> %base "DZ_Si-Cl_28_A"
|  5> %scf
|  6> STABPerform true
|  7> STABRestartUHFifUnstable true
|  8> end
|  9>
| 10> *xyz 0 2
| 11> C        -1.794980   -0.616895    0.043451
| 12> Si        -0.445477    0.657159   -0.131503
| 13> H        -1.736734   -1.362777   -0.748094
| 14> H        -2.772522   -0.135302   -0.005227
| 15> H        -1.706751   -1.126516    1.005066
| 16> Cl         1.396158   -0.267625    0.022499
| 17> H        -0.512127    1.675362    0.946109
| 18> *
| 19>
| 20> $new_job
| 21> ! ri-mp2 aug-cc-pvtz aug-cc-pvtz/c tightscf
| 22> %pal nprocs 16 end
| 23> %maxcore 3800
| 24> %base "TZ_Si-Cl_28_A"
| 25>
| 26> *xyz 0 2
| 27> C        -1.794980   -0.616895    0.043451
| 28> Si        -0.445477    0.657159   -0.131503
| 29> H        -1.736734   -1.362777   -0.748094
| 30> H        -2.772522   -0.135302   -0.005227
| 31> H        -1.706751   -1.126516    1.005066
| 32> Cl         1.396158   -0.267625    0.022499
| 33> H        -0.512127    1.675362    0.946109
| 34> *
| 35>
| 36> $new_job
| 37> ! ri-mp2 aug-cc-pvqz aug-cc-pvqz/c tightscf
| 38> %pal nprocs 16 end
| 39> %maxcore 3800
| 40> %base "QZ_Si-Cl_28_A"
| 41>
| 42> *xyz 0 2
| 43> C        -1.794980   -0.616895    0.043451
| 44> Si        -0.445477    0.657159   -0.131503
| 45> H        -1.736734   -1.362777   -0.748094
| 46> H        -2.772522   -0.135302   -0.005227
| 47> H        -1.706751   -1.126516    1.005066
| 48> Cl         1.396158   -0.267625    0.022499
| 49> H        -0.512127    1.675362    0.946109
| 50> *
| 51>
| 52>
| 53>
| 54>
| 55>                          ****END OF INPUT****
 Total Charge           Charge          ....    0
 Multiplicity           Mult            ....    2
 Number of Electrons    NEL             ....   41
MP2 TOTAL ENERGY:     -789.043266271 Eh
FINAL SINGLE POINT ENERGY      -789.043266271292
MP2 TOTAL ENERGY:     -789.180175127 Eh
FINAL SINGLE POINT ENERGY      -789.180175127415

CARTESIAN COORDINATES (ANGSTROEM)
---------------------------------
  C     -1.794980   -0.616895    0.043451
  Si    -0.445477    0.657159   -0.131503
  H     -1.736734   -1.362777   -0.748094
  H     -2.772522   -0.135302   -0.005227
  H     -1.706751   -1.126516    1.005066
  Cl     1.396158   -0.267625    0.022499
  H     -0.512127    1.675362    0.946109

 Multiplicity           Mult            ....    2
 Number of Electrons    NEL             ....   41
 Basis Dimension        Dim             ....  432

ORBITAL ENERGIES
----------------
                 SPIN UP ORBITALS
  NO   OCC          E(Eh)            E(eV)
   0   1.0000    -104.823606     -2852.3953
   1   1.0000     -68.818540     -1872.6477
   2   1.0000     -11.223897      -305.4178
   3   1.0000     -10.550881      -287.1041
   4   1.0000      -8.018519      -218.1950
   5   1.0000      -8.016714      -218.1459
   6   1.0000      -8.016296      -218.1345
   7   1.0000      -6.164622      -167.7479
   8   1.0000      -4.276384      -116.3663
   9   1.0000      -4.267880      -116.1349
  10   1.0000      -4.266546      -116.0986
  11   1.0000      -1.095169       -29.8011
  12   1.0000      -0.965959       -26.2851
  13   1.0000      -0.693393       -18.8682
  14   1.0000      -0.583401       -15.8751
  15   1.0000      -0.581099       -15.8125
  16   1.0000      -0.517593       -14.0844
  17   1.0000      -0.506578       -13.7847
  18   1.0000      -0.482369       -13.1259
  19   1.0000      -0.444881       -12.1058
  20   1.0000      -0.335435        -9.1277
  21   0.0000       0.024320         0.6618
  22   0.0000       0.036658         0.9975
  23   0.0000       0.037596         1.0230
  24   0.0000       0.039242         1.0678
  25   0.0000       0.058356         1.5879

                 SPIN DOWN ORBITALS
  NO   OCC          E(Eh)            E(eV)
   0   1.0000    -104.822725     -2852.3714
   1   1.0000     -68.812745     -1872.4900
   2   1.0000     -11.222486      -305.3794
   3   1.0000     -10.549920      -287.0779
   4   1.0000      -8.016773      -218.1475
   5   1.0000      -8.015825      -218.1217
   6   1.0000      -8.014477      -218.0850
   7   1.0000      -6.155406      -167.4971
   8   1.0000      -4.264146      -116.0333
   9   1.0000      -4.262947      -116.0007
  10   1.0000      -4.254629      -115.7744
  11   1.0000      -1.087773       -29.5998
  12   1.0000      -0.959031       -26.0966
  13   1.0000      -0.655759       -17.8441
  14   1.0000      -0.580464       -15.7952
  15   1.0000      -0.570893       -15.5348
  16   1.0000      -0.506086       -13.7713
  17   1.0000      -0.498282       -13.5589
  18   1.0000      -0.465575       -12.6690
  19   1.0000      -0.438378       -11.9289
  20   0.0000       0.020533         0.5587
  21   0.0000       0.034079         0.9273
  22   0.0000       0.037311         1.0153
  23   0.0000       0.038583         1.0499
  24   0.0000       0.048656         1.3240

MULLIKEN ATOMIC CHARGES AND SPIN POPULATIONS
--------------------------------------------
   0 C :   -0.920969    0.028064
   1 Si:    1.040034    0.886353
   2 H :    0.242332   -0.005331
   3 H :    0.235084   -0.002410
   4 H :    0.223681    0.020234
   5 Cl:   -0.589915    0.030735
   6 H :   -0.230247    0.042354
Sum of atomic charges         :    0.0000000

LOEWDIN ATOMIC CHARGES AND SPIN POPULATIONS
-------------------------------------------
   0 C :    0.780805    0.136203
   1 Si:   -0.010007    0.556555
   2 H :   -0.391850    0.014703
   3 H :   -0.387388    0.014817
   4 H :   -0.381880    0.018628
   5 Cl:    0.760839    0.128947
   6 H :   -0.370520    0.130145

  Mayer bond orders larger than 0.100000
B(  0-C ,  1-Si) :   0.8908 B(  0-C ,  2-H ) :   0.9584 B(  0-C ,  3-H ) :   0.9472
B(  0-C ,  4-H ) :   0.9514 B(  1-Si,  5-Cl) :   0.6259 B(  1-Si,  6-H ) :   0.9261

MP2 TOTAL ENERGY:     -789.224150805 Eh
FINAL SINGLE POINT ENERGY      -789.224150804944

DIPOLE MOMENT
-------------
                                X             Y             Z
Electronic contribution:      7.63093       0.61413      -1.12819
Nuclear contribution   :     -8.41640      -0.58659       1.13558
                        -----------------------------------------
Total Dipole Moment    :     -0.78547       0.02754       0.00739
                        -----------------------------------------
Magnitude (a.u.)       :      0.78599
Magnitude (Debye)      :      1.99782

Rotational constants in cm-1:     0.601484     0.130151     0.111077
Rotational constants in MHz : 18032.040202  3901.842968  3330.013817

                             ****ORCA TERMINATED NORMALLY****
TOTAL RUN TIME: 0 days 0 hours 11 minutes 37 seconds 79 msec
