                         Program Version 5.0.4 -  RELEASE  -
|  1> ! ri-mp2 aug-cc-pvdz aug-cc-pvdz/c tightscf
|  2> %pal nprocs 16 end
|  3> %maxcore 3800
|  4> %base "DZ_P-O_22_AB"
|  5> %scf
|  6> STABPerform true
|  7> STABRestartUHFifUnstable true
|  8> end
|  9>
| 10> *xyz 0 1
| 11> O        -0.190492   -0.540388   -1.007939
| 12> P        -1.210172   -0.029832    0.187087
| 13> O        -0.820202   -0.534828    1.491365
| 14> O        -2.593264   -0.492845   -0.397356
| 15> O         1.088600   -0.918142   -0.527321
| 16> C         1.835458    0.142044   -0.136829
| 17> C         3.175600   -0.334179    0.314623
| 18> H         3.155286   -0.396840    1.402970
| 19> H         3.922595    0.399641    0.023501
| 20> H         3.414884   -1.312887   -0.091168
| 21> O         1.441859    1.272622   -0.131455
| 22> O        -1.315965    1.510079   -0.056661
| 23> H        -0.420974    1.891102   -0.113838
| 24> H        -2.869851   -1.352711   -0.059589
| 25> *
| 26>
| 27> $new_job
| 28> ! ri-mp2 aug-cc-pvtz aug-cc-pvtz/c tightscf
| 29> %pal nprocs 16 end
| 30> %maxcore 3800
| 31> %base "TZ_P-O_22_AB"
| 32>
| 33> *xyz 0 1
| 34> O        -0.190492   -0.540388   -1.007939
| 35> P        -1.210172   -0.029832    0.187087
| 36> O        -0.820202   -0.534828    1.491365
| 37> O        -2.593264   -0.492845   -0.397356
| 38> O         1.088600   -0.918142   -0.527321
| 39> C         1.835458    0.142044   -0.136829
| 40> C         3.175600   -0.334179    0.314623
| 41> H         3.155286   -0.396840    1.402970
| 42> H         3.922595    0.399641    0.023501
| 43> H         3.414884   -1.312887   -0.091168
| 44> O         1.441859    1.272622   -0.131455
| 45> O        -1.315965    1.510079   -0.056661
| 46> H        -0.420974    1.891102   -0.113838
| 47> H        -2.869851   -1.352711   -0.059589
| 48> *
| 49>
| 50> $new_job
| 51> ! ri-mp2 aug-cc-pvqz aug-cc-pvqz/c tightscf
| 52> %pal nprocs 16 end
| 53> %maxcore 3800
| 54> %base "QZ_P-O_22_AB"
| 55>
| 56> *xyz 0 1
| 57> O        -0.190492   -0.540388   -1.007939
| 58> P        -1.210172   -0.029832    0.187087
| 59> O        -0.820202   -0.534828    1.491365
| 60> O        -2.593264   -0.492845   -0.397356
| 61> O         1.088600   -0.918142   -0.527321
| 62> C         1.835458    0.142044   -0.136829
| 63> C         3.175600   -0.334179    0.314623
| 64> H         3.155286   -0.396840    1.402970
| 65> H         3.922595    0.399641    0.023501
| 66> H         3.414884   -1.312887   -0.091168
| 67> O         1.441859    1.272622   -0.131455
| 68> O        -1.315965    1.510079   -0.056661
| 69> H        -0.420974    1.891102   -0.113838
| 70> H        -2.869851   -1.352711   -0.059589
| 71> *
| 72>
| 73>
| 74>
| 75>
| 76>                          ****END OF INPUT****
 Total Charge           Charge          ....    0
 Multiplicity           Mult            ....    1
 Number of Electrons    NEL             ....   80
MP2 TOTAL ENERGY:     -870.234287018 Eh
FINAL SINGLE POINT ENERGY      -870.234287017760
MP2 TOTAL ENERGY:     -870.766919958 Eh
FINAL SINGLE POINT ENERGY      -870.766919958201

CARTESIAN COORDINATES (ANGSTROEM)
---------------------------------
  O     -0.190492   -0.540388   -1.007939
  P     -1.210172   -0.029832    0.187087
  O     -0.820202   -0.534828    1.491365
  O     -2.593264   -0.492845   -0.397356
  O      1.088600   -0.918142   -0.527321
  C      1.835458    0.142044   -0.136829
  C      3.175600   -0.334179    0.314623
  H      3.155286   -0.396840    1.402970
  H      3.922595    0.399641    0.023501
  H      3.414884   -1.312887   -0.091168
  O      1.441859    1.272622   -0.131455
  O     -1.315965    1.510079   -0.056661
  H     -0.420974    1.891102   -0.113838
  H     -2.869851   -1.352711   -0.059589

 Multiplicity           Mult            ....    1
 Number of Electrons    NEL             ....   80
 Basis Dimension        Dim             ....  954

ORBITAL ENERGIES
----------------

  NO   OCC          E(Eh)            E(eV)
   0   2.0000     -80.107817     -2179.8445
   1   2.0000     -20.697934      -563.2194
   2   2.0000     -20.665570      -562.3388
   3   2.0000     -20.618531      -561.0588
   4   2.0000     -20.601283      -560.5894
   5   2.0000     -20.585956      -560.1723
   6   2.0000     -20.522286      -558.4398
   7   2.0000     -11.422804      -310.8303
   8   2.0000     -11.266858      -306.5868
   9   2.0000      -7.626555      -207.5291
  10   2.0000      -5.525506      -150.3567
  11   2.0000      -5.525041      -150.3440
  12   2.0000      -5.523750      -150.3089
  13   2.0000      -1.570566       -42.7373
  14   2.0000      -1.461297       -39.7639
  15   2.0000      -1.437071       -39.1047
  16   2.0000      -1.399905       -38.0934
  17   2.0000      -1.322163       -35.9779
  18   2.0000      -1.286932       -35.0192
  19   2.0000      -1.046562       -28.4784
  20   2.0000      -0.888312       -24.1722
  21   2.0000      -0.833861       -22.6905
  22   2.0000      -0.776875       -21.1398
  23   2.0000      -0.743504       -20.2318
  24   2.0000      -0.741282       -20.1713
  25   2.0000      -0.716515       -19.4974
  26   2.0000      -0.683328       -18.5943
  27   2.0000      -0.653694       -17.7879
  28   2.0000      -0.649947       -17.6860
  29   2.0000      -0.629438       -17.1279
  30   2.0000      -0.611646       -16.6437
  31   2.0000      -0.593532       -16.1508
  32   2.0000      -0.581427       -15.8214
  33   2.0000      -0.578151       -15.7323
  34   2.0000      -0.553388       -15.0585
  35   2.0000      -0.543447       -14.7880
  36   2.0000      -0.514156       -13.9909
  37   2.0000      -0.495782       -13.4909
  38   2.0000      -0.485267       -13.2048
  39   2.0000      -0.482250       -13.1227
  40   0.0000       0.021649         0.5891
  41   0.0000       0.029075         0.7912
  42   0.0000       0.037934         1.0322
  43   0.0000       0.041839         1.1385
  44   0.0000       0.047178         1.2838

MULLIKEN ATOMIC CHARGES
-----------------------
   0 O :   -0.690273
   1 P :    2.676243
   2 O :   -1.102338
   3 O :   -1.014369
   4 O :   -0.276389
   5 C :    1.096852
   6 C :   -0.670209
   7 H :    0.297086
   8 H :    0.278714
   9 H :    0.282525
  10 O :   -0.758609
  11 O :   -0.869220
  12 H :    0.358973
  13 H :    0.391014
Sum of atomic charges:    0.0000000

LOEWDIN ATOMIC CHARGES
----------------------
   0 O :    0.327686
   1 P :   -1.040969
   2 O :    0.306162
   3 O :    1.088965
   4 O :    0.467054
   5 C :   -1.097568
   6 C :    0.878200
   7 H :   -0.288760
   8 H :   -0.305476
   9 H :   -0.313001
  10 O :    0.784773
  11 O :    1.095402
  12 H :   -1.050484
  13 H :   -0.851985

  Mayer bond orders larger than 0.100000
B(  0-O ,  1-P ) :   0.6575 B(  0-O ,  4-O ) :   0.6613 B(  0-O ,  5-C ) :  -0.1176
B(  1-P ,  2-O ) :   1.4584 B(  1-P ,  3-O ) :   0.4809 B(  1-P , 11-O ) :   0.7136
B(  3-O , 13-H ) :   0.9073 B(  4-O ,  5-C ) :   0.9070 B(  5-C ,  6-C ) :   0.7858
B(  5-C , 10-O ) :   1.4658 B(  6-C ,  7-H ) :   0.8540 B(  6-C ,  8-H ) :   0.9817
B(  6-C ,  9-H ) :   0.9770 B( 11-O , 12-H ) :   0.8513

MP2 TOTAL ENERGY:     -870.940372366 Eh
FINAL SINGLE POINT ENERGY      -870.940372366151

DIPOLE MOMENT
-------------
                                X             Y             Z
Electronic contribution:     -7.01468       0.11571      -1.31136
Nuclear contribution   :      8.00850      -0.71123       0.93768
                        -----------------------------------------
Total Dipole Moment    :      0.99381      -0.59552      -0.37369
                        -----------------------------------------
Magnitude (a.u.)       :      1.21735
Magnitude (Debye)      :      3.09427

Rotational constants in cm-1:     0.104244     0.032746     0.030686
Rotational constants in MHz :  3125.150116   981.711323   919.954271

                             ****ORCA TERMINATED NORMALLY****
TOTAL RUN TIME: 0 days 1 hours 53 minutes 51 seconds 561 msec
