                         Program Version 5.0.4 -  RELEASE  -
|  1> ! ri-mp2 aug-cc-pvdz aug-cc-pvdz/c tightscf
|  2> %pal nprocs 16 end
|  3> %maxcore 3800
|  4> %base "DZ_S-Cl_34_A"
|  5> %scf
|  6> STABPerform true
|  7> STABRestartUHFifUnstable true
|  8> end
|  9>
| 10> *xyz 0 2
| 11> S         1.279720   -0.000920    0.000000
| 12> C        -0.447291    0.126256    0.000000
| 13> O        -1.070328    1.125638    0.000000
| 14> F        -1.025460   -1.083102    0.000000
| 15> *
| 16>
| 17> $new_job
| 18> ! ri-mp2 aug-cc-pvtz aug-cc-pvtz/c tightscf
| 19> %pal nprocs 16 end
| 20> %maxcore 3800
| 21> %base "TZ_S-Cl_34_A"
| 22>
| 23> *xyz 0 2
| 24> S         1.279720   -0.000920    0.000000
| 25> C        -0.447291    0.126256    0.000000
| 26> O        -1.070328    1.125638    0.000000
| 27> F        -1.025460   -1.083102    0.000000
| 28> *
| 29>
| 30> $new_job
| 31> ! ri-mp2 aug-cc-pvqz aug-cc-pvqz/c tightscf
| 32> %pal nprocs 16 end
| 33> %maxcore 3800
| 34> %base "QZ_S-Cl_34_A"
| 35>
| 36> *xyz 0 2
| 37> S         1.279720   -0.000920    0.000000
| 38> C        -0.447291    0.126256    0.000000
| 39> O        -1.070328    1.125638    0.000000
| 40> F        -1.025460   -1.083102    0.000000
| 41> *
| 42>
| 43>
| 44>
| 45>
| 46>                          ****END OF INPUT****
 Total Charge           Charge          ....    0
 Multiplicity           Mult            ....    2
 Number of Electrons    NEL             ....   39
MP2 TOTAL ENERGY:     -610.347555325 Eh
FINAL SINGLE POINT ENERGY      -610.347555324980
MP2 TOTAL ENERGY:     -610.568116268 Eh
FINAL SINGLE POINT ENERGY      -610.568116268485

CARTESIAN COORDINATES (ANGSTROEM)
---------------------------------
  S      1.279720   -0.000920    0.000000
  C     -0.447291    0.126256    0.000000
  O     -1.070328    1.125638    0.000000
  F     -1.025460   -1.083102    0.000000

 Multiplicity           Mult            ....    2
 Number of Electrons    NEL             ....   39
 Basis Dimension        Dim             ....  324

ORBITAL ENERGIES
----------------
                 SPIN UP ORBITALS
  NO   OCC          E(Eh)            E(eV)
   0   1.0000     -92.041020     -2504.5635
   1   1.0000     -26.358482      -717.2508
   2   1.0000     -20.600216      -560.5604
   3   1.0000     -11.464888      -311.9755
   4   1.0000      -9.043460      -246.0850
   5   1.0000      -6.739555      -183.3926
   6   1.0000      -6.720427      -182.8721
   7   1.0000      -6.719049      -182.8346
   8   1.0000      -1.687745       -45.9259
   9   1.0000      -1.459696       -39.7204
  10   1.0000      -1.089860       -29.6566
  11   1.0000      -0.873014       -23.7559
  12   1.0000      -0.757683       -20.6176
  13   1.0000      -0.751039       -20.4368
  14   1.0000      -0.735178       -20.0052
  15   1.0000      -0.629492       -17.1294
  16   1.0000      -0.583437       -15.8761
  17   1.0000      -0.526943       -14.3388
  18   1.0000      -0.492935       -13.4134
  19   1.0000      -0.443984       -12.0814
  20   0.0000       0.038439         1.0460
  21   0.0000       0.060723         1.6524
  22   0.0000       0.067304         1.8314
  23   0.0000       0.070826         1.9273
  24   0.0000       0.084809         2.3078

                 SPIN DOWN ORBITALS
  NO   OCC          E(Eh)            E(eV)
   0   1.0000     -92.031541     -2504.3055
   1   1.0000     -26.357720      -717.2300
   2   1.0000     -20.598663      -560.5181
   3   1.0000     -11.465877      -312.0024
   4   1.0000      -9.032967      -245.7995
   5   1.0000      -6.715788      -182.7459
   6   1.0000      -6.713389      -182.6806
   7   1.0000      -6.696599      -182.2237
   8   1.0000      -1.685786       -45.8726
   9   1.0000      -1.455761       -39.6133
  10   1.0000      -1.024880       -27.8884
  11   1.0000      -0.858243       -23.3540
  12   1.0000      -0.750872       -20.4323
  13   1.0000      -0.745061       -20.2741
  14   1.0000      -0.717356       -19.5203
  15   1.0000      -0.614216       -16.7137
  16   1.0000      -0.581662       -15.8278
  17   1.0000      -0.497485       -13.5373
  18   1.0000      -0.423869       -11.5341
  19   0.0000      -0.030422        -0.8278
  20   0.0000       0.039916         1.0862
  21   0.0000       0.061027         1.6606
  22   0.0000       0.070991         1.9318
  23   0.0000       0.076959         2.0942

MULLIKEN ATOMIC CHARGES AND SPIN POPULATIONS
--------------------------------------------
   0 S :    0.260254    1.075518
   1 C :    0.690787   -0.086884
   2 O :   -0.495033    0.014858
   3 F :   -0.456009   -0.003492
Sum of atomic charges         :    0.0000000

LOEWDIN ATOMIC CHARGES AND SPIN POPULATIONS
-------------------------------------------
   0 S :    0.959556    0.743834
   1 C :   -2.052924    0.207398
   2 O :    0.477895    0.029189
   3 F :    0.615473    0.019579

  Mayer bond orders larger than 0.100000
B(  0-S ,  1-C ) :   1.0820 B(  1-C ,  2-O ) :   1.8404 B(  1-C ,  3-F ) :   0.7564

MP2 TOTAL ENERGY:     -610.642329209 Eh
FINAL SINGLE POINT ENERGY      -610.642329209208

DIPOLE MOMENT
-------------
                                X             Y             Z
Electronic contribution:     -0.03819      -1.36792      -0.00000
Nuclear contribution   :      0.88594       1.00735       0.00000
                        -----------------------------------------
Total Dipole Moment    :      0.84774      -0.36058      -0.00000
                        -----------------------------------------
Magnitude (a.u.)       :      0.92124
Magnitude (Debye)      :      2.34161

Rotational constants in cm-1:     0.394687     0.180826     0.124011
Rotational constants in MHz : 11832.432313  5421.031589  3717.745590

                             ****ORCA TERMINATED NORMALLY****
TOTAL RUN TIME: 0 days 0 hours 7 minutes 22 seconds 452 msec
