                         Program Version 5.0.4 -  RELEASE  -
|  1> ! ri-mp2 aug-cc-pvdz aug-cc-pvdz/c tightscf
|  2> %pal nprocs 16 end
|  3> %maxcore 3800
|  4> %base "DZ_Si-Si_81_AB"
|  5> %scf
|  6> STABPerform true
|  7> STABRestartUHFifUnstable true
|  8> end
|  9>
| 10> *xyz 0 1
| 11> Si        -2.096386    0.346460   -0.327759
| 12> Si        -0.252985   -0.763797    0.587608
| 13> C         1.370551   -0.033089   -0.078548
| 14> H        -0.273143   -2.199501    0.222757
| 15> H        -0.290597   -0.634876    2.063795
| 16> H        -2.038602    1.785075    0.017618
| 17> H        -3.358616   -0.217904    0.199743
| 18> N         2.149988   -0.669671   -0.851004
| 19> H        -2.089487    0.213143   -1.801414
| 20> H         1.810445   -1.610350   -1.049327
| 21> C         1.733756    1.369400    0.313708
| 22> H         0.955698    2.071784    0.005190
| 23> H         2.677387    1.652027   -0.149374
| 24> H         1.822351    1.453157    1.399187
| 25> *
| 26>
| 27> $new_job
| 28> ! ri-mp2 aug-cc-pvtz aug-cc-pvtz/c tightscf
| 29> %pal nprocs 16 end
| 30> %maxcore 3800
| 31> %base "TZ_Si-Si_81_AB"
| 32>
| 33> *xyz 0 1
| 34> Si        -2.096386    0.346460   -0.327759
| 35> Si        -0.252985   -0.763797    0.587608
| 36> C         1.370551   -0.033089   -0.078548
| 37> H        -0.273143   -2.199501    0.222757
| 38> H        -0.290597   -0.634876    2.063795
| 39> H        -2.038602    1.785075    0.017618
| 40> H        -3.358616   -0.217904    0.199743
| 41> N         2.149988   -0.669671   -0.851004
| 42> H        -2.089487    0.213143   -1.801414
| 43> H         1.810445   -1.610350   -1.049327
| 44> C         1.733756    1.369400    0.313708
| 45> H         0.955698    2.071784    0.005190
| 46> H         2.677387    1.652027   -0.149374
| 47> H         1.822351    1.453157    1.399187
| 48> *
| 49>
| 50> $new_job
| 51> ! ri-mp2 aug-cc-pvqz aug-cc-pvqz/c tightscf
| 52> %pal nprocs 16 end
| 53> %maxcore 3800
| 54> %base "QZ_Si-Si_81_AB"
| 55>
| 56> *xyz 0 1
| 57> Si        -2.096386    0.346460   -0.327759
| 58> Si        -0.252985   -0.763797    0.587608
| 59> C         1.370551   -0.033089   -0.078548
| 60> H        -0.273143   -2.199501    0.222757
| 61> H        -0.290597   -0.634876    2.063795
| 62> H        -2.038602    1.785075    0.017618
| 63> H        -3.358616   -0.217904    0.199743
| 64> N         2.149988   -0.669671   -0.851004
| 65> H        -2.089487    0.213143   -1.801414
| 66> H         1.810445   -1.610350   -1.049327
| 67> C         1.733756    1.369400    0.313708
| 68> H         0.955698    2.071784    0.005190
| 69> H         2.677387    1.652027   -0.149374
| 70> H         1.822351    1.453157    1.399187
| 71> *
| 72>
| 73>
| 74>
| 75>
| 76>                          ****END OF INPUT****
 Total Charge           Charge          ....    0
 Multiplicity           Mult            ....    1
 Number of Electrons    NEL             ....   56
MP2 TOTAL ENERGY:     -713.953434043 Eh
FINAL SINGLE POINT ENERGY      -713.953434043048
MP2 TOTAL ENERGY:     -714.147095641 Eh
FINAL SINGLE POINT ENERGY      -714.147095641040

CARTESIAN COORDINATES (ANGSTROEM)
---------------------------------
  Si    -2.096386    0.346460   -0.327759
  Si    -0.252985   -0.763797    0.587608
  C      1.370551   -0.033089   -0.078548
  H     -0.273143   -2.199501    0.222757
  H     -0.290597   -0.634876    2.063795
  H     -2.038602    1.785075    0.017618
  H     -3.358616   -0.217904    0.199743
  N      2.149988   -0.669671   -0.851004
  H     -2.089487    0.213143   -1.801414
  H      1.810445   -1.610350   -1.049327
  C      1.733756    1.369400    0.313708
  H      0.955698    2.071784    0.005190
  H      2.677387    1.652027   -0.149374
  H      1.822351    1.453157    1.399187

 Multiplicity           Mult            ....    1
 Number of Electrons    NEL             ....   56
 Basis Dimension        Dim             ....  822

ORBITAL ENERGIES
----------------

  NO   OCC          E(Eh)            E(eV)
   0   2.0000     -68.777390     -1871.5279
   1   2.0000     -68.774497     -1871.4492
   2   2.0000     -15.554652      -423.2636
   3   2.0000     -11.274165      -306.7856
   4   2.0000     -11.226074      -305.4770
   5   2.0000      -6.128537      -166.7660
   6   2.0000      -6.125492      -166.6831
   7   2.0000      -4.234673      -115.2313
   8   2.0000      -4.234590      -115.2291
   9   2.0000      -4.234352      -115.2226
  10   2.0000      -4.231561      -115.1466
  11   2.0000      -4.231543      -115.1461
  12   2.0000      -4.231520      -115.1455
  13   2.0000      -1.212234       -32.9866
  14   2.0000      -0.992728       -27.0135
  15   2.0000      -0.792825       -21.5739
  16   2.0000      -0.745413       -20.2837
  17   2.0000      -0.700929       -19.0733
  18   2.0000      -0.613383       -16.6910
  19   2.0000      -0.585816       -15.9409
  20   2.0000      -0.566293       -15.4096
  21   2.0000      -0.534153       -14.5350
  22   2.0000      -0.503465       -13.7000
  23   2.0000      -0.493570       -13.4307
  24   2.0000      -0.479915       -13.0591
  25   2.0000      -0.447079       -12.1656
  26   2.0000      -0.410455       -11.1690
  27   2.0000      -0.380228       -10.3465
  28   0.0000       0.022550         0.6136
  29   0.0000       0.028846         0.7849
  30   0.0000       0.032694         0.8896
  31   0.0000       0.036551         0.9946
  32   0.0000       0.047637         1.2963

MULLIKEN ATOMIC CHARGES
-----------------------
   0 Si:    0.372835
   1 Si:    0.888071
   2 C :    0.142646
   3 H :   -0.275469
   4 H :   -0.216892
   5 H :   -0.137201
   6 H :   -0.169505
   7 N :   -0.826518
   8 H :   -0.134718
   9 H :    0.304977
  10 C :   -0.823092
  11 H :    0.278335
  12 H :    0.352000
  13 H :    0.244531
Sum of atomic charges:    0.0000000

LOEWDIN ATOMIC CHARGES
----------------------
   0 Si:    1.053957
   1 Si:    0.690345
   2 C :   -0.368763
   3 H :   -0.259399
   4 H :   -0.260510
   5 H :   -0.309990
   6 H :   -0.317162
   7 N :    0.934769
   8 H :   -0.309822
   9 H :   -0.710065
  10 C :    0.797267
  11 H :   -0.314182
  12 H :   -0.322330
  13 H :   -0.304116

  Mayer bond orders larger than 0.100000
B(  0-Si,  1-Si) :   0.7598 B(  0-Si,  5-H ) :   0.7697 B(  0-Si,  6-H ) :   0.7691
B(  0-Si,  8-H ) :   0.7606 B(  1-Si,  2-C ) :   0.6565 B(  1-Si,  3-H ) :   0.7878
B(  1-Si,  4-H ) :   0.7915 B(  2-C ,  7-N ) :   1.4970 B(  2-C , 10-C ) :   0.8522
B(  7-N ,  9-H ) :   0.8212 B( 10-C , 11-H ) :   0.9189 B( 10-C , 12-H ) :   0.9347
B( 10-C , 13-H ) :   0.9453

MP2 TOTAL ENERGY:     -714.209082824 Eh
FINAL SINGLE POINT ENERGY      -714.209082823991

DIPOLE MOMENT
-------------
                                X             Y             Z
Electronic contribution:     -0.00401      -2.52009      -0.48121
Nuclear contribution   :     -0.64089       2.58056       0.90372
                        -----------------------------------------
Total Dipole Moment    :     -0.64490       0.06046       0.42251
                        -----------------------------------------
Magnitude (a.u.)       :      0.77335
Magnitude (Debye)      :      1.96570

Rotational constants in cm-1:     0.162554     0.052940     0.047815
Rotational constants in MHz :  4873.255165  1587.103572  1433.446067

                             ****ORCA TERMINATED NORMALLY****
TOTAL RUN TIME: 0 days 1 hours 0 minutes 26 seconds 287 msec
