                         Program Version 5.0.4 -  RELEASE  -
|  1> ! ri-mp2 aug-cc-pvdz aug-cc-pvdz/c tightscf
|  2> %pal nprocs 16 end
|  3> %maxcore 3800
|  4> %base "DZ_B-F_15_A"
|  5> %scf
|  6> STABPerform true
|  7> STABRestartUHFifUnstable true
|  8> end
|  9>
| 10> *xyz 0 2
| 11> F         0.937711    1.926940   -0.358479
| 12> B         0.342593    1.367293    0.647346
| 13> C        -0.082350   -0.151628    0.659887
| 14> Cl         1.107058   -1.201543   -0.141229
| 15> Cl        -1.659695   -0.134176   -0.189040
| 16> H        -0.263422   -0.561929    1.644828
| 17> *
| 18>
| 19> $new_job
| 20> ! ri-mp2 aug-cc-pvtz aug-cc-pvtz/c tightscf
| 21> %pal nprocs 16 end
| 22> %maxcore 3800
| 23> %base "TZ_B-F_15_A"
| 24>
| 25> *xyz 0 2
| 26> F         0.937711    1.926940   -0.358479
| 27> B         0.342593    1.367293    0.647346
| 28> C        -0.082350   -0.151628    0.659887
| 29> Cl         1.107058   -1.201543   -0.141229
| 30> Cl        -1.659695   -0.134176   -0.189040
| 31> H        -0.263422   -0.561929    1.644828
| 32> *
| 33>
| 34> $new_job
| 35> ! ri-mp2 aug-cc-pvqz aug-cc-pvqz/c tightscf
| 36> %pal nprocs 16 end
| 37> %maxcore 3800
| 38> %base "QZ_B-F_15_A"
| 39>
| 40> *xyz 0 2
| 41> F         0.937711    1.926940   -0.358479
| 42> B         0.342593    1.367293    0.647346
| 43> C        -0.082350   -0.151628    0.659887
| 44> Cl         1.107058   -1.201543   -0.141229
| 45> Cl        -1.659695   -0.134176   -0.189040
| 46> H        -0.263422   -0.561929    1.644828
| 47> *
| 48>
| 49>
| 50>
| 51>
| 52>                          ****END OF INPUT****
 Total Charge           Charge          ....    0
 Multiplicity           Mult            ....    2
 Number of Electrons    NEL             ....   55
MP2 TOTAL ENERGY:    -1082.280588700 Eh
FINAL SINGLE POINT ENERGY     -1082.280588699885
MP2 TOTAL ENERGY:    -1082.542589685 Eh
FINAL SINGLE POINT ENERGY     -1082.542589685415

CARTESIAN COORDINATES (ANGSTROEM)
---------------------------------
  F      0.937711    1.926940   -0.358479
  B      0.342593    1.367293    0.647346
  C     -0.082350   -0.151628    0.659887
  Cl     1.107058   -1.201543   -0.141229
  Cl    -1.659695   -0.134176   -0.189040
  H     -0.263422   -0.561929    1.644828

 Multiplicity           Mult            ....    2
 Number of Electrons    NEL             ....   55
 Basis Dimension        Dim             ....  454

ORBITAL ENERGIES
----------------
                 SPIN UP ORBITALS
  NO   OCC          E(Eh)            E(eV)
   0   1.0000    -104.861912     -2853.4377
   1   1.0000    -104.856294     -2853.2848
   2   1.0000     -26.340287      -716.7557
   3   1.0000     -11.363985      -309.2297
   4   1.0000     -10.587223      -288.0930
   5   1.0000     -10.581737      -287.9437
   6   1.0000      -8.054387      -219.1710
   7   1.0000      -8.052350      -219.1156
   8   1.0000      -8.052238      -219.1125
   9   1.0000      -8.049516      -219.0385
  10   1.0000      -8.046819      -218.9651
  11   1.0000      -8.046734      -218.9628
  12   1.0000      -7.716290      -209.9709
  13   1.0000      -1.660906       -45.1956
  14   1.0000      -1.201698       -32.6999
  15   1.0000      -1.107503       -30.1367
  16   1.0000      -0.914392       -24.8819
  17   1.0000      -0.819438       -22.2980
  18   1.0000      -0.748480       -20.3672
  19   1.0000      -0.711380       -19.3576
  20   1.0000      -0.664049       -18.0697
  21   1.0000      -0.630029       -17.1440
  22   1.0000      -0.595266       -16.1980
  23   1.0000      -0.486592       -13.2408
  24   1.0000      -0.483497       -13.1566
  25   1.0000      -0.460282       -12.5249
  26   1.0000      -0.456796       -12.4300
  27   1.0000      -0.377340       -10.2680
  28   0.0000       0.024236         0.6595
  29   0.0000       0.033196         0.9033
  30   0.0000       0.037553         1.0219
  31   0.0000       0.041657         1.1335
  32   0.0000       0.064383         1.7520

                 SPIN DOWN ORBITALS
  NO   OCC          E(Eh)            E(eV)
   0   1.0000    -104.861888     -2853.4370
   1   1.0000    -104.855835     -2853.2723
   2   1.0000     -26.337190      -716.6714
   3   1.0000     -11.360624      -309.1383
   4   1.0000     -10.587205      -288.0925
   5   1.0000     -10.581258      -287.9307
   6   1.0000      -8.054066      -219.1623
   7   1.0000      -8.052468      -219.1188
   8   1.0000      -8.052286      -219.1138
   9   1.0000      -8.047683      -218.9886
  10   1.0000      -8.046584      -218.9587
  11   1.0000      -8.046382      -218.9532
  12   1.0000      -7.696129      -209.4223
  13   1.0000      -1.652183       -44.9582
  14   1.0000      -1.197718       -32.5916
  15   1.0000      -1.105402       -30.0795
  16   1.0000      -0.901747       -24.5378
  17   1.0000      -0.809339       -22.0232
  18   1.0000      -0.721161       -19.6238
  19   1.0000      -0.711663       -19.3653
  20   1.0000      -0.646915       -17.6035
  21   1.0000      -0.616935       -16.7877
  22   1.0000      -0.591389       -16.0925
  23   1.0000      -0.485158       -13.2018
  24   1.0000      -0.477577       -12.9955
  25   1.0000      -0.458211       -12.4685
  26   1.0000      -0.447812       -12.1856
  27   0.0000       0.018613         0.5065
  28   0.0000       0.035639         0.9698
  29   0.0000       0.037056         1.0084
  30   0.0000       0.040781         1.1097
  31   0.0000       0.054917         1.4944

MULLIKEN ATOMIC CHARGES AND SPIN POPULATIONS
--------------------------------------------
   0 F :   -0.702663   -0.021015
   1 B :    0.887645    1.002805
   2 C :   -0.148294   -0.018860
   3 Cl:   -0.238169    0.039674
   4 Cl:   -0.220792    0.009122
   5 H :    0.422273   -0.011727
Sum of atomic charges         :   -0.0000000

LOEWDIN ATOMIC CHARGES AND SPIN POPULATIONS
-------------------------------------------
   0 F :    0.730432    0.148279
   1 B :   -1.079832    0.585895
   2 C :   -1.221904    0.172176
   3 Cl:    1.081226    0.039205
   4 Cl:    1.094821    0.025517
   5 H :   -0.604742    0.028929

  Mayer bond orders larger than 0.100000
B(  0-F ,  1-B ) :   0.4428 B(  1-B ,  2-C ) :   0.8751 B(  2-C ,  3-Cl) :   0.8431
B(  2-C ,  4-Cl) :   0.8551 B(  2-C ,  5-H ) :   0.7766

MP2 TOTAL ENERGY:    -1082.628049641 Eh
FINAL SINGLE POINT ENERGY     -1082.628049640898

DIPOLE MOMENT
-------------
                                X             Y             Z
Electronic contribution:      0.57071       1.48427      -1.11807
Nuclear contribution   :     -0.61298      -1.50379       1.77077
                        -----------------------------------------
Total Dipole Moment    :     -0.04226      -0.01953       0.65270
                        -----------------------------------------
Magnitude (a.u.)       :      0.65436
Magnitude (Debye)      :      1.66325

Rotational constants in cm-1:     0.105360     0.095729     0.055748
Rotational constants in MHz :  3158.620528  2869.870613  1671.297664

                             ****ORCA TERMINATED NORMALLY****
TOTAL RUN TIME: 0 days 0 hours 22 minutes 26 seconds 961 msec
