                         Program Version 5.0.4 -  RELEASE  -
|  1> ! ri-mp2 aug-cc-pvdz aug-cc-pvdz/c tightscf
|  2> %pal nprocs 16 end
|  3> %maxcore 3800
|  4> %base "DZ_P-P_14_AB"
|  5>
|  6> *xyz 0 1
|  7> C         2.219820   -1.228914   -0.105024
|  8> C         0.908286   -1.166199    0.329950
|  9> C         0.250913    0.056723    0.430905
| 10> C         2.900478   -0.066980   -0.428912
| 11> C         2.260596    1.156029   -0.321538
| 12> C         0.943329    1.216950    0.099588
| 13> H         2.714894   -2.187785   -0.182940
| 14> H         0.387986   -2.077959    0.596371
| 15> H         0.448598    2.177160    0.169225
| 16> H         3.928667   -0.114614   -0.761902
| 17> H         2.786875    2.067806   -0.571607
| 18> P        -1.477580    0.072209    1.022583
| 19> P        -2.487441   -0.223019   -0.922858
| 20> H        -2.296512    1.061255   -1.482608
| 21> H        -3.785974    0.058463   -0.438748
| 22> H        -1.609749    1.472171    1.146514
| 23> *
| 24>
| 25> $new_job
| 26> ! ri-mp2 aug-cc-pvtz aug-cc-pvtz/c tightscf
| 27> %pal nprocs 16 end
| 28> %maxcore 3800
| 29> %base "TZ_P-P_14_AB"
| 30>
| 31> *xyz 0 1
| 32> C         2.219820   -1.228914   -0.105024
| 33> C         0.908286   -1.166199    0.329950
| 34> C         0.250913    0.056723    0.430905
| 35> C         2.900478   -0.066980   -0.428912
| 36> C         2.260596    1.156029   -0.321538
| 37> C         0.943329    1.216950    0.099588
| 38> H         2.714894   -2.187785   -0.182940
| 39> H         0.387986   -2.077959    0.596371
| 40> H         0.448598    2.177160    0.169225
| 41> H         3.928667   -0.114614   -0.761902
| 42> H         2.786875    2.067806   -0.571607
| 43> P        -1.477580    0.072209    1.022583
| 44> P        -2.487441   -0.223019   -0.922858
| 45> H        -2.296512    1.061255   -1.482608
| 46> H        -3.785974    0.058463   -0.438748
| 47> H        -1.609749    1.472171    1.146514
| 48> *
| 49>
| 50> $new_job
| 51> ! ri-mp2 aug-cc-pvqz aug-cc-pvqz/c tightscf
| 52> %pal nprocs 16 end
| 53> %maxcore 3800
| 54> %base "QZ_P-P_14_AB"
| 55>
| 56> *xyz 0 1
| 57> C         2.219820   -1.228914   -0.105024
| 58> C         0.908286   -1.166199    0.329950
| 59> C         0.250913    0.056723    0.430905
| 60> C         2.900478   -0.066980   -0.428912
| 61> C         2.260596    1.156029   -0.321538
| 62> C         0.943329    1.216950    0.099588
| 63> H         2.714894   -2.187785   -0.182940
| 64> H         0.387986   -2.077959    0.596371
| 65> H         0.448598    2.177160    0.169225
| 66> H         3.928667   -0.114614   -0.761902
| 67> H         2.786875    2.067806   -0.571607
| 68> P        -1.477580    0.072209    1.022583
| 69> P        -2.487441   -0.223019   -0.922858
| 70> H        -2.296512    1.061255   -1.482608
| 71> H        -3.785974    0.058463   -0.438748
| 72> H        -1.609749    1.472171    1.146514
| 73> *
| 74>
| 75>
| 76>
| 77>
| 78>                          ****END OF INPUT****
 Total Charge           Charge          ....    0
 Multiplicity           Mult            ....    1
 Number of Electrons    NEL             ....   74
MP2 TOTAL ENERGY:     -914.433463114 Eh
FINAL SINGLE POINT ENERGY      -914.433463114464
MP2 TOTAL ENERGY:     -914.723096642 Eh
FINAL SINGLE POINT ENERGY      -914.723096642293

CARTESIAN COORDINATES (ANGSTROEM)
---------------------------------
  C      2.219820   -1.228914   -0.105024
  C      0.908286   -1.166199    0.329950
  C      0.250913    0.056723    0.430905
  C      2.900478   -0.066980   -0.428912
  C      2.260596    1.156029   -0.321538
  C      0.943329    1.216950    0.099588
  H      2.714894   -2.187785   -0.182940
  H      0.387986   -2.077959    0.596371
  H      0.448598    2.177160    0.169225
  H      3.928667   -0.114614   -0.761902
  H      2.786875    2.067806   -0.571607
  P     -1.477580    0.072209    1.022583
  P     -2.487441   -0.223019   -0.922858
  H     -2.296512    1.061255   -1.482608
  H     -3.785974    0.058463   -0.438748
  H     -1.609749    1.472171    1.146514

 Multiplicity           Mult            ....    1
 Number of Electrons    NEL             ....   74
 Basis Dimension        Dim             .... 1016

ORBITAL ENERGIES
----------------

  NO   OCC          E(Eh)            E(eV)
   0   2.0000     -79.948304     -2175.5039
   1   2.0000     -79.944324     -2175.3957
   2   2.0000     -11.246570      -306.0347
   3   2.0000     -11.241845      -305.9062
   4   2.0000     -11.240595      -305.8721
   5   2.0000     -11.239742      -305.8489
   6   2.0000     -11.238263      -305.8087
   7   2.0000     -11.237617      -305.7911
   8   2.0000      -7.490581      -203.8291
   9   2.0000      -7.487440      -203.7436
  10   2.0000      -5.384403      -146.5171
  11   2.0000      -5.384260      -146.5132
  12   2.0000      -5.383381      -146.4892
  13   2.0000      -5.380981      -146.4239
  14   2.0000      -5.380929      -146.4225
  15   2.0000      -5.380081      -146.3995
  16   2.0000      -1.164849       -31.6971
  17   2.0000      -1.034689       -28.1553
  18   2.0000      -1.025540       -27.9064
  19   2.0000      -0.902498       -24.5582
  20   2.0000      -0.835850       -22.7446
  21   2.0000      -0.829093       -22.5608
  22   2.0000      -0.761923       -20.7330
  23   2.0000      -0.696349       -18.9486
  24   2.0000      -0.639295       -17.3961
  25   2.0000      -0.632575       -17.2132
  26   2.0000      -0.596035       -16.2189
  27   2.0000      -0.562452       -15.3051
  28   2.0000      -0.534102       -14.5337
  29   2.0000      -0.529824       -14.4172
  30   2.0000      -0.505373       -13.7519
  31   2.0000      -0.499461       -13.5910
  32   2.0000      -0.459520       -12.5042
  33   2.0000      -0.384041       -10.4503
  34   2.0000      -0.373234       -10.1562
  35   2.0000      -0.346025        -9.4158
  36   2.0000      -0.322558        -8.7772
  37   0.0000       0.022896         0.6230
  38   0.0000       0.028319         0.7706
  39   0.0000       0.031128         0.8470
  40   0.0000       0.038138         1.0378
  41   0.0000       0.041709         1.1349

MULLIKEN ATOMIC CHARGES
-----------------------
   0 C :   -0.261073
   1 C :   -0.311529
   2 C :   -0.032858
   3 C :   -0.358559
   4 C :   -0.256800
   5 C :   -0.497888
   6 H :    0.251690
   7 H :    0.343506
   8 H :    0.330313
   9 H :    0.365284
  10 H :    0.261885
  11 P :    0.309802
  12 P :    0.125756
  13 H :   -0.059663
  14 H :   -0.084399
  15 H :   -0.125467
Sum of atomic charges:   -0.0000000

LOEWDIN ATOMIC CHARGES
----------------------
   0 C :    0.334881
   1 C :    0.213731
   2 C :   -0.396077
   3 C :    0.334567
   4 C :    0.335951
   5 C :    0.233584
   6 H :   -0.319874
   7 H :   -0.344194
   8 H :   -0.349706
   9 H :   -0.320409
  10 H :   -0.320443
  11 P :    0.928897
  12 P :    1.263477
  13 H :   -0.534478
  14 H :   -0.566640
  15 H :   -0.493266

  Mayer bond orders larger than 0.100000
B(  0-C ,  1-C ) :   1.3496 B(  0-C ,  2-C ) :  -0.2984 B(  0-C ,  3-C ) :   1.1230
B(  0-C ,  4-C ) :  -0.1405 B(  0-C ,  5-C ) :   0.1525 B(  0-C ,  6-H ) :   1.1089
B(  1-C ,  2-C ) :   0.8649 B(  1-C ,  3-C ) :   0.1288 B(  1-C ,  4-C ) :   0.1336
B(  1-C ,  5-C ) :   0.1348 B(  1-C ,  6-H ) :  -0.1301 B(  1-C ,  7-H ) :   0.9136
B(  1-C , 11-P ) :  -0.2627 B(  2-C ,  4-C ) :  -0.2999 B(  2-C ,  5-C ) :   0.7971
B(  2-C ,  7-H ) :  -0.1259 B(  2-C , 11-P ) :   0.8788 B(  2-C , 15-H ) :  -0.1465
B(  3-C ,  4-C ) :   1.1320 B(  3-C ,  5-C ) :   0.1610 B(  3-C ,  9-H ) :   0.9611
B(  4-C ,  5-C ) :   1.3584 B(  4-C , 10-H ) :   1.0962 B(  5-C ,  8-H ) :   0.9268
B(  5-C , 10-H ) :  -0.1332 B( 11-P , 12-P ) :   1.0073 B( 11-P , 15-H ) :   0.9446
B( 12-P , 13-H ) :   0.9031 B( 12-P , 14-H ) :   0.9145

MP2 TOTAL ENERGY:     -914.815409759 Eh
FINAL SINGLE POINT ENERGY      -914.815409758880

DIPOLE MOMENT
-------------
                                X             Y             Z
Electronic contribution:     -5.84963      -2.12279       1.43062
Nuclear contribution   :      6.21236       2.54338      -1.58530
                        -----------------------------------------
Total Dipole Moment    :      0.36273       0.42059      -0.15468
                        -----------------------------------------
Magnitude (a.u.)       :      0.57654
Magnitude (Debye)      :      1.46545

Rotational constants in cm-1:     0.103649     0.026908     0.026042
Rotational constants in MHz :  3107.326420   806.683953   780.723055

                             ****ORCA TERMINATED NORMALLY****
TOTAL RUN TIME: 0 days 0 hours 30 minutes 17 seconds 945 msec
