                         Program Version 5.0.4 -  RELEASE  -
|  1> ! ri-mp2 aug-cc-pvdz aug-cc-pvdz/c tightscf
|  2> %pal nprocs 16 end
|  3> %maxcore 3800
|  4> %base "DZ_Si-Si_144_B"
|  5> %scf
|  6> STABPerform true
|  7> STABRestartUHFifUnstable true
|  8> end
|  9>
| 10> *xyz 0 2
| 11> Si         2.261549   -0.026195   -0.070243
| 12> P        -0.743735    0.009825    0.105753
| 13> O        -0.631643    1.283036   -0.836224
| 14> O        -1.624532   -1.015652   -0.719702
| 15> H        -1.257457    1.975304   -0.596271
| 16> H        -2.286592   -1.439360   -0.162382
| 17> O        -1.240667    0.270436    1.449611
| 18> O         0.695172   -0.587315   -0.027710
| 19> H         2.360192    1.202662    0.752904
| 20> H         3.091552   -1.123305    0.475061
| 21> *
| 22>
| 23> $new_job
| 24> ! ri-mp2 aug-cc-pvtz aug-cc-pvtz/c tightscf
| 25> %pal nprocs 16 end
| 26> %maxcore 3800
| 27> %base "TZ_Si-Si_144_B"
| 28>
| 29> *xyz 0 2
| 30> Si         2.261549   -0.026195   -0.070243
| 31> P        -0.743735    0.009825    0.105753
| 32> O        -0.631643    1.283036   -0.836224
| 33> O        -1.624532   -1.015652   -0.719702
| 34> H        -1.257457    1.975304   -0.596271
| 35> H        -2.286592   -1.439360   -0.162382
| 36> O        -1.240667    0.270436    1.449611
| 37> O         0.695172   -0.587315   -0.027710
| 38> H         2.360192    1.202662    0.752904
| 39> H         3.091552   -1.123305    0.475061
| 40> *
| 41>
| 42> $new_job
| 43> ! ri-mp2 aug-cc-pvqz aug-cc-pvqz/c tightscf
| 44> %pal nprocs 16 end
| 45> %maxcore 3800
| 46> %base "QZ_Si-Si_144_B"
| 47>
| 48> *xyz 0 2
| 49> Si         2.261549   -0.026195   -0.070243
| 50> P        -0.743735    0.009825    0.105753
| 51> O        -0.631643    1.283036   -0.836224
| 52> O        -1.624532   -1.015652   -0.719702
| 53> H        -1.257457    1.975304   -0.596271
| 54> H        -2.286592   -1.439360   -0.162382
| 55> O        -1.240667    0.270436    1.449611
| 56> O         0.695172   -0.587315   -0.027710
| 57> H         2.360192    1.202662    0.752904
| 58> H         3.091552   -1.123305    0.475061
| 59> *
| 60>
| 61>
| 62>
| 63>
| 64>                          ****END OF INPUT****
 Total Charge           Charge          ....    0
 Multiplicity           Mult            ....    2
 Number of Electrons    NEL             ....   65
MP2 TOTAL ENERGY:     -932.592678945 Eh
FINAL SINGLE POINT ENERGY      -932.592678945054
MP2 TOTAL ENERGY:     -932.973775610 Eh
FINAL SINGLE POINT ENERGY      -932.973775609625

CARTESIAN COORDINATES (ANGSTROEM)
---------------------------------
  Si     2.261549   -0.026195   -0.070243
  P     -0.743735    0.009825    0.105753
  O     -0.631643    1.283036   -0.836224
  O     -1.624532   -1.015652   -0.719702
  H     -1.257457    1.975304   -0.596271
  H     -2.286592   -1.439360   -0.162382
  O     -1.240667    0.270436    1.449611
  O      0.695172   -0.587315   -0.027710
  H      2.360192    1.202662    0.752904
  H      3.091552   -1.123305    0.475061

 Multiplicity           Mult            ....    2
 Number of Electrons    NEL             ....   65
 Basis Dimension        Dim             ....  672

ORBITAL ENERGIES
----------------
                 SPIN UP ORBITALS
  NO   OCC          E(Eh)            E(eV)
   0   1.0000     -80.102544     -2179.7010
   1   1.0000     -68.827492     -1872.8913
   2   1.0000     -20.609745      -560.8197
   3   1.0000     -20.604775      -560.6844
   4   1.0000     -20.595299      -560.4266
   5   1.0000     -20.512997      -558.1870
   6   1.0000      -7.619924      -207.3487
   7   1.0000      -6.172538      -167.9633
   8   1.0000      -5.519004      -150.1797
   9   1.0000      -5.518629      -150.1695
  10   1.0000      -5.517563      -150.1405
  11   1.0000      -4.284486      -116.5868
  12   1.0000      -4.275979      -116.3553
  13   1.0000      -4.274914      -116.3263
  14   1.0000      -1.468013       -39.9467
  15   1.0000      -1.397501       -38.0279
  16   1.0000      -1.386915       -37.7399
  17   1.0000      -1.306695       -35.5570
  18   1.0000      -0.886187       -24.1144
  19   1.0000      -0.788124       -21.4459
  20   1.0000      -0.760665       -20.6987
  21   1.0000      -0.689758       -18.7693
  22   1.0000      -0.666253       -18.1297
  23   1.0000      -0.647351       -17.6153
  24   1.0000      -0.611408       -16.6373
  25   1.0000      -0.606921       -16.5152
  26   1.0000      -0.591794       -16.1035
  27   1.0000      -0.558753       -15.2044
  28   1.0000      -0.543361       -14.7856
  29   1.0000      -0.499011       -13.5788
  30   1.0000      -0.477730       -12.9997
  31   1.0000      -0.475782       -12.9467
  32   1.0000      -0.352296        -9.5865
  33   0.0000       0.023219         0.6318
  34   0.0000       0.029205         0.7947
  35   0.0000       0.033551         0.9130
  36   0.0000       0.046166         1.2562
  37   0.0000       0.049669         1.3516

                 SPIN DOWN ORBITALS
  NO   OCC          E(Eh)            E(eV)
   0   1.0000     -80.102559     -2179.7014
   1   1.0000     -68.821693     -1872.7335
   2   1.0000     -20.609778      -560.8206
   3   1.0000     -20.604803      -560.6852
   4   1.0000     -20.592651      -560.3545
   5   1.0000     -20.512905      -558.1845
   6   1.0000      -7.619938      -207.3491
   7   1.0000      -6.163263      -167.7109
   8   1.0000      -5.518976      -150.1790
   9   1.0000      -5.518654      -150.1702
  10   1.0000      -5.517599      -150.1415
  11   1.0000      -4.272341      -116.2563
  12   1.0000      -4.271372      -116.2299
  13   1.0000      -4.262935      -116.0004
  14   1.0000      -1.466380       -39.9022
  15   1.0000      -1.397566       -38.0297
  16   1.0000      -1.381546       -37.5938
  17   1.0000      -1.306137       -35.5418
  18   1.0000      -0.882269       -24.0078
  19   1.0000      -0.776091       -21.1185
  20   1.0000      -0.759610       -20.6701
  21   1.0000      -0.686832       -18.6896
  22   1.0000      -0.648664       -17.6510
  23   1.0000      -0.645560       -17.5666
  24   1.0000      -0.600112       -16.3299
  25   1.0000      -0.598178       -16.2773
  26   1.0000      -0.583747       -15.8846
  27   1.0000      -0.553132       -15.0515
  28   1.0000      -0.541952       -14.7473
  29   1.0000      -0.486410       -13.2359
  30   1.0000      -0.476083       -12.9549
  31   1.0000      -0.473437       -12.8829
  32   0.0000       0.020722         0.5639
  33   0.0000       0.027183         0.7397
  34   0.0000       0.032248         0.8775
  35   0.0000       0.033755         0.9185
  36   0.0000       0.047720         1.2985

MULLIKEN ATOMIC CHARGES AND SPIN POPULATIONS
--------------------------------------------
   0 Si:    0.832911    0.939166
   1 P :    2.542062    0.001429
   2 O :   -0.874496   -0.000639
   3 O :   -0.861702   -0.001052
   4 H :    0.374867    0.000462
   5 H :    0.347322    0.000388
   6 O :   -1.092333    0.001787
   7 O :   -0.885460   -0.035393
   8 H :   -0.191622    0.047729
   9 H :   -0.191549    0.046123
Sum of atomic charges         :    0.0000000

LOEWDIN ATOMIC CHARGES AND SPIN POPULATIONS
-------------------------------------------
   0 Si:    0.739747    0.575814
   1 P :   -1.128271    0.023658
   2 O :    1.084697    0.003800
   3 O :    1.085685   -0.000127
   4 H :   -0.854429    0.000409
   5 H :   -0.874667    0.000140
   6 O :    0.295800    0.001838
   7 O :    0.351163    0.126165
   8 H :   -0.339424    0.133843
   9 H :   -0.360300    0.134459

  Mayer bond orders larger than 0.100000
B(  0-Si,  7-O ) :   0.4214 B(  0-Si,  8-H ) :   0.8998 B(  0-Si,  9-H ) :   0.8969
B(  1-P ,  2-O ) :   0.6521 B(  1-P ,  3-O ) :   0.6117 B(  1-P ,  6-O ) :   1.4442
B(  1-P ,  7-O ) :   0.7580 B(  2-O ,  4-H ) :   0.9158 B(  3-O ,  5-H ) :   0.9392

MP2 TOTAL ENERGY:     -933.096932882 Eh
FINAL SINGLE POINT ENERGY      -933.096932882029

DIPOLE MOMENT
-------------
                                X             Y             Z
Electronic contribution:     -2.25041      -0.46667      -0.95270
Nuclear contribution   :      2.33851       0.58282       0.35612
                        -----------------------------------------
Total Dipole Moment    :      0.08810       0.11615      -0.59658
                        -----------------------------------------
Magnitude (a.u.)       :      0.61413
Magnitude (Debye)      :      1.56100

Rotational constants in cm-1:     0.149208     0.052928     0.052305
Rotational constants in MHz :  4473.138070  1586.734484  1568.073176

                             ****ORCA TERMINATED NORMALLY****
TOTAL RUN TIME: 0 days 0 hours 57 minutes 53 seconds 208 msec
