                         Program Version 5.0.4 -  RELEASE  -
|  1> ! ri-mp2 aug-cc-pvdz aug-cc-pvdz/c tightscf
|  2> %pal nprocs 16 end
|  3> %maxcore 3800
|  4> %base "DZ_Si-Cl_59_A"
|  5> %scf
|  6> STABPerform true
|  7> STABRestartUHFifUnstable true
|  8> end
|  9>
| 10> *xyz 0 2
| 11> Si         0.038824    0.492954    0.000000
| 12> F         0.038824   -0.452761    1.279820
| 13> F         0.038824   -0.452761   -1.279820
| 14> H        -1.242363    1.248353    0.000000
| 15> *
| 16>
| 17> $new_job
| 18> ! ri-mp2 aug-cc-pvtz aug-cc-pvtz/c tightscf
| 19> %pal nprocs 16 end
| 20> %maxcore 3800
| 21> %base "TZ_Si-Cl_59_A"
| 22>
| 23> *xyz 0 2
| 24> Si         0.038824    0.492954    0.000000
| 25> F         0.038824   -0.452761    1.279820
| 26> F         0.038824   -0.452761   -1.279820
| 27> H        -1.242363    1.248353    0.000000
| 28> *
| 29>
| 30> $new_job
| 31> ! ri-mp2 aug-cc-pvqz aug-cc-pvqz/c tightscf
| 32> %pal nprocs 16 end
| 33> %maxcore 3800
| 34> %base "QZ_Si-Cl_59_A"
| 35>
| 36> *xyz 0 2
| 37> Si         0.038824    0.492954    0.000000
| 38> F         0.038824   -0.452761    1.279820
| 39> F         0.038824   -0.452761   -1.279820
| 40> H        -1.242363    1.248353    0.000000
| 41> *
| 42>
| 43>
| 44>
| 45>
| 46>                          ****END OF INPUT****
 Total Charge           Charge          ....    0
 Multiplicity           Mult            ....    2
 Number of Electrons    NEL             ....   33
MP2 TOTAL ENERGY:     -488.983001123 Eh
FINAL SINGLE POINT ENERGY      -488.983001122564
MP2 TOTAL ENERGY:     -489.191559346 Eh
FINAL SINGLE POINT ENERGY      -489.191559345944

CARTESIAN COORDINATES (ANGSTROEM)
---------------------------------
  Si     0.038824    0.492954    0.000000
  F      0.038824   -0.452761    1.279820
  F      0.038824   -0.452761   -1.279820
  H     -1.242363    1.248353    0.000000

 Multiplicity           Mult            ....    2
 Number of Electrons    NEL             ....   33
 Basis Dimension        Dim             ....  290

ORBITAL ENERGIES
----------------
                 SPIN UP ORBITALS
  NO   OCC          E(Eh)            E(eV)
   0   1.0000     -68.869862     -1874.0442
   1   1.0000     -26.305133      -715.7991
   2   1.0000     -26.305126      -715.7989
   3   1.0000      -6.209325      -168.9643
   4   1.0000      -4.320467      -117.5659
   5   1.0000      -4.313331      -117.3717
   6   1.0000      -4.311964      -117.3345
   7   1.0000      -1.619862       -44.0787
   8   1.0000      -1.601517       -43.5795
   9   1.0000      -0.810996       -22.0683
  10   1.0000      -0.731878       -19.9154
  11   1.0000      -0.707949       -19.2643
  12   1.0000      -0.705826       -19.2065
  13   1.0000      -0.676760       -18.4156
  14   1.0000      -0.655609       -17.8400
  15   1.0000      -0.583606       -15.8807
  16   1.0000      -0.384577       -10.4649
  17   0.0000       0.030930         0.8416
  18   0.0000       0.038775         1.0551
  19   0.0000       0.040417         1.0998
  20   0.0000       0.044634         1.2146
  21   0.0000       0.099088         2.6963

                 SPIN DOWN ORBITALS
  NO   OCC          E(Eh)            E(eV)
   0   1.0000     -68.863967     -1873.8838
   1   1.0000     -26.302067      -715.7156
   2   1.0000     -26.302058      -715.7154
   3   1.0000      -6.199356      -168.6931
   4   1.0000      -4.309490      -117.2672
   5   1.0000      -4.308797      -117.2483
   6   1.0000      -4.300471      -117.0218
   7   1.0000      -1.611143       -43.8414
   8   1.0000      -1.592852       -43.3437
   9   1.0000      -0.791487       -21.5375
  10   1.0000      -0.720874       -19.6160
  11   1.0000      -0.703021       -19.1302
  12   1.0000      -0.684426       -18.6242
  13   1.0000      -0.662036       -18.0149
  14   1.0000      -0.653026       -17.7697
  15   1.0000      -0.546419       -14.8688
  16   0.0000       0.016557         0.4505
  17   0.0000       0.035710         0.9717
  18   0.0000       0.040445         1.1006
  19   0.0000       0.041804         1.1375
  20   0.0000       0.059009         1.6057

MULLIKEN ATOMIC CHARGES AND SPIN POPULATIONS
--------------------------------------------
   0 Si:    1.515661    0.894079
   1 F :   -0.667146   -0.001269
   2 F :   -0.667146   -0.001269
   3 H :   -0.181369    0.108459
Sum of atomic charges         :    0.0000000

LOEWDIN ATOMIC CHARGES AND SPIN POPULATIONS
-------------------------------------------
   0 Si:   -0.183208    0.630709
   1 F :    0.280338    0.108166
   2 F :    0.280338    0.108166
   3 H :   -0.377468    0.152958

  Mayer bond orders larger than 0.100000
B(  0-Si,  1-F ) :   0.4263 B(  0-Si,  2-F ) :   0.4263 B(  0-Si,  3-H ) :   0.9272

MP2 TOTAL ENERGY:     -489.261988872 Eh
FINAL SINGLE POINT ENERGY      -489.261988872384

DIPOLE MOMENT
-------------
                                X             Y             Z
Electronic contribution:      1.20756      -1.30397       0.00000
Nuclear contribution   :     -1.22069       1.95168       0.00000
                        -----------------------------------------
Total Dipole Moment    :     -0.01313       0.64771       0.00000
                        -----------------------------------------
Magnitude (a.u.)       :      0.64784
Magnitude (Debye)      :      1.64668

Rotational constants in cm-1:     0.949793     0.264729     0.214637
Rotational constants in MHz : 28474.089210  7936.390673  6434.654018

                             ****ORCA TERMINATED NORMALLY****
TOTAL RUN TIME: 0 days 0 hours 3 minutes 36 seconds 882 msec
