                         Program Version 5.0.4 -  RELEASE  -
|  1> ! ri-mp2 aug-cc-pvdz aug-cc-pvdz/c tightscf
|  2> %pal nprocs 16 end
|  3> %maxcore 3800
|  4> %base "DZ_S-S_7_AB"
|  5> %scf
|  6> STABPerform true
|  7> STABRestartUHFifUnstable true
|  8> end
|  9>
| 10> *xyz 0 1
| 11> C        -1.795893    0.174649   -0.138929
| 12> O        -1.126109    1.058742   -0.573365
| 13> S        -1.238767   -1.545750   -0.065504
| 14> S         0.647856   -1.385443   -0.791855
| 15> C         1.499995   -0.581880    0.578385
| 16> O         0.960393   -0.277322    1.596774
| 17> C        -3.172976    0.337796    0.452047
| 18> C         2.947340   -0.300954    0.263756
| 19> C         3.242065    1.197609    0.335002
| 20> H         3.207073   -0.699027   -0.719196
| 21> H         3.536309   -0.839443    1.009125
| 22> C         2.515944    1.998209   -0.735529
| 23> H         4.320596    1.336593    0.240741
| 24> H         2.961568    1.555012    1.326704
| 25> H         1.433198    1.902234   -0.645993
| 26> H         2.795999    1.660927   -1.735447
| 27> H         2.764230    3.056771   -0.660438
| 28> C        -3.814233    1.663995    0.087188
| 29> H        -3.050761    0.246037    1.535117
| 30> H        -3.790843   -0.509100    0.145643
| 31> H        -3.189963    2.495866    0.406704
| 32> H        -4.788186    1.756277    0.566028
| 33> H        -3.952363    1.749044   -0.990031
| 34> *
| 35>
| 36> $new_job
| 37> ! ri-mp2 aug-cc-pvtz aug-cc-pvtz/c tightscf
| 38> %pal nprocs 16 end
| 39> %maxcore 3800
| 40> %base "TZ_S-S_7_AB"
| 41>
| 42> *xyz 0 1
| 43> C        -1.795893    0.174649   -0.138929
| 44> O        -1.126109    1.058742   -0.573365
| 45> S        -1.238767   -1.545750   -0.065504
| 46> S         0.647856   -1.385443   -0.791855
| 47> C         1.499995   -0.581880    0.578385
| 48> O         0.960393   -0.277322    1.596774
| 49> C        -3.172976    0.337796    0.452047
| 50> C         2.947340   -0.300954    0.263756
| 51> C         3.242065    1.197609    0.335002
| 52> H         3.207073   -0.699027   -0.719196
| 53> H         3.536309   -0.839443    1.009125
| 54> C         2.515944    1.998209   -0.735529
| 55> H         4.320596    1.336593    0.240741
| 56> H         2.961568    1.555012    1.326704
| 57> H         1.433198    1.902234   -0.645993
| 58> H         2.795999    1.660927   -1.735447
| 59> H         2.764230    3.056771   -0.660438
| 60> C        -3.814233    1.663995    0.087188
| 61> H        -3.050761    0.246037    1.535117
| 62> H        -3.790843   -0.509100    0.145643
| 63> H        -3.189963    2.495866    0.406704
| 64> H        -4.788186    1.756277    0.566028
| 65> H        -3.952363    1.749044   -0.990031
| 66> *
| 67>
| 68> $new_job
| 69> ! ri-mp2 aug-cc-pvqz aug-cc-pvqz/c tightscf
| 70> %pal nprocs 16 end
| 71> %maxcore 3800
| 72> %base "QZ_S-S_7_AB"
| 73>
| 74> *xyz 0 1
| 75> C        -1.795893    0.174649   -0.138929
| 76> O        -1.126109    1.058742   -0.573365
| 77> S        -1.238767   -1.545750   -0.065504
| 78> S         0.647856   -1.385443   -0.791855
| 79> C         1.499995   -0.581880    0.578385
| 80> O         0.960393   -0.277322    1.596774
| 81> C        -3.172976    0.337796    0.452047
| 82> C         2.947340   -0.300954    0.263756
| 83> C         3.242065    1.197609    0.335002
| 84> H         3.207073   -0.699027   -0.719196
| 85> H         3.536309   -0.839443    1.009125
| 86> C         2.515944    1.998209   -0.735529
| 87> H         4.320596    1.336593    0.240741
| 88> H         2.961568    1.555012    1.326704
| 89> H         1.433198    1.902234   -0.645993
| 90> H         2.795999    1.660927   -1.735447
| 91> H         2.764230    3.056771   -0.660438
| 92> C        -3.814233    1.663995    0.087188
| 93> H        -3.050761    0.246037    1.535117
| 94> H        -3.790843   -0.509100    0.145643
| 95> H        -3.189963    2.495866    0.406704
| 96> H        -4.788186    1.756277    0.566028
| 97> H        -3.952363    1.749044   -0.990031
| 98> *
| 99>
|100>
|101>
|102>
|103>                          ****END OF INPUT****
 Total Charge           Charge          ....    0
 Multiplicity           Mult            ....    1
 Number of Electrons    NEL             ....  102
MP2 TOTAL ENERGY:    -1218.607707796 Eh
FINAL SINGLE POINT ENERGY     -1218.607707795800
MP2 TOTAL ENERGY:    -1219.088420439 Eh
FINAL SINGLE POINT ENERGY     -1219.088420438942

CARTESIAN COORDINATES (ANGSTROEM)
---------------------------------
  C     -1.795893    0.174649   -0.138929
  O     -1.126109    1.058742   -0.573365
  S     -1.238767   -1.545750   -0.065504
  S      0.647856   -1.385443   -0.791855
  C      1.499995   -0.581880    0.578385
  O      0.960393   -0.277322    1.596774
  C     -3.172976    0.337796    0.452047
  C      2.947340   -0.300954    0.263756
  C      3.242065    1.197609    0.335002
  H      3.207073   -0.699027   -0.719196
  H      3.536309   -0.839443    1.009125
  C      2.515944    1.998209   -0.735529
  H      4.320596    1.336593    0.240741
  H      2.961568    1.555012    1.326704
  H      1.433198    1.902234   -0.645993
  H      2.795999    1.660927   -1.735447
  H      2.764230    3.056771   -0.660438
  C     -3.814233    1.663995    0.087188
  H     -3.050761    0.246037    1.535117
  H     -3.790843   -0.509100    0.145643
  H     -3.189963    2.495866    0.406704
  H     -4.788186    1.756277    0.566028
  H     -3.952363    1.749044   -0.990031

 Multiplicity           Mult            ....    1
 Number of Electrons    NEL             ....  102
 Basis Dimension        Dim             .... 1440

ORBITAL ENERGIES
----------------

  NO   OCC          E(Eh)            E(eV)
   0   2.0000     -91.993370     -2503.2669
   1   2.0000     -91.992278     -2503.2371
   2   2.0000     -20.565055      -559.6036
   3   2.0000     -20.561220      -559.4992
   4   2.0000     -11.367042      -309.3129
   5   2.0000     -11.364142      -309.2340
   6   2.0000     -11.253265      -306.2169
   7   2.0000     -11.247454      -306.0588
   8   2.0000     -11.230933      -305.6092
   9   2.0000     -11.226379      -305.4853
  10   2.0000     -11.209083      -305.0146
  11   2.0000      -8.995035      -244.7673
  12   2.0000      -8.993972      -244.7384
  13   2.0000      -6.676311      -181.6717
  14   2.0000      -6.675243      -181.6426
  15   2.0000      -6.674842      -181.6317
  16   2.0000      -6.674229      -181.6150
  17   2.0000      -6.673915      -181.6065
  18   2.0000      -6.673240      -181.5881
  19   2.0000      -1.422163       -38.6990
  20   2.0000      -1.416685       -38.5500
  21   2.0000      -1.102494       -30.0004
  22   2.0000      -1.086452       -29.5639
  23   2.0000      -1.063480       -28.9388
  24   2.0000      -0.983946       -26.7745
  25   2.0000      -0.940408       -25.5898
  26   2.0000      -0.880068       -23.9479
  27   2.0000      -0.825610       -22.4660
  28   2.0000      -0.751310       -20.4442
  29   2.0000      -0.728658       -19.8278
  30   2.0000      -0.678309       -18.4577
  31   2.0000      -0.663498       -18.0547
  32   2.0000      -0.656887       -17.8748
  33   2.0000      -0.649214       -17.6660
  34   2.0000      -0.629668       -17.1341
  35   2.0000      -0.609132       -16.5753
  36   2.0000      -0.597527       -16.2595
  37   2.0000      -0.561883       -15.2896
  38   2.0000      -0.556442       -15.1415
  39   2.0000      -0.554635       -15.0924
  40   2.0000      -0.543236       -14.7822
  41   2.0000      -0.527647       -14.3580
  42   2.0000      -0.506272       -13.7764
  43   2.0000      -0.503880       -13.7113
  44   2.0000      -0.486755       -13.2453
  45   2.0000      -0.485784       -13.2189
  46   2.0000      -0.471840       -12.8394
  47   2.0000      -0.430950       -11.7267
  48   2.0000      -0.424558       -11.5528
  49   2.0000      -0.389342       -10.5945
  50   2.0000      -0.369549       -10.0559
  51   0.0000       0.024927         0.6783
  52   0.0000       0.025486         0.6935
  53   0.0000       0.033531         0.9124
  54   0.0000       0.035645         0.9700
  55   0.0000       0.040400         1.0993

MULLIKEN ATOMIC CHARGES
-----------------------
   0 C :    0.625592
   1 O :   -0.901498
   2 S :    0.000614
   3 S :   -0.014196
   4 C :    0.719277
   5 O :   -0.924009
   6 C :   -0.328653
   7 C :   -0.376361
   8 C :   -0.454490
   9 H :    0.262952
  10 H :    0.351914
  11 C :   -0.877306
  12 H :    0.275408
  13 H :    0.264169
  14 H :    0.353639
  15 H :    0.202882
  16 H :    0.254246
  17 C :   -0.838769
  18 H :    0.297046
  19 H :    0.280717
  20 H :    0.252857
  21 H :    0.347364
  22 H :    0.226602
Sum of atomic charges:    0.0000000

LOEWDIN ATOMIC CHARGES
----------------------
   0 C :   -1.151548
   1 O :    0.662193
   2 S :    0.764678
   3 S :    0.776248
   4 C :   -1.174883
   5 O :    0.657954
   6 C :    0.350750
   7 C :    0.361122
   8 C :    0.490059
   9 H :   -0.344764
  10 H :   -0.286764
  11 C :    0.915551
  12 H :   -0.270000
  13 H :   -0.285172
  14 H :   -0.322824
  15 H :   -0.279357
  16 H :   -0.276255
  17 C :    0.899028
  18 H :   -0.297993
  19 H :   -0.327191
  20 H :   -0.295113
  21 H :   -0.281912
  22 H :   -0.283806

  Mayer bond orders larger than 0.100000
B(  0-C ,  1-O ) :   1.3739 B(  0-C ,  2-S ) :   0.9163 B(  0-C ,  6-C ) :   0.7151
B(  2-S ,  3-S ) :   1.0883 B(  3-S ,  4-C ) :   0.9272 B(  4-C ,  5-O ) :   1.2764
B(  4-C ,  7-C ) :   0.8091 B(  6-C , 17-C ) :   0.9593 B(  6-C , 18-H ) :   0.8472
B(  6-C , 19-H ) :   0.9037 B(  7-C ,  8-C ) :   0.9765 B(  7-C ,  9-H ) :   0.9449
B(  7-C , 10-H ) :   0.8410 B(  8-C , 11-C ) :   0.9677 B(  8-C , 12-H ) :   0.8792
B(  8-C , 13-H ) :   0.8824 B( 11-C , 14-H ) :   0.8168 B( 11-C , 15-H ) :   0.9736
B( 11-C , 16-H ) :   1.0196 B( 17-C , 20-H ) :   0.9381 B( 17-C , 21-H ) :   0.9298
B( 17-C , 22-H ) :   0.9807

MP2 TOTAL ENERGY:    -1219.242303727 Eh
FINAL SINGLE POINT ENERGY     -1219.242303726732

DIPOLE MOMENT
-------------
                                X             Y             Z
Electronic contribution:     -2.34803     -13.85580      -0.63898
Nuclear contribution   :      2.25392      13.76169       0.51957
                        -----------------------------------------
Total Dipole Moment    :     -0.09411      -0.09411      -0.11941
                        -----------------------------------------
Magnitude (a.u.)       :      0.17881
Magnitude (Debye)      :      0.45449

Rotational constants in cm-1:     0.043380     0.016860     0.014015
Rotational constants in MHz :  1300.501536   505.460647   420.157952

                             ****ORCA TERMINATED NORMALLY****
TOTAL RUN TIME: 0 days 8 hours 42 minutes 13 seconds 973 msec
