                         Program Version 5.0.4 -  RELEASE  -
|  1> ! ri-mp2 aug-cc-pvdz aug-cc-pvdz/c tightscf
|  2> %pal nprocs 16 end
|  3> %maxcore 3800
|  4> %base "DZ_Si-Si_90_AB"
|  5>
|  6> *xyz 0 1
|  7> Si        -1.655029   -0.417911   -0.000003
|  8> Si         0.212727    0.990510   -0.000004
|  9> H        -1.668686   -1.266445   -1.209586
| 10> H        -2.874938    0.423829   -0.000015
| 11> H        -1.668699   -1.266431    1.209589
| 12> N         1.745143    0.041590    0.000001
| 13> H         0.289108    1.853027    1.199288
| 14> H         0.289111    1.853022   -1.199299
| 15> N         1.584954   -1.181246    0.000014
| 16> H         2.515667   -1.635812    0.000017
| 17> *
| 18>
| 19> $new_job
| 20> ! ri-mp2 aug-cc-pvtz aug-cc-pvtz/c tightscf
| 21> %pal nprocs 16 end
| 22> %maxcore 3800
| 23> %base "TZ_Si-Si_90_AB"
| 24>
| 25> *xyz 0 1
| 26> Si        -1.655029   -0.417911   -0.000003
| 27> Si         0.212727    0.990510   -0.000004
| 28> H        -1.668686   -1.266445   -1.209586
| 29> H        -2.874938    0.423829   -0.000015
| 30> H        -1.668699   -1.266431    1.209589
| 31> N         1.745143    0.041590    0.000001
| 32> H         0.289108    1.853027    1.199288
| 33> H         0.289111    1.853022   -1.199299
| 34> N         1.584954   -1.181246    0.000014
| 35> H         2.515667   -1.635812    0.000017
| 36> *
| 37>
| 38> $new_job
| 39> ! ri-mp2 aug-cc-pvqz aug-cc-pvqz/c tightscf
| 40> %pal nprocs 16 end
| 41> %maxcore 3800
| 42> %base "QZ_Si-Si_90_AB"
| 43>
| 44> *xyz 0 1
| 45> Si        -1.655029   -0.417911   -0.000003
| 46> Si         0.212727    0.990510   -0.000004
| 47> H        -1.668686   -1.266445   -1.209586
| 48> H        -2.874938    0.423829   -0.000015
| 49> H        -1.668699   -1.266431    1.209589
| 50> N         1.745143    0.041590    0.000001
| 51> H         0.289108    1.853027    1.199288
| 52> H         0.289111    1.853022   -1.199299
| 53> N         1.584954   -1.181246    0.000014
| 54> H         2.515667   -1.635812    0.000017
| 55> *
| 56>
| 57>
| 58>
| 59>
| 60>                          ****END OF INPUT****
 Total Charge           Charge          ....    0
 Multiplicity           Mult            ....    1
 Number of Electrons    NEL             ....   48
MP2 TOTAL ENERGY:     -690.763392603 Eh
FINAL SINGLE POINT ENERGY      -690.763392603156
MP2 TOTAL ENERGY:     -690.929807202 Eh
FINAL SINGLE POINT ENERGY      -690.929807201532

CARTESIAN COORDINATES (ANGSTROEM)
---------------------------------
  Si    -1.655029   -0.417911   -0.000003
  Si     0.212727    0.990510   -0.000004
  H     -1.668686   -1.266445   -1.209586
  H     -2.874938    0.423829   -0.000015
  H     -1.668699   -1.266431    1.209589
  N      1.745143    0.041590    0.000001
  H      0.289108    1.853027    1.199288
  H      0.289111    1.853022   -1.199299
  N      1.584954   -1.181246    0.000014
  H      2.515667   -1.635812    0.000017

 Multiplicity           Mult            ....    1
 Number of Electrons    NEL             ....   48
 Basis Dimension        Dim             ....  604

ORBITAL ENERGIES
----------------

  NO   OCC          E(Eh)            E(eV)
   0   2.0000     -68.787446     -1871.8016
   1   2.0000     -68.769322     -1871.3084
   2   2.0000     -15.634367      -425.4328
   3   2.0000     -15.609143      -424.7464
   4   2.0000      -6.136573      -166.9846
   5   2.0000      -6.120110      -166.5367
   6   2.0000      -4.242654      -115.4485
   7   2.0000      -4.242545      -115.4455
   8   2.0000      -4.242422      -115.4422
   9   2.0000      -4.226296      -115.0033
  10   2.0000      -4.226172      -115.0000
  11   2.0000      -4.226120      -114.9986
  12   2.0000      -1.353307       -36.8253
  13   2.0000      -0.922461       -25.1014
  14   2.0000      -0.751152       -20.4399
  15   2.0000      -0.694360       -18.8945
  16   2.0000      -0.652220       -17.7478
  17   2.0000      -0.585135       -15.9223
  18   2.0000      -0.544270       -14.8103
  19   2.0000      -0.490930       -13.3589
  20   2.0000      -0.484572       -13.1859
  21   2.0000      -0.473188       -12.8761
  22   2.0000      -0.418332       -11.3834
  23   2.0000      -0.366858        -9.9827
  24   0.0000       0.025262         0.6874
  25   0.0000       0.031236         0.8500
  26   0.0000       0.036297         0.9877
  27   0.0000       0.041656         1.1335
  28   0.0000       0.050805         1.3825

MULLIKEN ATOMIC CHARGES
-----------------------
   0 Si:    0.443532
   1 Si:    0.998747
   2 H :   -0.148100
   3 H :   -0.213956
   4 H :   -0.148100
   5 N :   -0.544489
   6 H :   -0.190745
   7 H :   -0.190745
   8 N :   -0.324475
   9 H :    0.318331
Sum of atomic charges:    0.0000000

LOEWDIN ATOMIC CHARGES
----------------------
   0 Si:    1.011435
   1 Si:    0.477649
   2 H :   -0.312127
   3 H :   -0.325554
   4 H :   -0.312127
   5 N :    0.156776
   6 H :   -0.289355
   7 H :   -0.289356
   8 N :    0.568675
   9 H :   -0.686016

  Mayer bond orders larger than 0.100000
B(  0-Si,  1-Si) :   0.8089 B(  0-Si,  2-H ) :   0.7981 B(  0-Si,  3-H ) :   0.8042
B(  0-Si,  4-H ) :   0.7981 B(  1-Si,  5-N ) :   0.5663 B(  1-Si,  6-H ) :   0.8704
B(  1-Si,  7-H ) :   0.8704 B(  5-N ,  8-N ) :   1.8434 B(  8-N ,  9-H ) :   0.8696

MP2 TOTAL ENERGY:     -690.984734443 Eh
FINAL SINGLE POINT ENERGY      -690.984734442700

DIPOLE MOMENT
-------------
                                X             Y             Z
Electronic contribution:      3.00341       0.05127       0.00001
Nuclear contribution   :     -3.00845      -0.08018      -0.00001
                        -----------------------------------------
Total Dipole Moment    :     -0.00504      -0.02891       0.00000
                        -----------------------------------------
Magnitude (a.u.)       :      0.02934
Magnitude (Debye)      :      0.07459

Rotational constants in cm-1:     0.237724     0.092477     0.069803
Rotational constants in MHz :  7126.791986  2772.391893  2092.632223

                             ****ORCA TERMINATED NORMALLY****
TOTAL RUN TIME: 0 days 0 hours 4 minutes 22 seconds 728 msec
