                         Program Version 5.0.4 -  RELEASE  -
|  1> ! ri-mp2 aug-cc-pvdz aug-cc-pvdz/c tightscf
|  2> %pal nprocs 16 end
|  3> %maxcore 3800
|  4> %base "DZ_B-B_28_AB"
|  5>
|  6> *xyz 0 1
|  7> B        -2.570818   -0.386324   -0.020430
|  8> B        -2.589621    1.106607    0.732088
|  9> O        -1.440652   -1.029530   -0.418701
| 10> C        -0.194236   -0.479407   -0.245553
| 11> C         0.830272   -1.316324    0.160966
| 12> C         0.043583    0.863944   -0.481677
| 13> C         2.095064   -0.794579    0.358007
| 14> C         2.341783    0.553744    0.146571
| 15> C         1.314666    1.377814   -0.275202
| 16> H         0.617269   -2.363253    0.325978
| 17> H         2.895066   -1.446232    0.683152
| 18> H         3.333008    0.956365    0.302684
| 19> H         1.499740    2.427600   -0.458895
| 20> H        -0.748234    1.498117   -0.861058
| 21> H        -2.363001    1.226248    1.898041
| 22> H        -2.913524    2.101900    0.156962
| 23> H        -3.579711   -0.997070   -0.234216
| 24> *
| 25>
| 26> $new_job
| 27> ! ri-mp2 aug-cc-pvtz aug-cc-pvtz/c tightscf
| 28> %pal nprocs 16 end
| 29> %maxcore 3800
| 30> %base "TZ_B-B_28_AB"
| 31>
| 32> *xyz 0 1
| 33> B        -2.570818   -0.386324   -0.020430
| 34> B        -2.589621    1.106607    0.732088
| 35> O        -1.440652   -1.029530   -0.418701
| 36> C        -0.194236   -0.479407   -0.245553
| 37> C         0.830272   -1.316324    0.160966
| 38> C         0.043583    0.863944   -0.481677
| 39> C         2.095064   -0.794579    0.358007
| 40> C         2.341783    0.553744    0.146571
| 41> C         1.314666    1.377814   -0.275202
| 42> H         0.617269   -2.363253    0.325978
| 43> H         2.895066   -1.446232    0.683152
| 44> H         3.333008    0.956365    0.302684
| 45> H         1.499740    2.427600   -0.458895
| 46> H        -0.748234    1.498117   -0.861058
| 47> H        -2.363001    1.226248    1.898041
| 48> H        -2.913524    2.101900    0.156962
| 49> H        -3.579711   -0.997070   -0.234216
| 50> *
| 51>
| 52> $new_job
| 53> ! ri-mp2 aug-cc-pvqz aug-cc-pvqz/c tightscf
| 54> %pal nprocs 16 end
| 55> %maxcore 3800
| 56> %base "QZ_B-B_28_AB"
| 57>
| 58> *xyz 0 1
| 59> B        -2.570818   -0.386324   -0.020430
| 60> B        -2.589621    1.106607    0.732088
| 61> O        -1.440652   -1.029530   -0.418701
| 62> C        -0.194236   -0.479407   -0.245553
| 63> C         0.830272   -1.316324    0.160966
| 64> C         0.043583    0.863944   -0.481677
| 65> C         2.095064   -0.794579    0.358007
| 66> C         2.341783    0.553744    0.146571
| 67> C         1.314666    1.377814   -0.275202
| 68> H         0.617269   -2.363253    0.325978
| 69> H         2.895066   -1.446232    0.683152
| 70> H         3.333008    0.956365    0.302684
| 71> H         1.499740    2.427600   -0.458895
| 72> H        -0.748234    1.498117   -0.861058
| 73> H        -2.363001    1.226248    1.898041
| 74> H        -2.913524    2.101900    0.156962
| 75> H        -3.579711   -0.997070   -0.234216
| 76> *
| 77>
| 78>
| 79>
| 80>
| 81>                          ****END OF INPUT****
 Total Charge           Charge          ....    0
 Multiplicity           Mult            ....    1
 Number of Electrons    NEL             ....   62
MP2 TOTAL ENERGY:     -357.296985083 Eh
FINAL SINGLE POINT ENERGY      -357.296985082712
MP2 TOTAL ENERGY:     -357.611791597 Eh
FINAL SINGLE POINT ENERGY      -357.611791597387

CARTESIAN COORDINATES (ANGSTROEM)
---------------------------------
  B     -2.570818   -0.386324   -0.020430
  B     -2.589621    1.106607    0.732088
  O     -1.440652   -1.029530   -0.418701
  C     -0.194236   -0.479407   -0.245553
  C      0.830272   -1.316324    0.160966
  C      0.043583    0.863944   -0.481677
  C      2.095064   -0.794579    0.358007
  C      2.341783    0.553744    0.146571
  C      1.314666    1.377814   -0.275202
  H      0.617269   -2.363253    0.325978
  H      2.895066   -1.446232    0.683152
  H      3.333008    0.956365    0.302684
  H      1.499740    2.427600   -0.458895
  H     -0.748234    1.498117   -0.861058
  H     -2.363001    1.226248    1.898041
  H     -2.913524    2.101900    0.156962
  H     -3.579711   -0.997070   -0.234216

 Multiplicity           Mult            ....    1
 Number of Electrons    NEL             ....   62
 Basis Dimension        Dim             .... 1088

ORBITAL ENERGIES
----------------

  NO   OCC          E(Eh)            E(eV)
   0   2.0000     -20.588142      -560.2318
   1   2.0000     -11.306557      -307.6671
   2   2.0000     -11.246683      -306.0378
   3   2.0000     -11.245361      -306.0018
   4   2.0000     -11.240131      -305.8595
   5   2.0000     -11.235324      -305.7287
   6   2.0000     -11.234738      -305.7128
   7   2.0000      -7.608680      -207.0427
   8   2.0000      -7.590846      -206.5574
   9   2.0000      -1.409680       -38.3593
  10   2.0000      -1.163097       -31.6495
  11   2.0000      -1.032732       -28.1021
  12   2.0000      -1.019938       -27.7539
  13   2.0000      -0.858949       -23.3732
  14   2.0000      -0.841744       -22.9050
  15   2.0000      -0.760761       -20.7014
  16   2.0000      -0.725048       -19.7296
  17   2.0000      -0.678194       -18.4546
  18   2.0000      -0.667523       -18.1642
  19   2.0000      -0.632719       -17.2171
  20   2.0000      -0.616330       -16.7712
  21   2.0000      -0.601713       -16.3734
  22   2.0000      -0.566970       -15.4280
  23   2.0000      -0.554268       -15.0824
  24   2.0000      -0.525519       -14.3001
  25   2.0000      -0.507109       -13.7991
  26   2.0000      -0.501809       -13.6549
  27   2.0000      -0.483346       -13.1525
  28   2.0000      -0.418839       -11.3972
  29   2.0000      -0.352787        -9.5998
  30   2.0000      -0.334210        -9.0943
  31   0.0000       0.022131         0.6022
  32   0.0000       0.027194         0.7400
  33   0.0000       0.027527         0.7490
  34   0.0000       0.032799         0.8925
  35   0.0000       0.037967         1.0331

MULLIKEN ATOMIC CHARGES
-----------------------
   0 B :    0.974979
   1 B :    0.497946
   2 O :   -1.162856
   3 C :    1.041841
   4 C :   -0.516194
   5 C :   -0.230529
   6 C :   -0.406044
   7 C :   -0.382108
   8 C :   -0.482212
   9 H :    0.371388
  10 H :    0.246051
  11 H :    0.311070
  12 H :    0.215155
  13 H :    0.394620
  14 H :   -0.250011
  15 H :   -0.235851
  16 H :   -0.387244
Sum of atomic charges:    0.0000000

LOEWDIN ATOMIC CHARGES
----------------------
   0 B :   -0.365175
   1 B :    0.430556
   2 O :    0.929804
   3 C :   -0.469380
   4 C :    0.338691
   5 C :    0.305717
   6 C :    0.338234
   7 C :    0.341166
   8 C :    0.355012
   9 H :   -0.316567
  10 H :   -0.316711
  11 H :   -0.324114
  12 H :   -0.310442
  13 H :   -0.354440
  14 H :   -0.189164
  15 H :   -0.193700
  16 H :   -0.199488

  Mayer bond orders larger than 0.100000
B(  0-B ,  1-B ) :   1.0203 B(  0-B ,  2-O ) :   0.5862 B(  0-B , 16-H ) :   0.8270
B(  1-B , 14-H ) :   0.9241 B(  1-B , 15-H ) :   0.9484 B(  2-O ,  4-C ) :   0.1932
B(  2-O ,  5-C ) :   0.2074 B(  3-C ,  4-C ) :   1.1641 B(  3-C ,  5-C ) :   1.1570
B(  3-C ,  6-C ) :  -0.3163 B(  3-C ,  8-C ) :  -0.2559 B(  4-C ,  6-C ) :   1.3386
B(  4-C ,  8-C ) :   0.1509 B(  4-C ,  9-H ) :   0.8607 B(  4-C , 10-H ) :  -0.1464
B(  5-C ,  8-C ) :   1.1910 B(  5-C , 12-H ) :  -0.1163 B(  5-C , 13-H ) :   0.8473
B(  6-C ,  7-C ) :   1.1794 B(  6-C , 10-H ) :   1.1359 B(  7-C ,  8-C ) :   1.2504
B(  7-C , 11-H ) :   1.0243 B(  8-C , 12-H ) :   1.1455

MP2 TOTAL ENERGY:     -357.711398173 Eh
FINAL SINGLE POINT ENERGY      -357.711398173051

DIPOLE MOMENT
-------------
                                X             Y             Z
Electronic contribution:     -2.40762      -2.52743      -1.11171
Nuclear contribution   :      2.84424       2.77585       1.21889
                        -----------------------------------------
Total Dipole Moment    :      0.43661       0.24842       0.10719
                        -----------------------------------------
Magnitude (a.u.)       :      0.51365
Magnitude (Debye)      :      1.30559

Rotational constants in cm-1:     0.118229     0.042609     0.033895
Rotational constants in MHz :  3544.414517  1277.399849  1016.149974

                             ****ORCA TERMINATED NORMALLY****
TOTAL RUN TIME: 0 days 0 hours 32 minutes 19 seconds 608 msec
