                         Program Version 5.0.4 -  RELEASE  -
|  1> ! ri-mp2 aug-cc-pvdz aug-cc-pvdz/c tightscf
|  2> %pal nprocs 16 end
|  3> %maxcore 3800
|  4> %base "DZ_B-Si_71_A"
|  5> %scf
|  6> STABPerform true
|  7> STABRestartUHFifUnstable true
|  8> end
|  9>
| 10> *xyz 0 2
| 11> C         0.267075    0.049960   -0.573046
| 12> C         1.377728   -0.727267    0.085979
| 13> C         1.312578    0.746836    0.274313
| 14> H         2.153768   -1.129015   -0.550141
| 15> H         1.126832   -1.357548    0.929113
| 16> H         1.015938    1.125552    1.242859
| 17> H         2.035531    1.363450   -0.241666
| 18> Si        -1.476840   -0.102306    0.028289
| 19> H        -1.472737   -0.242431    1.507427
| 20> H        -2.309602    1.062210   -0.366179
| 21> H         0.381750    0.192896   -1.640927
| 22> *
| 23>
| 24> $new_job
| 25> ! ri-mp2 aug-cc-pvtz aug-cc-pvtz/c tightscf
| 26> %pal nprocs 16 end
| 27> %maxcore 3800
| 28> %base "TZ_B-Si_71_A"
| 29>
| 30> *xyz 0 2
| 31> C         0.267075    0.049960   -0.573046
| 32> C         1.377728   -0.727267    0.085979
| 33> C         1.312578    0.746836    0.274313
| 34> H         2.153768   -1.129015   -0.550141
| 35> H         1.126832   -1.357548    0.929113
| 36> H         1.015938    1.125552    1.242859
| 37> H         2.035531    1.363450   -0.241666
| 38> Si        -1.476840   -0.102306    0.028289
| 39> H        -1.472737   -0.242431    1.507427
| 40> H        -2.309602    1.062210   -0.366179
| 41> H         0.381750    0.192896   -1.640927
| 42> *
| 43>
| 44> $new_job
| 45> ! ri-mp2 aug-cc-pvqz aug-cc-pvqz/c tightscf
| 46> %pal nprocs 16 end
| 47> %maxcore 3800
| 48> %base "QZ_B-Si_71_A"
| 49>
| 50> *xyz 0 2
| 51> C         0.267075    0.049960   -0.573046
| 52> C         1.377728   -0.727267    0.085979
| 53> C         1.312578    0.746836    0.274313
| 54> H         2.153768   -1.129015   -0.550141
| 55> H         1.126832   -1.357548    0.929113
| 56> H         1.015938    1.125552    1.242859
| 57> H         2.035531    1.363450   -0.241666
| 58> Si        -1.476840   -0.102306    0.028289
| 59> H        -1.472737   -0.242431    1.507427
| 60> H        -2.309602    1.062210   -0.366179
| 61> H         0.381750    0.192896   -1.640927
| 62> *
| 63>
| 64>
| 65>
| 66>
| 67>                          ****END OF INPUT****
 Total Charge           Charge          ....    0
 Multiplicity           Mult            ....    2
 Number of Electrons    NEL             ....   39
MP2 TOTAL ENERGY:     -407.068857172 Eh
FINAL SINGLE POINT ENERGY      -407.068857171625
MP2 TOTAL ENERGY:     -407.214362313 Eh
FINAL SINGLE POINT ENERGY      -407.214362313110

CARTESIAN COORDINATES (ANGSTROEM)
---------------------------------
  C      0.267075    0.049960   -0.573046
  C      1.377728   -0.727267    0.085979
  C      1.312578    0.746836    0.274313
  H      2.153768   -1.129015   -0.550141
  H      1.126832   -1.357548    0.929113
  H      1.015938    1.125552    1.242859
  H      2.035531    1.363450   -0.241666
  Si    -1.476840   -0.102306    0.028289
  H     -1.472737   -0.242431    1.507427
  H     -2.309602    1.062210   -0.366179
  H      0.381750    0.192896   -1.640927

 Multiplicity           Mult            ....    2
 Number of Electrons    NEL             ....   39
 Basis Dimension        Dim             ....  646

ORBITAL ENERGIES
----------------
                 SPIN UP ORBITALS
  NO   OCC          E(Eh)            E(eV)
   0   1.0000     -68.770461     -1871.3394
   1   1.0000     -11.234187      -305.6978
   2   1.0000     -11.232708      -305.6575
   3   1.0000     -11.222076      -305.3682
   4   1.0000      -6.120909      -166.5584
   5   1.0000      -4.233488      -115.1991
   6   1.0000      -4.223932      -114.9390
   7   1.0000      -4.223559      -114.9289
   8   1.0000      -1.143874       -31.1264
   9   1.0000      -0.830518       -22.5995
  10   1.0000      -0.828326       -22.5399
  11   1.0000      -0.712330       -19.3835
  12   1.0000      -0.658704       -17.9242
  13   1.0000      -0.605045       -16.4641
  14   1.0000      -0.521790       -14.1986
  15   1.0000      -0.491283       -13.3685
  16   1.0000      -0.466132       -12.6841
  17   1.0000      -0.442369       -12.0375
  18   1.0000      -0.418571       -11.3899
  19   1.0000      -0.313754        -8.5377
  20   0.0000       0.024528         0.6674
  21   0.0000       0.032629         0.8879
  22   0.0000       0.035233         0.9587
  23   0.0000       0.035606         0.9689
  24   0.0000       0.049090         1.3358

                 SPIN DOWN ORBITALS
  NO   OCC          E(Eh)            E(eV)
   0   1.0000     -68.764872     -1871.1873
   1   1.0000     -11.233138      -305.6692
   2   1.0000     -11.232288      -305.6461
   3   1.0000     -11.221681      -305.3575
   4   1.0000      -6.112314      -166.3245
   5   1.0000      -4.220214      -114.8379
   6   1.0000      -4.219869      -114.8285
   7   1.0000      -4.211518      -114.6012
   8   1.0000      -1.140612       -31.0376
   9   1.0000      -0.825964       -22.4756
  10   1.0000      -0.823007       -22.3952
  11   1.0000      -0.693236       -18.8639
  12   1.0000      -0.648832       -17.6556
  13   1.0000      -0.594107       -16.1665
  14   1.0000      -0.520611       -14.1666
  15   1.0000      -0.483737       -13.1632
  16   1.0000      -0.461316       -12.5530
  17   1.0000      -0.425964       -11.5911
  18   1.0000      -0.414960       -11.2916
  19   0.0000       0.024007         0.6533
  20   0.0000       0.028976         0.7885
  21   0.0000       0.032822         0.8931
  22   0.0000       0.035435         0.9642
  23   0.0000       0.046538         1.2664

MULLIKEN ATOMIC CHARGES AND SPIN POPULATIONS
--------------------------------------------
   0 C :   -0.692852   -0.036196
   1 C :   -0.728907    0.002577
   2 C :   -0.698552    0.053673
   3 H :    0.357626   -0.000273
   4 H :    0.367353    0.003910
   5 H :    0.359544   -0.005506
   6 H :    0.388165   -0.000080
   7 Si:    0.627503    0.962904
   8 H :   -0.228582    0.003468
   9 H :   -0.216960    0.014588
  10 H :    0.465662    0.000935
Sum of atomic charges         :    0.0000000

LOEWDIN ATOMIC CHARGES AND SPIN POPULATIONS
-------------------------------------------
   0 C :    0.043916    0.136865
   1 C :    0.493151    0.017746
   2 C :    0.503759    0.028078
   3 H :   -0.274162    0.000361
   4 H :   -0.293594    0.002255
   5 H :   -0.292997    0.008369
   6 H :   -0.273827    0.006673
   7 Si:    1.101757    0.537021
   8 H :   -0.312717    0.122997
   9 H :   -0.337034    0.130923
  10 H :   -0.358254    0.008711

  Mayer bond orders larger than 0.100000
B(  0-C ,  1-C ) :   0.9579 B(  0-C ,  2-C ) :   0.9406 B(  0-C ,  7-Si) :   0.7723
B(  0-C , 10-H ) :   0.7591 B(  1-C ,  2-C ) :   1.0663 B(  1-C ,  3-H ) :   0.8423
B(  1-C ,  4-H ) :   0.8467 B(  2-C ,  5-H ) :   0.8508 B(  2-C ,  6-H ) :   0.8211
B(  7-Si,  8-H ) :   0.8328 B(  7-Si,  9-H ) :   0.8725

MP2 TOTAL ENERGY:     -407.259212303 Eh
FINAL SINGLE POINT ENERGY      -407.259212302574

DIPOLE MOMENT
-------------
                                X             Y             Z
Electronic contribution:     -2.71130      -1.00092      -1.00738
Nuclear contribution   :      3.10899       1.05103       0.90432
                        -----------------------------------------
Total Dipole Moment    :      0.39769       0.05010      -0.10305
                        -----------------------------------------
Magnitude (a.u.)       :      0.41387
Magnitude (Debye)      :      1.05198

Rotational constants in cm-1:     0.500029     0.122837     0.116010
Rotational constants in MHz : 14990.478370  3682.557375  3477.904175

                             ****ORCA TERMINATED NORMALLY****
TOTAL RUN TIME: 0 days 0 hours 48 minutes 3 seconds 620 msec
