                         Program Version 5.0.4 -  RELEASE  -
|  1> ! ri-mp2 aug-cc-pvdz aug-cc-pvdz/c tightscf
|  2> %pal nprocs 16 end
|  3> %maxcore 3800
|  4> %base "DZ_P-N_24_AB"
|  5>
|  6> *xyz 0 1
|  7> P        -0.227834   -0.210999   -0.781215
|  8> N         1.337294   -0.905879   -0.016069
|  9> N        -0.292938    1.329714   -0.078186
| 10> O         1.567704   -2.071115   -0.236216
| 11> O         2.049401   -0.167810    0.644356
| 12> O        -0.092708    1.497930    1.280805
| 13> O         0.456292    2.260693   -0.804304
| 14> C        -1.331654   -1.113562    0.363823
| 15> C        -2.792536   -0.745739    0.132389
| 16> H        -1.038003   -0.915783    1.393869
| 17> H        -1.156626   -2.170611    0.157837
| 18> H        -2.975732    0.300734    0.370856
| 19> H        -3.434793   -1.353550    0.768612
| 20> H        -3.091384   -0.916010   -0.902716
| 21> H        -0.130122    3.022196   -0.898787
| 22> H         0.833302    1.229385    1.433942
| 23> *
| 24>
| 25> $new_job
| 26> ! ri-mp2 aug-cc-pvtz aug-cc-pvtz/c tightscf
| 27> %pal nprocs 16 end
| 28> %maxcore 3800
| 29> %base "TZ_P-N_24_AB"
| 30>
| 31> *xyz 0 1
| 32> P        -0.227834   -0.210999   -0.781215
| 33> N         1.337294   -0.905879   -0.016069
| 34> N        -0.292938    1.329714   -0.078186
| 35> O         1.567704   -2.071115   -0.236216
| 36> O         2.049401   -0.167810    0.644356
| 37> O        -0.092708    1.497930    1.280805
| 38> O         0.456292    2.260693   -0.804304
| 39> C        -1.331654   -1.113562    0.363823
| 40> C        -2.792536   -0.745739    0.132389
| 41> H        -1.038003   -0.915783    1.393869
| 42> H        -1.156626   -2.170611    0.157837
| 43> H        -2.975732    0.300734    0.370856
| 44> H        -3.434793   -1.353550    0.768612
| 45> H        -3.091384   -0.916010   -0.902716
| 46> H        -0.130122    3.022196   -0.898787
| 47> H         0.833302    1.229385    1.433942
| 48> *
| 49>
| 50> $new_job
| 51> ! ri-mp2 aug-cc-pvqz aug-cc-pvqz/c tightscf
| 52> %pal nprocs 16 end
| 53> %maxcore 3800
| 54> %base "QZ_P-N_24_AB"
| 55>
| 56> *xyz 0 1
| 57> P        -0.227834   -0.210999   -0.781215
| 58> N         1.337294   -0.905879   -0.016069
| 59> N        -0.292938    1.329714   -0.078186
| 60> O         1.567704   -2.071115   -0.236216
| 61> O         2.049401   -0.167810    0.644356
| 62> O        -0.092708    1.497930    1.280805
| 63> O         0.456292    2.260693   -0.804304
| 64> C        -1.331654   -1.113562    0.363823
| 65> C        -2.792536   -0.745739    0.132389
| 66> H        -1.038003   -0.915783    1.393869
| 67> H        -1.156626   -2.170611    0.157837
| 68> H        -2.975732    0.300734    0.370856
| 69> H        -3.434793   -1.353550    0.768612
| 70> H        -3.091384   -0.916010   -0.902716
| 71> H        -0.130122    3.022196   -0.898787
| 72> H         0.833302    1.229385    1.433942
| 73> *
| 74>
| 75>
| 76>
| 77>
| 78>                          ****END OF INPUT****
 Total Charge           Charge          ....    0
 Multiplicity           Mult            ....    1
 Number of Electrons    NEL             ....   80
MP2 TOTAL ENERGY:     -830.332140326 Eh
FINAL SINGLE POINT ENERGY      -830.332140326390
MP2 TOTAL ENERGY:     -830.793873402 Eh
FINAL SINGLE POINT ENERGY      -830.793873402446

CARTESIAN COORDINATES (ANGSTROEM)
---------------------------------
  P     -0.227834   -0.210999   -0.781215
  N      1.337294   -0.905879   -0.016069
  N     -0.292938    1.329714   -0.078186
  O      1.567704   -2.071115   -0.236216
  O      2.049401   -0.167810    0.644356
  O     -0.092708    1.497930    1.280805
  O      0.456292    2.260693   -0.804304
  C     -1.331654   -1.113562    0.363823
  C     -2.792536   -0.745739    0.132389
  H     -1.038003   -0.915783    1.393869
  H     -1.156626   -2.170611    0.157837
  H     -2.975732    0.300734    0.370856
  H     -3.434793   -1.353550    0.768612
  H     -3.091384   -0.916010   -0.902716
  H     -0.130122    3.022196   -0.898787
  H      0.833302    1.229385    1.433942

 Multiplicity           Mult            ....    1
 Number of Electrons    NEL             ....   80
 Basis Dimension        Dim             .... 1046

ORBITAL ENERGIES
----------------

  NO   OCC          E(Eh)            E(eV)
   0   2.0000     -80.032236     -2177.7879
   1   2.0000     -20.626938      -561.2875
   2   2.0000     -20.618919      -561.0693
   3   2.0000     -20.611575      -560.8695
   4   2.0000     -20.606429      -560.7294
   5   2.0000     -15.831970      -430.8098
   6   2.0000     -15.692838      -427.0238
   7   2.0000     -11.261164      -306.4318
   8   2.0000     -11.244297      -305.9729
   9   2.0000      -7.569142      -205.9668
  10   2.0000      -5.462727      -148.6483
  11   2.0000      -5.461514      -148.6153
  12   2.0000      -5.460545      -148.5890
  13   2.0000      -1.611674       -43.8559
  14   2.0000      -1.502156       -40.8757
  15   2.0000      -1.409966       -38.3671
  16   2.0000      -1.377835       -37.4928
  17   2.0000      -1.112553       -30.2741
  18   2.0000      -1.049575       -28.5604
  19   2.0000      -0.971998       -26.4494
  20   2.0000      -0.885896       -24.1065
  21   2.0000      -0.825490       -22.4627
  22   2.0000      -0.774139       -21.0654
  23   2.0000      -0.760996       -20.7078
  24   2.0000      -0.733366       -19.9559
  25   2.0000      -0.718891       -19.5620
  26   2.0000      -0.679699       -18.4955
  27   2.0000      -0.664248       -18.0751
  28   2.0000      -0.653510       -17.7829
  29   2.0000      -0.629881       -17.1399
  30   2.0000      -0.578270       -15.7355
  31   2.0000      -0.554781       -15.0964
  32   2.0000      -0.535211       -14.5638
  33   2.0000      -0.516637       -14.0584
  34   2.0000      -0.515097       -14.0165
  35   2.0000      -0.507020       -13.7967
  36   2.0000      -0.481129       -13.0922
  37   2.0000      -0.465342       -12.6626
  38   2.0000      -0.425761       -11.5855
  39   2.0000      -0.414675       -11.2839
  40   0.0000       0.020655         0.5621
  41   0.0000       0.027990         0.7616
  42   0.0000       0.034566         0.9406
  43   0.0000       0.038956         1.0601
  44   0.0000       0.048679         1.3246

MULLIKEN ATOMIC CHARGES
-----------------------
   0 P :    1.018083
   1 N :    0.755228
   2 N :    0.227971
   3 O :   -0.620968
   4 O :   -0.651271
   5 O :   -0.678730
   6 O :   -0.742946
   7 C :   -0.633354
   8 C :   -0.839622
   9 H :    0.287656
  10 H :    0.337516
  11 H :    0.259518
  12 H :    0.305097
  13 H :    0.238273
  14 H :    0.353825
  15 H :    0.383724
Sum of atomic charges:   -0.0000000

LOEWDIN ATOMIC CHARGES
----------------------
   0 P :    0.653796
   1 N :   -0.979465
   2 N :   -0.448422
   3 O :    0.446158
   4 O :    0.499604
   5 O :    1.039001
   6 O :    1.014652
   7 C :    0.342308
   8 C :    0.861927
   9 H :   -0.349835
  10 H :   -0.360020
  11 H :   -0.299257
  12 H :   -0.279883
  13 H :   -0.295474
  14 H :   -0.830132
  15 H :   -1.014956

  Mayer bond orders larger than 0.100000
B(  0-P ,  1-N ) :   0.5251 B(  0-P ,  2-N ) :   0.8615 B(  0-P ,  7-C ) :   0.8893
B(  1-N ,  3-O ) :   1.2830 B(  1-N ,  4-O ) :   1.1849 B(  2-N ,  5-O ) :   0.5828
B(  2-N ,  6-O ) :   0.4321 B(  3-O ,  4-O ) :   0.1213 B(  5-O , 15-H ) :   0.7915
B(  6-O , 14-H ) :   0.9188 B(  7-C ,  8-C ) :   0.9201 B(  7-C ,  9-H ) :   0.8740
B(  7-C , 10-H ) :   0.8558 B(  8-C , 11-H ) :   0.9242 B(  8-C , 12-H ) :   0.9556
B(  8-C , 13-H ) :   0.9525

MP2 TOTAL ENERGY:     -830.945745655 Eh
FINAL SINGLE POINT ENERGY      -830.945745655277

DIPOLE MOMENT
-------------
                                X             Y             Z
Electronic contribution:      8.85643       0.99096      -3.18527
Nuclear contribution   :    -10.44227      -0.56197       3.00470
                        -----------------------------------------
Total Dipole Moment    :     -1.58584       0.42899      -0.18058
                        -----------------------------------------
Magnitude (a.u.)       :      1.65273
Magnitude (Debye)      :      4.20091

Rotational constants in cm-1:     0.050790     0.046651     0.030606
Rotational constants in MHz :  1522.659746  1398.562605   917.544150

                             ****ORCA TERMINATED NORMALLY****
TOTAL RUN TIME: 0 days 0 hours 27 minutes 39 seconds 110 msec
