                         Program Version 5.0.4 -  RELEASE  -
|  1> ! ri-mp2 aug-cc-pvdz aug-cc-pvdz/c tightscf
|  2> %pal nprocs 16 end
|  3> %maxcore 3800
|  4> %base "DZ_P-Si_16_A"
|  5> %scf
|  6> STABPerform true
|  7> STABRestartUHFifUnstable true
|  8> end
|  9>
| 10> *xyz 0 2
| 11> C         0.337601    0.000000   -0.003348
| 12> C         0.681806   -0.000001    1.490483
| 13> H         0.289700   -0.882736    1.998042
| 14> H         0.289700    0.882734    1.998043
| 15> C         0.922893    1.251015   -0.660389
| 16> H         0.522974    2.165430   -0.218469
| 17> H         0.717176    1.278712   -1.731585
| 18> H         2.008976    1.270041   -0.530601
| 19> H         1.769058   -0.000001    1.620448
| 20> C         0.922894   -1.251014   -0.660390
| 21> H         2.008977   -1.270040   -0.530602
| 22> H         0.717176   -1.278711   -1.731587
| 23> H         0.522975   -2.165430   -0.218471
| 24> Si        -1.553557    0.000000   -0.181689
| 25> H        -2.144036    1.212051    0.445141
| 26> H        -2.144036   -1.212051    0.445141
| 27> *
| 28>
| 29> $new_job
| 30> ! ri-mp2 aug-cc-pvtz aug-cc-pvtz/c tightscf
| 31> %pal nprocs 16 end
| 32> %maxcore 3800
| 33> %base "TZ_P-Si_16_A"
| 34>
| 35> *xyz 0 2
| 36> C         0.337601    0.000000   -0.003348
| 37> C         0.681806   -0.000001    1.490483
| 38> H         0.289700   -0.882736    1.998042
| 39> H         0.289700    0.882734    1.998043
| 40> C         0.922893    1.251015   -0.660389
| 41> H         0.522974    2.165430   -0.218469
| 42> H         0.717176    1.278712   -1.731585
| 43> H         2.008976    1.270041   -0.530601
| 44> H         1.769058   -0.000001    1.620448
| 45> C         0.922894   -1.251014   -0.660390
| 46> H         2.008977   -1.270040   -0.530602
| 47> H         0.717176   -1.278711   -1.731587
| 48> H         0.522975   -2.165430   -0.218471
| 49> Si        -1.553557    0.000000   -0.181689
| 50> H        -2.144036    1.212051    0.445141
| 51> H        -2.144036   -1.212051    0.445141
| 52> *
| 53>
| 54> $new_job
| 55> ! ri-mp2 aug-cc-pvqz aug-cc-pvqz/c tightscf
| 56> %pal nprocs 16 end
| 57> %maxcore 3800
| 58> %base "QZ_P-Si_16_A"
| 59>
| 60> *xyz 0 2
| 61> C         0.337601    0.000000   -0.003348
| 62> C         0.681806   -0.000001    1.490483
| 63> H         0.289700   -0.882736    1.998042
| 64> H         0.289700    0.882734    1.998043
| 65> C         0.922893    1.251015   -0.660389
| 66> H         0.522974    2.165430   -0.218469
| 67> H         0.717176    1.278712   -1.731585
| 68> H         2.008976    1.270041   -0.530601
| 69> H         1.769058   -0.000001    1.620448
| 70> C         0.922894   -1.251014   -0.660390
| 71> H         2.008977   -1.270040   -0.530602
| 72> H         0.717176   -1.278711   -1.731587
| 73> H         0.522975   -2.165430   -0.218471
| 74> Si        -1.553557    0.000000   -0.181689
| 75> H        -2.144036    1.212051    0.445141
| 76> H        -2.144036   -1.212051    0.445141
| 77> *
| 78>
| 79>
| 80>
| 81>
| 82>                          ****END OF INPUT****
 Total Charge           Charge          ....    0
 Multiplicity           Mult            ....    2
 Number of Electrons    NEL             ....   49
MP2 TOTAL ENERGY:     -447.483329583 Eh
FINAL SINGLE POINT ENERGY      -447.483329582955
MP2 TOTAL ENERGY:     -447.671416558 Eh
FINAL SINGLE POINT ENERGY      -447.671416557784

CARTESIAN COORDINATES (ANGSTROEM)
---------------------------------
  C      0.337601    0.000000   -0.003348
  C      0.681806   -0.000001    1.490483
  H      0.289700   -0.882736    1.998042
  H      0.289700    0.882734    1.998043
  C      0.922893    1.251015   -0.660389
  H      0.522974    2.165430   -0.218469
  H      0.717176    1.278712   -1.731585
  H      2.008976    1.270041   -0.530601
  H      1.769058   -0.000001    1.620448
  C      0.922894   -1.251014   -0.660390
  H      2.008977   -1.270040   -0.530602
  H      0.717176   -1.278711   -1.731587
  H      0.522975   -2.165430   -0.218471
  Si    -1.553557    0.000000   -0.181689
  H     -2.144036    1.212051    0.445141
  H     -2.144036   -1.212051    0.445141

 Multiplicity           Mult            ....    2
 Number of Electrons    NEL             ....   49
 Basis Dimension        Dim             ....  910

ORBITAL ENERGIES
----------------
                 SPIN UP ORBITALS
  NO   OCC          E(Eh)            E(eV)
   0   1.0000     -68.767189     -1871.2504
   1   1.0000     -11.226451      -305.4873
   2   1.0000     -11.217745      -305.2504
   3   1.0000     -11.216762      -305.2236
   4   1.0000     -11.216732      -305.2228
   5   1.0000      -6.118202      -166.4847
   6   1.0000      -4.230825      -115.1266
   7   1.0000      -4.221064      -114.8610
   8   1.0000      -4.220505      -114.8458
   9   1.0000      -1.090410       -29.6716
  10   1.0000      -0.936477       -25.4828
  11   1.0000      -0.935947       -25.4684
  12   1.0000      -0.778851       -21.1936
  13   1.0000      -0.690220       -18.7818
  14   1.0000      -0.604156       -16.4399
  15   1.0000      -0.603059       -16.4101
  16   1.0000      -0.599006       -16.2998
  17   1.0000      -0.545139       -14.8340
  18   1.0000      -0.544302       -14.8112
  19   1.0000      -0.519248       -14.1295
  20   1.0000      -0.479616       -13.0510
  21   1.0000      -0.472119       -12.8470
  22   1.0000      -0.467241       -12.7143
  23   1.0000      -0.410022       -11.1573
  24   1.0000      -0.318471        -8.6660
  25   0.0000       0.023768         0.6468
  26   0.0000       0.032689         0.8895
  27   0.0000       0.033172         0.9027
  28   0.0000       0.035137         0.9561
  29   0.0000       0.048215         1.3120

                 SPIN DOWN ORBITALS
  NO   OCC          E(Eh)            E(eV)
   0   1.0000     -68.761587     -1871.0979
   1   1.0000     -11.225765      -305.4686
   2   1.0000     -11.217166      -305.2346
   3   1.0000     -11.216761      -305.2236
   4   1.0000     -11.216729      -305.2227
   5   1.0000      -6.109648      -166.2520
   6   1.0000      -4.217338      -114.7596
   7   1.0000      -4.216815      -114.7454
   8   1.0000      -4.208568      -114.5209
   9   1.0000      -1.087931       -29.6041
  10   1.0000      -0.935823       -25.4650
  11   1.0000      -0.934810       -25.4375
  12   1.0000      -0.767341       -20.8804
  13   1.0000      -0.667721       -18.1696
  14   1.0000      -0.602121       -16.3846
  15   1.0000      -0.601465       -16.3667
  16   1.0000      -0.586410       -15.9570
  17   1.0000      -0.544633       -14.8202
  18   1.0000      -0.540409       -14.7053
  19   1.0000      -0.518919       -14.1205
  20   1.0000      -0.475369       -12.9354
  21   1.0000      -0.469983       -12.7889
  22   1.0000      -0.462976       -12.5982
  23   1.0000      -0.399603       -10.8737
  24   0.0000       0.023645         0.6434
  25   0.0000       0.028440         0.7739
  26   0.0000       0.032761         0.8915
  27   0.0000       0.034693         0.9440
  28   0.0000       0.045405         1.2355

MULLIKEN ATOMIC CHARGES AND SPIN POPULATIONS
--------------------------------------------
   0 C :    0.884071   -0.083018
   1 C :   -1.083542    0.020625
   2 H :    0.259242   -0.001595
   3 H :    0.259241   -0.001594
   4 C :   -1.042240    0.021976
   5 H :    0.253050    0.000639
   6 H :    0.250130    0.004622
   7 H :    0.248950   -0.003370
   8 H :    0.231393    0.012200
   9 C :   -1.042258    0.021978
  10 H :    0.248946   -0.003370
  11 H :    0.250129    0.004623
  12 H :    0.253050    0.000638
  13 Si:    0.693489    0.998448
  14 H :   -0.331825    0.003598
  15 H :   -0.331828    0.003598
Sum of atomic charges         :    0.0000000

LOEWDIN ATOMIC CHARGES AND SPIN POPULATIONS
-------------------------------------------
   0 C :   -0.393173    0.125878
   1 C :    0.819960    0.022437
   2 H :   -0.285101    0.007043
   3 H :   -0.285100    0.007043
   4 C :    0.819015    0.025519
   5 H :   -0.287428    0.001103
   6 H :   -0.285210    0.009441
   7 H :   -0.274555   -0.000294
   8 H :   -0.273679    0.006227
   9 C :    0.819015    0.025519
  10 H :   -0.274555   -0.000294
  11 H :   -0.285209    0.009441
  12 H :   -0.287428    0.001103
  13 Si:    1.066041    0.517429
  14 H :   -0.296297    0.121203
  15 H :   -0.296298    0.121203

  Mayer bond orders larger than 0.100000
B(  0-C ,  1-C ) :   0.6366 B(  0-C ,  4-C ) :   0.5426 B(  0-C ,  9-C ) :   0.5426
B(  0-C , 13-Si) :   0.5185 B(  1-C ,  2-H ) :   0.9885 B(  1-C ,  3-H ) :   0.9885
B(  1-C ,  4-C ) :   0.1197 B(  1-C ,  8-H ) :   0.9856 B(  1-C ,  9-C ) :   0.1198
B(  1-C , 13-Si) :   0.1139 B(  4-C ,  5-H ) :   1.0104 B(  4-C ,  6-H ) :   0.9998
B(  4-C ,  7-H ) :   0.9831 B(  9-C , 10-H ) :   0.9831 B(  9-C , 11-H ) :   0.9998
B(  9-C , 12-H ) :   1.0104 B( 13-Si, 14-H ) :   0.8110 B( 13-Si, 15-H ) :   0.8110

MP2 TOTAL ENERGY:     -447.727886387 Eh
FINAL SINGLE POINT ENERGY      -447.727886387423

DIPOLE MOMENT
-------------
                                X             Y             Z
Electronic contribution:     -4.56760       0.00000      -1.59906
Nuclear contribution   :      4.90943      -0.00000       1.64233
                        -----------------------------------------
Total Dipole Moment    :      0.34183       0.00000       0.04327
                        -----------------------------------------
Magnitude (a.u.)       :      0.34456
Magnitude (Debye)      :      0.87580

Rotational constants in cm-1:     0.148033     0.097369     0.096048
Rotational constants in MHz :  4437.918807  2919.035507  2879.437291

                             ****ORCA TERMINATED NORMALLY****
TOTAL RUN TIME: 0 days 4 hours 15 minutes 12 seconds 779 msec
