                         Program Version 5.0.4 -  RELEASE  -
|  1> ! ri-mp2 aug-cc-pvdz aug-cc-pvdz/c tightscf
|  2> %pal nprocs 16 end
|  3> %maxcore 3800
|  4> %base "DZ_Si-Cl_5_A"
|  5> %scf
|  6> STABPerform true
|  7> STABRestartUHFifUnstable true
|  8> end
|  9>
| 10> *xyz 0 2
| 11> C         0.434173   -0.233492    0.000000
| 12> C        -0.769153    0.713351   -0.000001
| 13> Si        -2.426451   -0.169132    0.000001
| 14> C         1.769612    0.499346   -0.000001
| 15> H        -0.724954    1.369410    0.873562
| 16> H        -0.724954    1.369408   -0.873566
| 17> H         0.386777   -0.890340   -0.873652
| 18> H         0.386777   -0.890337    0.873654
| 19> C         2.961657   -0.444385    0.000000
| 20> H         1.816938    1.154655    0.874369
| 21> H         1.816937    1.154653   -0.874373
| 22> H         2.951784   -1.089440    0.880617
| 23> H         3.904676    0.102970   -0.000001
| 24> H         2.951784   -1.089442   -0.880615
| 25> H        -2.586593   -1.016301    1.209432
| 26> H        -2.586593   -1.016306   -1.209428
| 27> *
| 28>
| 29> $new_job
| 30> ! ri-mp2 aug-cc-pvtz aug-cc-pvtz/c tightscf
| 31> %pal nprocs 16 end
| 32> %maxcore 3800
| 33> %base "TZ_Si-Cl_5_A"
| 34>
| 35> *xyz 0 2
| 36> C         0.434173   -0.233492    0.000000
| 37> C        -0.769153    0.713351   -0.000001
| 38> Si        -2.426451   -0.169132    0.000001
| 39> C         1.769612    0.499346   -0.000001
| 40> H        -0.724954    1.369410    0.873562
| 41> H        -0.724954    1.369408   -0.873566
| 42> H         0.386777   -0.890340   -0.873652
| 43> H         0.386777   -0.890337    0.873654
| 44> C         2.961657   -0.444385    0.000000
| 45> H         1.816938    1.154655    0.874369
| 46> H         1.816937    1.154653   -0.874373
| 47> H         2.951784   -1.089440    0.880617
| 48> H         3.904676    0.102970   -0.000001
| 49> H         2.951784   -1.089442   -0.880615
| 50> H        -2.586593   -1.016301    1.209432
| 51> H        -2.586593   -1.016306   -1.209428
| 52> *
| 53>
| 54> $new_job
| 55> ! ri-mp2 aug-cc-pvqz aug-cc-pvqz/c tightscf
| 56> %pal nprocs 16 end
| 57> %maxcore 3800
| 58> %base "QZ_Si-Cl_5_A"
| 59>
| 60> *xyz 0 2
| 61> C         0.434173   -0.233492    0.000000
| 62> C        -0.769153    0.713351   -0.000001
| 63> Si        -2.426451   -0.169132    0.000001
| 64> C         1.769612    0.499346   -0.000001
| 65> H        -0.724954    1.369410    0.873562
| 66> H        -0.724954    1.369408   -0.873566
| 67> H         0.386777   -0.890340   -0.873652
| 68> H         0.386777   -0.890337    0.873654
| 69> C         2.961657   -0.444385    0.000000
| 70> H         1.816938    1.154655    0.874369
| 71> H         1.816937    1.154653   -0.874373
| 72> H         2.951784   -1.089440    0.880617
| 73> H         3.904676    0.102970   -0.000001
| 74> H         2.951784   -1.089442   -0.880615
| 75> H        -2.586593   -1.016301    1.209432
| 76> H        -2.586593   -1.016306   -1.209428
| 77> *
| 78>
| 79>
| 80>
| 81>
| 82>                          ****END OF INPUT****
 Total Charge           Charge          ....    0
 Multiplicity           Mult            ....    2
 Number of Electrons    NEL             ....   49
MP2 TOTAL ENERGY:     -447.480524021 Eh
FINAL SINGLE POINT ENERGY      -447.480524020556
MP2 TOTAL ENERGY:     -447.669701527 Eh
FINAL SINGLE POINT ENERGY      -447.669701527177

CARTESIAN COORDINATES (ANGSTROEM)
---------------------------------
  C      0.434173   -0.233492    0.000000
  C     -0.769153    0.713351   -0.000001
  Si    -2.426451   -0.169132    0.000001
  C      1.769612    0.499346   -0.000001
  H     -0.724954    1.369410    0.873562
  H     -0.724954    1.369408   -0.873566
  H      0.386777   -0.890340   -0.873652
  H      0.386777   -0.890337    0.873654
  C      2.961657   -0.444385    0.000000
  H      1.816938    1.154655    0.874369
  H      1.816937    1.154653   -0.874373
  H      2.951784   -1.089440    0.880617
  H      3.904676    0.102970   -0.000001
  H      2.951784   -1.089442   -0.880615
  H     -2.586593   -1.016301    1.209432
  H     -2.586593   -1.016306   -1.209428

 Multiplicity           Mult            ....    2
 Number of Electrons    NEL             ....   49
 Basis Dimension        Dim             ....  910

ORBITAL ENERGIES
----------------
                 SPIN UP ORBITALS
  NO   OCC          E(Eh)            E(eV)
   0   1.0000     -68.768751     -1871.2928
   1   1.0000     -11.224015      -305.4210
   2   1.0000     -11.217538      -305.2447
   3   1.0000     -11.212775      -305.1151
   4   1.0000     -11.210749      -305.0600
   5   1.0000      -6.119358      -166.5162
   6   1.0000      -4.232130      -115.1621
   7   1.0000      -4.222289      -114.8943
   8   1.0000      -4.221932      -114.8846
   9   1.0000      -1.078847       -29.3569
  10   1.0000      -0.987592       -26.8738
  11   1.0000      -0.868017       -23.6199
  12   1.0000      -0.796253       -21.6671
  13   1.0000      -0.693444       -18.8696
  14   1.0000      -0.647795       -17.6274
  15   1.0000      -0.589964       -16.0537
  16   1.0000      -0.579315       -15.7640
  17   1.0000      -0.549161       -14.9434
  18   1.0000      -0.507523       -13.8104
  19   1.0000      -0.503381       -13.6977
  20   1.0000      -0.478457       -13.0195
  21   1.0000      -0.471169       -12.8212
  22   1.0000      -0.468120       -12.7382
  23   1.0000      -0.430713       -11.7203
  24   1.0000      -0.318405        -8.6642
  25   0.0000       0.024458         0.6655
  26   0.0000       0.030602         0.8327
  27   0.0000       0.032544         0.8856
  28   0.0000       0.033240         0.9045
  29   0.0000       0.043022         1.1707

                 SPIN DOWN ORBITALS
  NO   OCC          E(Eh)            E(eV)
   0   1.0000     -68.763105     -1871.1392
   1   1.0000     -11.223061      -305.3950
   2   1.0000     -11.217225      -305.2362
   3   1.0000     -11.212262      -305.1011
   4   1.0000     -11.210716      -305.0591
   5   1.0000      -6.110706      -166.2808
   6   1.0000      -4.218508      -114.7914
   7   1.0000      -4.218160      -114.7820
   8   1.0000      -4.209842      -114.5556
   9   1.0000      -1.076759       -29.3001
  10   1.0000      -0.984774       -26.7971
  11   1.0000      -0.864459       -23.5231
  12   1.0000      -0.794875       -21.6296
  13   1.0000      -0.655455       -17.8358
  14   1.0000      -0.647115       -17.6089
  15   1.0000      -0.586655       -15.9637
  16   1.0000      -0.578340       -15.7374
  17   1.0000      -0.545856       -14.8535
  18   1.0000      -0.506097       -13.7716
  19   1.0000      -0.498328       -13.5602
  20   1.0000      -0.476260       -12.9597
  21   1.0000      -0.468580       -12.7507
  22   1.0000      -0.463295       -12.6069
  23   1.0000      -0.421960       -11.4821
  24   0.0000       0.023851         0.6490
  25   0.0000       0.027403         0.7457
  26   0.0000       0.031843         0.8665
  27   0.0000       0.033332         0.9070
  28   0.0000       0.041500         1.1293

MULLIKEN ATOMIC CHARGES AND SPIN POPULATIONS
--------------------------------------------
   0 C :   -0.299314    0.025911
   1 C :   -0.551616   -0.046614
   2 Si:    0.455381    0.995242
   3 C :   -0.430818    0.007963
   4 H :    0.225853    0.002097
   5 H :    0.225878    0.002096
   6 H :    0.251414    0.001415
   7 H :    0.251430    0.001414
   8 C :   -0.881789    0.000117
   9 H :    0.235858   -0.000822
  10 H :    0.235855   -0.000821
  11 H :    0.223377   -0.000324
  12 H :    0.272870    0.000726
  13 H :    0.223381   -0.000324
  14 H :   -0.218881    0.005962
  15 H :   -0.218879    0.005962
Sum of atomic charges         :    0.0000000

LOEWDIN ATOMIC CHARGES AND SPIN POPULATIONS
-------------------------------------------
   0 C :    0.406852    0.020884
   1 C :    0.416594    0.136454
   2 Si:    1.105453    0.540674
   3 C :    0.495764    0.004633
   4 H :   -0.358529    0.014125
   5 H :   -0.358528    0.014125
   6 H :   -0.287193    0.006540
   7 H :   -0.287193    0.006540
   8 C :    0.925491    0.001189
   9 H :   -0.273560    0.000383
  10 H :   -0.273560    0.000383
  11 H :   -0.283817    0.000111
  12 H :   -0.282885    0.000415
  13 H :   -0.283817    0.000111
  14 H :   -0.330536    0.126716
  15 H :   -0.330535    0.126716

  Mayer bond orders larger than 0.100000
B(  0-C ,  1-C ) :   0.9116 B(  0-C ,  3-C ) :   0.8959 B(  0-C ,  6-H ) :   0.8606
B(  0-C ,  7-H ) :   0.8606 B(  1-C ,  2-Si) :   0.8725 B(  1-C ,  4-H ) :   0.9226
B(  1-C ,  5-H ) :   0.9226 B(  2-Si, 14-H ) :   0.8462 B(  2-Si, 15-H ) :   0.8462
B(  3-C ,  8-C ) :   0.9648 B(  3-C ,  9-H ) :   0.8873 B(  3-C , 10-H ) :   0.8873
B(  8-C , 11-H ) :   0.9559 B(  8-C , 12-H ) :   1.0081 B(  8-C , 13-H ) :   0.9559

MP2 TOTAL ENERGY:     -447.726554869 Eh
FINAL SINGLE POINT ENERGY      -447.726554868793

DIPOLE MOMENT
-------------
                                X             Y             Z
Electronic contribution:     -7.80052       1.03724       0.00000
Nuclear contribution   :      8.16652      -0.87660      -0.00000
                        -----------------------------------------
Total Dipole Moment    :      0.36599       0.16064       0.00000
                        -----------------------------------------
Magnitude (a.u.)       :      0.39970
Magnitude (Debye)      :      1.01595

Rotational constants in cm-1:     0.487062     0.044294     0.042469
Rotational constants in MHz : 14601.744364  1327.888420  1273.193962

                             ****ORCA TERMINATED NORMALLY****
TOTAL RUN TIME: 0 days 2 hours 29 minutes 24 seconds 211 msec
