                         Program Version 5.0.4 -  RELEASE  -
|  1> ! ri-mp2 aug-cc-pvdz aug-cc-pvdz/c tightscf
|  2> %pal nprocs 16 end
|  3> %maxcore 3800
|  4> %base "DZ_B-F_44_A"
|  5> %scf
|  6> STABPerform true
|  7> STABRestartUHFifUnstable true
|  8> end
|  9>
| 10> *xyz 0 2
| 11> F        -2.207686   -0.001835   -0.000000
| 12> B        -1.003007   -0.479797   -0.000000
| 13> C         1.286539    0.066517    0.000000
| 14> N         2.404103   -0.183911    0.000000
| 15> O         0.042031    0.412972    0.000000
| 16> *
| 17>
| 18> $new_job
| 19> ! ri-mp2 aug-cc-pvtz aug-cc-pvtz/c tightscf
| 20> %pal nprocs 16 end
| 21> %maxcore 3800
| 22> %base "TZ_B-F_44_A"
| 23>
| 24> *xyz 0 2
| 25> F        -2.207686   -0.001835   -0.000000
| 26> B        -1.003007   -0.479797   -0.000000
| 27> C         1.286539    0.066517    0.000000
| 28> N         2.404103   -0.183911    0.000000
| 29> O         0.042031    0.412972    0.000000
| 30> *
| 31>
| 32> $new_job
| 33> ! ri-mp2 aug-cc-pvqz aug-cc-pvqz/c tightscf
| 34> %pal nprocs 16 end
| 35> %maxcore 3800
| 36> %base "QZ_B-F_44_A"
| 37>
| 38> *xyz 0 2
| 39> F        -2.207686   -0.001835   -0.000000
| 40> B        -1.003007   -0.479797   -0.000000
| 41> C         1.286539    0.066517    0.000000
| 42> N         2.404103   -0.183911    0.000000
| 43> O         0.042031    0.412972    0.000000
| 44> *
| 45>
| 46>
| 47>
| 48>
| 49>                          ****END OF INPUT****
 Total Charge           Charge          ....    0
 Multiplicity           Mult            ....    2
 Number of Electrons    NEL             ....   35
MP2 TOTAL ENERGY:     -292.072276407 Eh
FINAL SINGLE POINT ENERGY      -292.072276407292
MP2 TOTAL ENERGY:     -292.319355848 Eh
FINAL SINGLE POINT ENERGY      -292.319355847747

CARTESIAN COORDINATES (ANGSTROEM)
---------------------------------
  F     -2.207686   -0.001835   -0.000000
  B     -1.003007   -0.479797   -0.000000
  C      1.286539    0.066517    0.000000
  N      2.404103   -0.183911    0.000000
  O      0.042031    0.412972    0.000000

 Multiplicity           Mult            ....    2
 Number of Electrons    NEL             ....   35
 Basis Dimension        Dim             ....  400

ORBITAL ENERGIES
----------------
                 SPIN UP ORBITALS
  NO   OCC          E(Eh)            E(eV)
   0   1.0000     -26.361338      -717.3285
   1   1.0000     -20.696886      -563.1909
   2   1.0000     -15.587088      -424.1462
   3   1.0000     -11.358961      -309.0931
   4   1.0000      -7.774638      -211.5587
   5   1.0000      -1.685019       -45.8517
   6   1.0000      -1.527086       -41.5541
   7   1.0000      -1.243169       -33.8284
   8   1.0000      -0.941041       -25.6070
   9   1.0000      -0.827124       -22.5072
  10   1.0000      -0.766665       -20.8620
  11   1.0000      -0.746963       -20.3259
  12   1.0000      -0.726408       -19.7666
  13   1.0000      -0.689846       -18.7717
  14   1.0000      -0.583221       -15.8702
  15   1.0000      -0.492469       -13.4008
  16   1.0000      -0.477142       -12.9837
  17   1.0000      -0.438381       -11.9290
  18   0.0000       0.028841         0.7848
  19   0.0000       0.032236         0.8772
  20   0.0000       0.034169         0.9298
  21   0.0000       0.039482         1.0744
  22   0.0000       0.077064         2.0970

                 SPIN DOWN ORBITALS
  NO   OCC          E(Eh)            E(eV)
   0   1.0000     -26.358277      -717.2452
   1   1.0000     -20.693820      -563.1075
   2   1.0000     -15.587885      -424.1679
   3   1.0000     -11.358437      -309.0788
   4   1.0000      -7.750857      -210.9115
   5   1.0000      -1.675532       -45.5936
   6   1.0000      -1.517110       -41.2827
   7   1.0000      -1.244178       -33.8558
   8   1.0000      -0.931683       -25.3524
   9   1.0000      -0.810072       -22.0432
  10   1.0000      -0.745338       -20.2817
  11   1.0000      -0.732290       -19.9266
  12   1.0000      -0.712776       -19.3956
  13   1.0000      -0.692011       -18.8306
  14   1.0000      -0.584384       -15.9019
  15   1.0000      -0.486661       -13.2427
  16   1.0000      -0.478345       -13.0164
  17   0.0000       0.008024         0.2183
  18   0.0000       0.032480         0.8838
  19   0.0000       0.034369         0.9352
  20   0.0000       0.036978         1.0062
  21   0.0000       0.065885         1.7928

MULLIKEN ATOMIC CHARGES AND SPIN POPULATIONS
--------------------------------------------
   0 F :   -0.665526   -0.003438
   1 B :    1.151773    1.009988
   2 C :    0.883592   -0.000842
   3 N :   -0.601179   -0.020916
   4 O :   -0.768661    0.015208
Sum of atomic charges         :   -0.0000000

LOEWDIN ATOMIC CHARGES AND SPIN POPULATIONS
-------------------------------------------
   0 F :    0.728191    0.145670
   1 B :   -1.013111    0.603526
   2 C :   -0.793245    0.079391
   3 N :    0.344658   -0.001854
   4 O :    0.733507    0.173267

  Mayer bond orders larger than 0.100000
B(  0-F ,  1-B ) :   0.5268 B(  1-B ,  4-O ) :   0.6820 B(  2-C ,  3-N ) :   2.6950
B(  2-C ,  4-O ) :   1.0555

MP2 TOTAL ENERGY:     -292.398813259 Eh
FINAL SINGLE POINT ENERGY      -292.398813259108

DIPOLE MOMENT
-------------
                                X             Y             Z
Electronic contribution:     -3.84437      -0.41134      -0.00000
Nuclear contribution   :      2.74854       0.36046       0.00000
                        -----------------------------------------
Total Dipole Moment    :     -1.09583      -0.05089      -0.00000
                        -----------------------------------------
Magnitude (a.u.)       :      1.09702
Magnitude (Debye)      :      2.78839

Rotational constants in cm-1:     2.936254     0.082550     0.080293
Rotational constants in MHz : 88026.694720  2474.793293  2407.119247

                             ****ORCA TERMINATED NORMALLY****
TOTAL RUN TIME: 0 days 0 hours 16 minutes 28 seconds 223 msec
