                         Program Version 5.0.4 -  RELEASE  -
|  1> ! ri-mp2 aug-cc-pvdz aug-cc-pvdz/c tightscf
|  2> %pal nprocs 16 end
|  3> %maxcore 3800
|  4> %base "DZ_B-F_75_AB"
|  5>
|  6> *xyz 0 1
|  7> F        -2.396713   -0.000001   -0.099966
|  8> N        -0.352087    1.220064    0.044672
|  9> N        -0.352086   -1.220063    0.044674
| 10> C         1.090732    1.263481    0.193288
| 11> C         1.710934    0.000001   -0.387603
| 12> C         1.090733   -1.263482    0.193286
| 13> B        -1.051353   -0.000000   -0.002499
| 14> H        -0.842533    2.095889    0.062541
| 15> H        -0.842532   -2.095889    0.062546
| 16> H         1.491738   -2.134594   -0.328425
| 17> H         1.378111   -1.361621    1.247215
| 18> H         2.785630    0.000001   -0.200035
| 19> H         1.561742    0.000002   -1.469708
| 20> H         1.378107    1.361617    1.247219
| 21> H         1.491738    2.134596   -0.328419
| 22> *
| 23>
| 24> $new_job
| 25> ! ri-mp2 aug-cc-pvtz aug-cc-pvtz/c tightscf
| 26> %pal nprocs 16 end
| 27> %maxcore 3800
| 28> %base "TZ_B-F_75_AB"
| 29>
| 30> *xyz 0 1
| 31> F        -2.396713   -0.000001   -0.099966
| 32> N        -0.352087    1.220064    0.044672
| 33> N        -0.352086   -1.220063    0.044674
| 34> C         1.090732    1.263481    0.193288
| 35> C         1.710934    0.000001   -0.387603
| 36> C         1.090733   -1.263482    0.193286
| 37> B        -1.051353   -0.000000   -0.002499
| 38> H        -0.842533    2.095889    0.062541
| 39> H        -0.842532   -2.095889    0.062546
| 40> H         1.491738   -2.134594   -0.328425
| 41> H         1.378111   -1.361621    1.247215
| 42> H         2.785630    0.000001   -0.200035
| 43> H         1.561742    0.000002   -1.469708
| 44> H         1.378107    1.361617    1.247219
| 45> H         1.491738    2.134596   -0.328419
| 46> *
| 47>
| 48> $new_job
| 49> ! ri-mp2 aug-cc-pvqz aug-cc-pvqz/c tightscf
| 50> %pal nprocs 16 end
| 51> %maxcore 3800
| 52> %base "QZ_B-F_75_AB"
| 53>
| 54> *xyz 0 1
| 55> F        -2.396713   -0.000001   -0.099966
| 56> N        -0.352087    1.220064    0.044672
| 57> N        -0.352086   -1.220063    0.044674
| 58> C         1.090732    1.263481    0.193288
| 59> C         1.710934    0.000001   -0.387603
| 60> C         1.090733   -1.263482    0.193286
| 61> B        -1.051353   -0.000000   -0.002499
| 62> H        -0.842533    2.095889    0.062541
| 63> H        -0.842532   -2.095889    0.062546
| 64> H         1.491738   -2.134594   -0.328425
| 65> H         1.378111   -1.361621    1.247215
| 66> H         2.785630    0.000001   -0.200035
| 67> H         1.561742    0.000002   -1.469708
| 68> H         1.378107    1.361617    1.247219
| 69> H         1.491738    2.134596   -0.328419
| 70> *
| 71>
| 72>
| 73>
| 74>
| 75>                          ****END OF INPUT****
 Total Charge           Charge          ....    0
 Multiplicity           Mult            ....    1
 Number of Electrons    NEL             ....   54
MP2 TOTAL ENERGY:     -352.543787805 Eh
FINAL SINGLE POINT ENERGY      -352.543787805283
MP2 TOTAL ENERGY:     -352.860959933 Eh
FINAL SINGLE POINT ENERGY      -352.860959933008

CARTESIAN COORDINATES (ANGSTROEM)
---------------------------------
  F     -2.396713   -0.000001   -0.099966
  N     -0.352087    1.220064    0.044672
  N     -0.352086   -1.220063    0.044674
  C      1.090732    1.263481    0.193288
  C      1.710934    0.000001   -0.387603
  C      1.090733   -1.263482    0.193286
  B     -1.051353   -0.000000   -0.002499
  H     -0.842533    2.095889    0.062541
  H     -0.842532   -2.095889    0.062546
  H      1.491738   -2.134594   -0.328425
  H      1.378111   -1.361621    1.247215
  H      2.785630    0.000001   -0.200035
  H      1.561742    0.000002   -1.469708
  H      1.378107    1.361617    1.247219
  H      1.491738    2.134596   -0.328419

 Multiplicity           Mult            ....    1
 Number of Electrons    NEL             ....   54
 Basis Dimension        Dim             ....  928

ORBITAL ENERGIES
----------------

  NO   OCC          E(Eh)            E(eV)
   0   2.0000     -26.260476      -714.5839
   1   2.0000     -15.531568      -422.6355
   2   2.0000     -15.531551      -422.6350
   3   2.0000     -11.256030      -306.2922
   4   2.0000     -11.256026      -306.2920
   5   2.0000     -11.223861      -305.4168
   6   2.0000      -7.626775      -207.5351
   7   2.0000      -1.573315       -42.8121
   8   2.0000      -1.215814       -33.0840
   9   2.0000      -1.161256       -31.5994
  10   2.0000      -1.026414       -27.9302
  11   2.0000      -0.900851       -24.5134
  12   2.0000      -0.814814       -22.1722
  13   2.0000      -0.736470       -20.0404
  14   2.0000      -0.724253       -19.7079
  15   2.0000      -0.668034       -18.1781
  16   2.0000      -0.657060       -17.8795
  17   2.0000      -0.639133       -17.3917
  18   2.0000      -0.625113       -17.0102
  19   2.0000      -0.590823       -16.0771
  20   2.0000      -0.586380       -15.9562
  21   2.0000      -0.565312       -15.3829
  22   2.0000      -0.522476       -14.2173
  23   2.0000      -0.505383       -13.7522
  24   2.0000      -0.469932       -12.7875
  25   2.0000      -0.414801       -11.2873
  26   2.0000      -0.360899        -9.8206
  27   0.0000       0.023417         0.6372
  28   0.0000       0.030077         0.8184
  29   0.0000       0.033562         0.9133
  30   0.0000       0.034019         0.9257
  31   0.0000       0.048368         1.3162

MULLIKEN ATOMIC CHARGES
-----------------------
   0 F :   -1.035840
   1 N :   -0.562713
   2 N :   -0.562711
   3 C :   -0.259461
   4 C :   -0.581438
   5 C :   -0.259461
   6 B :    1.482985
   7 H :    0.067810
   8 H :    0.067810
   9 H :    0.335533
  10 H :    0.187513
  11 H :    0.354326
  12 H :    0.242599
  13 H :    0.187512
  14 H :    0.335534
Sum of atomic charges:    0.0000000

LOEWDIN ATOMIC CHARGES
----------------------
   0 F :    0.840987
   1 N :    0.967658
   2 N :    0.967658
   3 C :    0.377222
   4 C :    0.512605
   5 C :    0.377223
   6 B :   -1.454352
   7 H :   -0.495438
   8 H :   -0.495436
   9 H :   -0.272247
  10 H :   -0.264331
  11 H :   -0.260398
  12 H :   -0.264576
  13 H :   -0.264330
  14 H :   -0.272246

  Mayer bond orders larger than 0.100000
B(  0-F ,  1-N ) :  -0.1279 B(  0-F ,  2-N ) :  -0.1279 B(  1-N ,  3-C ) :   0.7539
B(  1-N ,  6-B ) :   0.9899 B(  1-N ,  7-H ) :   1.1477 B(  2-N ,  5-C ) :   0.7539
B(  2-N ,  6-B ) :   0.9899 B(  2-N ,  8-H ) :   1.1477 B(  3-C ,  4-C ) :   0.9854
B(  3-C , 13-H ) :   0.9834 B(  3-C , 14-H ) :   0.8986 B(  4-C ,  5-C ) :   0.9854
B(  4-C , 11-H ) :   0.8349 B(  4-C , 12-H ) :   0.9038 B(  5-C ,  9-H ) :   0.8986
B(  5-C , 10-H ) :   0.9834

MP2 TOTAL ENERGY:     -352.961343642 Eh
FINAL SINGLE POINT ENERGY      -352.961343642048

DIPOLE MOMENT
-------------
                                X             Y             Z
Electronic contribution:    -10.59269      -0.00000      -0.27693
Nuclear contribution   :     11.55470       0.00000       0.39225
                        -----------------------------------------
Total Dipole Moment    :      0.96201      -0.00000       0.11532
                        -----------------------------------------
Magnitude (a.u.)       :      0.96890
Magnitude (Debye)      :      2.46275

Rotational constants in cm-1:     0.152764     0.078213     0.054584
Rotational constants in MHz :  4579.747379  2344.778642  1636.383595

                             ****ORCA TERMINATED NORMALLY****
TOTAL RUN TIME: 0 days 0 hours 19 minutes 12 seconds 459 msec
