                         Program Version 5.0.4 -  RELEASE  -
|  1> ! ri-mp2 aug-cc-pvdz aug-cc-pvdz/c tightscf
|  2> %pal nprocs 16 end
|  3> %maxcore 3800
|  4> %base "DZ_B-F_40_AB"
|  5>
|  6> *xyz 0 1
|  7> F         1.218589   -1.333811    0.000009
|  8> F         1.666231    0.872590   -0.000019
|  9> B         0.771868   -0.095411    0.000001
| 10> C        -0.768604    0.233649    0.000009
| 11> C        -1.755897   -0.892298    0.000009
| 12> N        -1.182576    1.434634   -0.000005
| 13> H        -1.611958   -1.529424   -0.875177
| 14> H        -2.769467   -0.498288    0.000009
| 15> H        -1.611958   -1.529423    0.875196
| 16> H        -0.404295    2.094644   -0.000017
| 17> *
| 18>
| 19> $new_job
| 20> ! ri-mp2 aug-cc-pvtz aug-cc-pvtz/c tightscf
| 21> %pal nprocs 16 end
| 22> %maxcore 3800
| 23> %base "TZ_B-F_40_AB"
| 24>
| 25> *xyz 0 1
| 26> F         1.218589   -1.333811    0.000009
| 27> F         1.666231    0.872590   -0.000019
| 28> B         0.771868   -0.095411    0.000001
| 29> C        -0.768604    0.233649    0.000009
| 30> C        -1.755897   -0.892298    0.000009
| 31> N        -1.182576    1.434634   -0.000005
| 32> H        -1.611958   -1.529424   -0.875177
| 33> H        -2.769467   -0.498288    0.000009
| 34> H        -1.611958   -1.529423    0.875196
| 35> H        -0.404295    2.094644   -0.000017
| 36> *
| 37>
| 38> $new_job
| 39> ! ri-mp2 aug-cc-pvqz aug-cc-pvqz/c tightscf
| 40> %pal nprocs 16 end
| 41> %maxcore 3800
| 42> %base "QZ_B-F_40_AB"
| 43>
| 44> *xyz 0 1
| 45> F         1.218589   -1.333811    0.000009
| 46> F         1.666231    0.872590   -0.000019
| 47> B         0.771868   -0.095411    0.000001
| 48> C        -0.768604    0.233649    0.000009
| 49> C        -1.755897   -0.892298    0.000009
| 50> N        -1.182576    1.434634   -0.000005
| 51> H        -1.611958   -1.529424   -0.875177
| 52> H        -2.769467   -0.498288    0.000009
| 53> H        -1.611958   -1.529423    0.875196
| 54> H        -0.404295    2.094644   -0.000017
| 55> *
| 56>
| 57>
| 58>
| 59>
| 60>                          ****END OF INPUT****
 Total Charge           Charge          ....    0
 Multiplicity           Mult            ....    1
 Number of Electrons    NEL             ....   46
MP2 TOTAL ENERGY:     -357.165202080 Eh
FINAL SINGLE POINT ENERGY      -357.165202080479
MP2 TOTAL ENERGY:     -357.478790567 Eh
FINAL SINGLE POINT ENERGY      -357.478790567188

CARTESIAN COORDINATES (ANGSTROEM)
---------------------------------
  F      1.218589   -1.333811    0.000009
  F      1.666231    0.872590   -0.000019
  B      0.771868   -0.095411    0.000001
  C     -0.768604    0.233649    0.000009
  C     -1.755897   -0.892298    0.000009
  N     -1.182576    1.434634   -0.000005
  H     -1.611958   -1.529424   -0.875177
  H     -2.769467   -0.498288    0.000009
  H     -1.611958   -1.529423    0.875196
  H     -0.404295    2.094644   -0.000017

 Multiplicity           Mult            ....    1
 Number of Electrons    NEL             ....   46
 Basis Dimension        Dim             ....  664

ORBITAL ENERGIES
----------------

  NO   OCC          E(Eh)            E(eV)
   0   2.0000     -26.327704      -716.4132
   1   2.0000     -26.326994      -716.3939
   2   2.0000     -15.574866      -423.8137
   3   2.0000     -11.282174      -307.0036
   4   2.0000     -11.232247      -305.6450
   5   2.0000      -7.724412      -210.1919
   6   2.0000      -1.661694       -45.2170
   7   2.0000      -1.629778       -44.3485
   8   2.0000      -1.230171       -33.4746
   9   2.0000      -1.003385       -27.3035
  10   2.0000      -0.849341       -23.1118
  11   2.0000      -0.796845       -21.6832
  12   2.0000      -0.777530       -21.1577
  13   2.0000      -0.749537       -20.3959
  14   2.0000      -0.730059       -19.8659
  15   2.0000      -0.675308       -18.3761
  16   2.0000      -0.669248       -18.2112
  17   2.0000      -0.654673       -17.8146
  18   2.0000      -0.590591       -16.0708
  19   2.0000      -0.578580       -15.7440
  20   2.0000      -0.548830       -14.9344
  21   2.0000      -0.446159       -12.1406
  22   2.0000      -0.428702       -11.6656
  23   0.0000       0.022422         0.6101
  24   0.0000       0.034199         0.9306
  25   0.0000       0.034644         0.9427
  26   0.0000       0.037476         1.0198
  27   0.0000       0.051109         1.3908

MULLIKEN ATOMIC CHARGES
-----------------------
   0 F :   -0.798169
   1 F :   -0.824275
   2 B :    1.783246
   3 C :    0.129416
   4 C :   -0.721606
   5 N :   -0.702577
   6 H :    0.241984
   7 H :    0.323089
   8 H :    0.241977
   9 H :    0.326914
Sum of atomic charges:   -0.0000000

LOEWDIN ATOMIC CHARGES
----------------------
   0 F :    0.835696
   1 F :    0.841253
   2 B :   -1.738498
   3 C :   -0.202504
   4 C :    0.855605
   5 N :    1.000573
   6 H :   -0.293537
   7 H :   -0.317589
   8 H :   -0.293537
   9 H :   -0.687461

  Mayer bond orders larger than 0.100000
B(  0-F ,  2-B ) :   0.3598 B(  1-F ,  2-B ) :   0.3028 B(  2-B ,  3-C ) :   0.8843
B(  2-B ,  5-N ) :   0.1009 B(  3-C ,  4-C ) :   0.8450 B(  3-C ,  5-N ) :   1.6311
B(  4-C ,  6-H ) :   0.9540 B(  4-C ,  7-H ) :   0.9476 B(  4-C ,  8-H ) :   0.9540
B(  5-N ,  9-H ) :   0.7796

MP2 TOTAL ENERGY:     -357.578662832 Eh
FINAL SINGLE POINT ENERGY      -357.578662831925

DIPOLE MOMENT
-------------
                                X             Y             Z
Electronic contribution:      9.42889       0.50307      -0.00001
Nuclear contribution   :     -9.38919      -0.87629       0.00002
                        -----------------------------------------
Total Dipole Moment    :      0.03970      -0.37322       0.00000
                        -----------------------------------------
Magnitude (a.u.)       :      0.37533
Magnitude (Debye)      :      0.95401

Rotational constants in cm-1:     0.172299     0.102029     0.064843
Rotational constants in MHz :  5165.382467  3058.742968  1943.947032

                             ****ORCA TERMINATED NORMALLY****
TOTAL RUN TIME: 0 days 0 hours 5 minutes 43 seconds 958 msec
