                         Program Version 5.0.4 -  RELEASE  -
|  1> ! ri-mp2 aug-cc-pvdz aug-cc-pvdz/c tightscf
|  2> %pal nprocs 16 end
|  3> %maxcore 3800
|  4> %base "DZ_B-P_62_AB"
|  5>
|  6> *xyz 0 1
|  7> C        -1.127571    2.261704   -0.617037
|  8> C         0.145159    2.003579   -0.140070
|  9> C        -2.114279    1.294399   -0.545432
| 10> C        -1.788537    0.080962    0.021925
| 11> C        -0.530573   -0.191317    0.523759
| 12> C         0.465777    0.774998    0.435547
| 13> H        -0.351607   -1.148749    0.993348
| 14> H        -1.352300    3.223739   -1.056641
| 15> H         0.904924    2.769867   -0.217909
| 16> B         2.851367   -0.657692   -0.352600
| 17> O         2.096217   -1.357507   -1.237644
| 18> O         4.201331   -0.724866   -0.433234
| 19> H        -3.113838    1.465058   -0.913378
| 20> N        -2.823963   -0.962691    0.110505
| 21> O        -3.939365   -0.679967   -0.268150
| 22> O        -2.495922   -2.042362    0.553135
| 23> H         4.510554   -1.287457   -1.152465
| 24> H         1.145871   -1.230242   -1.161872
| 25> P         2.120101    0.382453    1.115251
| 26> H         2.767839    1.589965    0.784616
| 27> *
| 28>
| 29> $new_job
| 30> ! ri-mp2 aug-cc-pvtz aug-cc-pvtz/c tightscf
| 31> %pal nprocs 16 end
| 32> %maxcore 3800
| 33> %base "TZ_B-P_62_AB"
| 34>
| 35> *xyz 0 1
| 36> C        -1.127571    2.261704   -0.617037
| 37> C         0.145159    2.003579   -0.140070
| 38> C        -2.114279    1.294399   -0.545432
| 39> C        -1.788537    0.080962    0.021925
| 40> C        -0.530573   -0.191317    0.523759
| 41> C         0.465777    0.774998    0.435547
| 42> H        -0.351607   -1.148749    0.993348
| 43> H        -1.352300    3.223739   -1.056641
| 44> H         0.904924    2.769867   -0.217909
| 45> B         2.851367   -0.657692   -0.352600
| 46> O         2.096217   -1.357507   -1.237644
| 47> O         4.201331   -0.724866   -0.433234
| 48> H        -3.113838    1.465058   -0.913378
| 49> N        -2.823963   -0.962691    0.110505
| 50> O        -3.939365   -0.679967   -0.268150
| 51> O        -2.495922   -2.042362    0.553135
| 52> H         4.510554   -1.287457   -1.152465
| 53> H         1.145871   -1.230242   -1.161872
| 54> P         2.120101    0.382453    1.115251
| 55> H         2.767839    1.589965    0.784616
| 56> *
| 57>
| 58> $new_job
| 59> ! ri-mp2 aug-cc-pvqz aug-cc-pvqz/c tightscf
| 60> %pal nprocs 16 end
| 61> %maxcore 3800
| 62> %base "QZ_B-P_62_AB"
| 63>
| 64> *xyz 0 1
| 65> C        -1.127571    2.261704   -0.617037
| 66> C         0.145159    2.003579   -0.140070
| 67> C        -2.114279    1.294399   -0.545432
| 68> C        -1.788537    0.080962    0.021925
| 69> C        -0.530573   -0.191317    0.523759
| 70> C         0.465777    0.774998    0.435547
| 71> H        -0.351607   -1.148749    0.993348
| 72> H        -1.352300    3.223739   -1.056641
| 73> H         0.904924    2.769867   -0.217909
| 74> B         2.851367   -0.657692   -0.352600
| 75> O         2.096217   -1.357507   -1.237644
| 76> O         4.201331   -0.724866   -0.433234
| 77> H        -3.113838    1.465058   -0.913378
| 78> N        -2.823963   -0.962691    0.110505
| 79> O        -3.939365   -0.679967   -0.268150
| 80> O        -2.495922   -2.042362    0.553135
| 81> H         4.510554   -1.287457   -1.152465
| 82> H         1.145871   -1.230242   -1.161872
| 83> P         2.120101    0.382453    1.115251
| 84> H         2.767839    1.589965    0.784616
| 85> *
| 86>
| 87>
| 88>
| 89>
| 90>                          ****END OF INPUT****
 Total Charge           Charge          ....    0
 Multiplicity           Mult            ....    1
 Number of Electrons    NEL             ....  102
MP2 TOTAL ENERGY:     -952.677504202 Eh
FINAL SINGLE POINT ENERGY      -952.677504201965
MP2 TOTAL ENERGY:     -953.234690646 Eh
FINAL SINGLE POINT ENERGY      -953.234690646424

CARTESIAN COORDINATES (ANGSTROEM)
---------------------------------
  C     -1.127571    2.261704   -0.617037
  C      0.145159    2.003579   -0.140070
  C     -2.114279    1.294399   -0.545432
  C     -1.788537    0.080962    0.021925
  C     -0.530573   -0.191317    0.523759
  C      0.465777    0.774998    0.435547
  H     -0.351607   -1.148749    0.993348
  H     -1.352300    3.223739   -1.056641
  H      0.904924    2.769867   -0.217909
  B      2.851367   -0.657692   -0.352600
  O      2.096217   -1.357507   -1.237644
  O      4.201331   -0.724866   -0.433234
  H     -3.113838    1.465058   -0.913378
  N     -2.823963   -0.962691    0.110505
  O     -3.939365   -0.679967   -0.268150
  O     -2.495922   -2.042362    0.553135
  H      4.510554   -1.287457   -1.152465
  H      1.145871   -1.230242   -1.161872
  P      2.120101    0.382453    1.115251
  H      2.767839    1.589965    0.784616

 Multiplicity           Mult            ....    1
 Number of Electrons    NEL             ....  102
 Basis Dimension        Dim             .... 1366

ORBITAL ENERGIES
----------------

  NO   OCC          E(Eh)            E(eV)
   0   2.0000     -79.943100     -2175.3623
   1   2.0000     -20.606285      -560.7255
   2   2.0000     -20.605936      -560.7160
   3   2.0000     -20.586826      -560.1960
   4   2.0000     -20.580294      -560.0183
   5   2.0000     -15.859275      -431.5528
   6   2.0000     -11.317214      -307.9571
   7   2.0000     -11.279805      -306.9391
   8   2.0000     -11.277961      -306.8889
   9   2.0000     -11.277585      -306.8787
  10   2.0000     -11.275931      -306.8337
  11   2.0000     -11.270485      -306.6855
  12   2.0000      -7.665031      -208.5761
  13   2.0000      -7.488256      -203.7658
  14   2.0000      -5.382557      -146.4668
  15   2.0000      -5.381992      -146.4514
  16   2.0000      -5.381466      -146.4371
  17   2.0000      -1.624638       -44.2086
  18   2.0000      -1.415016       -38.5045
  19   2.0000      -1.403876       -38.2014
  20   2.0000      -1.364094       -37.1189
  21   2.0000      -1.213670       -33.0256
  22   2.0000      -1.104683       -30.0600
  23   2.0000      -1.068721       -29.0814
  24   2.0000      -0.969730       -26.3877
  25   2.0000      -0.905348       -24.6358
  26   2.0000      -0.852817       -23.2063
  27   2.0000      -0.824814       -22.4443
  28   2.0000      -0.791323       -21.5330
  29   2.0000      -0.769795       -20.9472
  30   2.0000      -0.742870       -20.2145
  31   2.0000      -0.736717       -20.0471
  32   2.0000      -0.734563       -19.9885
  33   2.0000      -0.716050       -19.4847
  34   2.0000      -0.674344       -18.3498
  35   2.0000      -0.645839       -17.5742
  36   2.0000      -0.631902       -17.1949
  37   2.0000      -0.596504       -16.2317
  38   2.0000      -0.594877       -16.1874
  39   2.0000      -0.581036       -15.8108
  40   2.0000      -0.558380       -15.1943
  41   2.0000      -0.552230       -15.0269
  42   2.0000      -0.522799       -14.2261
  43   2.0000      -0.518763       -14.1162
  44   2.0000      -0.503048       -13.6886
  45   2.0000      -0.498713       -13.5707
  46   2.0000      -0.474375       -12.9084
  47   2.0000      -0.464405       -12.6371
  48   2.0000      -0.413511       -11.2522
  49   2.0000      -0.386973       -10.5301
  50   2.0000      -0.343333        -9.3426
  51   0.0000       0.015420         0.4196
  52   0.0000       0.023479         0.6389
  53   0.0000       0.028614         0.7786
  54   0.0000       0.030199         0.8218
  55   0.0000       0.034893         0.9495

MULLIKEN ATOMIC CHARGES
-----------------------
   0 C :   -0.314283
   1 C :   -0.463078
   2 C :   -0.236931
   3 C :   -0.029717
   4 C :    0.035628
   5 C :    0.024872
   6 H :    0.465836
   7 H :    0.209852
   8 H :    0.306986
   9 B :    1.312836
  10 O :   -1.180574
  11 O :   -1.013290
  12 H :    0.416650
  13 N :    0.781077
  14 O :   -0.622807
  15 O :   -0.617476
  16 H :    0.320705
  17 H :    0.434284
  18 P :    0.298925
  19 H :   -0.129496
Sum of atomic charges:    0.0000000

LOEWDIN ATOMIC CHARGES
----------------------
   0 C :    0.370547
   1 C :    0.282862
   2 C :    0.325476
   3 C :   -0.300206
   4 C :    0.206627
   5 C :   -0.302188
   6 H :   -0.364722
   7 H :   -0.311244
   8 H :   -0.334038
   9 B :   -1.408332
  10 O :    1.339646
  11 O :    1.280539
  12 H :   -0.346200
  13 N :   -0.841101
  14 O :    0.556546
  15 O :    0.558819
  16 H :   -0.797359
  17 H :   -0.846043
  18 P :    1.376043
  19 H :   -0.445672

  Mayer bond orders larger than 0.100000
B(  0-C ,  1-C ) :   1.2908 B(  0-C ,  2-C ) :   1.2561 B(  0-C ,  3-C ) :  -0.3196
B(  0-C ,  4-C ) :   0.1252 B(  0-C ,  5-C ) :  -0.3058 B(  0-C ,  7-H ) :   1.1928
B(  1-C ,  2-C ) :   0.1837 B(  1-C ,  3-C ) :   0.1164 B(  1-C ,  5-C ) :   0.8037
B(  1-C ,  7-H ) :  -0.1341 B(  1-C ,  8-H ) :   0.9616 B(  2-C ,  3-C ) :   1.1457
B(  2-C ,  7-H ) :  -0.1548 B(  2-C , 12-H ) :   0.7777 B(  2-C , 13-N ) :  -0.1286
B(  3-C ,  4-C ) :   1.4671 B(  3-C ,  5-C ) :  -0.4793 B(  3-C ,  6-H ) :  -0.1207
B(  3-C , 13-N ) :   0.8161 B(  3-C , 14-O ) :   0.2937 B(  3-C , 15-O ) :   0.2622
B(  4-C ,  5-C ) :   0.8836 B(  4-C ,  6-H ) :   0.7585 B(  4-C , 13-N ) :  -0.1184
B(  4-C , 18-P ) :  -0.4204 B(  5-C ,  6-H ) :  -0.1174 B(  5-C , 18-P ) :   0.8610
B(  5-C , 19-H ) :  -0.1716 B(  9-B , 10-O ) :   0.4794 B(  9-B , 11-O ) :   0.4274
B(  9-B , 18-P ) :   1.0591 B( 10-O , 11-O ) :  -0.1366 B( 10-O , 17-H ) :   0.8457
B( 10-O , 18-P ) :   0.1134 B( 11-O , 16-H ) :   0.9391 B( 11-O , 18-P ) :  -0.1557
B( 13-N , 14-O ) :   1.1425 B( 13-N , 15-O ) :   1.1574 B( 18-P , 19-H ) :   0.9869

MP2 TOTAL ENERGY:     -953.418519843 Eh
FINAL SINGLE POINT ENERGY      -953.418519843376

DIPOLE MOMENT
-------------
                                X             Y             Z
Electronic contribution:      0.65820      -3.87414       2.66587
Nuclear contribution   :      0.16943       5.26465      -3.39339
                        -----------------------------------------
Total Dipole Moment    :      0.82764       1.39050      -0.72752
                        -----------------------------------------
Magnitude (a.u.)       :      1.77419
Magnitude (Debye)      :      4.50964

Rotational constants in cm-1:     0.042920     0.013077     0.011281
Rotational constants in MHz :  1286.705675   392.051952   338.209337

                             ****ORCA TERMINATED NORMALLY****
TOTAL RUN TIME: 0 days 1 hours 10 minutes 4 seconds 472 msec
