                         Program Version 5.0.4 -  RELEASE  -
|  1> ! ri-mp2 aug-cc-pvdz aug-cc-pvdz/c tightscf
|  2> %pal nprocs 16 end
|  3> %maxcore 3800
|  4> %base "DZ_P-Si_64_AB"
|  5>
|  6> *xyz 0 1
|  7> C         0.503498    0.116222    0.249516
|  8> C         1.151038   -1.074343    0.580785
|  9> C         2.501982   -1.245451    0.340014
| 10> C         3.236262   -0.224613   -0.242570
| 11> C         2.612899    0.963295   -0.580552
| 12> C         1.259126    1.129278   -0.335618
| 13> P        -2.387596   -1.320553   -0.560932
| 14> H         2.984411   -2.176910    0.605794
| 15> H         4.293309   -0.356674   -0.432665
| 16> H         3.181122    1.763880   -1.035889
| 17> H         0.790284    2.067089   -0.606373
| 18> H         0.590986   -1.884727    1.032856
| 19> Si        -1.326626    0.317949    0.573076
| 20> C        -1.904991    2.037332    0.133076
| 21> H        -1.753081    2.247553   -0.926117
| 22> H        -1.371668    2.792590    0.712760
| 23> H        -2.969471    2.142185    0.343566
| 24> H        -2.227058   -0.704474   -1.824819
| 25> H        -3.685884   -0.796348   -0.351953
| 26> H        -1.605112    0.052542    2.005851
| 27> *
| 28>
| 29> $new_job
| 30> ! ri-mp2 aug-cc-pvtz aug-cc-pvtz/c tightscf
| 31> %pal nprocs 16 end
| 32> %maxcore 3800
| 33> %base "TZ_P-Si_64_AB"
| 34>
| 35> *xyz 0 1
| 36> C         0.503498    0.116222    0.249516
| 37> C         1.151038   -1.074343    0.580785
| 38> C         2.501982   -1.245451    0.340014
| 39> C         3.236262   -0.224613   -0.242570
| 40> C         2.612899    0.963295   -0.580552
| 41> C         1.259126    1.129278   -0.335618
| 42> P        -2.387596   -1.320553   -0.560932
| 43> H         2.984411   -2.176910    0.605794
| 44> H         4.293309   -0.356674   -0.432665
| 45> H         3.181122    1.763880   -1.035889
| 46> H         0.790284    2.067089   -0.606373
| 47> H         0.590986   -1.884727    1.032856
| 48> Si        -1.326626    0.317949    0.573076
| 49> C        -1.904991    2.037332    0.133076
| 50> H        -1.753081    2.247553   -0.926117
| 51> H        -1.371668    2.792590    0.712760
| 52> H        -2.969471    2.142185    0.343566
| 53> H        -2.227058   -0.704474   -1.824819
| 54> H        -3.685884   -0.796348   -0.351953
| 55> H        -1.605112    0.052542    2.005851
| 56> *
| 57>
| 58> $new_job
| 59> ! ri-mp2 aug-cc-pvqz aug-cc-pvqz/c tightscf
| 60> %pal nprocs 16 end
| 61> %maxcore 3800
| 62> %base "QZ_P-Si_64_AB"
| 63>
| 64> *xyz 0 1
| 65> C         0.503498    0.116222    0.249516
| 66> C         1.151038   -1.074343    0.580785
| 67> C         2.501982   -1.245451    0.340014
| 68> C         3.236262   -0.224613   -0.242570
| 69> C         2.612899    0.963295   -0.580552
| 70> C         1.259126    1.129278   -0.335618
| 71> P        -2.387596   -1.320553   -0.560932
| 72> H         2.984411   -2.176910    0.605794
| 73> H         4.293309   -0.356674   -0.432665
| 74> H         3.181122    1.763880   -1.035889
| 75> H         0.790284    2.067089   -0.606373
| 76> H         0.590986   -1.884727    1.032856
| 77> Si        -1.326626    0.317949    0.573076
| 78> C        -1.904991    2.037332    0.133076
| 79> H        -1.753081    2.247553   -0.926117
| 80> H        -1.371668    2.792590    0.712760
| 81> H        -2.969471    2.142185    0.343566
| 82> H        -2.227058   -0.704474   -1.824819
| 83> H        -3.685884   -0.796348   -0.351953
| 84> H        -1.605112    0.052542    2.005851
| 85> *
| 86>
| 87>
| 88>
| 89>
| 90>                          ****END OF INPUT****
 Total Charge           Charge          ....    0
 Multiplicity           Mult            ....    1
 Number of Electrons    NEL             ....   82
MP2 TOTAL ENERGY:     -902.400239613 Eh
FINAL SINGLE POINT ENERGY      -902.400239612666
MP2 TOTAL ENERGY:     -902.724203410 Eh
FINAL SINGLE POINT ENERGY      -902.724203410219

CARTESIAN COORDINATES (ANGSTROEM)
---------------------------------
  C      0.503498    0.116222    0.249516
  C      1.151038   -1.074343    0.580785
  C      2.501982   -1.245451    0.340014
  C      3.236262   -0.224613   -0.242570
  C      2.612899    0.963295   -0.580552
  C      1.259126    1.129278   -0.335618
  P     -2.387596   -1.320553   -0.560932
  H      2.984411   -2.176910    0.605794
  H      4.293309   -0.356674   -0.432665
  H      3.181122    1.763880   -1.035889
  H      0.790284    2.067089   -0.606373
  H      0.590986   -1.884727    1.032856
  Si    -1.326626    0.317949    0.573076
  C     -1.904991    2.037332    0.133076
  H     -1.753081    2.247553   -0.926117
  H     -1.371668    2.792590    0.712760
  H     -2.969471    2.142185    0.343566
  H     -2.227058   -0.704474   -1.824819
  H     -3.685884   -0.796348   -0.351953
  H     -1.605112    0.052542    2.005851

 Multiplicity           Mult            ....    1
 Number of Electrons    NEL             ....   82
 Basis Dimension        Dim             .... 1234

ORBITAL ENERGIES
----------------

  NO   OCC          E(Eh)            E(eV)
   0   2.0000     -79.923145     -2174.8193
   1   2.0000     -68.769809     -1871.3216
   2   2.0000     -11.238286      -305.8093
   3   2.0000     -11.237532      -305.7888
   4   2.0000     -11.237153      -305.7785
   5   2.0000     -11.233725      -305.6852
   6   2.0000     -11.233361      -305.6753
   7   2.0000     -11.221342      -305.3483
   8   2.0000     -11.209092      -305.0149
   9   2.0000      -7.468198      -203.2200
  10   2.0000      -6.118756      -166.4998
  11   2.0000      -5.362084      -145.9097
  12   2.0000      -5.361715      -145.8997
  13   2.0000      -5.361117      -145.8834
  14   2.0000      -4.225274      -114.9755
  15   2.0000      -4.224931      -114.9662
  16   2.0000      -4.224722      -114.9605
  17   2.0000      -1.157155       -31.4878
  18   2.0000      -1.020588       -27.7716
  19   2.0000      -1.019904       -27.7530
  20   2.0000      -0.953666       -25.9506
  21   2.0000      -0.847292       -23.0560
  22   2.0000      -0.827827       -22.5263
  23   2.0000      -0.820887       -22.3375
  24   2.0000      -0.716865       -19.5069
  25   2.0000      -0.660488       -17.9728
  26   2.0000      -0.628902       -17.1133
  27   2.0000      -0.622661       -16.9435
  28   2.0000      -0.591965       -16.1082
  29   2.0000      -0.573264       -15.5993
  30   2.0000      -0.564831       -15.3698
  31   2.0000      -0.539571       -14.6825
  32   2.0000      -0.521743       -14.1973
  33   2.0000      -0.509283       -13.8583
  34   2.0000      -0.496306       -13.5052
  35   2.0000      -0.467048       -12.7090
  36   2.0000      -0.449700       -12.2370
  37   2.0000      -0.430142       -11.7048
  38   2.0000      -0.361356        -9.8330
  39   2.0000      -0.341665        -9.2972
  40   2.0000      -0.335747        -9.1361
  41   0.0000       0.020815         0.5664
  42   0.0000       0.027413         0.7459
  43   0.0000       0.029515         0.8031
  44   0.0000       0.036035         0.9806
  45   0.0000       0.039676         1.0796

MULLIKEN ATOMIC CHARGES
-----------------------
   0 C :   -0.011729
   1 C :   -0.564691
   2 C :   -0.249867
   3 C :   -0.398073
   4 C :   -0.191601
   5 C :   -0.520330
   6 P :    0.014814
   7 H :    0.252495
   8 H :    0.366344
   9 H :    0.255148
  10 H :    0.297160
  11 H :    0.306844
  12 Si:    1.325253
  13 C :   -1.140642
  14 H :    0.219331
  15 H :    0.250516
  16 H :    0.369710
  17 H :   -0.076913
  18 H :   -0.125366
  19 H :   -0.378404
Sum of atomic charges:    0.0000000

LOEWDIN ATOMIC CHARGES
----------------------
   0 C :   -0.106090
   1 C :    0.241888
   2 C :    0.341637
   3 C :    0.336287
   4 C :    0.343497
   5 C :    0.262919
   6 P :    1.480975
   7 H :   -0.319121
   8 H :   -0.319251
   9 H :   -0.319622
  10 H :   -0.352089
  11 H :   -0.338280
  12 Si:    0.179915
  13 C :    0.911335
  14 H :   -0.349950
  15 H :   -0.342389
  16 H :   -0.352833
  17 H :   -0.537580
  18 H :   -0.548484
  19 H :   -0.212765

  Mayer bond orders larger than 0.100000
B(  0-C ,  1-C ) :   0.8993 B(  0-C ,  2-C ) :  -0.3565 B(  0-C ,  4-C ) :  -0.3858
B(  0-C ,  5-C ) :   0.7536 B(  0-C , 10-H ) :  -0.1232 B(  0-C , 11-H ) :  -0.1413
B(  0-C , 12-Si) :   0.9044 B(  1-C ,  2-C ) :   1.3114 B(  1-C ,  3-C ) :   0.1507
B(  1-C ,  4-C ) :   0.1759 B(  1-C ,  7-H ) :  -0.1473 B(  1-C , 11-H ) :   0.9610
B(  2-C ,  3-C ) :   1.1403 B(  2-C ,  5-C ) :   0.1305 B(  2-C ,  7-H ) :   1.1247
B(  3-C ,  4-C ) :   1.1529 B(  3-C ,  5-C ) :   0.1370 B(  3-C ,  8-H ) :   0.9586
B(  4-C ,  5-C ) :   1.2632 B(  4-C ,  9-H ) :   1.1114 B(  5-C ,  9-H ) :  -0.1523
B(  5-C , 10-H ) :   0.9975 B(  5-C , 12-Si) :  -0.1914 B(  6-P , 12-Si) :   0.7325
B(  6-P , 17-H ) :   0.9229 B(  6-P , 18-H ) :   0.9151 B( 12-Si, 13-C ) :   0.7952
B( 12-Si, 19-H ) :   0.6255 B( 13-C , 14-H ) :   0.9682 B( 13-C , 15-H ) :   0.9391
B( 13-C , 16-H ) :   0.9146

MP2 TOTAL ENERGY:     -902.826098693 Eh
FINAL SINGLE POINT ENERGY      -902.826098692569

DIPOLE MOMENT
-------------
                                X             Y             Z
Electronic contribution:     -0.33975      -5.82189      -0.10996
Nuclear contribution   :      0.58141       6.37583       0.02240
                        -----------------------------------------
Total Dipole Moment    :      0.24166       0.55393      -0.08755
                        -----------------------------------------
Magnitude (a.u.)       :      0.61066
Magnitude (Debye)      :      1.55218

Rotational constants in cm-1:     0.069102     0.023797     0.019479
Rotational constants in MHz :  2071.612925   713.403437   583.951516

                             ****ORCA TERMINATED NORMALLY****
TOTAL RUN TIME: 0 days 0 hours 53 minutes 25 seconds 99 msec
