                         Program Version 5.0.4 -  RELEASE  -
|  1> ! ri-mp2 aug-cc-pvdz aug-cc-pvdz/c tightscf
|  2> %pal nprocs 16 end
|  3> %maxcore 3800
|  4> %base "DZ_Si-Si_69_AB"
|  5> %scf
|  6> STABPerform true
|  7> STABRestartUHFifUnstable true
|  8> end
|  9>
| 10> *xyz 0 1
| 11> Si        -2.100599    0.328316   -0.288052
| 12> Si        -0.224740   -0.877164    0.396723
| 13> H        -2.255566    1.545775    0.532149
| 14> H        -3.310526   -0.513136   -0.145674
| 15> H        -1.950343    0.703476   -1.711340
| 16> C         1.316660    0.219968    0.073760
| 17> H        -0.105200   -2.166291   -0.331675
| 18> H        -0.252516   -1.161963    1.846642
| 19> O         1.319829    1.352532    0.518535
| 20> N         2.352221   -0.278910   -0.642807
| 21> H         2.347502   -1.217861   -0.996413
| 22> H         3.157252    0.306168   -0.806275
| 23> *
| 24>
| 25> $new_job
| 26> ! ri-mp2 aug-cc-pvtz aug-cc-pvtz/c tightscf
| 27> %pal nprocs 16 end
| 28> %maxcore 3800
| 29> %base "TZ_Si-Si_69_AB"
| 30>
| 31> *xyz 0 1
| 32> Si        -2.100599    0.328316   -0.288052
| 33> Si        -0.224740   -0.877164    0.396723
| 34> H        -2.255566    1.545775    0.532149
| 35> H        -3.310526   -0.513136   -0.145674
| 36> H        -1.950343    0.703476   -1.711340
| 37> C         1.316660    0.219968    0.073760
| 38> H        -0.105200   -2.166291   -0.331675
| 39> H        -0.252516   -1.161963    1.846642
| 40> O         1.319829    1.352532    0.518535
| 41> N         2.352221   -0.278910   -0.642807
| 42> H         2.347502   -1.217861   -0.996413
| 43> H         3.157252    0.306168   -0.806275
| 44> *
| 45>
| 46> $new_job
| 47> ! ri-mp2 aug-cc-pvqz aug-cc-pvqz/c tightscf
| 48> %pal nprocs 16 end
| 49> %maxcore 3800
| 50> %base "QZ_Si-Si_69_AB"
| 51>
| 52> *xyz 0 1
| 53> Si        -2.100599    0.328316   -0.288052
| 54> Si        -0.224740   -0.877164    0.396723
| 55> H        -2.255566    1.545775    0.532149
| 56> H        -3.310526   -0.513136   -0.145674
| 57> H        -1.950343    0.703476   -1.711340
| 58> C         1.316660    0.219968    0.073760
| 59> H        -0.105200   -2.166291   -0.331675
| 60> H        -0.252516   -1.161963    1.846642
| 61> O         1.319829    1.352532    0.518535
| 62> N         2.352221   -0.278910   -0.642807
| 63> H         2.347502   -1.217861   -0.996413
| 64> H         3.157252    0.306168   -0.806275
| 65> *
| 66>
| 67>
| 68>
| 69>
| 70>                          ****END OF INPUT****
 Total Charge           Charge          ....    0
 Multiplicity           Mult            ....    1
 Number of Electrons    NEL             ....   56
MP2 TOTAL ENERGY:     -749.867418048 Eh
FINAL SINGLE POINT ENERGY      -749.867418048136
MP2 TOTAL ENERGY:     -750.084966729 Eh
FINAL SINGLE POINT ENERGY      -750.084966728912

CARTESIAN COORDINATES (ANGSTROEM)
---------------------------------
  Si    -2.100599    0.328316   -0.288052
  Si    -0.224740   -0.877164    0.396723
  H     -2.255566    1.545775    0.532149
  H     -3.310526   -0.513136   -0.145674
  H     -1.950343    0.703476   -1.711340
  C      1.316660    0.219968    0.073760
  H     -0.105200   -2.166291   -0.331675
  H     -0.252516   -1.161963    1.846642
  O      1.319829    1.352532    0.518535
  N      2.352221   -0.278910   -0.642807
  H      2.347502   -1.217861   -0.996413
  H      3.157252    0.306168   -0.806275

 Multiplicity           Mult            ....    1
 Number of Electrons    NEL             ....   56
 Basis Dimension        Dim             ....  730

ORBITAL ENERGIES
----------------

  NO   OCC          E(Eh)            E(eV)
   0   2.0000     -68.780822     -1871.6213
   1   2.0000     -68.771244     -1871.3607
   2   2.0000     -20.525102      -558.5164
   3   2.0000     -15.591168      -424.2573
   4   2.0000     -11.339622      -308.5668
   5   2.0000      -6.131866      -166.8566
   6   2.0000      -6.122091      -166.5906
   7   2.0000      -4.237970      -115.3210
   8   2.0000      -4.237817      -115.3169
   9   2.0000      -4.237730      -115.3145
  10   2.0000      -4.228281      -115.0574
  11   2.0000      -4.228159      -115.0541
  12   2.0000      -4.228055      -115.0512
  13   2.0000      -1.384446       -37.6727
  14   2.0000      -1.216238       -33.0955
  15   2.0000      -0.841328       -22.8937
  16   2.0000      -0.769689       -20.9443
  17   2.0000      -0.730745       -19.8846
  18   2.0000      -0.682234       -18.5645
  19   2.0000      -0.640460       -17.4278
  20   2.0000      -0.577302       -15.7092
  21   2.0000      -0.562371       -15.3029
  22   2.0000      -0.504899       -13.7390
  23   2.0000      -0.487640       -13.2694
  24   2.0000      -0.478625       -13.0240
  25   2.0000      -0.422695       -11.5021
  26   2.0000      -0.415450       -11.3050
  27   2.0000      -0.396637       -10.7930
  28   0.0000       0.018861         0.5132
  29   0.0000       0.029209         0.7948
  30   0.0000       0.032788         0.8922
  31   0.0000       0.039650         1.0789
  32   0.0000       0.047632         1.2961

MULLIKEN ATOMIC CHARGES
-----------------------
   0 Si:    0.360429
   1 Si:    0.866451
   2 H :   -0.118297
   3 H :   -0.160486
   4 H :   -0.128298
   5 C :    0.655920
   6 H :   -0.230879
   7 H :   -0.191004
   8 O :   -0.829005
   9 N :   -0.784279
  10 H :    0.322815
  11 H :    0.236634
Sum of atomic charges:    0.0000000

LOEWDIN ATOMIC CHARGES
----------------------
   0 Si:    1.044053
   1 Si:    0.665624
   2 H :   -0.306828
   3 H :   -0.321017
   4 H :   -0.310662
   5 C :   -0.934163
   6 H :   -0.274697
   7 H :   -0.273937
   8 O :    0.590071
   9 N :    1.158375
  10 H :   -0.532206
  11 H :   -0.504613

  Mayer bond orders larger than 0.100000
B(  0-Si,  1-Si) :   0.7343 B(  0-Si,  2-H ) :   0.7862 B(  0-Si,  3-H ) :   0.7812
B(  0-Si,  4-H ) :   0.7614 B(  1-Si,  5-C ) :   0.7344 B(  1-Si,  6-H ) :   0.8213
B(  1-Si,  7-H ) :   0.8156 B(  5-C ,  8-O ) :   1.4101 B(  5-C ,  9-N ) :   1.0777
B(  8-O ,  9-N ) :   0.1344 B(  9-N , 10-H ) :   0.8876 B(  9-N , 11-H ) :   0.9861

MP2 TOTAL ENERGY:     -750.157223316 Eh
FINAL SINGLE POINT ENERGY      -750.157223315835

DIPOLE MOMENT
-------------
                                X             Y             Z
Electronic contribution:      2.47516       1.21237       0.93931
Nuclear contribution   :     -2.19210      -2.44913      -1.61366
                        -----------------------------------------
Total Dipole Moment    :      0.28306      -1.23676      -0.67435
                        -----------------------------------------
Magnitude (a.u.)       :      1.43682
Magnitude (Debye)      :      3.65211

Rotational constants in cm-1:     0.184031     0.053926     0.047675
Rotational constants in MHz :  5517.106927  1616.669768  1429.267516

                             ****ORCA TERMINATED NORMALLY****
TOTAL RUN TIME: 0 days 0 hours 44 minutes 8 seconds 584 msec
