                         Program Version 5.0.4 -  RELEASE  -
|  1> ! ri-mp2 aug-cc-pvdz aug-cc-pvdz/c tightscf
|  2> %pal nprocs 16 end
|  3> %maxcore 3800
|  4> %base "DZ_S-F_67_AB"
|  5> %scf
|  6> STABPerform true
|  7> STABRestartUHFifUnstable true
|  8> end
|  9>
| 10> *xyz 0 1
| 11> F         2.301625    0.258168    0.365613
| 12> S         1.150648   -0.730646   -0.205203
| 13> C        -0.298495    0.261954    0.246364
| 14> O        -1.305834   -0.513561   -0.309133
| 15> O        -0.261697    1.557493   -0.223520
| 16> C        -2.591324   -0.285777    0.246341
| 17> H        -2.605611   -0.548342    1.307492
| 18> H        -3.283446   -0.926444   -0.292883
| 19> H        -2.886311    0.757510    0.123681
| 20> H        -0.082707    1.534940   -1.172754
| 21> H        -0.387760    0.340637    1.332195
| 22> *
| 23>
| 24> $new_job
| 25> ! ri-mp2 aug-cc-pvtz aug-cc-pvtz/c tightscf
| 26> %pal nprocs 16 end
| 27> %maxcore 3800
| 28> %base "TZ_S-F_67_AB"
| 29>
| 30> *xyz 0 1
| 31> F         2.301625    0.258168    0.365613
| 32> S         1.150648   -0.730646   -0.205203
| 33> C        -0.298495    0.261954    0.246364
| 34> O        -1.305834   -0.513561   -0.309133
| 35> O        -0.261697    1.557493   -0.223520
| 36> C        -2.591324   -0.285777    0.246341
| 37> H        -2.605611   -0.548342    1.307492
| 38> H        -3.283446   -0.926444   -0.292883
| 39> H        -2.886311    0.757510    0.123681
| 40> H        -0.082707    1.534940   -1.172754
| 41> H        -0.387760    0.340637    1.332195
| 42> *
| 43>
| 44> $new_job
| 45> ! ri-mp2 aug-cc-pvqz aug-cc-pvqz/c tightscf
| 46> %pal nprocs 16 end
| 47> %maxcore 3800
| 48> %base "QZ_S-F_67_AB"
| 49>
| 50> *xyz 0 1
| 51> F         2.301625    0.258168    0.365613
| 52> S         1.150648   -0.730646   -0.205203
| 53> C        -0.298495    0.261954    0.246364
| 54> O        -1.305834   -0.513561   -0.309133
| 55> O        -0.261697    1.557493   -0.223520
| 56> C        -2.591324   -0.285777    0.246341
| 57> H        -2.605611   -0.548342    1.307492
| 58> H        -3.283446   -0.926444   -0.292883
| 59> H        -2.886311    0.757510    0.123681
| 60> H        -0.082707    1.534940   -1.172754
| 61> H        -0.387760    0.340637    1.332195
| 62> *
| 63>
| 64>
| 65>
| 66>
| 67>                          ****END OF INPUT****
 Total Charge           Charge          ....    0
 Multiplicity           Mult            ....    1
 Number of Electrons    NEL             ....   58
MP2 TOTAL ENERGY:     -726.370894475 Eh
FINAL SINGLE POINT ENERGY      -726.370894475302
MP2 TOTAL ENERGY:     -726.709404999 Eh
FINAL SINGLE POINT ENERGY      -726.709404999185

CARTESIAN COORDINATES (ANGSTROEM)
---------------------------------
  F      2.301625    0.258168    0.365613
  S      1.150648   -0.730646   -0.205203
  C     -0.298495    0.261954    0.246364
  O     -1.305834   -0.513561   -0.309133
  O     -0.261697    1.557493   -0.223520
  C     -2.591324   -0.285777    0.246341
  H     -2.605611   -0.548342    1.307492
  H     -3.283446   -0.926444   -0.292883
  H     -2.886311    0.757510    0.123681
  H     -0.082707    1.534940   -1.172754
  H     -0.387760    0.340637    1.332195

 Multiplicity           Mult            ....    1
 Number of Electrons    NEL             ....   58
 Basis Dimension        Dim             ....  714

ORBITAL ENERGIES
----------------

  NO   OCC          E(Eh)            E(eV)
   0   2.0000     -92.029372     -2504.2465
   1   2.0000     -26.305559      -715.8107
   2   2.0000     -20.592624      -560.3538
   3   2.0000     -20.589885      -560.2793
   4   2.0000     -11.383947      -309.7729
   5   2.0000     -11.292501      -307.2846
   6   2.0000      -9.024557      -245.5707
   7   2.0000      -6.706064      -182.4813
   8   2.0000      -6.703927      -182.4231
   9   2.0000      -6.702719      -182.3902
  10   2.0000      -1.605408       -43.6854
  11   2.0000      -1.453585       -39.5540
  12   2.0000      -1.375962       -37.4418
  13   2.0000      -1.036507       -28.2048
  14   2.0000      -0.942491       -25.6465
  15   2.0000      -0.876876       -23.8610
  16   2.0000      -0.744818       -20.2675
  17   2.0000      -0.717037       -19.5116
  18   2.0000      -0.710718       -19.3396
  19   2.0000      -0.684505       -18.6263
  20   2.0000      -0.673314       -18.3218
  21   2.0000      -0.623134       -16.9563
  22   2.0000      -0.617938       -16.8150
  23   2.0000      -0.601257       -16.3610
  24   2.0000      -0.561278       -15.2732
  25   2.0000      -0.509238       -13.8571
  26   2.0000      -0.475966       -12.9517
  27   2.0000      -0.456214       -12.4142
  28   2.0000      -0.378764       -10.3067
  29   0.0000       0.023932         0.6512
  30   0.0000       0.034012         0.9255
  31   0.0000       0.037712         1.0262
  32   0.0000       0.043677         1.1885
  33   0.0000       0.054677         1.4878

MULLIKEN ATOMIC CHARGES
-----------------------
   0 F :   -0.645503
   1 S :    0.472417
   2 C :    0.707492
   3 O :   -0.752597
   4 O :   -0.822917
   5 C :   -0.603410
   6 H :    0.282675
   7 H :    0.392466
   8 H :    0.289108
   9 H :    0.366681
  10 H :    0.313588
Sum of atomic charges:    0.0000000

LOEWDIN ATOMIC CHARGES
----------------------
   0 F :    0.069355
   1 S :    0.681111
   2 C :   -1.094976
   3 O :    0.751071
   4 O :    1.216051
   5 C :    0.577843
   6 H :   -0.309610
   7 H :   -0.322826
   8 H :   -0.311403
   9 H :   -0.817980
  10 H :   -0.438637

  Mayer bond orders larger than 0.100000
B(  0-F ,  1-S ) :   0.6014 B(  0-F ,  2-C ) :  -0.1241 B(  1-S ,  2-C ) :   0.8183
B(  2-C ,  3-O ) :   0.7235 B(  2-C ,  4-O ) :   0.6456 B(  2-C , 10-H ) :   0.8407
B(  3-O ,  5-C ) :   0.8592 B(  4-O ,  9-H ) :   0.8348 B(  5-C ,  6-H ) :   0.9112
B(  5-C ,  7-H ) :   0.8591 B(  5-C ,  8-H ) :   0.9103

MP2 TOTAL ENERGY:     -726.820099604 Eh
FINAL SINGLE POINT ENERGY      -726.820099604119

DIPOLE MOMENT
-------------
                                X             Y             Z
Electronic contribution:     10.15160      -1.01079      -0.92048
Nuclear contribution   :    -11.24968       0.91553       0.90800
                        -----------------------------------------
Total Dipole Moment    :     -1.09808      -0.09526      -0.01248
                        -----------------------------------------
Magnitude (a.u.)       :      1.10228
Magnitude (Debye)      :      2.80176

Rotational constants in cm-1:     0.210607     0.057951     0.048743
Rotational constants in MHz :  6313.835945  1737.340120  1461.291377

                             ****ORCA TERMINATED NORMALLY****
TOTAL RUN TIME: 0 days 0 hours 33 minutes 33 seconds 536 msec
