                         Program Version 5.0.4 -  RELEASE  -
|  1> ! ri-mp2 aug-cc-pvdz aug-cc-pvdz/c tightscf
|  2> %pal nprocs 16 end
|  3> %maxcore 3800
|  4> %base "DZ_B-F_38_AB"
|  5> %scf
|  6> STABPerform true
|  7> STABRestartUHFifUnstable true
|  8> end
|  9>
| 10> *xyz 0 1
| 11> F         2.448381   -0.046288    0.186025
| 12> F         1.135823    1.763422   -0.194919
| 13> B         1.276559    0.477421   -0.015951
| 14> S        -0.236940   -0.647435    0.000559
| 15> O        -0.564965   -0.861251    1.376430
| 16> O        -1.361121    0.233315   -0.671614
| 17> C        -2.089302    1.187076    0.124528
| 18> H        -2.918256    1.504508   -0.499558
| 19> H        -1.455675    2.040112    0.362646
| 20> H        -2.452658    0.715474    1.033020
| 21> O        -0.009814   -1.730177   -0.891368
| 22> *
| 23>
| 24> $new_job
| 25> ! ri-mp2 aug-cc-pvtz aug-cc-pvtz/c tightscf
| 26> %pal nprocs 16 end
| 27> %maxcore 3800
| 28> %base "TZ_B-F_38_AB"
| 29>
| 30> *xyz 0 1
| 31> F         2.448381   -0.046288    0.186025
| 32> F         1.135823    1.763422   -0.194919
| 33> B         1.276559    0.477421   -0.015951
| 34> S        -0.236940   -0.647435    0.000559
| 35> O        -0.564965   -0.861251    1.376430
| 36> O        -1.361121    0.233315   -0.671614
| 37> C        -2.089302    1.187076    0.124528
| 38> H        -2.918256    1.504508   -0.499558
| 39> H        -1.455675    2.040112    0.362646
| 40> H        -2.452658    0.715474    1.033020
| 41> O        -0.009814   -1.730177   -0.891368
| 42> *
| 43>
| 44> $new_job
| 45> ! ri-mp2 aug-cc-pvqz aug-cc-pvqz/c tightscf
| 46> %pal nprocs 16 end
| 47> %maxcore 3800
| 48> %base "QZ_B-F_38_AB"
| 49>
| 50> *xyz 0 1
| 51> F         2.448381   -0.046288    0.186025
| 52> F         1.135823    1.763422   -0.194919
| 53> B         1.276559    0.477421   -0.015951
| 54> S        -0.236940   -0.647435    0.000559
| 55> O        -0.564965   -0.861251    1.376430
| 56> O        -1.361121    0.233315   -0.671614
| 57> C        -2.089302    1.187076    0.124528
| 58> H        -2.918256    1.504508   -0.499558
| 59> H        -1.455675    2.040112    0.362646
| 60> H        -2.452658    0.715474    1.033020
| 61> O        -0.009814   -1.730177   -0.891368
| 62> *
| 63>
| 64>
| 65>
| 66>
| 67>                          ****END OF INPUT****
 Total Charge           Charge          ....    0
 Multiplicity           Mult            ....    1
 Number of Electrons    NEL             ....   72
MP2 TOTAL ENERGY:     -886.743137187 Eh
FINAL SINGLE POINT ENERGY      -886.743137186582
MP2 TOTAL ENERGY:     -887.267401738 Eh
FINAL SINGLE POINT ENERGY      -887.267401737517

CARTESIAN COORDINATES (ANGSTROEM)
---------------------------------
  F      2.448381   -0.046288    0.186025
  F      1.135823    1.763422   -0.194919
  B      1.276559    0.477421   -0.015951
  S     -0.236940   -0.647435    0.000559
  O     -0.564965   -0.861251    1.376430
  O     -1.361121    0.233315   -0.671614
  C     -2.089302    1.187076    0.124528
  H     -2.918256    1.504508   -0.499558
  H     -1.455675    2.040112    0.362646
  H     -2.452658    0.715474    1.033020
  O     -0.009814   -1.730177   -0.891368

 Multiplicity           Mult            ....    1
 Number of Electrons    NEL             ....   72
 Basis Dimension        Dim             ....  782

ORBITAL ENERGIES
----------------

  NO   OCC          E(Eh)            E(eV)
   0   2.0000     -92.215890     -2509.3219
   1   2.0000     -26.369418      -717.5483
   2   2.0000     -26.364099      -717.4036
   3   2.0000     -20.637444      -561.5734
   4   2.0000     -20.575050      -559.8756
   5   2.0000     -20.570139      -559.7419
   6   2.0000     -11.317089      -307.9536
   7   2.0000      -9.182168      -249.8595
   8   2.0000      -7.785249      -211.8474
   9   2.0000      -6.868566      -186.9032
  10   2.0000      -6.866980      -186.8600
  11   2.0000      -6.866864      -186.8569
  12   2.0000      -1.701607       -46.3031
  13   2.0000      -1.672221       -45.5034
  14   2.0000      -1.529550       -41.6212
  15   2.0000      -1.412980       -38.4491
  16   2.0000      -1.379951       -37.5504
  17   2.0000      -1.014920       -27.6174
  18   2.0000      -0.916021       -24.9262
  19   2.0000      -0.861671       -23.4473
  20   2.0000      -0.821046       -22.3418
  21   2.0000      -0.798299       -21.7228
  22   2.0000      -0.767906       -20.8958
  23   2.0000      -0.740482       -20.1495
  24   2.0000      -0.719630       -19.5821
  25   2.0000      -0.711601       -19.3637
  26   2.0000      -0.706795       -19.2329
  27   2.0000      -0.704216       -19.1627
  28   2.0000      -0.659480       -17.9454
  29   2.0000      -0.643305       -17.5052
  30   2.0000      -0.579463       -15.7680
  31   2.0000      -0.549380       -14.9494
  32   2.0000      -0.530827       -14.4445
  33   2.0000      -0.522204       -14.2099
  34   2.0000      -0.502623       -13.6771
  35   2.0000      -0.480328       -13.0704
  36   0.0000       0.019874         0.5408
  37   0.0000       0.030548         0.8313
  38   0.0000       0.033237         0.9044
  39   0.0000       0.040463         1.1011
  40   0.0000       0.049234         1.3397

MULLIKEN ATOMIC CHARGES
-----------------------
   0 F :   -0.795224
   1 F :   -0.756586
   2 B :    1.646185
   3 S :    2.678415
   4 O :   -1.158761
   5 O :   -0.777842
   6 C :   -0.674244
   7 H :    0.435853
   8 H :    0.307784
   9 H :    0.312185
  10 O :   -1.217765
Sum of atomic charges:    0.0000000

LOEWDIN ATOMIC CHARGES
----------------------
   0 F :    0.816079
   1 F :    0.821129
   2 B :   -1.874494
   3 S :   -0.497707
   4 O :    0.311939
   5 O :    0.592801
   6 C :    0.547025
   7 H :   -0.321465
   8 H :   -0.327561
   9 H :   -0.349543
  10 O :    0.281799

  Mayer bond orders larger than 0.100000
B(  0-F ,  2-B ) :   0.3248 B(  1-F ,  2-B ) :   0.3320 B(  2-B ,  3-S ) :   0.8602
B(  3-S ,  4-O ) :   1.1706 B(  3-S ,  5-O ) :   0.6974 B(  3-S , 10-O ) :   1.0942
B(  5-O ,  6-C ) :   0.8396 B(  6-C ,  7-H ) :   0.8214 B(  6-C ,  8-H ) :   0.8866
B(  6-C ,  9-H ) :   0.8811

MP2 TOTAL ENERGY:     -887.437003084 Eh
FINAL SINGLE POINT ENERGY      -887.437003084349

DIPOLE MOMENT
-------------
                                X             Y             Z
Electronic contribution:     10.38682      -0.40429      -0.80615
Nuclear contribution   :    -10.72968       2.03198       0.85963
                        -----------------------------------------
Total Dipole Moment    :     -0.34286       1.62769       0.05347
                        -----------------------------------------
Magnitude (a.u.)       :      1.66427
Magnitude (Debye)      :      4.23023

Rotational constants in cm-1:     0.079712     0.053444     0.040095
Rotational constants in MHz :  2389.720360  1602.199726  1202.006260

                             ****ORCA TERMINATED NORMALLY****
TOTAL RUN TIME: 0 days 0 hours 59 minutes 59 seconds 250 msec
