                         Program Version 5.0.4 -  RELEASE  -
|  1> ! ri-mp2 aug-cc-pvdz aug-cc-pvdz/c tightscf
|  2> %pal nprocs 16 end
|  3> %maxcore 3800
|  4> %base "DZ_Si-Si_139_AB"
|  5> %scf
|  6> STABPerform true
|  7> STABRestartUHFifUnstable true
|  8> end
|  9>
| 10> *xyz 0 1
| 11> Si        -1.890605   -0.386023   -0.005533
| 12> Si         0.074019    0.876472    0.014386
| 13> H        -1.958686   -1.202566   -1.237695
| 14> H        -3.077743    0.496101    0.051139
| 15> H        -1.918224   -1.293211    1.164349
| 16> P         1.845997   -0.518493   -0.108069
| 17> H         0.104909    1.743219    1.215519
| 18> H         0.118291    1.748448   -1.182167
| 19> H         1.674343   -1.029765    1.199691
| 20> H         2.799350    0.448887    0.286247
| 21> *
| 22>
| 23> $new_job
| 24> ! ri-mp2 aug-cc-pvtz aug-cc-pvtz/c tightscf
| 25> %pal nprocs 16 end
| 26> %maxcore 3800
| 27> %base "TZ_Si-Si_139_AB"
| 28>
| 29> *xyz 0 1
| 30> Si        -1.890605   -0.386023   -0.005533
| 31> Si         0.074019    0.876472    0.014386
| 32> H        -1.958686   -1.202566   -1.237695
| 33> H        -3.077743    0.496101    0.051139
| 34> H        -1.918224   -1.293211    1.164349
| 35> P         1.845997   -0.518493   -0.108069
| 36> H         0.104909    1.743219    1.215519
| 37> H         0.118291    1.748448   -1.182167
| 38> H         1.674343   -1.029765    1.199691
| 39> H         2.799350    0.448887    0.286247
| 40> *
| 41>
| 42> $new_job
| 43> ! ri-mp2 aug-cc-pvqz aug-cc-pvqz/c tightscf
| 44> %pal nprocs 16 end
| 45> %maxcore 3800
| 46> %base "QZ_Si-Si_139_AB"
| 47>
| 48> *xyz 0 1
| 49> Si        -1.890605   -0.386023   -0.005533
| 50> Si         0.074019    0.876472    0.014386
| 51> H        -1.958686   -1.202566   -1.237695
| 52> H        -3.077743    0.496101    0.051139
| 53> H        -1.918224   -1.293211    1.164349
| 54> P         1.845997   -0.518493   -0.108069
| 55> H         0.104909    1.743219    1.215519
| 56> H         0.118291    1.748448   -1.182167
| 57> H         1.674343   -1.029765    1.199691
| 58> H         2.799350    0.448887    0.286247
| 59> *
| 60>
| 61>
| 62>
| 63>
| 64>                          ****END OF INPUT****
 Total Charge           Charge          ....    0
 Multiplicity           Mult            ....    1
 Number of Electrons    NEL             ....   50
MP2 TOTAL ENERGY:     -923.021924042 Eh
FINAL SINGLE POINT ENERGY      -923.021924042201
MP2 TOTAL ENERGY:     -923.140362487 Eh
FINAL SINGLE POINT ENERGY      -923.140362486602

CARTESIAN COORDINATES (ANGSTROEM)
---------------------------------
  Si    -1.890605   -0.386023   -0.005533
  Si     0.074019    0.876472    0.014386
  H     -1.958686   -1.202566   -1.237695
  H     -3.077743    0.496101    0.051139
  H     -1.918224   -1.293211    1.164349
  P      1.845997   -0.518493   -0.108069
  H      0.104909    1.743219    1.215519
  H      0.118291    1.748448   -1.182167
  H      1.674343   -1.029765    1.199691
  H      2.799350    0.448887    0.286247

 Multiplicity           Mult            ....    1
 Number of Electrons    NEL             ....   50
 Basis Dimension        Dim             ....  574

ORBITAL ENERGIES
----------------

  NO   OCC          E(Eh)            E(eV)
   0   2.0000     -79.937227     -2175.2025
   1   2.0000     -68.778564     -1871.5599
   2   2.0000     -68.770347     -1871.3363
   3   2.0000      -7.481816      -203.5906
   4   2.0000      -6.128416      -166.7627
   5   2.0000      -6.121241      -166.5674
   6   2.0000      -5.375615      -146.2779
   7   2.0000      -5.375358      -146.2709
   8   2.0000      -5.374707      -146.2532
   9   2.0000      -4.234576      -115.2287
  10   2.0000      -4.234402      -115.2239
  11   2.0000      -4.234228      -115.2192
  12   2.0000      -4.227321      -115.0313
  13   2.0000      -4.227290      -115.0304
  14   2.0000      -4.227278      -115.0301
  15   2.0000      -0.859563       -23.3899
  16   2.0000      -0.744562       -20.2606
  17   2.0000      -0.663181       -18.0461
  18   2.0000      -0.534001       -14.5309
  19   2.0000      -0.508894       -13.8477
  20   2.0000      -0.491811       -13.3828
  21   2.0000      -0.479320       -13.0430
  22   2.0000      -0.452742       -12.3197
  23   2.0000      -0.399999       -10.8845
  24   2.0000      -0.368994       -10.0408
  25   0.0000       0.025667         0.6984
  26   0.0000       0.030202         0.8218
  27   0.0000       0.034603         0.9416
  28   0.0000       0.041325         1.1245
  29   0.0000       0.048774         1.3272

MULLIKEN ATOMIC CHARGES
-----------------------
   0 Si:    0.419311
   1 Si:    0.537529
   2 H :   -0.141259
   3 H :   -0.158265
   4 H :   -0.150317
   5 P :   -0.016873
   6 H :   -0.181802
   7 H :   -0.194590
   8 H :   -0.055603
   9 H :   -0.058131
Sum of atomic charges:   -0.0000000

LOEWDIN ATOMIC CHARGES
----------------------
   0 Si:    0.964022
   1 Si:    0.400740
   2 H :   -0.318142
   3 H :   -0.320863
   4 H :   -0.318460
   5 P :    1.352391
   6 H :   -0.310835
   7 H :   -0.322929
   8 H :   -0.561987
   9 H :   -0.563937

  Mayer bond orders larger than 0.100000
B(  0-Si,  1-Si) :   0.7249 B(  0-Si,  2-H ) :   0.7962 B(  0-Si,  3-H ) :   0.7953
B(  0-Si,  4-H ) :   0.7941 B(  1-Si,  5-P ) :   0.8573 B(  1-Si,  6-H ) :   0.8098
B(  1-Si,  7-H ) :   0.8032 B(  5-P ,  8-H ) :   0.9022 B(  5-P ,  9-H ) :   0.9172

MP2 TOTAL ENERGY:     -923.178890556 Eh
FINAL SINGLE POINT ENERGY      -923.178890555508

DIPOLE MOMENT
-------------
                                X             Y             Z
Electronic contribution:      3.85030      -1.17004      -1.36322
Nuclear contribution   :     -3.89319       1.37078       1.59440
                        -----------------------------------------
Total Dipole Moment    :     -0.04288       0.20074       0.23118
                        -----------------------------------------
Magnitude (a.u.)       :      0.30916
Magnitude (Debye)      :      0.78582

Rotational constants in cm-1:     0.321473     0.069789     0.060476
Rotational constants in MHz :  9637.531224  2092.208495  1813.011981

                             ****ORCA TERMINATED NORMALLY****
TOTAL RUN TIME: 0 days 0 hours 21 minutes 27 seconds 413 msec
