                         Program Version 5.0.4 -  RELEASE  -
|  1> ! ri-mp2 aug-cc-pvdz aug-cc-pvdz/c tightscf
|  2> %pal nprocs 16 end
|  3> %maxcore 3800
|  4> %base "DZ_B-F_9_A"
|  5> %scf
|  6> STABPerform true
|  7> STABRestartUHFifUnstable true
|  8> end
|  9>
| 10> *xyz 0 2
| 11> F        -2.033185   -0.065068    0.044814
| 12> B        -0.909786   -0.606139   -0.314623
| 13> C         0.464320   -0.058550    0.305437
| 14> F         1.538359   -0.781928   -0.097994
| 15> F         0.639153    1.227404   -0.131369
| 16> H         0.464067   -0.041680    1.401430
| 17> *
| 18>
| 19> $new_job
| 20> ! ri-mp2 aug-cc-pvtz aug-cc-pvtz/c tightscf
| 21> %pal nprocs 16 end
| 22> %maxcore 3800
| 23> %base "TZ_B-F_9_A"
| 24>
| 25> *xyz 0 2
| 26> F        -2.033185   -0.065068    0.044814
| 27> B        -0.909786   -0.606139   -0.314623
| 28> C         0.464320   -0.058550    0.305437
| 29> F         1.538359   -0.781928   -0.097994
| 30> F         0.639153    1.227404   -0.131369
| 31> H         0.464067   -0.041680    1.401430
| 32> *
| 33>
| 34> $new_job
| 35> ! ri-mp2 aug-cc-pvqz aug-cc-pvqz/c tightscf
| 36> %pal nprocs 16 end
| 37> %maxcore 3800
| 38> %base "QZ_B-F_9_A"
| 39>
| 40> *xyz 0 2
| 41> F        -2.033185   -0.065068    0.044814
| 42> B        -0.909786   -0.606139   -0.314623
| 43> C         0.464320   -0.058550    0.305437
| 44> F         1.538359   -0.781928   -0.097994
| 45> F         0.639153    1.227404   -0.131369
| 46> H         0.464067   -0.041680    1.401430
| 47> *
| 48>
| 49>
| 50>
| 51>
| 52>                          ****END OF INPUT****
 Total Charge           Charge          ....    0
 Multiplicity           Mult            ....    2
 Number of Electrons    NEL             ....   39
MP2 TOTAL ENERGY:     -362.270131935 Eh
FINAL SINGLE POINT ENERGY      -362.270131935398
MP2 TOTAL ENERGY:     -362.574981205 Eh
FINAL SINGLE POINT ENERGY      -362.574981204760

CARTESIAN COORDINATES (ANGSTROEM)
---------------------------------
  F     -2.033185   -0.065068    0.044814
  B     -0.909786   -0.606139   -0.314623
  C      0.464320   -0.058550    0.305437
  F      1.538359   -0.781928   -0.097994
  F      0.639153    1.227404   -0.131369
  H      0.464067   -0.041680    1.401430

 Multiplicity           Mult            ....    2
 Number of Electrons    NEL             ....   39
 Basis Dimension        Dim             ....  446

ORBITAL ENERGIES
----------------
                 SPIN UP ORBITALS
  NO   OCC          E(Eh)            E(eV)
   0   1.0000     -26.348551      -716.9805
   1   1.0000     -26.318940      -716.1748
   2   1.0000     -26.316227      -716.1009
   3   1.0000     -11.406745      -310.3933
   4   1.0000      -7.717063      -209.9920
   5   1.0000      -1.670353       -45.4526
   6   1.0000      -1.664908       -45.3044
   7   1.0000      -1.607119       -43.7319
   8   1.0000      -0.984650       -26.7937
   9   1.0000      -0.836117       -22.7519
  10   1.0000      -0.785471       -21.3737
  11   1.0000      -0.780824       -21.2473
  12   1.0000      -0.763810       -20.7843
  13   1.0000      -0.731100       -19.8942
  14   1.0000      -0.715973       -19.4826
  15   1.0000      -0.675996       -18.3948
  16   1.0000      -0.640853       -17.4385
  17   1.0000      -0.625379       -17.0174
  18   1.0000      -0.549421       -14.9505
  19   1.0000      -0.388890       -10.5822
  20   0.0000       0.024271         0.6604
  21   0.0000       0.032250         0.8776
  22   0.0000       0.036935         1.0050
  23   0.0000       0.040337         1.0976
  24   0.0000       0.065399         1.7796

                 SPIN DOWN ORBITALS
  NO   OCC          E(Eh)            E(eV)
   0   1.0000     -26.345446      -716.8960
   1   1.0000     -26.318508      -716.1630
   2   1.0000     -26.316690      -716.1135
   3   1.0000     -11.403073      -310.2934
   4   1.0000      -7.696790      -209.4403
   5   1.0000      -1.667172       -45.3660
   6   1.0000      -1.658967       -45.1428
   7   1.0000      -1.606968       -43.7278
   8   1.0000      -0.973507       -26.4905
   9   1.0000      -0.823803       -22.4168
  10   1.0000      -0.782666       -21.2974
  11   1.0000      -0.767623       -20.8881
  12   1.0000      -0.761280       -20.7155
  13   1.0000      -0.717550       -19.5255
  14   1.0000      -0.706648       -19.2289
  15   1.0000      -0.675591       -18.3838
  16   1.0000      -0.640522       -17.4295
  17   1.0000      -0.618376       -16.8269
  18   1.0000      -0.521548       -14.1920
  19   0.0000       0.018790         0.5113
  20   0.0000       0.033548         0.9129
  21   0.0000       0.036973         1.0061
  22   0.0000       0.039239         1.0678
  23   0.0000       0.060585         1.6486

MULLIKEN ATOMIC CHARGES AND SPIN POPULATIONS
--------------------------------------------
   0 F :   -0.656993   -0.017098
   1 B :    0.810449    0.979161
   2 C :    0.766044    0.033168
   3 F :   -0.594655   -0.011902
   4 F :   -0.599704    0.007058
   5 H :    0.274859    0.009614
Sum of atomic charges         :    0.0000000

LOEWDIN ATOMIC CHARGES AND SPIN POPULATIONS
-------------------------------------------
   0 F :    0.731587    0.153937
   1 B :   -0.703697    0.609669
   2 C :   -1.025953    0.181627
   3 F :    0.721529    0.012583
   4 F :    0.724397    0.018610
   5 H :   -0.447863    0.023575

  Mayer bond orders larger than 0.100000
B(  0-F ,  1-B ) :   0.4987 B(  1-B ,  2-C ) :   0.9280 B(  2-C ,  3-F ) :   0.5881
B(  2-C ,  4-F ) :   0.5622 B(  2-C ,  5-H ) :   0.8493

MP2 TOTAL ENERGY:     -362.674437471 Eh
FINAL SINGLE POINT ENERGY      -362.674437470706

DIPOLE MOMENT
-------------
                                X             Y             Z
Electronic contribution:     -1.30322      -0.35008      -1.19096
Nuclear contribution   :      0.95575       0.06440       1.66495
                        -----------------------------------------
Total Dipole Moment    :     -0.34747      -0.28568       0.47399
                        -----------------------------------------
Magnitude (a.u.)       :      0.65347
Magnitude (Debye)      :      1.66098

Rotational constants in cm-1:     0.344003     0.114155     0.089988
Rotational constants in MHz : 10312.938174  3422.279131  2697.775686

                             ****ORCA TERMINATED NORMALLY****
TOTAL RUN TIME: 0 days 0 hours 13 minutes 51 seconds 196 msec
