                         Program Version 5.0.4 -  RELEASE  -
|  1> ! ri-mp2 aug-cc-pvdz aug-cc-pvdz/c tightscf
|  2> %pal nprocs 16 end
|  3> %maxcore 3800
|  4> %base "DZ_P-C_37_AB"
|  5>
|  6> *xyz 0 1
|  7> P        -0.663798    0.000005   -0.624658
|  8> C        -1.261635   -1.414538    0.356107
|  9> H        -1.061458   -1.305178    1.420871
| 10> H        -0.798021   -2.328287   -0.007027
| 11> H        -2.338796   -1.489812    0.198327
| 12> N         1.078849   -0.000003   -0.018269
| 13> O         1.621311   -1.075704    0.125008
| 14> O         1.621328    1.075693    0.124989
| 15> C        -1.261626    1.414542    0.356122
| 16> H        -2.338787    1.489824    0.198342
| 17> H        -0.798007    2.328292   -0.007002
| 18> H        -1.061449    1.305169    1.420885
| 19> *
| 20>
| 21> $new_job
| 22> ! ri-mp2 aug-cc-pvtz aug-cc-pvtz/c tightscf
| 23> %pal nprocs 16 end
| 24> %maxcore 3800
| 25> %base "TZ_P-C_37_AB"
| 26>
| 27> *xyz 0 1
| 28> P        -0.663798    0.000005   -0.624658
| 29> C        -1.261635   -1.414538    0.356107
| 30> H        -1.061458   -1.305178    1.420871
| 31> H        -0.798021   -2.328287   -0.007027
| 32> H        -2.338796   -1.489812    0.198327
| 33> N         1.078849   -0.000003   -0.018269
| 34> O         1.621311   -1.075704    0.125008
| 35> O         1.621328    1.075693    0.124989
| 36> C        -1.261626    1.414542    0.356122
| 37> H        -2.338787    1.489824    0.198342
| 38> H        -0.798007    2.328292   -0.007002
| 39> H        -1.061449    1.305169    1.420885
| 40> *
| 41>
| 42> $new_job
| 43> ! ri-mp2 aug-cc-pvqz aug-cc-pvqz/c tightscf
| 44> %pal nprocs 16 end
| 45> %maxcore 3800
| 46> %base "QZ_P-C_37_AB"
| 47>
| 48> *xyz 0 1
| 49> P        -0.663798    0.000005   -0.624658
| 50> C        -1.261635   -1.414538    0.356107
| 51> H        -1.061458   -1.305178    1.420871
| 52> H        -0.798021   -2.328287   -0.007027
| 53> H        -2.338796   -1.489812    0.198327
| 54> N         1.078849   -0.000003   -0.018269
| 55> O         1.621311   -1.075704    0.125008
| 56> O         1.621328    1.075693    0.124989
| 57> C        -1.261626    1.414542    0.356122
| 58> H        -2.338787    1.489824    0.198342
| 59> H        -0.798007    2.328292   -0.007002
| 60> H        -1.061449    1.305169    1.420885
| 61> *
| 62>
| 63>
| 64>
| 65>
| 66>                          ****END OF INPUT****
 Total Charge           Charge          ....    0
 Multiplicity           Mult            ....    1
 Number of Electrons    NEL             ....   56
MP2 TOTAL ENERGY:     -625.082109196 Eh
FINAL SINGLE POINT ENERGY      -625.082109196192
MP2 TOTAL ENERGY:     -625.373456415 Eh
FINAL SINGLE POINT ENERGY      -625.373456414599

CARTESIAN COORDINATES (ANGSTROEM)
---------------------------------
  P     -0.663798    0.000005   -0.624658
  C     -1.261635   -1.414538    0.356107
  H     -1.061458   -1.305178    1.420871
  H     -0.798021   -2.328287   -0.007027
  H     -2.338796   -1.489812    0.198327
  N      1.078849   -0.000003   -0.018269
  O      1.621311   -1.075704    0.125008
  O      1.621328    1.075693    0.124989
  C     -1.261626    1.414542    0.356122
  H     -2.338787    1.489824    0.198342
  H     -0.798007    2.328292   -0.007002
  H     -1.061449    1.305169    1.420885

 Multiplicity           Mult            ....    1
 Number of Electrons    NEL             ....   56
 Basis Dimension        Dim             ....  760

ORBITAL ENERGIES
----------------

  NO   OCC          E(Eh)            E(eV)
   0   2.0000     -80.003537     -2177.0069
   1   2.0000     -20.595516      -560.4325
   2   2.0000     -20.595464      -560.4311
   3   2.0000     -15.823954      -430.5917
   4   2.0000     -11.251078      -306.1574
   5   2.0000     -11.251068      -306.1571
   6   2.0000      -7.542932      -205.2536
   7   2.0000      -5.437052      -147.9497
   8   2.0000      -5.435800      -147.9156
   9   2.0000      -5.434825      -147.8891
  10   2.0000      -1.600387       -43.5488
  11   2.0000      -1.397605       -38.0308
  12   2.0000      -1.062730       -28.9184
  13   2.0000      -0.972587       -26.4654
  14   2.0000      -0.943775       -25.6814
  15   2.0000      -0.796920       -21.6853
  16   2.0000      -0.720524       -19.6065
  17   2.0000      -0.711364       -19.3572
  18   2.0000      -0.694178       -18.8895
  19   2.0000      -0.617323       -16.7982
  20   2.0000      -0.595801       -16.2126
  21   2.0000      -0.592458       -16.1216
  22   2.0000      -0.587961       -15.9992
  23   2.0000      -0.511461       -13.9176
  24   2.0000      -0.486079       -13.2269
  25   2.0000      -0.465470       -12.6661
  26   2.0000      -0.451511       -12.2862
  27   2.0000      -0.390574       -10.6281
  28   0.0000       0.019082         0.5193
  29   0.0000       0.030411         0.8275
  30   0.0000       0.035333         0.9614
  31   0.0000       0.041222         1.1217
  32   0.0000       0.052405         1.4260

MULLIKEN ATOMIC CHARGES
-----------------------
   0 P :    0.878849
   1 C :   -1.149735
   2 H :    0.280558
   3 H :    0.370470
   4 H :    0.340052
   5 N :    0.652706
   6 O :   -0.607122
   7 O :   -0.607122
   8 C :   -1.149734
   9 H :    0.340050
  10 H :    0.370471
  11 H :    0.280558
Sum of atomic charges:    0.0000000

LOEWDIN ATOMIC CHARGES
----------------------
   0 P :    0.809005
   1 C :    0.756904
   2 H :   -0.345555
   3 H :   -0.372899
   4 H :   -0.357437
   5 N :   -1.047050
   6 O :    0.438010
   7 O :    0.438008
   8 C :    0.756905
   9 H :   -0.357436
  10 H :   -0.372900
  11 H :   -0.345554

  Mayer bond orders larger than 0.100000
B(  0-P ,  1-C ) :   0.9409 B(  0-P ,  5-N ) :   0.6023 B(  0-P ,  8-C ) :   0.9409
B(  1-C ,  2-H ) :   0.9077 B(  1-C ,  3-H ) :   0.8619 B(  1-C ,  4-H ) :   0.8927
B(  5-N ,  6-O ) :   1.2841 B(  5-N ,  7-O ) :   1.2841 B(  6-O ,  7-O ) :   0.1443
B(  8-C ,  9-H ) :   0.8927 B(  8-C , 10-H ) :   0.8619 B(  8-C , 11-H ) :   0.9077

MP2 TOTAL ENERGY:     -625.467829889 Eh
FINAL SINGLE POINT ENERGY      -625.467829889223

DIPOLE MOMENT
-------------
                                X             Y             Z
Electronic contribution:      5.64455      -0.00000      -3.56158
Nuclear contribution   :     -7.57176       0.00000       3.75611
                        -----------------------------------------
Total Dipole Moment    :     -1.92721       0.00000       0.19453
                        -----------------------------------------
Magnitude (a.u.)       :      1.93700
Magnitude (Debye)      :      4.92347

Rotational constants in cm-1:     0.136567     0.090639     0.062342
Rotational constants in MHz :  4094.164007  2717.302356  1868.968924

                             ****ORCA TERMINATED NORMALLY****
TOTAL RUN TIME: 0 days 0 hours 11 minutes 30 seconds 999 msec
