                         Program Version 5.0.4 -  RELEASE  -
|  1> ! ri-mp2 aug-cc-pvdz aug-cc-pvdz/c tightscf
|  2> %pal nprocs 16 end
|  3> %maxcore 3800
|  4> %base "DZ_S-F_73_AB"
|  5> %scf
|  6> STABPerform true
|  7> STABRestartUHFifUnstable true
|  8> end
|  9>
| 10> *xyz 0 1
| 11> F        -1.762228    0.959336   -0.000012
| 12> S        -1.194032   -0.557923    0.000008
| 13> N         0.407334   -0.527660   -0.000016
| 14> N         1.145015    0.454280   -0.000002
| 15> C         2.557583    0.108620    0.000010
| 16> H         3.015945    0.562369   -0.879308
| 17> H         2.720740   -0.970043    0.000006
| 18> H         3.015936    0.562361    0.879338
| 19> *
| 20>
| 21> $new_job
| 22> ! ri-mp2 aug-cc-pvtz aug-cc-pvtz/c tightscf
| 23> %pal nprocs 16 end
| 24> %maxcore 3800
| 25> %base "TZ_S-F_73_AB"
| 26>
| 27> *xyz 0 1
| 28> F        -1.762228    0.959336   -0.000012
| 29> S        -1.194032   -0.557923    0.000008
| 30> N         0.407334   -0.527660   -0.000016
| 31> N         1.145015    0.454280   -0.000002
| 32> C         2.557583    0.108620    0.000010
| 33> H         3.015945    0.562369   -0.879308
| 34> H         2.720740   -0.970043    0.000006
| 35> H         3.015936    0.562361    0.879338
| 36> *
| 37>
| 38> $new_job
| 39> ! ri-mp2 aug-cc-pvqz aug-cc-pvqz/c tightscf
| 40> %pal nprocs 16 end
| 41> %maxcore 3800
| 42> %base "QZ_S-F_73_AB"
| 43>
| 44> *xyz 0 1
| 45> F        -1.762228    0.959336   -0.000012
| 46> S        -1.194032   -0.557923    0.000008
| 47> N         0.407334   -0.527660   -0.000016
| 48> N         1.145015    0.454280   -0.000002
| 49> C         2.557583    0.108620    0.000010
| 50> H         3.015945    0.562369   -0.879308
| 51> H         2.720740   -0.970043    0.000006
| 52> H         3.015936    0.562361    0.879338
| 53> *
| 54>
| 55>
| 56>
| 57>
| 58>                          ****END OF INPUT****
 Total Charge           Charge          ....    0
 Multiplicity           Mult            ....    1
 Number of Electrons    NEL             ....   48
MP2 TOTAL ENERGY:     -646.247561409 Eh
FINAL SINGLE POINT ENERGY      -646.247561409372
MP2 TOTAL ENERGY:     -646.515832137 Eh
FINAL SINGLE POINT ENERGY      -646.515832136919

CARTESIAN COORDINATES (ANGSTROEM)
---------------------------------
  F     -1.762228    0.959336   -0.000012
  S     -1.194032   -0.557923    0.000008
  N      0.407334   -0.527660   -0.000016
  N      1.145015    0.454280   -0.000002
  C      2.557583    0.108620    0.000010
  H      3.015945    0.562369   -0.879308
  H      2.720740   -0.970043    0.000006
  H      3.015936    0.562361    0.879338

 Multiplicity           Mult            ....    1
 Number of Electrons    NEL             ....   48
 Basis Dimension        Dim             ....  542

ORBITAL ENERGIES
----------------

  NO   OCC          E(Eh)            E(eV)
   0   2.0000     -92.070658     -2505.3700
   1   2.0000     -26.316945      -716.1205
   2   2.0000     -15.671639      -426.4470
   3   2.0000     -15.643130      -425.6712
   4   2.0000     -11.266771      -306.5844
   5   2.0000      -9.062919      -246.6146
   6   2.0000      -6.744560      -183.5288
   7   2.0000      -6.742035      -183.4601
   8   2.0000      -6.740799      -183.4265
   9   2.0000      -1.617650       -44.0185
  10   2.0000      -1.403850       -38.2007
  11   2.0000      -1.118932       -30.4477
  12   2.0000      -0.971007       -26.4224
  13   2.0000      -0.821666       -22.3587
  14   2.0000      -0.720671       -19.6104
  15   2.0000      -0.702380       -19.1127
  16   2.0000      -0.700825       -19.0704
  17   2.0000      -0.650773       -17.7084
  18   2.0000      -0.637187       -17.3387
  19   2.0000      -0.576053       -15.6752
  20   2.0000      -0.544624       -14.8200
  21   2.0000      -0.541689       -14.7401
  22   2.0000      -0.410845       -11.1797
  23   2.0000      -0.371968       -10.1218
  24   0.0000       0.025810         0.7023
  25   0.0000       0.039723         1.0809
  26   0.0000       0.041016         1.1161
  27   0.0000       0.050828         1.3831
  28   0.0000       0.067836         1.8459

MULLIKEN ATOMIC CHARGES
-----------------------
   0 F :   -0.586004
   1 S :    0.990539
   2 N :   -0.465359
   3 N :   -0.204269
   4 C :   -0.639774
   5 H :    0.305501
   6 H :    0.293863
   7 H :    0.305503
Sum of atomic charges:    0.0000000

LOEWDIN ATOMIC CHARGES
----------------------
   0 F :    0.058370
   1 S :    0.474771
   2 N :   -0.349789
   3 N :    0.197589
   4 C :    0.636134
   5 H :   -0.331879
   6 H :   -0.353320
   7 H :   -0.331876

  Mayer bond orders larger than 0.100000
B(  0-F ,  1-S ) :   0.6062 B(  1-S ,  2-N ) :   1.0958 B(  2-N ,  3-N ) :   1.6541
B(  2-N ,  4-C ) :  -0.1004 B(  3-N ,  4-C ) :   0.8595 B(  4-C ,  5-H ) :   0.9043
B(  4-C ,  6-H ) :   0.9194 B(  4-C ,  7-H ) :   0.9043

MP2 TOTAL ENERGY:     -646.604188270 Eh
FINAL SINGLE POINT ENERGY      -646.604188270206

DIPOLE MOMENT
-------------
                                X             Y             Z
Electronic contribution:     -9.32831       0.29662      -0.00003
Nuclear contribution   :     10.09552      -0.74331       0.00005
                        -----------------------------------------
Total Dipole Moment    :      0.76721      -0.44669       0.00002
                        -----------------------------------------
Magnitude (a.u.)       :      0.88777
Magnitude (Debye)      :      2.25654

Rotational constants in cm-1:     0.449451     0.073237     0.063717
Rotational constants in MHz : 13474.207773  2195.583975  1910.194970

                             ****ORCA TERMINATED NORMALLY****
TOTAL RUN TIME: 0 days 0 hours 9 minutes 23 seconds 445 msec
