                         Program Version 5.0.4 -  RELEASE  -
|  1> ! ri-mp2 aug-cc-pvdz aug-cc-pvdz/c tightscf
|  2> %pal nprocs 16 end
|  3> %maxcore 3800
|  4> %base "DZ_Si-Cl_94_A"
|  5> %scf
|  6> STABPerform true
|  7> STABRestartUHFifUnstable true
|  8> end
|  9>
| 10> *xyz 0 2
| 11> Si         0.000001    0.384687    0.456960
| 12> Cl         1.677449   -0.629757   -0.108972
| 13> F        -0.000006    1.780689   -0.299154
| 14> Cl        -1.677446   -0.629762   -0.108972
| 15> *
| 16>
| 17> $new_job
| 18> ! ri-mp2 aug-cc-pvtz aug-cc-pvtz/c tightscf
| 19> %pal nprocs 16 end
| 20> %maxcore 3800
| 21> %base "TZ_Si-Cl_94_A"
| 22>
| 23> *xyz 0 2
| 24> Si         0.000001    0.384687    0.456960
| 25> Cl         1.677449   -0.629757   -0.108972
| 26> F        -0.000006    1.780689   -0.299154
| 27> Cl        -1.677446   -0.629762   -0.108972
| 28> *
| 29>
| 30> $new_job
| 31> ! ri-mp2 aug-cc-pvqz aug-cc-pvqz/c tightscf
| 32> %pal nprocs 16 end
| 33> %maxcore 3800
| 34> %base "QZ_Si-Cl_94_A"
| 35>
| 36> *xyz 0 2
| 37> Si         0.000001    0.384687    0.456960
| 38> Cl         1.677449   -0.629757   -0.108972
| 39> F        -0.000006    1.780689   -0.299154
| 40> Cl        -1.677446   -0.629762   -0.108972
| 41> *
| 42>
| 43>
| 44>
| 45>
| 46>                          ****END OF INPUT****
 Total Charge           Charge          ....    0
 Multiplicity           Mult            ....    2
 Number of Electrons    NEL             ....   57
MP2 TOTAL ENERGY:    -1308.090285475 Eh
FINAL SINGLE POINT ENERGY     -1308.090285474990
MP2 TOTAL ENERGY:    -1308.334273076 Eh
FINAL SINGLE POINT ENERGY     -1308.334273075681

CARTESIAN COORDINATES (ANGSTROEM)
---------------------------------
  Si     0.000001    0.384687    0.456960
  Cl     1.677449   -0.629757   -0.108972
  F     -0.000006    1.780689   -0.299154
  Cl    -1.677446   -0.629762   -0.108972

 Multiplicity           Mult            ....    2
 Number of Electrons    NEL             ....   57
 Basis Dimension        Dim             ....  332

ORBITAL ENERGIES
----------------
                 SPIN UP ORBITALS
  NO   OCC          E(Eh)            E(eV)
   0   1.0000    -104.857755     -2853.3246
   1   1.0000    -104.857755     -2853.3246
   2   1.0000     -68.914478     -1875.2583
   3   1.0000     -26.319316      -716.1850
   4   1.0000     -10.585030      -288.0333
   5   1.0000     -10.585026      -288.0332
   6   1.0000      -8.053595      -219.1495
   7   1.0000      -8.053593      -219.1494
   8   1.0000      -8.050351      -219.0612
   9   1.0000      -8.050350      -219.0612
  10   1.0000      -8.050117      -219.0548
  11   1.0000      -8.050117      -219.0548
  12   1.0000      -6.250747      -170.0915
  13   1.0000      -4.360582      -118.6575
  14   1.0000      -4.353677      -118.4696
  15   1.0000      -4.353544      -118.4659
  16   1.0000      -1.626313       -44.2542
  17   1.0000      -1.144258       -31.1369
  18   1.0000      -1.118315       -30.4309
  19   1.0000      -0.794946       -21.6316
  20   1.0000      -0.705530       -19.1984
  21   1.0000      -0.702123       -19.1057
  22   1.0000      -0.656840       -17.8735
  23   1.0000      -0.570016       -15.5109
  24   1.0000      -0.534493       -14.5443
  25   1.0000      -0.512363       -13.9421
  26   1.0000      -0.495364       -13.4795
  27   1.0000      -0.481144       -13.0926
  28   1.0000      -0.388582       -10.5739
  29   0.0000       0.037339         1.0160
  30   0.0000       0.041609         1.1322
  31   0.0000       0.041725         1.1354
  32   0.0000       0.043951         1.1960
  33   0.0000       0.083033         2.2594

                 SPIN DOWN ORBITALS
  NO   OCC          E(Eh)            E(eV)
   0   1.0000    -104.856315     -2853.2854
   1   1.0000    -104.856315     -2853.2854
   2   1.0000     -68.907867     -1875.0784
   3   1.0000     -26.316042      -716.0959
   4   1.0000     -10.583447      -287.9902
   5   1.0000     -10.583439      -287.9900
   6   1.0000      -8.049783      -219.0457
   7   1.0000      -8.049781      -219.0457
   8   1.0000      -8.049344      -219.0338
   9   1.0000      -8.049343      -219.0338
  10   1.0000      -8.047674      -218.9884
  11   1.0000      -8.047673      -218.9883
  12   1.0000      -6.239191      -169.7770
  13   1.0000      -4.349421      -118.3538
  14   1.0000      -4.349379      -118.3526
  15   1.0000      -4.341142      -118.1285
  16   1.0000      -1.616718       -43.9931
  17   1.0000      -1.132261       -30.8104
  18   1.0000      -1.107055       -30.1245
  19   1.0000      -0.774480       -21.0747
  20   1.0000      -0.699464       -19.0334
  21   1.0000      -0.689158       -18.7529
  22   1.0000      -0.628274       -17.0962
  23   1.0000      -0.551439       -15.0054
  24   1.0000      -0.515891       -14.0381
  25   1.0000      -0.508222       -13.8294
  26   1.0000      -0.488605       -13.2956
  27   1.0000      -0.478776       -13.0282
  28   0.0000       0.004600         0.1252
  29   0.0000       0.042714         1.1623
  30   0.0000       0.042722         1.1625
  31   0.0000       0.044427         1.2089
  32   0.0000       0.055153         1.5008

MULLIKEN ATOMIC CHARGES AND SPIN POPULATIONS
--------------------------------------------
   0 Si:    1.668581    0.865550
   1 Cl:   -0.482518    0.066817
   2 F :   -0.703545    0.000816
   3 Cl:   -0.482519    0.066817
Sum of atomic charges         :    0.0000000

LOEWDIN ATOMIC CHARGES AND SPIN POPULATIONS
-------------------------------------------
   0 Si:   -1.702156    0.597414
   1 Cl:    0.731477    0.148485
   2 F :    0.239204    0.105616
   3 Cl:    0.731475    0.148485

  Mayer bond orders larger than 0.100000
B(  0-Si,  1-Cl) :   0.7767 B(  0-Si,  2-F ) :   0.4335 B(  0-Si,  3-Cl) :   0.7767

MP2 TOTAL ENERGY:    -1308.417347015 Eh
FINAL SINGLE POINT ENERGY     -1308.417347015032

DIPOLE MOMENT
-------------
                                X             Y             Z
Electronic contribution:      0.00001      -0.09726      -0.11202
Nuclear contribution   :      0.00000       0.01814       0.52577
                        -----------------------------------------
Total Dipole Moment    :      0.00001      -0.07912       0.41375
                        -----------------------------------------
Magnitude (a.u.)       :      0.42125
Magnitude (Debye)      :      1.07073

Rotational constants in cm-1:     0.167037     0.081077     0.057725
Rotational constants in MHz :  5007.657017  2430.640056  1730.538928

                             ****ORCA TERMINATED NORMALLY****
TOTAL RUN TIME: 0 days 0 hours 6 minutes 1 seconds 689 msec
