                         Program Version 5.0.4 -  RELEASE  -
|  1> ! ri-mp2 aug-cc-pvdz aug-cc-pvdz/c tightscf
|  2> %pal nprocs 16 end
|  3> %maxcore 3800
|  4> %base "DZ_Si-Si_113_AB"
|  5> %scf
|  6> STABPerform true
|  7> STABRestartUHFifUnstable true
|  8> end
|  9>
| 10> *xyz 0 1
| 11> Si         1.040337    1.213897   -0.545140
| 12> Si        -1.040337    1.213897    0.545140
| 13> S        -1.984564   -0.694749    0.477247
| 14> H        -1.893856    2.268670   -0.055539
| 15> H        -0.882641    1.505079    1.987005
| 16> S         1.984564   -0.694749   -0.477247
| 17> H         1.893856    2.268670    0.055539
| 18> H         0.882641    1.505079   -1.987005
| 19> C        -1.927178   -1.042110   -1.307343
| 20> H        -2.456528   -1.979187   -1.460818
| 21> H        -0.900351   -1.158336   -1.644905
| 22> H        -2.427963   -0.262142   -1.876488
| 23> C         1.927178   -1.042110    1.307343
| 24> H         2.456528   -1.979187    1.460818
| 25> H         0.900351   -1.158336    1.644905
| 26> H         2.427963   -0.262142    1.876488
| 27> *
| 28>
| 29> $new_job
| 30> ! ri-mp2 aug-cc-pvtz aug-cc-pvtz/c tightscf
| 31> %pal nprocs 16 end
| 32> %maxcore 3800
| 33> %base "TZ_Si-Si_113_AB"
| 34>
| 35> *xyz 0 1
| 36> Si         1.040337    1.213897   -0.545140
| 37> Si        -1.040337    1.213897    0.545140
| 38> S        -1.984564   -0.694749    0.477247
| 39> H        -1.893856    2.268670   -0.055539
| 40> H        -0.882641    1.505079    1.987005
| 41> S         1.984564   -0.694749   -0.477247
| 42> H         1.893856    2.268670    0.055539
| 43> H         0.882641    1.505079   -1.987005
| 44> C        -1.927178   -1.042110   -1.307343
| 45> H        -2.456528   -1.979187   -1.460818
| 46> H        -0.900351   -1.158336   -1.644905
| 47> H        -2.427963   -0.262142   -1.876488
| 48> C         1.927178   -1.042110    1.307343
| 49> H         2.456528   -1.979187    1.460818
| 50> H         0.900351   -1.158336    1.644905
| 51> H         2.427963   -0.262142    1.876488
| 52> *
| 53>
| 54> $new_job
| 55> ! ri-mp2 aug-cc-pvqz aug-cc-pvqz/c tightscf
| 56> %pal nprocs 16 end
| 57> %maxcore 3800
| 58> %base "QZ_Si-Si_113_AB"
| 59>
| 60> *xyz 0 1
| 61> Si         1.040337    1.213897   -0.545140
| 62> Si        -1.040337    1.213897    0.545140
| 63> S        -1.984564   -0.694749    0.477247
| 64> H        -1.893856    2.268670   -0.055539
| 65> H        -0.882641    1.505079    1.987005
| 66> S         1.984564   -0.694749   -0.477247
| 67> H         1.893856    2.268670    0.055539
| 68> H         0.882641    1.505079   -1.987005
| 69> C        -1.927178   -1.042110   -1.307343
| 70> H        -2.456528   -1.979187   -1.460818
| 71> H        -0.900351   -1.158336   -1.644905
| 72> H        -2.427963   -0.262142   -1.876488
| 73> C         1.927178   -1.042110    1.307343
| 74> H         2.456528   -1.979187    1.460818
| 75> H         0.900351   -1.158336    1.644905
| 76> H         2.427963   -0.262142    1.876488
| 77> *
| 78>
| 79>
| 80>
| 81>
| 82>                          ****END OF INPUT****
 Total Charge           Charge          ....    0
 Multiplicity           Mult            ....    1
 Number of Electrons    NEL             ....   82
MP2 TOTAL ENERGY:    -1455.343444258 Eh
FINAL SINGLE POINT ENERGY     -1455.343444257953
MP2 TOTAL ENERGY:    -1455.603082545 Eh
FINAL SINGLE POINT ENERGY     -1455.603082544683

CARTESIAN COORDINATES (ANGSTROEM)
---------------------------------
  Si     1.040337    1.213897   -0.545140
  Si    -1.040337    1.213897    0.545140
  S     -1.984564   -0.694749    0.477247
  H     -1.893856    2.268670   -0.055539
  H     -0.882641    1.505079    1.987005
  S      1.984564   -0.694749   -0.477247
  H      1.893856    2.268670    0.055539
  H      0.882641    1.505079   -1.987005
  C     -1.927178   -1.042110   -1.307343
  H     -2.456528   -1.979187   -1.460818
  H     -0.900351   -1.158336   -1.644905
  H     -2.427963   -0.262142   -1.876488
  C      1.927178   -1.042110    1.307343
  H      2.456528   -1.979187    1.460818
  H      0.900351   -1.158336    1.644905
  H      2.427963   -0.262142    1.876488

 Multiplicity           Mult            ....    1
 Number of Electrons    NEL             ....   82
 Basis Dimension        Dim             ....  956

ORBITAL ENERGIES
----------------

  NO   OCC          E(Eh)            E(eV)
   0   2.0000     -91.941048     -2501.8431
   1   2.0000     -91.941048     -2501.8431
   2   2.0000     -68.790370     -1871.8811
   3   2.0000     -68.790369     -1871.8811
   4   2.0000     -11.258886      -306.3699
   5   2.0000     -11.258886      -306.3699
   6   2.0000      -8.945009      -243.4061
   7   2.0000      -8.945008      -243.4061
   8   2.0000      -6.626487      -180.3159
   9   2.0000      -6.626487      -180.3159
  10   2.0000      -6.625779      -180.2966
  11   2.0000      -6.625779      -180.2966
  12   2.0000      -6.625001      -180.2754
  13   2.0000      -6.625001      -180.2754
  14   2.0000      -6.138674      -167.0418
  15   2.0000      -6.138531      -167.0379
  16   2.0000      -4.245036      -115.5133
  17   2.0000      -4.244972      -115.5116
  18   2.0000      -4.244821      -115.5075
  19   2.0000      -4.244529      -115.4995
  20   2.0000      -4.244447      -115.4973
  21   2.0000      -4.244096      -115.4877
  22   2.0000      -1.039775       -28.2937
  23   2.0000      -1.034179       -28.1414
  24   2.0000      -0.869267       -23.6540
  25   2.0000      -0.865897       -23.5622
  26   2.0000      -0.729944       -19.8628
  27   2.0000      -0.659512       -17.9462
  28   2.0000      -0.603405       -16.4195
  29   2.0000      -0.595291       -16.1987
  30   2.0000      -0.594697       -16.1825
  31   2.0000      -0.591283       -16.0896
  32   2.0000      -0.517411       -14.0795
  33   2.0000      -0.515050       -14.0152
  34   2.0000      -0.483270       -13.1505
  35   2.0000      -0.473412       -12.8822
  36   2.0000      -0.458208       -12.4685
  37   2.0000      -0.423099       -11.5131
  38   2.0000      -0.406357       -11.0575
  39   2.0000      -0.363130        -9.8813
  40   2.0000      -0.341286        -9.2869
  41   0.0000       0.023521         0.6400
  42   0.0000       0.031322         0.8523
  43   0.0000       0.031696         0.8625
  44   0.0000       0.032510         0.8846
  45   0.0000       0.042954         1.1688

MULLIKEN ATOMIC CHARGES
-----------------------
   0 Si:    1.010183
   1 Si:    1.010183
   2 S :   -0.341943
   3 H :   -0.384571
   4 H :   -0.327763
   5 S :   -0.341943
   6 H :   -0.384571
   7 H :   -0.327763
   8 C :   -1.055136
   9 H :    0.450724
  10 H :    0.362212
  11 H :    0.286293
  12 C :   -1.055136
  13 H :    0.450724
  14 H :    0.362212
  15 H :    0.286293
Sum of atomic charges:    0.0000000

LOEWDIN ATOMIC CHARGES
----------------------
   0 Si:    0.223854
   1 Si:    0.223854
   2 S :    1.103942
   3 H :   -0.298960
   4 H :   -0.310917
   5 S :    1.103942
   6 H :   -0.298960
   7 H :   -0.310917
   8 C :    0.456009
   9 H :   -0.386468
  10 H :   -0.415374
  11 H :   -0.372086
  12 C :    0.456009
  13 H :   -0.386468
  14 H :   -0.415374
  15 H :   -0.372086

  Mayer bond orders larger than 0.100000
B(  0-Si,  1-Si) :   0.8663 B(  0-Si,  5-S ) :   0.8087 B(  0-Si,  6-H ) :   0.7049
B(  0-Si,  7-H ) :   0.7656 B(  1-Si,  2-S ) :   0.8087 B(  1-Si,  3-H ) :   0.7049
B(  1-Si,  4-H ) :   0.7656 B(  2-S ,  8-C ) :   0.9798 B(  5-S , 12-C ) :   0.9798
B(  8-C ,  9-H ) :   0.7881 B(  8-C , 10-H ) :   0.8600 B(  8-C , 11-H ) :   0.9084
B( 12-C , 13-H ) :   0.7881 B( 12-C , 14-H ) :   0.8600 B( 12-C , 15-H ) :   0.9084

MP2 TOTAL ENERGY:    -1455.685005130 Eh
FINAL SINGLE POINT ENERGY     -1455.685005129754

DIPOLE MOMENT
-------------
                                X             Y             Z
Electronic contribution:     -0.00000      -0.48626       0.00000
Nuclear contribution   :      0.00000       0.64202       0.00000
                        -----------------------------------------
Total Dipole Moment    :     -0.00000       0.15576       0.00000
                        -----------------------------------------
Magnitude (a.u.)       :      0.15576
Magnitude (Debye)      :      0.39592

Rotational constants in cm-1:     0.064363     0.031556     0.027944
Rotational constants in MHz :  1929.551240   946.030338   837.727326

                             ****ORCA TERMINATED NORMALLY****
TOTAL RUN TIME: 0 days 1 hours 46 minutes 47 seconds 594 msec
