                         Program Version 5.0.4 -  RELEASE  -
|  1> ! ri-mp2 aug-cc-pvdz aug-cc-pvdz/c tightscf
|  2> %pal nprocs 16 end
|  3> %maxcore 3800
|  4> %base "DZ_B-S_16_B"
|  5> %scf
|  6> STABPerform true
|  7> STABRestartUHFifUnstable true
|  8> end
|  9>
| 10> *xyz 0 2
| 11> F         0.000000    0.000000   -1.021810
| 12> S         0.000000    0.000000    0.574768
| 13> *
| 14>
| 15> $new_job
| 16> ! ri-mp2 aug-cc-pvtz aug-cc-pvtz/c tightscf
| 17> %pal nprocs 16 end
| 18> %maxcore 3800
| 19> %base "TZ_B-S_16_B"
| 20>
| 21> *xyz 0 2
| 22> F         0.000000    0.000000   -1.021810
| 23> S         0.000000    0.000000    0.574768
| 24> *
| 25>
| 26> $new_job
| 27> ! ri-mp2 aug-cc-pvqz aug-cc-pvqz/c tightscf
| 28> %pal nprocs 16 end
| 29> %maxcore 3800
| 30> %base "QZ_B-S_16_B"
| 31>
| 32> *xyz 0 2
| 33> F         0.000000    0.000000   -1.021810
| 34> S         0.000000    0.000000    0.574768
| 35> *
| 36>
| 37>
| 38>
| 39>
| 40>                          ****END OF INPUT****
 Total Charge           Charge          ....    0
 Multiplicity           Mult            ....    2
 Number of Electrons    NEL             ....   25
MP2 TOTAL ENERGY:     -497.244365534 Eh
FINAL SINGLE POINT ENERGY      -497.244365534346
MP2 TOTAL ENERGY:     -497.375568207 Eh
FINAL SINGLE POINT ENERGY      -497.375568206526

CARTESIAN COORDINATES (ANGSTROEM)
---------------------------------
  F      0.000000    0.000000   -1.021810
  S      0.000000    0.000000    0.574768

 Multiplicity           Mult            ....    2
 Number of Electrons    NEL             ....   25
 Basis Dimension        Dim             ....  164

ORBITAL ENERGIES
----------------
                 SPIN UP ORBITALS
  NO   OCC          E(Eh)            E(eV)
   0   1.0000     -92.062946     -2505.1601
   1   1.0000     -26.338448      -716.7056
   2   1.0000      -9.057041      -246.4546
   3   1.0000      -6.752287      -183.7391
   4   1.0000      -6.734267      -183.2487
   5   1.0000      -6.731504      -183.1735
   6   1.0000      -1.644080       -44.7377
   7   1.0000      -0.986342       -26.8397
   8   1.0000      -0.733212       -19.9517
   9   1.0000      -0.718849       -19.5609
  10   1.0000      -0.683207       -18.5910
  11   1.0000      -0.473143       -12.8749
  12   1.0000      -0.405933       -11.0460
  13   0.0000       0.049122         1.3367
  14   0.0000       0.064479         1.7546
  15   0.0000       0.074323         2.0224
  16   0.0000       0.080066         2.1787
  17   0.0000       0.128625         3.5001

                 SPIN DOWN ORBITALS
  NO   OCC          E(Eh)            E(eV)
   0   1.0000     -92.053740     -2504.9096
   1   1.0000     -26.333215      -716.5632
   2   1.0000      -9.046900      -246.1787
   3   1.0000      -6.730537      -183.1472
   4   1.0000      -6.726240      -183.0303
   5   1.0000      -6.709659      -182.5791
   6   1.0000      -1.629427       -44.3390
   7   1.0000      -0.909608       -24.7517
   8   1.0000      -0.713082       -19.4040
   9   1.0000      -0.679492       -18.4899
  10   1.0000      -0.650136       -17.6911
  11   1.0000      -0.388266       -10.5653
  12   0.0000      -0.001858        -0.0506
  13   0.0000       0.055097         1.4993
  14   0.0000       0.065966         1.7950
  15   0.0000       0.080582         2.1928
  16   0.0000       0.090843         2.4720

MULLIKEN ATOMIC CHARGES AND SPIN POPULATIONS
--------------------------------------------
   0 F :   -0.530345    0.023508
   1 S :    0.530345    0.976492
Sum of atomic charges         :   -0.0000000

LOEWDIN ATOMIC CHARGES AND SPIN POPULATIONS
-------------------------------------------
   0 F :   -0.199668    0.171164
   1 S :    0.199668    0.828836

  Mayer bond orders larger than 0.100000
B(  0-F ,  1-S ) :   0.6745

MP2 TOTAL ENERGY:     -497.419185115 Eh
FINAL SINGLE POINT ENERGY      -497.419185115337

DIPOLE MOMENT
-------------
                                X             Y             Z
Electronic contribution:      0.00000       0.00000      -0.48030
Nuclear contribution   :      0.00000       0.00000       0.91166
                        -----------------------------------------
Total Dipole Moment    :      0.00000       0.00000       0.43136
                        -----------------------------------------
Magnitude (a.u.)       :      0.43136
Magnitude (Debye)      :      1.09644

Rotational constants in cm-1:     0.000000     0.554382     0.554382
Rotational constants in MHz :     0.000000 16619.950284 16619.950284

                             ****ORCA TERMINATED NORMALLY****
TOTAL RUN TIME: 0 days 0 hours 2 minutes 50 seconds 35 msec
