                         Program Version 5.0.4 -  RELEASE  -
|  1> ! ri-mp2 aug-cc-pvdz aug-cc-pvdz/c tightscf
|  2> %pal nprocs 16 end
|  3> %maxcore 3800
|  4> %base "DZ_P-C_53_AB"
|  5> %scf
|  6> STABPerform true
|  7> STABRestartUHFifUnstable true
|  8> end
|  9>
| 10> *xyz 0 1
| 11> C        -1.003467   -0.334919   -0.024945
| 12> P         0.694798    0.136271   -0.612414
| 13> C         1.666541   -1.152631    0.246637
| 14> H         1.497840   -1.151973    1.323137
| 15> H         2.726065   -0.999180    0.044168
| 16> H         1.377530   -2.124938   -0.146766
| 17> O        -1.261007   -1.479120    0.257879
| 18> C        -2.057984    0.742082    0.000008
| 19> H        -1.980773    1.390178   -0.873635
| 20> H        -1.916543    1.365985    0.885001
| 21> H        -3.043390    0.283715    0.044103
| 22> C         1.014517    1.616767    0.435361
| 23> H         0.390245    2.447916    0.111028
| 24> H         2.052893    1.917077    0.297275
| 25> H         0.844581    1.432312    1.496496
| 26> *
| 27>
| 28> $new_job
| 29> ! ri-mp2 aug-cc-pvtz aug-cc-pvtz/c tightscf
| 30> %pal nprocs 16 end
| 31> %maxcore 3800
| 32> %base "TZ_P-C_53_AB"
| 33>
| 34> *xyz 0 1
| 35> C        -1.003467   -0.334919   -0.024945
| 36> P         0.694798    0.136271   -0.612414
| 37> C         1.666541   -1.152631    0.246637
| 38> H         1.497840   -1.151973    1.323137
| 39> H         2.726065   -0.999180    0.044168
| 40> H         1.377530   -2.124938   -0.146766
| 41> O        -1.261007   -1.479120    0.257879
| 42> C        -2.057984    0.742082    0.000008
| 43> H        -1.980773    1.390178   -0.873635
| 44> H        -1.916543    1.365985    0.885001
| 45> H        -3.043390    0.283715    0.044103
| 46> C         1.014517    1.616767    0.435361
| 47> H         0.390245    2.447916    0.111028
| 48> H         2.052893    1.917077    0.297275
| 49> H         0.844581    1.432312    1.496496
| 50> *
| 51>
| 52> $new_job
| 53> ! ri-mp2 aug-cc-pvqz aug-cc-pvqz/c tightscf
| 54> %pal nprocs 16 end
| 55> %maxcore 3800
| 56> %base "QZ_P-C_53_AB"
| 57>
| 58> *xyz 0 1
| 59> C        -1.003467   -0.334919   -0.024945
| 60> P         0.694798    0.136271   -0.612414
| 61> C         1.666541   -1.152631    0.246637
| 62> H         1.497840   -1.151973    1.323137
| 63> H         2.726065   -0.999180    0.044168
| 64> H         1.377530   -2.124938   -0.146766
| 65> O        -1.261007   -1.479120    0.257879
| 66> C        -2.057984    0.742082    0.000008
| 67> H        -1.980773    1.390178   -0.873635
| 68> H        -1.916543    1.365985    0.885001
| 69> H        -3.043390    0.283715    0.044103
| 70> C         1.014517    1.616767    0.435361
| 71> H         0.390245    2.447916    0.111028
| 72> H         2.052893    1.917077    0.297275
| 73> H         0.844581    1.432312    1.496496
| 74> *
| 75>
| 76>
| 77>
| 78>
| 79>                          ****END OF INPUT****
 Total Charge           Charge          ....    0
 Multiplicity           Mult            ....    1
 Number of Electrons    NEL             ....   56
MP2 TOTAL ENERGY:     -573.247038081 Eh
FINAL SINGLE POINT ENERGY      -573.247038080960
MP2 TOTAL ENERGY:     -573.505768109 Eh
FINAL SINGLE POINT ENERGY      -573.505768109261

CARTESIAN COORDINATES (ANGSTROEM)
---------------------------------
  C     -1.003467   -0.334919   -0.024945
  P      0.694798    0.136271   -0.612414
  C      1.666541   -1.152631    0.246637
  H      1.497840   -1.151973    1.323137
  H      2.726065   -0.999180    0.044168
  H      1.377530   -2.124938   -0.146766
  O     -1.261007   -1.479120    0.257879
  C     -2.057984    0.742082    0.000008
  H     -1.980773    1.390178   -0.873635
  H     -1.916543    1.365985    0.885001
  H     -3.043390    0.283715    0.044103
  C      1.014517    1.616767    0.435361
  H      0.390245    2.447916    0.111028
  H      2.052893    1.917077    0.297275
  H      0.844581    1.432312    1.496496

 Multiplicity           Mult            ....    1
 Number of Electrons    NEL             ....   56
 Basis Dimension        Dim             ....  898

ORBITAL ENERGIES
----------------

  NO   OCC          E(Eh)            E(eV)
   0   2.0000     -79.941612     -2175.3219
   1   2.0000     -20.548915      -559.1644
   2   2.0000     -11.327249      -308.2301
   3   2.0000     -11.235714      -305.7393
   4   2.0000     -11.235032      -305.7208
   5   2.0000     -11.223021      -305.3939
   6   2.0000      -7.484394      -203.6607
   7   2.0000      -5.378589      -146.3589
   8   2.0000      -5.378416      -146.3541
   9   2.0000      -5.377433      -146.3274
  10   2.0000      -1.392576       -37.8939
  11   2.0000      -1.033867       -28.1329
  12   2.0000      -1.000521       -27.2255
  13   2.0000      -0.947586       -25.7851
  14   2.0000      -0.819650       -22.3038
  15   2.0000      -0.704838       -19.1796
  16   2.0000      -0.637013       -17.3340
  17   2.0000      -0.624540       -16.9946
  18   2.0000      -0.612115       -16.6565
  19   2.0000      -0.591296       -16.0900
  20   2.0000      -0.573314       -15.6007
  21   2.0000      -0.565208       -15.3801
  22   2.0000      -0.564251       -15.3540
  23   2.0000      -0.528026       -14.3683
  24   2.0000      -0.504540       -13.7292
  25   2.0000      -0.474291       -12.9061
  26   2.0000      -0.404179       -10.9983
  27   2.0000      -0.340936        -9.2773
  28   0.0000       0.023495         0.6393
  29   0.0000       0.028517         0.7760
  30   0.0000       0.034620         0.9421
  31   0.0000       0.036727         0.9994
  32   0.0000       0.048371         1.3162

MULLIKEN ATOMIC CHARGES
-----------------------
   0 C :    0.561716
   1 P :    0.784557
   2 C :   -1.210669
   3 H :    0.285033
   4 H :    0.367793
   5 H :    0.363253
   6 O :   -0.844909
   7 C :   -0.896826
   8 H :    0.216680
   9 H :    0.264638
  10 H :    0.346563
  11 C :   -1.190747
  12 H :    0.325783
  13 H :    0.343780
  14 H :    0.283355
Sum of atomic charges:    0.0000000

LOEWDIN ATOMIC CHARGES
----------------------
   0 C :   -0.820019
   1 P :    0.916869
   2 C :    0.751500
   3 H :   -0.345777
   4 H :   -0.358023
   5 H :   -0.370071
   6 O :    0.657107
   7 C :    0.811644
   8 H :   -0.314855
   9 H :   -0.310542
  10 H :   -0.319242
  11 C :    0.764053
  12 H :   -0.366733
  13 H :   -0.356060
  14 H :   -0.339851

  Mayer bond orders larger than 0.100000
B(  0-C ,  1-P ) :   0.7385 B(  0-C ,  6-O ) :   1.2211 B(  0-C ,  7-C ) :   0.9070
B(  1-P ,  2-C ) :   0.9171 B(  1-P , 11-C ) :   0.8869 B(  2-C ,  3-H ) :   0.8929
B(  2-C ,  4-H ) :   0.8898 B(  2-C ,  5-H ) :   0.8611 B(  6-O ,  7-C ) :   0.1287
B(  7-C ,  8-H ) :   1.0064 B(  7-C ,  9-H ) :   0.9034 B(  7-C , 10-H ) :   0.9276
B( 11-C , 12-H ) :   0.8961 B( 11-C , 13-H ) :   0.9229 B( 11-C , 14-H ) :   0.8867

MP2 TOTAL ENERGY:     -573.586630580 Eh
FINAL SINGLE POINT ENERGY      -573.586630579693

DIPOLE MOMENT
-------------
                                X             Y             Z
Electronic contribution:     -0.90879      -3.33771      -3.50709
Nuclear contribution   :      1.28004       4.45386       3.80733
                        -----------------------------------------
Total Dipole Moment    :      0.37126       1.11615       0.30024
                        -----------------------------------------
Magnitude (a.u.)       :      1.21399
Magnitude (Debye)      :      3.08572

Rotational constants in cm-1:     0.126099     0.082280     0.056892
Rotational constants in MHz :  3780.339256  2466.696171  1705.580847

                             ****ORCA TERMINATED NORMALLY****
TOTAL RUN TIME: 0 days 1 hours 22 minutes 9 seconds 612 msec
