                         Program Version 5.0.4 -  RELEASE  -
|  1> ! ri-mp2 aug-cc-pvdz aug-cc-pvdz/c tightscf
|  2> %pal nprocs 16 end
|  3> %maxcore 3800
|  4> %base "DZ_B-P_34_A"
|  5> %scf
|  6> STABPerform true
|  7> STABRestartUHFifUnstable true
|  8> end
|  9>
| 10> *xyz 0 2
| 11> C         2.228383   -0.156225   -0.000002
| 12> B         0.780305   -0.733702   -0.000001
| 13> H         2.777601   -0.517663   -0.871899
| 14> H         2.777596   -0.517650    0.871904
| 15> H         2.286152    0.937377   -0.000010
| 16> N        -0.439794   -0.093809   -0.000000
| 17> C        -0.622592    1.348870    0.000001
| 18> H         0.337814    1.855446    0.000000
| 19> H        -1.183022    1.665889    0.883893
| 20> H        -1.183024    1.665890   -0.883889
| 21> C        -1.698031   -0.817407    0.000002
| 22> H        -2.289840   -0.564655   -0.884752
| 23> H        -1.502963   -1.886229   -0.000002
| 24> H        -2.289835   -0.564660    0.884760
| 25> *
| 26>
| 27> $new_job
| 28> ! ri-mp2 aug-cc-pvtz aug-cc-pvtz/c tightscf
| 29> %pal nprocs 16 end
| 30> %maxcore 3800
| 31> %base "TZ_B-P_34_A"
| 32>
| 33> *xyz 0 2
| 34> C         2.228383   -0.156225   -0.000002
| 35> B         0.780305   -0.733702   -0.000001
| 36> H         2.777601   -0.517663   -0.871899
| 37> H         2.777596   -0.517650    0.871904
| 38> H         2.286152    0.937377   -0.000010
| 39> N        -0.439794   -0.093809   -0.000000
| 40> C        -0.622592    1.348870    0.000001
| 41> H         0.337814    1.855446    0.000000
| 42> H        -1.183022    1.665889    0.883893
| 43> H        -1.183024    1.665890   -0.883889
| 44> C        -1.698031   -0.817407    0.000002
| 45> H        -2.289840   -0.564655   -0.884752
| 46> H        -1.502963   -1.886229   -0.000002
| 47> H        -2.289835   -0.564660    0.884760
| 48> *
| 49>
| 50> $new_job
| 51> ! ri-mp2 aug-cc-pvqz aug-cc-pvqz/c tightscf
| 52> %pal nprocs 16 end
| 53> %maxcore 3800
| 54> %base "QZ_B-P_34_A"
| 55>
| 56> *xyz 0 2
| 57> C         2.228383   -0.156225   -0.000002
| 58> B         0.780305   -0.733702   -0.000001
| 59> H         2.777601   -0.517663   -0.871899
| 60> H         2.777596   -0.517650    0.871904
| 61> H         2.286152    0.937377   -0.000010
| 62> N        -0.439794   -0.093809   -0.000000
| 63> C        -0.622592    1.348870    0.000001
| 64> H         0.337814    1.855446    0.000000
| 65> H        -1.183022    1.665889    0.883893
| 66> H        -1.183024    1.665890   -0.883889
| 67> C        -1.698031   -0.817407    0.000002
| 68> H        -2.289840   -0.564655   -0.884752
| 69> H        -1.502963   -1.886229   -0.000002
| 70> H        -2.289835   -0.564660    0.884760
| 71> *
| 72>
| 73>
| 74>
| 75>
| 76>                          ****END OF INPUT****
 Total Charge           Charge          ....    0
 Multiplicity           Mult            ....    2
 Number of Electrons    NEL             ....   39
MP2 TOTAL ENERGY:     -198.669041567 Eh
FINAL SINGLE POINT ENERGY      -198.669041566978
MP2 TOTAL ENERGY:     -198.857123679 Eh
FINAL SINGLE POINT ENERGY      -198.857123679367

CARTESIAN COORDINATES (ANGSTROEM)
---------------------------------
  C      2.228383   -0.156225   -0.000002
  B      0.780305   -0.733702   -0.000001
  H      2.777601   -0.517663   -0.871899
  H      2.777596   -0.517650    0.871904
  H      2.286152    0.937377   -0.000010
  N     -0.439794   -0.093809   -0.000000
  C     -0.622592    1.348870    0.000001
  H      0.337814    1.855446    0.000000
  H     -1.183022    1.665889    0.883893
  H     -1.183024    1.665890   -0.883889
  C     -1.698031   -0.817407    0.000002
  H     -2.289840   -0.564655   -0.884752
  H     -1.502963   -1.886229   -0.000002
  H     -2.289835   -0.564660    0.884760

 Multiplicity           Mult            ....    2
 Number of Electrons    NEL             ....   39
 Basis Dimension        Dim             ....  814

ORBITAL ENERGIES
----------------
                 SPIN UP ORBITALS
  NO   OCC          E(Eh)            E(eV)
   0   1.0000     -15.555494      -423.2865
   1   1.0000     -11.252829      -306.2050
   2   1.0000     -11.248646      -306.0912
   3   1.0000     -11.188940      -304.4665
   4   1.0000      -7.587251      -206.4596
   5   1.0000      -1.217455       -33.1286
   6   1.0000      -0.964987       -26.2586
   7   1.0000      -0.943218       -25.6663
   8   1.0000      -0.878229       -23.8978
   9   1.0000      -0.690142       -18.7797
  10   1.0000      -0.630144       -17.1471
  11   1.0000      -0.623279       -16.9603
  12   1.0000      -0.573331       -15.6011
  13   1.0000      -0.549179       -14.9439
  14   1.0000      -0.540930       -14.7195
  15   1.0000      -0.539884       -14.6910
  16   1.0000      -0.520598       -14.1662
  17   1.0000      -0.499233       -13.5848
  18   1.0000      -0.377876       -10.2825
  19   1.0000      -0.294764        -8.0209
  20   0.0000       0.024235         0.6595
  21   0.0000       0.034329         0.9341
  22   0.0000       0.034985         0.9520
  23   0.0000       0.035519         0.9665
  24   0.0000       0.049423         1.3449

                 SPIN DOWN ORBITALS
  NO   OCC          E(Eh)            E(eV)
   0   1.0000     -15.557816      -423.3497
   1   1.0000     -11.251455      -306.1676
   2   1.0000     -11.247607      -306.0629
   3   1.0000     -11.188093      -304.4435
   4   1.0000      -7.569288      -205.9708
   5   1.0000      -1.217004       -33.1164
   6   1.0000      -0.960989       -26.1498
   7   1.0000      -0.934434       -25.4272
   8   1.0000      -0.873626       -23.7726
   9   1.0000      -0.680195       -18.5090
  10   1.0000      -0.633302       -17.2330
  11   1.0000      -0.614579       -16.7235
  12   1.0000      -0.553123       -15.0512
  13   1.0000      -0.548929       -14.9371
  14   1.0000      -0.538522       -14.6539
  15   1.0000      -0.534519       -14.5450
  16   1.0000      -0.517161       -14.0727
  17   1.0000      -0.486715       -13.2442
  18   1.0000      -0.385650       -10.4941
  19   0.0000       0.023402         0.6368
  20   0.0000       0.034315         0.9338
  21   0.0000       0.034730         0.9450
  22   0.0000       0.035149         0.9565
  23   0.0000       0.049641         1.3508

MULLIKEN ATOMIC CHARGES AND SPIN POPULATIONS
--------------------------------------------
   0 C :   -1.040818   -0.065345
   1 B :    0.248817    1.135374
   2 H :    0.314127   -0.013697
   3 H :    0.314126   -0.013696
   4 H :    0.283309    0.049611
   5 N :   -0.295979   -0.154231
   6 C :   -0.869328    0.021931
   7 H :    0.383448   -0.005528
   8 H :    0.307055   -0.003273
   9 H :    0.307054   -0.003273
  10 C :   -0.906858    0.036636
  11 H :    0.299834    0.001233
  12 H :    0.355378    0.013024
  13 H :    0.299833    0.001233
Sum of atomic charges         :    0.0000000

LOEWDIN ATOMIC CHARGES AND SPIN POPULATIONS
-------------------------------------------
   0 C :    1.007539    0.158015
   1 B :   -0.236251    0.494591
   2 H :   -0.333014    0.024107
   3 H :   -0.333014    0.024107
   4 H :   -0.336729    0.021755
   5 N :    0.502755    0.136369
   6 C :    0.751535    0.021181
   7 H :   -0.327251    0.007455
   8 H :   -0.272957    0.003326
   9 H :   -0.272957    0.003326
  10 C :    0.729621    0.055700
  11 H :   -0.279967    0.003308
  12 H :   -0.319342    0.043452
  13 H :   -0.279968    0.003308

  Mayer bond orders larger than 0.100000
B(  0-C ,  1-B ) :   0.8985 B(  0-C ,  2-H ) :   0.9037 B(  0-C ,  3-H ) :   0.9037
B(  0-C ,  4-H ) :   0.8925 B(  1-B ,  5-N ) :   1.2001 B(  5-N ,  6-C ) :   0.9626
B(  5-N , 10-C ) :   0.9677 B(  6-C ,  7-H ) :   0.8687 B(  6-C ,  8-H ) :   0.9206
B(  6-C ,  9-H ) :   0.9206 B( 10-C , 11-H ) :   0.9246 B( 10-C , 12-H ) :   0.8690
B( 10-C , 13-H ) :   0.9246

MP2 TOTAL ENERGY:     -198.914415726 Eh
FINAL SINGLE POINT ENERGY      -198.914415725957

DIPOLE MOMENT
-------------
                                X             Y             Z
Electronic contribution:      0.52488      -2.27280      -0.00000
Nuclear contribution   :     -0.94369       2.79103       0.00000
                        -----------------------------------------
Total Dipole Moment    :     -0.41881       0.51823       0.00000
                        -----------------------------------------
Magnitude (a.u.)       :      0.66630
Magnitude (Debye)      :      1.69361

Rotational constants in cm-1:     0.304368     0.112733     0.086206
Rotational constants in MHz :  9124.730632  3379.663332  2584.404444

                             ****ORCA TERMINATED NORMALLY****
TOTAL RUN TIME: 0 days 1 hours 21 minutes 56 seconds 761 msec
