                         Program Version 5.0.4 -  RELEASE  -
|  1> ! ri-mp2 aug-cc-pvdz aug-cc-pvdz/c tightscf
|  2> %pal nprocs 16 end
|  3> %maxcore 3800
|  4> %base "DZ_Si-Si_84_AB"
|  5> %scf
|  6> STABPerform true
|  7> STABRestartUHFifUnstable true
|  8> end
|  9>
| 10> *xyz 0 1
| 11> Si        -1.086806   -0.862599   -0.491878
| 12> Si         1.080721   -0.879496    0.395837
| 13> C         1.825959    0.852502    0.267725
| 14> H         1.962778   -1.801755   -0.356828
| 15> H         1.020629   -1.293088    1.817064
| 16> N         2.797161    1.196856   -0.468331
| 17> H         1.374627    1.652640    0.863866
| 18> H         3.173099    0.407151   -0.996366
| 19> C        -2.142001    0.370410    0.477835
| 20> H        -1.684827   -2.214456   -0.403445
| 21> H        -1.061039   -0.412187   -1.902765
| 22> N        -2.531416    1.505287    0.073264
| 23> H        -2.433078    0.106085    1.500281
| 24> H        -2.230969    1.692476   -0.885115
| 25> *
| 26>
| 27> $new_job
| 28> ! ri-mp2 aug-cc-pvtz aug-cc-pvtz/c tightscf
| 29> %pal nprocs 16 end
| 30> %maxcore 3800
| 31> %base "TZ_Si-Si_84_AB"
| 32>
| 33> *xyz 0 1
| 34> Si        -1.086806   -0.862599   -0.491878
| 35> Si         1.080721   -0.879496    0.395837
| 36> C         1.825959    0.852502    0.267725
| 37> H         1.962778   -1.801755   -0.356828
| 38> H         1.020629   -1.293088    1.817064
| 39> N         2.797161    1.196856   -0.468331
| 40> H         1.374627    1.652640    0.863866
| 41> H         3.173099    0.407151   -0.996366
| 42> C        -2.142001    0.370410    0.477835
| 43> H        -1.684827   -2.214456   -0.403445
| 44> H        -1.061039   -0.412187   -1.902765
| 45> N        -2.531416    1.505287    0.073264
| 46> H        -2.433078    0.106085    1.500281
| 47> H        -2.230969    1.692476   -0.885115
| 48> *
| 49>
| 50> $new_job
| 51> ! ri-mp2 aug-cc-pvqz aug-cc-pvqz/c tightscf
| 52> %pal nprocs 16 end
| 53> %maxcore 3800
| 54> %base "QZ_Si-Si_84_AB"
| 55>
| 56> *xyz 0 1
| 57> Si        -1.086806   -0.862599   -0.491878
| 58> Si         1.080721   -0.879496    0.395837
| 59> C         1.825959    0.852502    0.267725
| 60> H         1.962778   -1.801755   -0.356828
| 61> H         1.020629   -1.293088    1.817064
| 62> N         2.797161    1.196856   -0.468331
| 63> H         1.374627    1.652640    0.863866
| 64> H         3.173099    0.407151   -0.996366
| 65> C        -2.142001    0.370410    0.477835
| 66> H        -1.684827   -2.214456   -0.403445
| 67> H        -1.061039   -0.412187   -1.902765
| 68> N        -2.531416    1.505287    0.073264
| 69> H        -2.433078    0.106085    1.500281
| 70> H        -2.230969    1.692476   -0.885115
| 71> *
| 72>
| 73>
| 74>
| 75>
| 76>                          ****END OF INPUT****
 Total Charge           Charge          ....    0
 Multiplicity           Mult            ....    1
 Number of Electrons    NEL             ....   62
MP2 TOTAL ENERGY:     -767.948087353 Eh
FINAL SINGLE POINT ENERGY      -767.948087352949
MP2 TOTAL ENERGY:     -768.182285166 Eh
FINAL SINGLE POINT ENERGY      -768.182285166347

CARTESIAN COORDINATES (ANGSTROEM)
---------------------------------
  Si    -1.086806   -0.862599   -0.491878
  Si     1.080721   -0.879496    0.395837
  C      1.825959    0.852502    0.267725
  H      1.962778   -1.801755   -0.356828
  H      1.020629   -1.293088    1.817064
  N      2.797161    1.196856   -0.468331
  H      1.374627    1.652640    0.863866
  H      3.173099    0.407151   -0.996366
  C     -2.142001    0.370410    0.477835
  H     -1.684827   -2.214456   -0.403445
  H     -1.061039   -0.412187   -1.902765
  N     -2.531416    1.505287    0.073264
  H     -2.433078    0.106085    1.500281
  H     -2.230969    1.692476   -0.885115

 Multiplicity           Mult            ....    1
 Number of Electrons    NEL             ....   62
 Basis Dimension        Dim             ....  856

ORBITAL ENERGIES
----------------

  NO   OCC          E(Eh)            E(eV)
   0   2.0000     -68.786808     -1871.7842
   1   2.0000     -68.786633     -1871.7794
   2   2.0000     -15.573096      -423.7655
   3   2.0000     -15.571688      -423.7272
   4   2.0000     -11.277706      -306.8820
   5   2.0000     -11.275952      -306.8343
   6   2.0000      -6.138018      -167.0240
   7   2.0000      -6.137774      -167.0173
   8   2.0000      -4.244305      -115.4934
   9   2.0000      -4.244103      -115.4879
  10   2.0000      -4.243937      -115.4834
  11   2.0000      -4.243876      -115.4817
  12   2.0000      -4.243701      -115.4770
  13   2.0000      -4.243522      -115.4721
  14   2.0000      -1.217557       -33.1314
  15   2.0000      -1.215926       -33.0870
  16   2.0000      -0.855519       -23.2798
  17   2.0000      -0.840959       -22.8837
  18   2.0000      -0.763154       -20.7665
  19   2.0000      -0.713726       -19.4215
  20   2.0000      -0.624525       -16.9942
  21   2.0000      -0.619285       -16.8516
  22   2.0000      -0.587703       -15.9922
  23   2.0000      -0.572669       -15.5831
  24   2.0000      -0.511552       -13.9200
  25   2.0000      -0.500152       -13.6098
  26   2.0000      -0.483148       -13.1471
  27   2.0000      -0.458645       -12.4804
  28   2.0000      -0.423248       -11.5172
  29   2.0000      -0.403536       -10.9808
  30   2.0000      -0.385170       -10.4810
  31   0.0000       0.020197         0.5496
  32   0.0000       0.027886         0.7588
  33   0.0000       0.030728         0.8361
  34   0.0000       0.035273         0.9598
  35   0.0000       0.044323         1.2061

MULLIKEN ATOMIC CHARGES
-----------------------
   0 Si:    0.789285
   1 Si:    0.730026
   2 C :   -0.355922
   3 H :   -0.233069
   4 H :   -0.193223
   5 N :   -0.745086
   6 H :    0.474216
   7 H :    0.317112
   8 C :   -0.420371
   9 H :   -0.229559
  10 H :   -0.215274
  11 N :   -0.722777
  12 H :    0.472017
  13 H :    0.332625
Sum of atomic charges:    0.0000000

LOEWDIN ATOMIC CHARGES
----------------------
   0 Si:    0.744665
   1 Si:    0.743312
   2 C :    0.026256
   3 H :   -0.261448
   4 H :   -0.268911
   5 N :    0.904389
   6 H :   -0.433976
   7 H :   -0.710572
   8 C :    0.022784
   9 H :   -0.272580
  10 H :   -0.257103
  11 N :    0.904579
  12 H :   -0.434736
  13 H :   -0.706659

  Mayer bond orders larger than 0.100000
B(  0-Si,  1-Si) :   0.8387 B(  0-Si,  8-C ) :   0.6995 B(  0-Si,  9-H ) :   0.8195
B(  0-Si, 10-H ) :   0.8064 B(  1-Si,  2-C ) :   0.6822 B(  1-Si,  3-H ) :   0.7937
B(  1-Si,  4-H ) :   0.7922 B(  2-C ,  5-N ) :   1.6812 B(  2-C ,  6-H ) :   0.7447
B(  5-N ,  7-H ) :   0.7995 B(  8-C , 11-N ) :   1.6971 B(  8-C , 12-H ) :   0.7557
B( 11-N , 13-H ) :   0.7824

MP2 TOTAL ENERGY:     -768.258627593 Eh
FINAL SINGLE POINT ENERGY      -768.258627592902

DIPOLE MOMENT
-------------
                                X             Y             Z
Electronic contribution:     -0.14148       0.48662       0.28827
Nuclear contribution   :      0.12333      -1.74404      -0.36032
                        -----------------------------------------
Total Dipole Moment    :     -0.01816      -1.25742      -0.07205
                        -----------------------------------------
Magnitude (a.u.)       :      1.25962
Magnitude (Debye)      :      3.20169

Rotational constants in cm-1:     0.111870     0.039902     0.032853
Rotational constants in MHz :  3353.763842  1196.221471   984.917300

                             ****ORCA TERMINATED NORMALLY****
TOTAL RUN TIME: 0 days 1 hours 3 minutes 26 seconds 527 msec
