                         Program Version 5.0.4 -  RELEASE  -
|  1> ! ri-mp2 aug-cc-pvdz aug-cc-pvdz/c tightscf
|  2> %pal nprocs 16 end
|  3> %maxcore 3800
|  4> %base "DZ_B-P_39_AB"
|  5> %scf
|  6> STABPerform true
|  7> STABRestartUHFifUnstable true
|  8> end
|  9>
| 10> *xyz 0 1
| 11> P         0.859492    0.000000    0.545187
| 12> B        -1.055087   -0.000000    0.047892
| 13> F         1.291188   -1.213361   -0.391984
| 14> F         1.291188    1.213361   -0.391985
| 15> F        -1.714352   -1.127274   -0.075642
| 16> F        -1.714352    1.127274   -0.075641
| 17> *
| 18>
| 19> $new_job
| 20> ! ri-mp2 aug-cc-pvtz aug-cc-pvtz/c tightscf
| 21> %pal nprocs 16 end
| 22> %maxcore 3800
| 23> %base "TZ_B-P_39_AB"
| 24>
| 25> *xyz 0 1
| 26> P         0.859492    0.000000    0.545187
| 27> B        -1.055087   -0.000000    0.047892
| 28> F         1.291188   -1.213361   -0.391984
| 29> F         1.291188    1.213361   -0.391985
| 30> F        -1.714352   -1.127274   -0.075642
| 31> F        -1.714352    1.127274   -0.075641
| 32> *
| 33>
| 34> $new_job
| 35> ! ri-mp2 aug-cc-pvqz aug-cc-pvqz/c tightscf
| 36> %pal nprocs 16 end
| 37> %maxcore 3800
| 38> %base "QZ_B-P_39_AB"
| 39>
| 40> *xyz 0 1
| 41> P         0.859492    0.000000    0.545187
| 42> B        -1.055087   -0.000000    0.047892
| 43> F         1.291188   -1.213361   -0.391984
| 44> F         1.291188    1.213361   -0.391985
| 45> F        -1.714352   -1.127274   -0.075642
| 46> F        -1.714352    1.127274   -0.075641
| 47> *
| 48>
| 49>
| 50>
| 51>
| 52>                          ****END OF INPUT****
 Total Charge           Charge          ....    0
 Multiplicity           Mult            ....    1
 Number of Electrons    NEL             ....   56
MP2 TOTAL ENERGY:     -764.385556407 Eh
FINAL SINGLE POINT ENERGY      -764.385556407092
MP2 TOTAL ENERGY:     -764.796974871 Eh
FINAL SINGLE POINT ENERGY      -764.796974871161

CARTESIAN COORDINATES (ANGSTROEM)
---------------------------------
  P      0.859492    0.000000    0.545187
  B     -1.055087   -0.000000    0.047892
  F      1.291188   -1.213361   -0.391984
  F      1.291188    1.213361   -0.391985
  F     -1.714352   -1.127274   -0.075642
  F     -1.714352    1.127274   -0.075641

 Multiplicity           Mult            ....    1
 Number of Electrons    NEL             ....   56
 Basis Dimension        Dim             ....  484

ORBITAL ENERGIES
----------------

  NO   OCC          E(Eh)            E(eV)
   0   2.0000     -80.073265     -2178.9043
   1   2.0000     -26.341366      -716.7850
   2   2.0000     -26.341350      -716.7846
   3   2.0000     -26.329408      -716.4596
   4   2.0000     -26.329397      -716.4593
   5   2.0000      -7.744090      -210.7274
   6   2.0000      -7.601675      -206.8521
   7   2.0000      -5.495980      -149.5532
   8   2.0000      -5.494866      -149.5229
   9   2.0000      -5.493243      -149.4788
  10   2.0000      -1.675446       -45.5912
  11   2.0000      -1.654502       -45.0213
  12   2.0000      -1.644163       -44.7399
  13   2.0000      -1.622790       -44.1584
  14   2.0000      -0.910208       -24.7680
  15   2.0000      -0.845694       -23.0125
  16   2.0000      -0.792954       -21.5774
  17   2.0000      -0.777405       -21.1543
  18   2.0000      -0.758248       -20.6330
  19   2.0000      -0.745408       -20.2836
  20   2.0000      -0.732070       -19.9206
  21   2.0000      -0.717346       -19.5200
  22   2.0000      -0.699507       -19.0346
  23   2.0000      -0.686472       -18.6799
  24   2.0000      -0.679138       -18.4803
  25   2.0000      -0.666263       -18.1299
  26   2.0000      -0.584766       -15.9123
  27   2.0000      -0.405022       -11.0212
  28   0.0000       0.033398         0.9088
  29   0.0000       0.035033         0.9533
  30   0.0000       0.037455         1.0192
  31   0.0000       0.038451         1.0463
  32   0.0000       0.060981         1.6594

MULLIKEN ATOMIC CHARGES
-----------------------
   0 P :    1.369151
   1 B :    1.373421
   2 F :   -0.655466
   3 F :   -0.655466
   4 F :   -0.715820
   5 F :   -0.715820
Sum of atomic charges:    0.0000000

LOEWDIN ATOMIC CHARGES
----------------------
   0 P :   -0.082715
   1 B :   -1.909867
   2 F :    0.247290
   3 F :    0.247289
   4 F :    0.749002
   5 F :    0.749002

  Mayer bond orders larger than 0.100000
B(  0-P ,  1-B ) :   1.0221 B(  0-P ,  2-F ) :   0.5361 B(  0-P ,  3-F ) :   0.5361
B(  1-B ,  4-F ) :   0.4239 B(  1-B ,  5-F ) :   0.4239

MP2 TOTAL ENERGY:     -764.931295901 Eh
FINAL SINGLE POINT ENERGY      -764.931295900619

DIPOLE MOMENT
-------------
                                X             Y             Z
Electronic contribution:     -0.91410      -0.00000       0.05942
Nuclear contribution   :      0.77463       0.00000       0.32668
                        -----------------------------------------
Total Dipole Moment    :     -0.13947      -0.00000       0.38611
                        -----------------------------------------
Magnitude (a.u.)       :      0.41052
Magnitude (Debye)      :      1.04347

Rotational constants in cm-1:     0.141059     0.074853     0.053661
Rotational constants in MHz :  4228.844033  2244.032718  1608.730063

                             ****ORCA TERMINATED NORMALLY****
TOTAL RUN TIME: 0 days 0 hours 8 minutes 1 seconds 522 msec
