                         Program Version 5.0.4 -  RELEASE  -
|  1> ! ri-mp2 aug-cc-pvdz aug-cc-pvdz/c tightscf
|  2> %pal nprocs 16 end
|  3> %maxcore 3800
|  4> %base "DZ_Si-Si_61_AB"
|  5> %scf
|  6> STABPerform true
|  7> STABRestartUHFifUnstable true
|  8> end
|  9>
| 10> *xyz 0 1
| 11> Si        -0.156528    0.665974    0.013019
| 12> Si         1.994146   -0.248890   -0.000081
| 13> O        -1.158986   -0.678532   -0.028029
| 14> H        -0.403714    1.527634   -1.162379
| 15> H        -0.417936    1.456241    1.237414
| 16> H         2.974077    0.859890    0.062421
| 17> H         2.227362   -1.024311   -1.237026
| 18> O        -2.515408   -0.183333   -0.087721
| 19> H        -2.905483   -0.636664    0.671381
| 20> H         2.194195   -1.127039    1.173057
| 21> *
| 22>
| 23> $new_job
| 24> ! ri-mp2 aug-cc-pvtz aug-cc-pvtz/c tightscf
| 25> %pal nprocs 16 end
| 26> %maxcore 3800
| 27> %base "TZ_Si-Si_61_AB"
| 28>
| 29> *xyz 0 1
| 30> Si        -0.156528    0.665974    0.013019
| 31> Si         1.994146   -0.248890   -0.000081
| 32> O        -1.158986   -0.678532   -0.028029
| 33> H        -0.403714    1.527634   -1.162379
| 34> H        -0.417936    1.456241    1.237414
| 35> H         2.974077    0.859890    0.062421
| 36> H         2.227362   -1.024311   -1.237026
| 37> O        -2.515408   -0.183333   -0.087721
| 38> H        -2.905483   -0.636664    0.671381
| 39> H         2.194195   -1.127039    1.173057
| 40> *
| 41>
| 42> $new_job
| 43> ! ri-mp2 aug-cc-pvqz aug-cc-pvqz/c tightscf
| 44> %pal nprocs 16 end
| 45> %maxcore 3800
| 46> %base "QZ_Si-Si_61_AB"
| 47>
| 48> *xyz 0 1
| 49> Si        -0.156528    0.665974    0.013019
| 50> Si         1.994146   -0.248890   -0.000081
| 51> O        -1.158986   -0.678532   -0.028029
| 52> H        -0.403714    1.527634   -1.162379
| 53> H        -0.417936    1.456241    1.237414
| 54> H         2.974077    0.859890    0.062421
| 55> H         2.227362   -1.024311   -1.237026
| 56> O        -2.515408   -0.183333   -0.087721
| 57> H        -2.905483   -0.636664    0.671381
| 58> H         2.194195   -1.127039    1.173057
| 59> *
| 60>
| 61>
| 62>
| 63>
| 64>                          ****END OF INPUT****
 Total Charge           Charge          ....    0
 Multiplicity           Mult            ....    1
 Number of Electrons    NEL             ....   50
MP2 TOTAL ENERGY:     -731.637048736 Eh
FINAL SINGLE POINT ENERGY      -731.637048735903
MP2 TOTAL ENERGY:     -731.844486878 Eh
FINAL SINGLE POINT ENERGY      -731.844486878254

CARTESIAN COORDINATES (ANGSTROEM)
---------------------------------
  Si    -0.156528    0.665974    0.013019
  Si     1.994146   -0.248890   -0.000081
  O     -1.158986   -0.678532   -0.028029
  H     -0.403714    1.527634   -1.162379
  H     -0.417936    1.456241    1.237414
  H      2.974077    0.859890    0.062421
  H      2.227362   -1.024311   -1.237026
  O     -2.515408   -0.183333   -0.087721
  H     -2.905483   -0.636664    0.671381
  H      2.194195   -1.127039    1.173057

 Multiplicity           Mult            ....    1
 Number of Electrons    NEL             ....   50
 Basis Dimension        Dim             ....  604

ORBITAL ENERGIES
----------------

  NO   OCC          E(Eh)            E(eV)
   0   2.0000     -68.796718     -1872.0539
   1   2.0000     -68.770106     -1871.3297
   2   2.0000     -20.635896      -561.5313
   3   2.0000     -20.611978      -560.8804
   4   2.0000      -6.143054      -167.1610
   5   2.0000      -6.121237      -166.5673
   6   2.0000      -4.249779      -115.6424
   7   2.0000      -4.249327      -115.6301
   8   2.0000      -4.249020      -115.6217
   9   2.0000      -4.227385      -115.0330
  10   2.0000      -4.227283      -115.0302
  11   2.0000      -4.227256      -115.0295
  12   2.0000      -1.473158       -40.0867
  13   2.0000      -1.204231       -32.7688
  14   2.0000      -0.761737       -20.7279
  15   2.0000      -0.726480       -19.7685
  16   2.0000      -0.699257       -19.0277
  17   2.0000      -0.629514       -17.1299
  18   2.0000      -0.606975       -16.5166
  19   2.0000      -0.531562       -14.4645
  20   2.0000      -0.497370       -13.5341
  21   2.0000      -0.488930       -13.3045
  22   2.0000      -0.483496       -13.1566
  23   2.0000      -0.457039       -12.4367
  24   2.0000      -0.408725       -11.1220
  25   0.0000       0.025657         0.6982
  26   0.0000       0.029484         0.8023
  27   0.0000       0.037154         1.0110
  28   0.0000       0.042701         1.1620
  29   0.0000       0.050558         1.3757

MULLIKEN ATOMIC CHARGES
-----------------------
   0 Si:    1.103400
   1 Si:    0.375513
   2 O :   -0.573344
   3 H :   -0.198138
   4 H :   -0.209644
   5 H :   -0.156667
   6 H :   -0.138383
   7 O :   -0.425179
   8 H :    0.363550
   9 H :   -0.141105
Sum of atomic charges:   -0.0000000

LOEWDIN ATOMIC CHARGES
----------------------
   0 Si:    0.301906
   1 Si:    1.042043
   2 O :    0.247522
   3 H :   -0.281683
   4 H :   -0.283007
   5 H :   -0.326004
   6 H :   -0.320390
   7 O :    0.841570
   8 H :   -0.900696
   9 H :   -0.321261

  Mayer bond orders larger than 0.100000
B(  0-Si,  1-Si) :   0.8048 B(  0-Si,  2-O ) :   0.4261 B(  0-Si,  3-H ) :   0.8713
B(  0-Si,  4-H ) :   0.8655 B(  1-Si,  5-H ) :   0.8048 B(  1-Si,  6-H ) :   0.7992
B(  1-Si,  9-H ) :   0.7973 B(  2-O ,  7-O ) :   0.8142 B(  7-O ,  8-H ) :   0.9021

MP2 TOTAL ENERGY:     -731.912419360 Eh
FINAL SINGLE POINT ENERGY      -731.912419359746

DIPOLE MOMENT
-------------
                                X             Y             Z
Electronic contribution:     -3.49381      -0.92236      -0.23497
Nuclear contribution   :      3.48735       1.01345       0.73978
                        -----------------------------------------
Total Dipole Moment    :     -0.00647       0.09109       0.50481
                        -----------------------------------------
Magnitude (a.u.)       :      0.51300
Magnitude (Debye)      :      1.30395

Rotational constants in cm-1:     0.462170     0.062664     0.057598
Rotational constants in MHz : 13855.494305  1878.605895  1726.732816

                             ****ORCA TERMINATED NORMALLY****
TOTAL RUN TIME: 0 days 0 hours 19 minutes 22 seconds 478 msec
