                         Program Version 5.0.4 -  RELEASE  -
|  1> ! ri-mp2 aug-cc-pvdz aug-cc-pvdz/c tightscf
|  2> %pal nprocs 16 end
|  3> %maxcore 3800
|  4> %base "DZ_Si-S_22_AB"
|  5>
|  6> *xyz 0 1
|  7> S         0.549538   -0.738063    0.000000
|  8> C         1.632475    0.723706    0.000000
|  9> H         1.475105    1.328397   -0.890433
| 10> H         2.656756    0.359483    0.000000
| 11> H         1.475105    1.328396    0.890434
| 12> Si        -1.344673    0.224333    0.000000
| 13> H        -2.357101   -0.848860    0.000000
| 14> H        -1.505947    1.079349   -1.197132
| 15> H        -1.505947    1.079348    1.197132
| 16> *
| 17>
| 18> $new_job
| 19> ! ri-mp2 aug-cc-pvtz aug-cc-pvtz/c tightscf
| 20> %pal nprocs 16 end
| 21> %maxcore 3800
| 22> %base "TZ_Si-S_22_AB"
| 23>
| 24> *xyz 0 1
| 25> S         0.549538   -0.738063    0.000000
| 26> C         1.632475    0.723706    0.000000
| 27> H         1.475105    1.328397   -0.890433
| 28> H         2.656756    0.359483    0.000000
| 29> H         1.475105    1.328396    0.890434
| 30> Si        -1.344673    0.224333    0.000000
| 31> H        -2.357101   -0.848860    0.000000
| 32> H        -1.505947    1.079349   -1.197132
| 33> H        -1.505947    1.079348    1.197132
| 34> *
| 35>
| 36> $new_job
| 37> ! ri-mp2 aug-cc-pvqz aug-cc-pvqz/c tightscf
| 38> %pal nprocs 16 end
| 39> %maxcore 3800
| 40> %base "QZ_Si-S_22_AB"
| 41>
| 42> *xyz 0 1
| 43> S         0.549538   -0.738063    0.000000
| 44> C         1.632475    0.723706    0.000000
| 45> H         1.475105    1.328397   -0.890433
| 46> H         2.656756    0.359483    0.000000
| 47> H         1.475105    1.328396    0.890434
| 48> Si        -1.344673    0.224333    0.000000
| 49> H        -2.357101   -0.848860    0.000000
| 50> H        -1.505947    1.079349   -1.197132
| 51> H        -1.505947    1.079348    1.197132
| 52> *
| 53>
| 54>
| 55>
| 56>
| 57>                          ****END OF INPUT****
 Total Charge           Charge          ....    0
 Multiplicity           Mult            ....    1
 Number of Electrons    NEL             ....   42
MP2 TOTAL ENERGY:     -728.251081619 Eh
FINAL SINGLE POINT ENERGY      -728.251081619400
MP2 TOTAL ENERGY:     -728.385019757 Eh
FINAL SINGLE POINT ENERGY      -728.385019757083

CARTESIAN COORDINATES (ANGSTROEM)
---------------------------------
  S      0.549538   -0.738063    0.000000
  C      1.632475    0.723706    0.000000
  H      1.475105    1.328397   -0.890433
  H      2.656756    0.359483    0.000000
  H      1.475105    1.328396    0.890434
  Si    -1.344673    0.224333    0.000000
  H     -2.357101   -0.848860    0.000000
  H     -1.505947    1.079349   -1.197132
  H     -1.505947    1.079348    1.197132

 Multiplicity           Mult            ....    1
 Number of Electrons    NEL             ....   42
 Basis Dimension        Dim             ....  524

ORBITAL ENERGIES
----------------

  NO   OCC          E(Eh)            E(eV)
   0   2.0000     -91.940292     -2501.8225
   1   2.0000     -68.790653     -1871.8888
   2   2.0000     -11.261317      -306.4360
   3   2.0000      -8.944313      -243.3871
   4   2.0000      -6.625792      -180.2970
   5   2.0000      -6.625082      -180.2776
   6   2.0000      -6.624294      -180.2562
   7   2.0000      -6.138280      -167.0311
   8   2.0000      -4.244884      -115.5092
   9   2.0000      -4.244429      -115.4968
  10   2.0000      -4.244209      -115.4908
  11   2.0000      -1.037690       -28.2370
  12   2.0000      -0.867874       -23.6161
  13   2.0000      -0.706403       -19.2222
  14   2.0000      -0.598047       -16.2737
  15   2.0000      -0.596070       -16.2199
  16   2.0000      -0.519789       -14.1442
  17   2.0000      -0.495132       -13.4732
  18   2.0000      -0.475254       -12.9323
  19   2.0000      -0.424767       -11.5585
  20   2.0000      -0.357661        -9.7325
  21   0.0000       0.024687         0.6718
  22   0.0000       0.033737         0.9180
  23   0.0000       0.037443         1.0189
  24   0.0000       0.040215         1.0943
  25   0.0000       0.049368         1.3434

MULLIKEN ATOMIC CHARGES
-----------------------
   0 S :   -0.283181
   1 C :   -0.914378
   2 H :    0.268735
   3 H :    0.396246
   4 H :    0.268735
   5 Si:    0.809913
   6 H :   -0.201296
   7 H :   -0.172387
   8 H :   -0.172387
Sum of atomic charges:    0.0000000

LOEWDIN ATOMIC CHARGES
----------------------
   0 S :    1.072649
   1 C :    0.441003
   2 H :   -0.383503
   3 H :   -0.395493
   4 H :   -0.383502
   5 Si:    0.580651
   6 H :   -0.325516
   7 H :   -0.303144
   8 H :   -0.303145

  Mayer bond orders larger than 0.100000
B(  0-S ,  1-C ) :   0.9653 B(  0-S ,  5-Si) :   0.7955 B(  1-C ,  2-H ) :   0.9217
B(  1-C ,  3-H ) :   0.8175 B(  1-C ,  4-H ) :   0.9217 B(  5-Si,  6-H ) :   0.8424
B(  5-Si,  7-H ) :   0.8244 B(  5-Si,  8-H ) :   0.8244

MP2 TOTAL ENERGY:     -728.427296066 Eh
FINAL SINGLE POINT ENERGY      -728.427296065854

DIPOLE MOMENT
-------------
                                X             Y             Z
Electronic contribution:     -0.16020      -3.77814      -0.00000
Nuclear contribution   :      0.30525       4.37263       0.00000
                        -----------------------------------------
Total Dipole Moment    :      0.14505       0.59449       0.00000
                        -----------------------------------------
Magnitude (a.u.)       :      0.61193
Magnitude (Debye)      :      1.55541

Rotational constants in cm-1:     0.468004     0.141904     0.115589
Rotational constants in MHz : 14030.419230  4254.179900  3465.276348

                             ****ORCA TERMINATED NORMALLY****
TOTAL RUN TIME: 0 days 0 hours 3 minutes 21 seconds 75 msec
