                         Program Version 5.0.4 -  RELEASE  -
|  1> ! ri-mp2 aug-cc-pvdz aug-cc-pvdz/c tightscf
|  2> %pal nprocs 16 end
|  3> %maxcore 3800
|  4> %base "DZ_P-Si_19_AB"
|  5>
|  6> *xyz 0 1
|  7> Si         0.474625   -0.043893   -0.316898
|  8> N         1.367917   -0.229252    1.312523
|  9> N         0.685357    1.778002   -0.636684
| 10> P        -1.694274   -0.379546    0.167939
| 11> C         1.310616   -1.010495   -1.631742
| 12> O        -1.995357    0.595132    1.378487
| 13> O        -0.261179    2.284450   -1.229115
| 14> O         2.507521   -0.630197    1.319863
| 15> O         1.692701    2.361769   -0.317297
| 16> O         0.729882    0.073816    2.313286
| 17> O        -1.901739   -1.811356    0.344006
| 18> C         1.246601   -2.522597   -1.376804
| 19> H         2.343985   -0.663366   -1.698466
| 20> H         0.824935   -0.753646   -2.577302
| 21> H         1.792633   -2.790991   -0.473344
| 22> H         1.700130   -3.057843   -2.209248
| 23> H         0.219931   -2.869844   -1.266745
| 24> H        -1.397408    0.455573    2.131024
| 25> O        -2.531047    0.268073   -1.000527
| 26> H        -2.357315    1.211611   -1.137634
| 27> *
| 28>
| 29> $new_job
| 30> ! ri-mp2 aug-cc-pvtz aug-cc-pvtz/c tightscf
| 31> %pal nprocs 16 end
| 32> %maxcore 3800
| 33> %base "TZ_P-Si_19_AB"
| 34>
| 35> *xyz 0 1
| 36> Si         0.474625   -0.043893   -0.316898
| 37> N         1.367917   -0.229252    1.312523
| 38> N         0.685357    1.778002   -0.636684
| 39> P        -1.694274   -0.379546    0.167939
| 40> C         1.310616   -1.010495   -1.631742
| 41> O        -1.995357    0.595132    1.378487
| 42> O        -0.261179    2.284450   -1.229115
| 43> O         2.507521   -0.630197    1.319863
| 44> O         1.692701    2.361769   -0.317297
| 45> O         0.729882    0.073816    2.313286
| 46> O        -1.901739   -1.811356    0.344006
| 47> C         1.246601   -2.522597   -1.376804
| 48> H         2.343985   -0.663366   -1.698466
| 49> H         0.824935   -0.753646   -2.577302
| 50> H         1.792633   -2.790991   -0.473344
| 51> H         1.700130   -3.057843   -2.209248
| 52> H         0.219931   -2.869844   -1.266745
| 53> H        -1.397408    0.455573    2.131024
| 54> O        -2.531047    0.268073   -1.000527
| 55> H        -2.357315    1.211611   -1.137634
| 56> *
| 57>
| 58> $new_job
| 59> ! ri-mp2 aug-cc-pvqz aug-cc-pvqz/c tightscf
| 60> %pal nprocs 16 end
| 61> %maxcore 3800
| 62> %base "QZ_P-Si_19_AB"
| 63>
| 64> *xyz 0 1
| 65> Si         0.474625   -0.043893   -0.316898
| 66> N         1.367917   -0.229252    1.312523
| 67> N         0.685357    1.778002   -0.636684
| 68> P        -1.694274   -0.379546    0.167939
| 69> C         1.310616   -1.010495   -1.631742
| 70> O        -1.995357    0.595132    1.378487
| 71> O        -0.261179    2.284450   -1.229115
| 72> O         2.507521   -0.630197    1.319863
| 73> O         1.692701    2.361769   -0.317297
| 74> O         0.729882    0.073816    2.313286
| 75> O        -1.901739   -1.811356    0.344006
| 76> C         1.246601   -2.522597   -1.376804
| 77> H         2.343985   -0.663366   -1.698466
| 78> H         0.824935   -0.753646   -2.577302
| 79> H         1.792633   -2.790991   -0.473344
| 80> H         1.700130   -3.057843   -2.209248
| 81> H         0.219931   -2.869844   -1.266745
| 82> H        -1.397408    0.455573    2.131024
| 83> O        -2.531047    0.268073   -1.000527
| 84> H        -2.357315    1.211611   -1.137634
| 85> *
| 86>
| 87>
| 88>
| 89>
| 90>                          ****END OF INPUT****
 Total Charge           Charge          ....    0
 Multiplicity           Mult            ....    1
 Number of Electrons    NEL             ....  118
MP2 TOTAL ENERGY:    -1344.678373533 Eh
FINAL SINGLE POINT ENERGY     -1344.678373533388
MP2 TOTAL ENERGY:    -1345.387619954 Eh
FINAL SINGLE POINT ENERGY     -1345.387619953937

CARTESIAN COORDINATES (ANGSTROEM)
---------------------------------
  Si     0.474625   -0.043893   -0.316898
  N      1.367917   -0.229252    1.312523
  N      0.685357    1.778002   -0.636684
  P     -1.694274   -0.379546    0.167939
  C      1.310616   -1.010495   -1.631742
  O     -1.995357    0.595132    1.378487
  O     -0.261179    2.284450   -1.229115
  O      2.507521   -0.630197    1.319863
  O      1.692701    2.361769   -0.317297
  O      0.729882    0.073816    2.313286
  O     -1.901739   -1.811356    0.344006
  C      1.246601   -2.522597   -1.376804
  H      2.343985   -0.663366   -1.698466
  H      0.824935   -0.753646   -2.577302
  H      1.792633   -2.790991   -0.473344
  H      1.700130   -3.057843   -2.209248
  H      0.219931   -2.869844   -1.266745
  H     -1.397408    0.455573    2.131024
  O     -2.531047    0.268073   -1.000527
  H     -2.357315    1.211611   -1.137634

 Multiplicity           Mult            ....    1
 Number of Electrons    NEL             ....  118
 Basis Dimension        Dim             .... 1370

ORBITAL ENERGIES
----------------

  NO   OCC          E(Eh)            E(eV)
   0   2.0000     -80.102107     -2179.6891
   1   2.0000     -68.903163     -1874.9504
   2   2.0000     -20.648575      -561.8763
   3   2.0000     -20.646582      -561.8221
   4   2.0000     -20.639678      -561.6342
   5   2.0000     -20.637325      -561.5702
   6   2.0000     -20.628571      -561.3319
   7   2.0000     -20.626127      -561.2655
   8   2.0000     -20.537601      -558.8565
   9   2.0000     -15.859447      -431.5575
  10   2.0000     -15.857849      -431.5140
  11   2.0000     -11.278664      -306.9080
  12   2.0000     -11.258272      -306.3531
  13   2.0000      -7.624745      -207.4799
  14   2.0000      -6.249721      -170.0636
  15   2.0000      -5.523070      -150.2904
  16   2.0000      -5.522548      -150.2762
  17   2.0000      -5.521386      -150.2446
  18   2.0000      -4.356170      -118.5374
  19   2.0000      -4.355360      -118.5154
  20   2.0000      -4.353974      -118.4777
  21   2.0000      -1.643211       -44.7140
  22   2.0000      -1.638827       -44.5948
  23   2.0000      -1.468806       -39.9683
  24   2.0000      -1.441313       -39.2201
  25   2.0000      -1.439065       -39.1589
  26   2.0000      -1.412600       -38.4388
  27   2.0000      -1.332211       -36.2513
  28   2.0000      -1.086492       -29.5650
  29   2.0000      -1.020118       -27.7588
  30   2.0000      -0.970288       -26.4029
  31   2.0000      -0.900631       -24.5074
  32   2.0000      -0.877068       -23.8662
  33   2.0000      -0.843106       -22.9421
  34   2.0000      -0.815165       -22.1818
  35   2.0000      -0.785297       -21.3690
  36   2.0000      -0.765674       -20.8350
  37   2.0000      -0.762330       -20.7440
  38   2.0000      -0.752524       -20.4772
  39   2.0000      -0.749519       -20.3954
  40   2.0000      -0.730259       -19.8714
  41   2.0000      -0.673796       -18.3349
  42   2.0000      -0.659740       -17.9524
  43   2.0000      -0.653921       -17.7941
  44   2.0000      -0.616940       -16.7878
  45   2.0000      -0.612808       -16.6754
  46   2.0000      -0.590795       -16.0763
  47   2.0000      -0.577172       -15.7057
  48   2.0000      -0.563656       -15.3379
  49   2.0000      -0.551630       -15.0106
  50   2.0000      -0.543119       -14.7790
  51   2.0000      -0.541770       -14.7423
  52   2.0000      -0.530534       -14.4366
  53   2.0000      -0.500755       -13.6262
  54   2.0000      -0.497710       -13.5434
  55   2.0000      -0.495986       -13.4965
  56   2.0000      -0.493113       -13.4183
  57   2.0000      -0.489191       -13.3116
  58   2.0000      -0.452830       -12.3221
  59   0.0000       0.016742         0.4556
  60   0.0000       0.025912         0.7051
  61   0.0000       0.028992         0.7889
  62   0.0000       0.031427         0.8552
  63   0.0000       0.035512         0.9663

MULLIKEN ATOMIC CHARGES
-----------------------
   0 Si:    1.331519
   1 N :    0.821047
   2 N :    0.757338
   3 P :    2.423561
   4 C :   -0.635908
   5 O :   -1.044387
   6 O :   -0.693166
   7 O :   -0.627648
   8 O :   -0.634009
   9 O :   -0.718936
  10 O :   -1.274390
  11 C :   -0.888563
  12 H :    0.257032
  13 H :    0.282098
  14 H :    0.228998
  15 H :    0.344308
  16 H :    0.282603
  17 H :    0.413686
  18 O :   -1.058557
  19 H :    0.433374
Sum of atomic charges:   -0.0000000

LOEWDIN ATOMIC CHARGES
----------------------
   0 Si:   -0.214404
   1 N :   -0.823520
   2 N :   -0.844068
   3 P :   -0.593981
   4 C :    0.564276
   5 O :    1.089766
   6 O :    0.485293
   7 O :    0.504596
   8 O :    0.490603
   9 O :    0.510853
  10 O :    0.275452
  11 C :    0.890072
  12 H :   -0.323371
  13 H :   -0.320059
  14 H :   -0.293282
  15 H :   -0.271072
  16 H :   -0.301581
  17 H :   -0.975742
  18 O :    1.077575
  19 H :   -0.927406

  Mayer bond orders larger than 0.100000
B(  0-Si,  1-N ) :   0.5992 B(  0-Si,  2-N ) :   0.5525 B(  0-Si,  3-P ) :   0.8943
B(  0-Si,  4-C ) :   0.7932 B(  0-Si,  5-O ) :  -0.1149 B(  0-Si,  6-O ) :   0.1026
B(  0-Si, 10-O ) :  -0.1177 B(  1-N ,  7-O ) :   1.1997 B(  1-N ,  9-O ) :   1.0857
B(  2-N ,  6-O ) :   1.1204 B(  2-N ,  8-O ) :   1.2157 B(  3-P ,  5-O ) :   0.6266
B(  3-P , 10-O ) :   1.2230 B(  3-P , 18-O ) :   0.5286 B(  4-C , 11-C ) :   0.9513
B(  4-C , 12-H ) :   0.9271 B(  4-C , 13-H ) :   0.8845 B(  5-O , 17-H ) :   0.8321
B(  6-O ,  8-O ) :   0.1414 B(  7-O ,  9-O ) :   0.1399 B( 11-C , 14-H ) :   0.9581
B( 11-C , 15-H ) :   0.9250 B( 11-C , 16-H ) :   0.9062 B( 18-O , 19-H ) :   0.7976

MP2 TOTAL ENERGY:    -1345.621638190 Eh
FINAL SINGLE POINT ENERGY     -1345.621638189747

DIPOLE MOMENT
-------------
                                X             Y             Z
Electronic contribution:     -4.08529       7.62313       5.85496
Nuclear contribution   :      4.52188      -7.74747      -7.05264
                        -----------------------------------------
Total Dipole Moment    :      0.43659      -0.12434      -1.19767
                        -----------------------------------------
Magnitude (a.u.)       :      1.28082
Magnitude (Debye)      :      3.25558

Rotational constants in cm-1:     0.024067     0.019495     0.017296
Rotational constants in MHz :   721.500470   584.450263   518.531736

                             ****ORCA TERMINATED NORMALLY****
TOTAL RUN TIME: 0 days 1 hours 10 minutes 54 seconds 878 msec
