                         Program Version 5.0.4 -  RELEASE  -
|  1> ! ri-mp2 aug-cc-pvdz aug-cc-pvdz/c tightscf
|  2> %pal nprocs 16 end
|  3> %maxcore 3800
|  4> %base "DZ_P-Cl_22_A"
|  5> %scf
|  6> STABPerform true
|  7> STABRestartUHFifUnstable true
|  8> end
|  9>
| 10> *xyz 0 2
| 11> P        -0.757906   -1.371691    0.000000
| 12> C         0.121141   -0.526087   -1.385524
| 13> C         0.121141    0.999767   -1.272595
| 14> C         0.793470    1.500026    0.000000
| 15> C         0.121141    0.999767    1.272595
| 16> C         0.121141   -0.526087    1.385524
| 17> H        -0.341818   -0.841945   -2.321319
| 18> H         1.154448   -0.890213   -1.408581
| 19> H        -0.909471    1.365289    1.303469
| 20> H         0.625646    1.424771    2.143736
| 21> H        -0.341818   -0.841945    2.321319
| 22> H         1.154448   -0.890213    1.408581
| 23> H        -0.909471    1.365289   -1.303469
| 24> H         0.625646    1.424771   -2.143736
| 25> H         0.800889    2.591932    0.000000
| 26> H         1.841897    1.183303    0.000000
| 27> *
| 28>
| 29> $new_job
| 30> ! ri-mp2 aug-cc-pvtz aug-cc-pvtz/c tightscf
| 31> %pal nprocs 16 end
| 32> %maxcore 3800
| 33> %base "TZ_P-Cl_22_A"
| 34>
| 35> *xyz 0 2
| 36> P        -0.757906   -1.371691    0.000000
| 37> C         0.121141   -0.526087   -1.385524
| 38> C         0.121141    0.999767   -1.272595
| 39> C         0.793470    1.500026    0.000000
| 40> C         0.121141    0.999767    1.272595
| 41> C         0.121141   -0.526087    1.385524
| 42> H        -0.341818   -0.841945   -2.321319
| 43> H         1.154448   -0.890213   -1.408581
| 44> H        -0.909471    1.365289    1.303469
| 45> H         0.625646    1.424771    2.143736
| 46> H        -0.341818   -0.841945    2.321319
| 47> H         1.154448   -0.890213    1.408581
| 48> H        -0.909471    1.365289   -1.303469
| 49> H         0.625646    1.424771   -2.143736
| 50> H         0.800889    2.591932    0.000000
| 51> H         1.841897    1.183303    0.000000
| 52> *
| 53>
| 54> $new_job
| 55> ! ri-mp2 aug-cc-pvqz aug-cc-pvqz/c tightscf
| 56> %pal nprocs 16 end
| 57> %maxcore 3800
| 58> %base "QZ_P-Cl_22_A"
| 59>
| 60> *xyz 0 2
| 61> P        -0.757906   -1.371691    0.000000
| 62> C         0.121141   -0.526087   -1.385524
| 63> C         0.121141    0.999767   -1.272595
| 64> C         0.793470    1.500026    0.000000
| 65> C         0.121141    0.999767    1.272595
| 66> C         0.121141   -0.526087    1.385524
| 67> H        -0.341818   -0.841945   -2.321319
| 68> H         1.154448   -0.890213   -1.408581
| 69> H        -0.909471    1.365289    1.303469
| 70> H         0.625646    1.424771    2.143736
| 71> H        -0.341818   -0.841945    2.321319
| 72> H         1.154448   -0.890213    1.408581
| 73> H        -0.909471    1.365289   -1.303469
| 74> H         0.625646    1.424771   -2.143736
| 75> H         0.800889    2.591932    0.000000
| 76> H         1.841897    1.183303    0.000000
| 77> *
| 78>
| 79>
| 80>
| 81>
| 82>                          ****END OF INPUT****
 Total Charge           Charge          ....    0
 Multiplicity           Mult            ....    2
 Number of Electrons    NEL             ....   55
MP2 TOTAL ENERGY:     -536.749766970 Eh
FINAL SINGLE POINT ENERGY      -536.749766970227
MP2 TOTAL ENERGY:     -536.975200114 Eh
FINAL SINGLE POINT ENERGY      -536.975200114123

CARTESIAN COORDINATES (ANGSTROEM)
---------------------------------
  P     -0.757906   -1.371691    0.000000
  C      0.121141   -0.526087   -1.385524
  C      0.121141    0.999767   -1.272595
  C      0.793470    1.500026    0.000000
  C      0.121141    0.999767    1.272595
  C      0.121141   -0.526087    1.385524
  H     -0.341818   -0.841945   -2.321319
  H      1.154448   -0.890213   -1.408581
  H     -0.909471    1.365289    1.303469
  H      0.625646    1.424771    2.143736
  H     -0.341818   -0.841945    2.321319
  H      1.154448   -0.890213    1.408581
  H     -0.909471    1.365289   -1.303469
  H      0.625646    1.424771   -2.143736
  H      0.800889    2.591932    0.000000
  H      1.841897    1.183303    0.000000

 Multiplicity           Mult            ....    2
 Number of Electrons    NEL             ....   55
 Basis Dimension        Dim             ....  944

ORBITAL ENERGIES
----------------
                 SPIN UP ORBITALS
  NO   OCC          E(Eh)            E(eV)
   0   1.0000     -79.928391     -2174.9621
   1   1.0000     -11.224078      -305.4227
   2   1.0000     -11.224051      -305.4220
   3   1.0000     -11.221939      -305.3645
   4   1.0000     -11.221934      -305.3643
   5   1.0000     -11.219043      -305.2857
   6   1.0000      -7.471696      -203.3152
   7   1.0000      -5.376778      -146.3096
   8   1.0000      -5.362626      -145.9245
   9   1.0000      -5.360796      -145.8747
  10   1.0000      -1.104322       -30.0501
  11   1.0000      -1.012465       -27.5506
  12   1.0000      -0.969061       -26.3695
  13   1.0000      -0.835441       -22.7335
  14   1.0000      -0.801524       -21.8106
  15   1.0000      -0.727299       -19.7908
  16   1.0000      -0.639166       -17.3926
  17   1.0000      -0.607172       -16.5220
  18   1.0000      -0.599267       -16.3069
  19   1.0000      -0.572560       -15.5802
  20   1.0000      -0.541547       -14.7363
  21   1.0000      -0.514141       -13.9905
  22   1.0000      -0.490638       -13.3510
  23   1.0000      -0.485088       -13.1999
  24   1.0000      -0.470493       -12.8028
  25   1.0000      -0.418405       -11.3854
  26   1.0000      -0.369483       -10.0541
  27   1.0000      -0.325519        -8.8578
  28   0.0000       0.025339         0.6895
  29   0.0000       0.029694         0.8080
  30   0.0000       0.032817         0.8930
  31   0.0000       0.035233         0.9587
  32   0.0000       0.046715         1.2712

                 SPIN DOWN ORBITALS
  NO   OCC          E(Eh)            E(eV)
   0   1.0000     -79.921436     -2174.7728
   1   1.0000     -11.223451      -305.4056
   2   1.0000     -11.223438      -305.4053
   3   1.0000     -11.222847      -305.3892
   4   1.0000     -11.222831      -305.3888
   5   1.0000     -11.219155      -305.2887
   6   1.0000      -7.463122      -203.0819
   7   1.0000      -5.357846      -145.7944
   8   1.0000      -5.357820      -145.7937
   9   1.0000      -5.343784      -145.4118
  10   1.0000      -1.100607       -29.9490
  11   1.0000      -1.010665       -27.5016
  12   1.0000      -0.957328       -26.0502
  13   1.0000      -0.834667       -22.7124
  14   1.0000      -0.788437       -21.4545
  15   1.0000      -0.693892       -18.8818
  16   1.0000      -0.637440       -17.3456
  17   1.0000      -0.603765       -16.4293
  18   1.0000      -0.586359       -15.9556
  19   1.0000      -0.561082       -15.2678
  20   1.0000      -0.540696       -14.7131
  21   1.0000      -0.510706       -13.8970
  22   1.0000      -0.487130       -13.2555
  23   1.0000      -0.478673       -13.0253
  24   1.0000      -0.468927       -12.7601
  25   1.0000      -0.415938       -11.3183
  26   1.0000      -0.351964        -9.5774
  27   0.0000       0.024936         0.6785
  28   0.0000       0.029746         0.8094
  29   0.0000       0.032238         0.8772
  30   0.0000       0.035397         0.9632
  31   0.0000       0.046773         1.2728

MULLIKEN ATOMIC CHARGES AND SPIN POPULATIONS
--------------------------------------------
   0 P :    0.241415    1.123255
   1 C :   -0.669471   -0.085379
   2 C :   -0.451182    0.013496
   3 C :   -0.400516   -0.011023
   4 C :   -0.451187    0.013493
   5 C :   -0.669499   -0.085377
   6 H :    0.274053   -0.010506
   7 H :    0.185636    0.032486
   8 H :    0.231625   -0.006153
   9 H :    0.283890    0.000164
  10 H :    0.274080   -0.010506
  11 H :    0.185634    0.032485
  12 H :    0.231643   -0.006151
  13 H :    0.283853    0.000161
  14 H :    0.251819    0.001087
  15 H :    0.198207   -0.001530
Sum of atomic charges         :    0.0000000

LOEWDIN ATOMIC CHARGES AND SPIN POPULATIONS
-------------------------------------------
   0 P :    1.137053    0.563143
   1 C :    0.286411    0.148313
   2 C :    0.441284    0.022931
   3 C :    0.491048    0.004861
   4 C :    0.441284    0.022931
   5 C :    0.286411    0.148313
   6 H :   -0.371124    0.007866
   7 H :   -0.352096    0.023406
   8 H :   -0.282303    0.010074
   9 H :   -0.268889    0.002894
  10 H :   -0.371124    0.007866
  11 H :   -0.352096    0.023406
  12 H :   -0.282303    0.010074
  13 H :   -0.268889    0.002894
  14 H :   -0.264299    0.000593
  15 H :   -0.270369    0.000437

  Mayer bond orders larger than 0.100000
B(  0-P ,  1-C ) :   0.8133 B(  0-P ,  5-C ) :   0.8133 B(  1-C ,  2-C ) :   0.9790
B(  1-C ,  6-H ) :   0.9579 B(  1-C ,  7-H ) :   0.9497 B(  2-C ,  3-C ) :   0.8975
B(  2-C , 12-H ) :   0.9045 B(  2-C , 13-H ) :   0.8968 B(  3-C ,  4-C ) :   0.8974
B(  3-C , 14-H ) :   0.9335 B(  3-C , 15-H ) :   0.9259 B(  4-C ,  5-C ) :   0.9790
B(  4-C ,  8-H ) :   0.9045 B(  4-C ,  9-H ) :   0.8968 B(  5-C , 10-H ) :   0.9579
B(  5-C , 11-H ) :   0.9497

MP2 TOTAL ENERGY:     -537.043535642 Eh
FINAL SINGLE POINT ENERGY      -537.043535642400

DIPOLE MOMENT
-------------
                                X             Y             Z
Electronic contribution:     -4.04476      -6.83131      -0.00000
Nuclear contribution   :      4.51777       7.35294      -0.00000
                        -----------------------------------------
Total Dipole Moment    :      0.47301       0.52163      -0.00000
                        -----------------------------------------
Magnitude (a.u.)       :      0.70415
Magnitude (Debye)      :      1.78981

Rotational constants in cm-1:     0.132424     0.099261     0.062978
Rotational constants in MHz :  3969.959856  2975.771315  1888.047910

                             ****ORCA TERMINATED NORMALLY****
TOTAL RUN TIME: 0 days 5 hours 11 minutes 50 seconds 609 msec
