                         Program Version 5.0.4 -  RELEASE  -
|  1> ! ri-mp2 aug-cc-pvdz aug-cc-pvdz/c tightscf
|  2> %pal nprocs 16 end
|  3> %maxcore 3800
|  4> %base "DZ_Si-Si_82_AB"
|  5> %scf
|  6> STABPerform true
|  7> STABRestartUHFifUnstable true
|  8> end
|  9>
| 10> *xyz 0 1
| 11> Si         2.257562    0.161954   -0.481341
| 12> Si         0.483669   -0.491323    0.892920
| 13> C        -1.176676   -0.371961   -0.054102
| 14> H         0.475617    0.304852    2.140692
| 15> H         0.659155   -1.914484    1.263152
| 16> H         2.235572   -0.635354   -1.728693
| 17> H         3.556690   -0.052746    0.195160
| 18> N        -1.812638    0.684818   -0.328824
| 19> H         2.138346    1.593570   -0.836976
| 20> C        -1.738928   -1.681629   -0.534765
| 21> H        -1.009469   -2.214703   -1.149838
| 22> H        -2.640968   -1.504603   -1.117234
| 23> H        -1.972357   -2.333981    0.309445
| 24> C        -1.328272    1.978118    0.078689
| 25> H        -1.198070    2.600194   -0.808060
| 26> H        -0.384311    1.966193    0.635422
| 27> H        -2.085718    2.461323    0.697662
| 28> *
| 29>
| 30> $new_job
| 31> ! ri-mp2 aug-cc-pvtz aug-cc-pvtz/c tightscf
| 32> %pal nprocs 16 end
| 33> %maxcore 3800
| 34> %base "TZ_Si-Si_82_AB"
| 35>
| 36> *xyz 0 1
| 37> Si         2.257562    0.161954   -0.481341
| 38> Si         0.483669   -0.491323    0.892920
| 39> C        -1.176676   -0.371961   -0.054102
| 40> H         0.475617    0.304852    2.140692
| 41> H         0.659155   -1.914484    1.263152
| 42> H         2.235572   -0.635354   -1.728693
| 43> H         3.556690   -0.052746    0.195160
| 44> N        -1.812638    0.684818   -0.328824
| 45> H         2.138346    1.593570   -0.836976
| 46> C        -1.738928   -1.681629   -0.534765
| 47> H        -1.009469   -2.214703   -1.149838
| 48> H        -2.640968   -1.504603   -1.117234
| 49> H        -1.972357   -2.333981    0.309445
| 50> C        -1.328272    1.978118    0.078689
| 51> H        -1.198070    2.600194   -0.808060
| 52> H        -0.384311    1.966193    0.635422
| 53> H        -2.085718    2.461323    0.697662
| 54> *
| 55>
| 56> $new_job
| 57> ! ri-mp2 aug-cc-pvqz aug-cc-pvqz/c tightscf
| 58> %pal nprocs 16 end
| 59> %maxcore 3800
| 60> %base "QZ_Si-Si_82_AB"
| 61>
| 62> *xyz 0 1
| 63> Si         2.257562    0.161954   -0.481341
| 64> Si         0.483669   -0.491323    0.892920
| 65> C        -1.176676   -0.371961   -0.054102
| 66> H         0.475617    0.304852    2.140692
| 67> H         0.659155   -1.914484    1.263152
| 68> H         2.235572   -0.635354   -1.728693
| 69> H         3.556690   -0.052746    0.195160
| 70> N        -1.812638    0.684818   -0.328824
| 71> H         2.138346    1.593570   -0.836976
| 72> C        -1.738928   -1.681629   -0.534765
| 73> H        -1.009469   -2.214703   -1.149838
| 74> H        -2.640968   -1.504603   -1.117234
| 75> H        -1.972357   -2.333981    0.309445
| 76> C        -1.328272    1.978118    0.078689
| 77> H        -1.198070    2.600194   -0.808060
| 78> H        -0.384311    1.966193    0.635422
| 79> H        -2.085718    2.461323    0.697662
| 80> *
| 81>
| 82>
| 83>
| 84>
| 85>                          ****END OF INPUT****
 Total Charge           Charge          ....    0
 Multiplicity           Mult            ....    1
 Number of Electrons    NEL             ....   64
MP2 TOTAL ENERGY:     -753.132098539 Eh
FINAL SINGLE POINT ENERGY      -753.132098539396
MP2 TOTAL ENERGY:     -753.364129490 Eh
FINAL SINGLE POINT ENERGY      -753.364129490314

CARTESIAN COORDINATES (ANGSTROEM)
---------------------------------
  Si     2.257562    0.161954   -0.481341
  Si     0.483669   -0.491323    0.892920
  C     -1.176676   -0.371961   -0.054102
  H      0.475617    0.304852    2.140692
  H      0.659155   -1.914484    1.263152
  H      2.235572   -0.635354   -1.728693
  H      3.556690   -0.052746    0.195160
  N     -1.812638    0.684818   -0.328824
  H      2.138346    1.593570   -0.836976
  C     -1.738928   -1.681629   -0.534765
  H     -1.009469   -2.214703   -1.149838
  H     -2.640968   -1.504603   -1.117234
  H     -1.972357   -2.333981    0.309445
  C     -1.328272    1.978118    0.078689
  H     -1.198070    2.600194   -0.808060
  H     -0.384311    1.966193    0.635422
  H     -2.085718    2.461323    0.697662

 Multiplicity           Mult            ....    1
 Number of Electrons    NEL             ....   64
 Basis Dimension        Dim             ....  994

ORBITAL ENERGIES
----------------

  NO   OCC          E(Eh)            E(eV)
   0   2.0000     -68.773034     -1871.4094
   1   2.0000     -68.770722     -1871.3465
   2   2.0000     -15.555727      -423.2929
   3   2.0000     -11.266066      -306.5652
   4   2.0000     -11.246635      -306.0365
   5   2.0000     -11.221112      -305.3420
   6   2.0000      -6.124062      -166.6442
   7   2.0000      -6.121672      -166.5792
   8   2.0000      -4.230314      -115.1127
   9   2.0000      -4.230177      -115.1090
  10   2.0000      -4.229859      -115.1003
  11   2.0000      -4.227723      -115.0422
  12   2.0000      -4.227713      -115.0419
  13   2.0000      -4.227701      -115.0416
  14   2.0000      -1.230032       -33.4709
  15   2.0000      -1.013830       -27.5877
  16   2.0000      -0.918499       -24.9936
  17   2.0000      -0.788048       -21.4439
  18   2.0000      -0.720704       -19.6114
  19   2.0000      -0.673507       -18.3271
  20   2.0000      -0.623351       -16.9622
  21   2.0000      -0.604497       -16.4492
  22   2.0000      -0.598076       -16.2745
  23   2.0000      -0.567859       -15.4522
  24   2.0000      -0.534622       -14.5478
  25   2.0000      -0.504729       -13.7344
  26   2.0000      -0.498120       -13.5545
  27   2.0000      -0.488743       -13.2994
  28   2.0000      -0.475136       -12.9291
  29   2.0000      -0.428921       -11.6715
  30   2.0000      -0.392531       -10.6813
  31   2.0000      -0.366776        -9.9805
  32   0.0000       0.022803         0.6205
  33   0.0000       0.028849         0.7850
  34   0.0000       0.031403         0.8545
  35   0.0000       0.035537         0.9670
  36   0.0000       0.045007         1.2247

MULLIKEN ATOMIC CHARGES
-----------------------
   0 Si:    0.343243
   1 Si:    1.219842
   2 C :    0.173482
   3 H :   -0.268485
   4 H :   -0.516876
   5 H :   -0.134398
   6 H :   -0.140132
   7 N :   -0.564409
   8 H :   -0.142402
   9 C :   -0.908154
  10 H :    0.233014
  11 H :    0.387015
  12 H :    0.235711
  13 C :   -0.835022
  14 H :    0.304682
  15 H :    0.203047
  16 H :    0.409842
Sum of atomic charges:   -0.0000000

LOEWDIN ATOMIC CHARGES
----------------------
   0 Si:    1.063828
   1 Si:    0.680415
   2 C :   -0.344427
   3 H :   -0.244167
   4 H :   -0.255580
   5 H :   -0.306897
   6 H :   -0.315477
   7 N :    0.558182
   8 H :   -0.304092
   9 C :    0.799948
  10 H :   -0.306462
  11 H :   -0.323428
  12 H :   -0.306795
  13 C :    0.627323
  14 H :   -0.310698
  15 H :   -0.403412
  16 H :   -0.308261

  Mayer bond orders larger than 0.100000
B(  0-Si,  1-Si) :   0.7487 B(  0-Si,  5-H ) :   0.7352 B(  0-Si,  6-H ) :   0.7670
B(  0-Si,  8-H ) :   0.7382 B(  1-Si,  2-C ) :   0.6425 B(  1-Si,  3-H ) :   0.7972
B(  1-Si,  4-H ) :   0.5401 B(  2-C ,  7-N ) :   1.4688 B(  2-C ,  9-C ) :   0.8165
B(  7-N , 13-C ) :   0.8840 B(  9-C , 10-H ) :   0.9783 B(  9-C , 11-H ) :   0.8986
B(  9-C , 12-H ) :   0.9795 B( 13-C , 14-H ) :   0.9289 B( 13-C , 15-H ) :   0.9690
B( 13-C , 16-H ) :   0.8459

MP2 TOTAL ENERGY:     -753.437106737 Eh
FINAL SINGLE POINT ENERGY      -753.437106736784

DIPOLE MOMENT
-------------
                                X             Y             Z
Electronic contribution:      0.78916      -0.41132       0.68198
Nuclear contribution   :     -0.41251       0.30154      -0.43671
                        -----------------------------------------
Total Dipole Moment    :      0.37665      -0.10978       0.24527
                        -----------------------------------------
Magnitude (a.u.)       :      0.46269
Magnitude (Debye)      :      1.17605

Rotational constants in cm-1:     0.093057     0.046950     0.037970
Rotational constants in MHz :  2789.764154  1407.539743  1138.321197

                             ****ORCA TERMINATED NORMALLY****
TOTAL RUN TIME: 0 days 1 hours 17 minutes 42 seconds 917 msec
