                         Program Version 5.0.4 -  RELEASE  -
|  1> ! ri-mp2 aug-cc-pvdz aug-cc-pvdz/c tightscf
|  2> %pal nprocs 16 end
|  3> %maxcore 3800
|  4> %base "DZ_B-Si_28_AB"
|  5>
|  6> *xyz 0 1
|  7> Si        -0.007127   -0.127690    0.302200
|  8> B         1.999128   -0.391254    0.419257
|  9> N        -0.657792   -1.096416   -1.144608
| 10> N        -0.266784    1.615319   -0.340664
| 11> C        -1.109816   -0.351185    1.762864
| 12> O        -1.350419    1.934953   -0.767857
| 13> O        -0.254796   -0.759226   -2.241310
| 14> O         2.424363   -1.641622    0.702447
| 15> O        -1.391705   -2.041420   -0.929144
| 16> O         2.846764    0.635183    0.241061
| 17> O         0.683793    2.388083   -0.238027
| 18> C        -2.602315   -0.081773    1.563153
| 19> H        -0.701136    0.276948    2.561272
| 20> H        -0.945233   -1.383313    2.087988
| 21> H        -2.788532    0.946706    1.259471
| 22> H        -3.141731   -0.262463    2.492168
| 23> H        -3.018412   -0.737094    0.800286
| 24> H         2.394749    1.471374    0.039813
| 25> H         3.385255   -1.730412    0.735362
| 26> *
| 27>
| 28> $new_job
| 29> ! ri-mp2 aug-cc-pvtz aug-cc-pvtz/c tightscf
| 30> %pal nprocs 16 end
| 31> %maxcore 3800
| 32> %base "TZ_B-Si_28_AB"
| 33>
| 34> *xyz 0 1
| 35> Si        -0.007127   -0.127690    0.302200
| 36> B         1.999128   -0.391254    0.419257
| 37> N        -0.657792   -1.096416   -1.144608
| 38> N        -0.266784    1.615319   -0.340664
| 39> C        -1.109816   -0.351185    1.762864
| 40> O        -1.350419    1.934953   -0.767857
| 41> O        -0.254796   -0.759226   -2.241310
| 42> O         2.424363   -1.641622    0.702447
| 43> O        -1.391705   -2.041420   -0.929144
| 44> O         2.846764    0.635183    0.241061
| 45> O         0.683793    2.388083   -0.238027
| 46> C        -2.602315   -0.081773    1.563153
| 47> H        -0.701136    0.276948    2.561272
| 48> H        -0.945233   -1.383313    2.087988
| 49> H        -2.788532    0.946706    1.259471
| 50> H        -3.141731   -0.262463    2.492168
| 51> H        -3.018412   -0.737094    0.800286
| 52> H         2.394749    1.471374    0.039813
| 53> H         3.385255   -1.730412    0.735362
| 54> *
| 55>
| 56> $new_job
| 57> ! ri-mp2 aug-cc-pvqz aug-cc-pvqz/c tightscf
| 58> %pal nprocs 16 end
| 59> %maxcore 3800
| 60> %base "QZ_B-Si_28_AB"
| 61>
| 62> *xyz 0 1
| 63> Si        -0.007127   -0.127690    0.302200
| 64> B         1.999128   -0.391254    0.419257
| 65> N        -0.657792   -1.096416   -1.144608
| 66> N        -0.266784    1.615319   -0.340664
| 67> C        -1.109816   -0.351185    1.762864
| 68> O        -1.350419    1.934953   -0.767857
| 69> O        -0.254796   -0.759226   -2.241310
| 70> O         2.424363   -1.641622    0.702447
| 71> O        -1.391705   -2.041420   -0.929144
| 72> O         2.846764    0.635183    0.241061
| 73> O         0.683793    2.388083   -0.238027
| 74> C        -2.602315   -0.081773    1.563153
| 75> H        -0.701136    0.276948    2.561272
| 76> H        -0.945233   -1.383313    2.087988
| 77> H        -2.788532    0.946706    1.259471
| 78> H        -3.141731   -0.262463    2.492168
| 79> H        -3.018412   -0.737094    0.800286
| 80> H         2.394749    1.471374    0.039813
| 81> H         3.385255   -1.730412    0.735362
| 82> *
| 83>
| 84>
| 85>
| 86>
| 87>                          ****END OF INPUT****
 Total Charge           Charge          ....    0
 Multiplicity           Mult            ....    1
 Number of Electrons    NEL             ....  100
MP2 TOTAL ENERGY:     -953.558170510 Eh
FINAL SINGLE POINT ENERGY      -953.558170509530
MP2 TOTAL ENERGY:     -954.152324524 Eh
FINAL SINGLE POINT ENERGY      -954.152324524134

CARTESIAN COORDINATES (ANGSTROEM)
---------------------------------
  Si    -0.007127   -0.127690    0.302200
  B      1.999128   -0.391254    0.419257
  N     -0.657792   -1.096416   -1.144608
  N     -0.266784    1.615319   -0.340664
  C     -1.109816   -0.351185    1.762864
  O     -1.350419    1.934953   -0.767857
  O     -0.254796   -0.759226   -2.241310
  O      2.424363   -1.641622    0.702447
  O     -1.391705   -2.041420   -0.929144
  O      2.846764    0.635183    0.241061
  O      0.683793    2.388083   -0.238027
  C     -2.602315   -0.081773    1.563153
  H     -0.701136    0.276948    2.561272
  H     -0.945233   -1.383313    2.087988
  H     -2.788532    0.946706    1.259471
  H     -3.141731   -0.262463    2.492168
  H     -3.018412   -0.737094    0.800286
  H      2.394749    1.471374    0.039813
  H      3.385255   -1.730412    0.735362

 Multiplicity           Mult            ....    1
 Number of Electrons    NEL             ....  100
 Basis Dimension        Dim             .... 1286

ORBITAL ENERGIES
----------------

  NO   OCC          E(Eh)            E(eV)
   0   2.0000     -68.871986     -1874.1020
   1   2.0000     -20.631575      -561.4137
   2   2.0000     -20.623010      -561.1806
   3   2.0000     -20.617783      -561.0384
   4   2.0000     -20.616493      -561.0033
   5   2.0000     -20.605592      -560.7067
   6   2.0000     -20.596611      -560.4623
   7   2.0000     -15.840822      -431.0507
   8   2.0000     -15.832985      -430.8374
   9   2.0000     -11.263657      -306.4997
  10   2.0000     -11.244041      -305.9659
  11   2.0000      -7.685577      -209.1352
  12   2.0000      -6.219477      -169.2406
  13   2.0000      -4.325952      -117.7151
  14   2.0000      -4.325122      -117.6925
  15   2.0000      -4.323568      -117.6503
  16   2.0000      -1.624779       -44.2125
  17   2.0000      -1.615085       -43.9487
  18   2.0000      -1.425017       -38.7767
  19   2.0000      -1.418736       -38.6058
  20   2.0000      -1.415169       -38.5087
  21   2.0000      -1.383194       -37.6386
  22   2.0000      -1.070514       -29.1302
  23   2.0000      -0.998054       -27.1584
  24   2.0000      -0.948964       -25.8226
  25   2.0000      -0.888102       -24.1665
  26   2.0000      -0.825498       -22.4630
  27   2.0000      -0.811908       -22.0931
  28   2.0000      -0.788773       -21.4636
  29   2.0000      -0.768930       -20.9236
  30   2.0000      -0.747961       -20.3531
  31   2.0000      -0.738306       -20.0903
  32   2.0000      -0.731905       -19.9162
  33   2.0000      -0.720653       -19.6100
  34   2.0000      -0.665286       -18.1034
  35   2.0000      -0.644621       -17.5410
  36   2.0000      -0.630051       -17.1446
  37   2.0000      -0.610033       -16.5998
  38   2.0000      -0.605425       -16.4744
  39   2.0000      -0.579609       -15.7719
  40   2.0000      -0.549559       -14.9543
  41   2.0000      -0.536232       -14.5916
  42   2.0000      -0.534324       -14.5397
  43   2.0000      -0.524981       -14.2854
  44   2.0000      -0.519230       -14.1290
  45   2.0000      -0.481267       -13.0959
  46   2.0000      -0.479534       -13.0488
  47   2.0000      -0.472343       -12.8531
  48   2.0000      -0.467069       -12.7096
  49   2.0000      -0.460311       -12.5257
  50   0.0000       0.014326         0.3898
  51   0.0000       0.023047         0.6271
  52   0.0000       0.031181         0.8485
  53   0.0000       0.033969         0.9243
  54   0.0000       0.041439         1.1276

MULLIKEN ATOMIC CHARGES
-----------------------
   0 Si:    1.286951
   1 B :    1.426843
   2 N :    0.812566
   3 N :    0.807095
   4 C :   -0.497402
   5 O :   -0.620068
   6 O :   -0.684557
   7 O :   -1.008967
   8 O :   -0.672256
   9 O :   -1.231822
  10 O :   -0.724744
  11 C :   -0.908603
  12 H :    0.271130
  13 H :    0.248845
  14 H :    0.260875
  15 H :    0.316605
  16 H :    0.247307
  17 H :    0.356094
  18 H :    0.314108
Sum of atomic charges:    0.0000000

LOEWDIN ATOMIC CHARGES
----------------------
   0 Si:   -0.007503
   1 B :   -1.129355
   2 N :   -0.855830
   3 N :   -0.788534
   4 C :    0.563698
   5 O :    0.506187
   6 O :    0.479175
   7 O :    1.304831
   8 O :    0.485472
   9 O :    1.335694
  10 O :    0.548403
  11 C :    0.883250
  12 H :   -0.321173
  13 H :   -0.324692
  14 H :   -0.312174
  15 H :   -0.275556
  16 H :   -0.308801
  17 H :   -1.004704
  18 H :   -0.778390

  Mayer bond orders larger than 0.100000
B(  0-Si,  1-B ) :   0.9113 B(  0-Si,  2-N ) :   0.5381 B(  0-Si,  3-N ) :   0.5118
B(  0-Si,  4-C ) :   0.7704 B(  0-Si,  7-O ) :  -0.1564 B(  0-Si,  8-O ) :   0.1279
B(  0-Si,  9-O ) :  -0.2342 B(  1-B ,  7-O ) :   0.3929 B(  1-B ,  9-O ) :   0.5931
B(  2-N ,  6-O ) :   1.1901 B(  2-N ,  8-O ) :   1.1382 B(  3-N ,  5-O ) :   1.2611
B(  3-N , 10-O ) :   1.0361 B(  4-C , 11-C ) :   0.9089 B(  4-C , 12-H ) :   0.9129
B(  4-C , 13-H ) :   0.9057 B(  5-O , 10-O ) :   0.1346 B(  6-O ,  8-O ) :   0.1420
B(  7-O ,  9-O ) :  -0.1135 B(  7-O , 18-H ) :   0.9725 B(  9-O , 17-H ) :   0.9009
B( 11-C , 14-H ) :   0.9433 B( 11-C , 15-H ) :   0.9420 B( 11-C , 16-H ) :   0.9527

MP2 TOTAL ENERGY:     -954.349618114 Eh
FINAL SINGLE POINT ENERGY      -954.349618114101

DIPOLE MOMENT
-------------
                                X             Y             Z
Electronic contribution:      6.81159       0.72027      -7.27905
Nuclear contribution   :     -6.18109      -1.04954       9.25617
                        -----------------------------------------
Total Dipole Moment    :      0.63050      -0.32927       1.97712
                        -----------------------------------------
Magnitude (a.u.)       :      2.10118
Magnitude (Debye)      :      5.34077

Rotational constants in cm-1:     0.029810     0.023803     0.020367
Rotational constants in MHz :   893.690623   713.584922   610.587300

                             ****ORCA TERMINATED NORMALLY****
TOTAL RUN TIME: 0 days 0 hours 54 minutes 58 seconds 244 msec
