                         Program Version 5.0.4 -  RELEASE  -
|  1> ! ri-mp2 aug-cc-pvdz aug-cc-pvdz/c tightscf
|  2> %pal nprocs 16 end
|  3> %maxcore 3800
|  4> %base "DZ_Si-S_33_AB"
|  5>
|  6> *xyz 0 1
|  7> C        -2.694951    0.382046   -0.445382
|  8> S        -1.740681   -1.160240   -0.184276
|  9> Si         0.212543   -0.405410   -0.074892
| 10> C         0.683672    1.266299   -0.323295
| 11> C         2.044951    1.539320   -0.223228
| 12> C         1.619808   -1.396090    0.265284
| 13> C         2.843098   -0.739095    0.277767
| 14> C         3.051042    0.620421    0.053031
| 15> H         4.067503    0.986983    0.098363
| 16> H         2.357976    2.568144   -0.373564
| 17> H         0.014144    2.086585   -0.540874
| 18> H         1.602352   -2.459579    0.458506
| 19> H         3.727216   -1.335072    0.483117
| 20> C        -2.906229    1.191291    0.817900
| 21> H        -3.644742    0.037479   -0.851089
| 22> H        -2.207006    0.967135   -1.222378
| 23> H        -3.406639    0.597420    1.581598
| 24> H        -3.524423    2.064758    0.602499
| 25> H        -1.959426    1.540579    1.228263
| 26> *
| 27>
| 28> $new_job
| 29> ! ri-mp2 aug-cc-pvtz aug-cc-pvtz/c tightscf
| 30> %pal nprocs 16 end
| 31> %maxcore 3800
| 32> %base "TZ_Si-S_33_AB"
| 33>
| 34> *xyz 0 1
| 35> C        -2.694951    0.382046   -0.445382
| 36> S        -1.740681   -1.160240   -0.184276
| 37> Si         0.212543   -0.405410   -0.074892
| 38> C         0.683672    1.266299   -0.323295
| 39> C         2.044951    1.539320   -0.223228
| 40> C         1.619808   -1.396090    0.265284
| 41> C         2.843098   -0.739095    0.277767
| 42> C         3.051042    0.620421    0.053031
| 43> H         4.067503    0.986983    0.098363
| 44> H         2.357976    2.568144   -0.373564
| 45> H         0.014144    2.086585   -0.540874
| 46> H         1.602352   -2.459579    0.458506
| 47> H         3.727216   -1.335072    0.483117
| 48> C        -2.906229    1.191291    0.817900
| 49> H        -3.644742    0.037479   -0.851089
| 50> H        -2.207006    0.967135   -1.222378
| 51> H        -3.406639    0.597420    1.581598
| 52> H        -3.524423    2.064758    0.602499
| 53> H        -1.959426    1.540579    1.228263
| 54> *
| 55>
| 56> $new_job
| 57> ! ri-mp2 aug-cc-pvqz aug-cc-pvqz/c tightscf
| 58> %pal nprocs 16 end
| 59> %maxcore 3800
| 60> %base "QZ_Si-S_33_AB"
| 61>
| 62> *xyz 0 1
| 63> C        -2.694951    0.382046   -0.445382
| 64> S        -1.740681   -1.160240   -0.184276
| 65> Si         0.212543   -0.405410   -0.074892
| 66> C         0.683672    1.266299   -0.323295
| 67> C         2.044951    1.539320   -0.223228
| 68> C         1.619808   -1.396090    0.265284
| 69> C         2.843098   -0.739095    0.277767
| 70> C         3.051042    0.620421    0.053031
| 71> H         4.067503    0.986983    0.098363
| 72> H         2.357976    2.568144   -0.373564
| 73> H         0.014144    2.086585   -0.540874
| 74> H         1.602352   -2.459579    0.458506
| 75> H         3.727216   -1.335072    0.483117
| 76> C        -2.906229    1.191291    0.817900
| 77> H        -3.644742    0.037479   -0.851089
| 78> H        -2.207006    0.967135   -1.222378
| 79> H        -3.406639    0.597420    1.581598
| 80> H        -3.524423    2.064758    0.602499
| 81> H        -1.959426    1.540579    1.228263
| 82> *
| 83>
| 84>
| 85>
| 86>
| 87>                          ****END OF INPUT****
 Total Charge           Charge          ....    0
 Multiplicity           Mult            ....    1
 Number of Electrons    NEL             ....   82
MP2 TOTAL ENERGY:     -958.600278899 Eh
FINAL SINGLE POINT ENERGY      -958.600278899415
MP2 TOTAL ENERGY:     -958.933270144 Eh
FINAL SINGLE POINT ENERGY      -958.933270143644

CARTESIAN COORDINATES (ANGSTROEM)
---------------------------------
  C     -2.694951    0.382046   -0.445382
  S     -1.740681   -1.160240   -0.184276
  Si     0.212543   -0.405410   -0.074892
  C      0.683672    1.266299   -0.323295
  C      2.044951    1.539320   -0.223228
  C      1.619808   -1.396090    0.265284
  C      2.843098   -0.739095    0.277767
  C      3.051042    0.620421    0.053031
  H      4.067503    0.986983    0.098363
  H      2.357976    2.568144   -0.373564
  H      0.014144    2.086585   -0.540874
  H      1.602352   -2.459579    0.458506
  H      3.727216   -1.335072    0.483117
  C     -2.906229    1.191291    0.817900
  H     -3.644742    0.037479   -0.851089
  H     -2.207006    0.967135   -1.222378
  H     -3.406639    0.597420    1.581598
  H     -3.524423    2.064758    0.602499
  H     -1.959426    1.540579    1.228263

 Multiplicity           Mult            ....    1
 Number of Electrons    NEL             ....   82
 Basis Dimension        Dim             .... 1188

ORBITAL ENERGIES
----------------

  NO   OCC          E(Eh)            E(eV)
   0   2.0000     -91.957755     -2502.2977
   1   2.0000     -68.779779     -1871.5929
   2   2.0000     -11.278258      -306.8970
   3   2.0000     -11.245435      -306.0038
   4   2.0000     -11.244752      -305.9852
   5   2.0000     -11.232623      -305.6552
   6   2.0000     -11.210232      -305.0459
   7   2.0000     -11.208220      -304.9912
   8   2.0000     -11.206253      -304.9377
   9   2.0000      -8.961867      -243.8648
  10   2.0000      -6.643273      -180.7726
  11   2.0000      -6.642542      -180.7527
  12   2.0000      -6.641858      -180.7341
  13   2.0000      -6.132434      -166.8720
  14   2.0000      -4.239297      -115.3571
  15   2.0000      -4.237804      -115.3165
  16   2.0000      -4.237153      -115.2988
  17   2.0000      -1.107644       -30.1405
  18   2.0000      -1.084600       -29.5135
  19   2.0000      -1.010095       -27.4861
  20   2.0000      -0.959186       -26.1008
  21   2.0000      -0.922633       -25.1061
  22   2.0000      -0.834436       -22.7062
  23   2.0000      -0.797890       -21.7117
  24   2.0000      -0.729697       -19.8561
  25   2.0000      -0.676650       -18.4126
  26   2.0000      -0.646692       -17.5974
  27   2.0000      -0.609230       -16.5780
  28   2.0000      -0.590729       -16.0745
  29   2.0000      -0.582510       -15.8509
  30   2.0000      -0.575355       -15.6562
  31   2.0000      -0.552423       -15.0322
  32   2.0000      -0.530478       -14.4350
  33   2.0000      -0.516694       -14.0600
  34   2.0000      -0.483385       -13.1536
  35   2.0000      -0.474886       -12.9223
  36   2.0000      -0.446057       -12.1378
  37   2.0000      -0.431309       -11.7365
  38   2.0000      -0.391783       -10.6610
  39   2.0000      -0.349984        -9.5236
  40   2.0000      -0.271822        -7.3967
  41   0.0000       0.021447         0.5836
  42   0.0000       0.027994         0.7618
  43   0.0000       0.029511         0.8030
  44   0.0000       0.033998         0.9251
  45   0.0000       0.039378         1.0715

MULLIKEN ATOMIC CHARGES
-----------------------
   0 C :   -0.504315
   1 S :   -0.265897
   2 Si:    1.569011
   3 C :   -0.887659
   4 C :   -0.352067
   5 C :   -0.975162
   6 C :   -0.326305
   7 C :   -0.307299
   8 H :    0.291003
   9 H :    0.271125
  10 H :    0.298703
  11 H :    0.301815
  12 H :    0.301484
  13 C :   -0.942976
  14 H :    0.347512
  15 H :    0.266051
  16 H :    0.293323
  17 H :    0.310794
  18 H :    0.310859
Sum of atomic charges:    0.0000000

LOEWDIN ATOMIC CHARGES
----------------------
   0 C :    0.078302
   1 S :    1.247244
   2 Si:   -0.020483
   3 C :    0.317876
   4 C :    0.226758
   5 C :    0.305470
   6 C :    0.217009
   7 C :    0.290532
   8 H :   -0.351390
   9 H :   -0.328843
  10 H :   -0.419679
  11 H :   -0.418912
  12 H :   -0.330081
  13 C :    0.835177
  14 H :   -0.374222
  15 H :   -0.376487
  16 H :   -0.298399
  17 H :   -0.279753
  18 H :   -0.320119

  Mayer bond orders larger than 0.100000
B(  0-C ,  1-S ) :   1.0025 B(  0-C , 13-C ) :   0.9911 B(  0-C , 14-H ) :   0.8203
B(  0-C , 15-H ) :   0.8848 B(  1-S ,  2-Si) :   1.0908 B(  2-Si,  3-C ) :   0.9460
B(  2-Si,  5-C ) :   1.0221 B(  3-C ,  4-C ) :   1.2905 B(  3-C ,  7-C ) :  -0.1633
B(  3-C ,  9-H ) :  -0.1168 B(  3-C , 10-H ) :   0.9181 B(  4-C ,  7-C ) :   1.2271
B(  4-C ,  9-H ) :   1.0273 B(  5-C ,  6-C ) :   1.4625 B(  5-C , 11-H ) :   0.9211
B(  5-C , 12-H ) :  -0.1383 B(  6-C ,  7-C ) :   1.2364 B(  6-C , 12-H ) :   0.9895
B(  7-C ,  8-H ) :   0.9998 B( 13-C , 16-H ) :   0.9269 B( 13-C , 17-H ) :   0.8928
B( 13-C , 18-H ) :   0.8916

MP2 TOTAL ENERGY:     -959.037866101 Eh
FINAL SINGLE POINT ENERGY      -959.037866100645

DIPOLE MOMENT
-------------
                                X             Y             Z
Electronic contribution:      2.20471      -6.61220      -1.52147
Nuclear contribution   :     -2.92652       7.10096       1.47180
                        -----------------------------------------
Total Dipole Moment    :     -0.72181       0.48877      -0.04967
                        -----------------------------------------
Magnitude (a.u.)       :      0.87314
Magnitude (Debye)      :      2.21934

Rotational constants in cm-1:     0.084738     0.024369     0.019949
Rotational constants in MHz :  2540.385025   730.567435   598.060811

                             ****ORCA TERMINATED NORMALLY****
TOTAL RUN TIME: 0 days 0 hours 44 minutes 48 seconds 636 msec
