                         Program Version 5.0.4 -  RELEASE  -
|  1> ! ri-mp2 aug-cc-pvdz aug-cc-pvdz/c tightscf
|  2> %pal nprocs 16 end
|  3> %maxcore 3800
|  4> %base "DZ_Si-S_11_A"
|  5> %scf
|  6> STABPerform true
|  7> STABRestartUHFifUnstable true
|  8> end
|  9>
| 10> *xyz 0 2
| 11> S         0.948775    0.031020   -0.290657
| 12> C        -0.562070   -0.615847    0.535466
| 13> O         2.005880   -0.916221   -0.007287
| 14> O         1.072769    1.421834    0.093812
| 15> C        -1.739427    0.257127    0.304641
| 16> H        -0.253261   -0.653624    1.581897
| 17> C        -2.807234   -0.129111   -0.371082
| 18> H        -1.682852    1.255374    0.721087
| 19> H        -2.880890   -1.120563   -0.801539
| 20> H        -3.651431    0.531397   -0.512360
| 21> H        -0.688773   -1.626822    0.155076
| 22> *
| 23>
| 24> $new_job
| 25> ! ri-mp2 aug-cc-pvtz aug-cc-pvtz/c tightscf
| 26> %pal nprocs 16 end
| 27> %maxcore 3800
| 28> %base "TZ_Si-S_11_A"
| 29>
| 30> *xyz 0 2
| 31> S         0.948775    0.031020   -0.290657
| 32> C        -0.562070   -0.615847    0.535466
| 33> O         2.005880   -0.916221   -0.007287
| 34> O         1.072769    1.421834    0.093812
| 35> C        -1.739427    0.257127    0.304641
| 36> H        -0.253261   -0.653624    1.581897
| 37> C        -2.807234   -0.129111   -0.371082
| 38> H        -1.682852    1.255374    0.721087
| 39> H        -2.880890   -1.120563   -0.801539
| 40> H        -3.651431    0.531397   -0.512360
| 41> H        -0.688773   -1.626822    0.155076
| 42> *
| 43>
| 44> $new_job
| 45> ! ri-mp2 aug-cc-pvqz aug-cc-pvqz/c tightscf
| 46> %pal nprocs 16 end
| 47> %maxcore 3800
| 48> %base "QZ_Si-S_11_A"
| 49>
| 50> *xyz 0 2
| 51> S         0.948775    0.031020   -0.290657
| 52> C        -0.562070   -0.615847    0.535466
| 53> O         2.005880   -0.916221   -0.007287
| 54> O         1.072769    1.421834    0.093812
| 55> C        -1.739427    0.257127    0.304641
| 56> H        -0.253261   -0.653624    1.581897
| 57> C        -2.807234   -0.129111   -0.371082
| 58> H        -1.682852    1.255374    0.721087
| 59> H        -2.880890   -1.120563   -0.801539
| 60> H        -3.651431    0.531397   -0.512360
| 61> H        -0.688773   -1.626822    0.155076
| 62> *
| 63>
| 64>
| 65>
| 66>
| 67>                          ****END OF INPUT****
 Total Charge           Charge          ....    0
 Multiplicity           Mult            ....    2
 Number of Electrons    NEL             ....   55
MP2 TOTAL ENERGY:     -664.636266226 Eh
FINAL SINGLE POINT ENERGY      -664.636266226247
MP2 TOTAL ENERGY:     -664.952631943 Eh
FINAL SINGLE POINT ENERGY      -664.952631943076

CARTESIAN COORDINATES (ANGSTROEM)
---------------------------------
  S      0.948775    0.031020   -0.290657
  C     -0.562070   -0.615847    0.535466
  O      2.005880   -0.916221   -0.007287
  O      1.072769    1.421834    0.093812
  C     -1.739427    0.257127    0.304641
  H     -0.253261   -0.653624    1.581897
  C     -2.807234   -0.129111   -0.371082
  H     -1.682852    1.255374    0.721087
  H     -2.880890   -1.120563   -0.801539
  H     -3.651431    0.531397   -0.512360
  H     -0.688773   -1.626822    0.155076

 Multiplicity           Mult            ....    2
 Number of Electrons    NEL             ....   55
 Basis Dimension        Dim             ....  714

ORBITAL ENERGIES
----------------
                 SPIN UP ORBITALS
  NO   OCC          E(Eh)            E(eV)
   0   1.0000     -92.155429     -2507.6767
   1   1.0000     -20.585015      -560.1467
   2   1.0000     -20.583641      -560.1094
   3   1.0000     -11.304705      -307.6167
   4   1.0000     -11.262998      -306.4818
   5   1.0000     -11.257601      -306.3349
   6   1.0000      -9.133524      -248.5358
   7   1.0000      -6.823850      -185.6864
   8   1.0000      -6.814081      -185.4206
   9   1.0000      -6.813426      -185.4028
  10   1.0000      -1.477125       -40.1946
  11   1.0000      -1.378265       -37.5045
  12   1.0000      -1.125227       -30.6190
  13   1.0000      -1.015335       -27.6287
  14   1.0000      -0.869249       -23.6535
  15   1.0000      -0.798481       -21.7278
  16   1.0000      -0.717096       -19.5132
  17   1.0000      -0.686457       -18.6794
  18   1.0000      -0.676882       -18.4189
  19   1.0000      -0.659613       -17.9490
  20   1.0000      -0.637059       -17.3353
  21   1.0000      -0.587428       -15.9847
  22   1.0000      -0.561236       -15.2720
  23   1.0000      -0.540025       -14.6948
  24   1.0000      -0.517534       -14.0828
  25   1.0000      -0.510612       -13.8945
  26   1.0000      -0.433383       -11.7930
  27   1.0000      -0.389277       -10.5928
  28   0.0000       0.020764         0.5650
  29   0.0000       0.030461         0.8289
  30   0.0000       0.032559         0.8860
  31   0.0000       0.046158         1.2560
  32   0.0000       0.051153         1.3919

                 SPIN DOWN ORBITALS
  NO   OCC          E(Eh)            E(eV)
   0   1.0000     -92.151582     -2507.5720
   1   1.0000     -20.571505      -559.7791
   2   1.0000     -20.570656      -559.7560
   3   1.0000     -11.298952      -307.4601
   4   1.0000     -11.267298      -306.5988
   5   1.0000     -11.253594      -306.2258
   6   1.0000      -9.128502      -248.3992
   7   1.0000      -6.814167      -185.4229
   8   1.0000      -6.813414      -185.4024
   9   1.0000      -6.805065      -185.1752
  10   1.0000      -1.448294       -39.4101
  11   1.0000      -1.341045       -36.4917
  12   1.0000      -1.119984       -30.4763
  13   1.0000      -0.994870       -27.0718
  14   1.0000      -0.828667       -22.5492
  15   1.0000      -0.786909       -21.4129
  16   1.0000      -0.694556       -18.8998
  17   1.0000      -0.670240       -18.2382
  18   1.0000      -0.657957       -17.9039
  19   1.0000      -0.625379       -17.0174
  20   1.0000      -0.613657       -16.6985
  21   1.0000      -0.567427       -15.4405
  22   1.0000      -0.539597       -14.6832
  23   1.0000      -0.499711       -13.5978
  24   1.0000      -0.496392       -13.5075
  25   1.0000      -0.453205       -12.3323
  26   1.0000      -0.400374       -10.8947
  27   0.0000       0.001917         0.0522
  28   0.0000       0.023457         0.6383
  29   0.0000       0.030930         0.8417
  30   0.0000       0.034693         0.9440
  31   0.0000       0.047562         1.2942

MULLIKEN ATOMIC CHARGES AND SPIN POPULATIONS
--------------------------------------------
   0 S :    1.860161    0.268750
   1 C :   -0.424583    0.213331
   2 O :   -1.025211    0.270143
   3 O :   -0.997959    0.277365
   4 C :   -0.441709   -0.220988
   5 H :    0.294750    0.013318
   6 C :   -0.836433    0.212207
   7 H :    0.474459    0.012170
   8 H :    0.372031   -0.011299
   9 H :    0.371042   -0.011772
  10 H :    0.353451   -0.023225
Sum of atomic charges         :   -0.0000000

LOEWDIN ATOMIC CHARGES AND SPIN POPULATIONS
-------------------------------------------
   0 S :    0.064224    0.336071
   1 C :    0.296959    0.077841
   2 O :    0.151078    0.240164
   3 O :    0.161029    0.249596
   4 C :    0.278793   -0.024737
   5 H :   -0.342023    0.024266
   6 C :    0.797279    0.051078
   7 H :   -0.344341   -0.018742
   8 H :   -0.347234    0.024136
   9 H :   -0.344979    0.023674
  10 H :   -0.370784    0.016653

  Mayer bond orders larger than 0.100000
B(  0-S ,  1-C ) :   0.9500 B(  0-S ,  2-O ) :   1.3466 B(  0-S ,  3-O ) :   1.3732
B(  1-C ,  4-C ) :   0.9173 B(  1-C ,  5-H ) :   0.8354 B(  1-C , 10-H ) :   0.8651
B(  4-C ,  6-C ) :   1.8046 B(  4-C ,  7-H ) :   0.7235 B(  6-C ,  8-H ) :   0.8699
B(  6-C ,  9-H ) :   0.9273

MP2 TOTAL ENERGY:     -665.054678805 Eh
FINAL SINGLE POINT ENERGY      -665.054678805405

DIPOLE MOMENT
-------------
                                X             Y             Z
Electronic contribution:      7.30232       1.03121      -1.17616
Nuclear contribution   :     -8.97828      -1.57914       1.13432
                        -----------------------------------------
Total Dipole Moment    :     -1.67596      -0.54793      -0.04184
                        -----------------------------------------
Magnitude (a.u.)       :      1.76375
Magnitude (Debye)      :      4.48310

Rotational constants in cm-1:     0.238852     0.059382     0.051326
Rotational constants in MHz :  7160.598789  1780.225020  1538.716219

                             ****ORCA TERMINATED NORMALLY****
TOTAL RUN TIME: 0 days 1 hours 29 minutes 8 seconds 958 msec
