                         Program Version 5.0.4 -  RELEASE  -
|  1> ! ri-mp2 aug-cc-pvdz aug-cc-pvdz/c tightscf
|  2> %pal nprocs 16 end
|  3> %maxcore 3800
|  4> %base "DZ_B-Cl_3_A"
|  5> %scf
|  6> STABPerform true
|  7> STABRestartUHFifUnstable true
|  8> end
|  9>
| 10> *xyz 0 2
| 11> Cl         1.054536    0.071035   -0.000001
| 12> O        -1.688344    0.095400    0.000003
| 13> B        -0.564153   -0.606002   -0.000006
| 14> H        -1.599596    1.059210    0.000014
| 15> *
| 16>
| 17> $new_job
| 18> ! ri-mp2 aug-cc-pvtz aug-cc-pvtz/c tightscf
| 19> %pal nprocs 16 end
| 20> %maxcore 3800
| 21> %base "TZ_B-Cl_3_A"
| 22>
| 23> *xyz 0 2
| 24> Cl         1.054536    0.071035   -0.000001
| 25> O        -1.688344    0.095400    0.000003
| 26> B        -0.564153   -0.606002   -0.000006
| 27> H        -1.599596    1.059210    0.000014
| 28> *
| 29>
| 30> $new_job
| 31> ! ri-mp2 aug-cc-pvqz aug-cc-pvqz/c tightscf
| 32> %pal nprocs 16 end
| 33> %maxcore 3800
| 34> %base "QZ_B-Cl_3_A"
| 35>
| 36> *xyz 0 2
| 37> Cl         1.054536    0.071035   -0.000001
| 38> O        -1.688344    0.095400    0.000003
| 39> B        -0.564153   -0.606002   -0.000006
| 40> H        -1.599596    1.059210    0.000014
| 41> *
| 42>
| 43>
| 44>
| 45>
| 46>                          ****END OF INPUT****
 Total Charge           Charge          ....    0
 Multiplicity           Mult            ....    2
 Number of Electrons    NEL             ....   31
MP2 TOTAL ENERGY:     -560.090148287 Eh
FINAL SINGLE POINT ENERGY      -560.090148287014
MP2 TOTAL ENERGY:     -560.234943030 Eh
FINAL SINGLE POINT ENERGY      -560.234943030069

CARTESIAN COORDINATES (ANGSTROEM)
---------------------------------
  Cl     1.054536    0.071035   -0.000001
  O     -1.688344    0.095400    0.000003
  B     -0.564153   -0.606002   -0.000006
  H     -1.599596    1.059210    0.000014

 Multiplicity           Mult            ....    2
 Number of Electrons    NEL             ....   31
 Basis Dimension        Dim             ....  290

ORBITAL ENERGIES
----------------
                 SPIN UP ORBITALS
  NO   OCC          E(Eh)            E(eV)
   0   1.0000    -104.843707     -2852.9423
   1   1.0000     -20.609220      -560.8054
   2   1.0000     -10.571402      -287.6625
   3   1.0000      -8.039719      -218.7719
   4   1.0000      -8.036697      -218.6896
   5   1.0000      -8.036540      -218.6854
   6   1.0000      -7.707525      -209.7324
   7   1.0000      -1.411885       -38.4193
   8   1.0000      -1.123749       -30.5788
   9   1.0000      -0.803511       -21.8646
  10   1.0000      -0.666366       -18.1327
  11   1.0000      -0.601714       -16.3735
  12   1.0000      -0.584849       -15.9145
  13   1.0000      -0.490811       -13.3557
  14   1.0000      -0.482638       -13.1333
  15   1.0000      -0.362378        -9.8608
  16   0.0000       0.027061         0.7364
  17   0.0000       0.039455         1.0736
  18   0.0000       0.040723         1.1081
  19   0.0000       0.043060         1.1717
  20   0.0000       0.072304         1.9675

                 SPIN DOWN ORBITALS
  NO   OCC          E(Eh)            E(eV)
   0   1.0000    -104.842435     -2852.9077
   1   1.0000     -20.608449      -560.7844
   2   1.0000     -10.569896      -287.6215
   3   1.0000      -8.036393      -218.6814
   4   1.0000      -8.036136      -218.6744
   5   1.0000      -8.034373      -218.6264
   6   1.0000      -7.684787      -209.1137
   7   1.0000      -1.408248       -38.3204
   8   1.0000      -1.112256       -30.2660
   9   1.0000      -0.784665       -21.3518
  10   1.0000      -0.656750       -17.8711
  11   1.0000      -0.586740       -15.9660
  12   1.0000      -0.568406       -15.4671
  13   1.0000      -0.483404       -13.1541
  14   1.0000      -0.478043       -13.0082
  15   0.0000       0.020863         0.5677
  16   0.0000       0.037178         1.0117
  17   0.0000       0.041593         1.1318
  18   0.0000       0.043475         1.1830
  19   0.0000       0.065580         1.7845

MULLIKEN ATOMIC CHARGES AND SPIN POPULATIONS
--------------------------------------------
   0 Cl:   -0.219736    0.037018
   1 O :   -0.813771   -0.088925
   2 B :    0.682567    1.010076
   3 H :    0.350940    0.041831
Sum of atomic charges         :    0.0000000

LOEWDIN ATOMIC CHARGES AND SPIN POPULATIONS
-------------------------------------------
   0 Cl:    1.102017    0.179344
   1 O :    1.131029    0.161817
   2 B :   -1.370235    0.628141
   3 H :   -0.862811    0.030698

  Mayer bond orders larger than 0.100000
B(  0-Cl,  2-B ) :   1.0819 B(  1-O ,  2-B ) :   0.6877 B(  1-O ,  3-H ) :   0.8906

MP2 TOTAL ENERGY:     -560.283718433 Eh
FINAL SINGLE POINT ENERGY      -560.283718432536

DIPOLE MOMENT
-------------
                                X             Y             Z
Electronic contribution:      2.27922      -0.74501      -0.00001
Nuclear contribution   :     -2.46637       1.33188       0.00002
                        -----------------------------------------
Total Dipole Moment    :     -0.18715       0.58688       0.00001
                        -----------------------------------------
Magnitude (a.u.)       :      0.61600
Magnitude (Debye)      :      1.56574

Rotational constants in cm-1:     3.157049     0.185267     0.174998
Rotational constants in MHz : 94645.954536  5554.170820  5246.298815

                             ****ORCA TERMINATED NORMALLY****
TOTAL RUN TIME: 0 days 0 hours 6 minutes 43 seconds 983 msec
