                         Program Version 5.0.4 -  RELEASE  -
|  1> ! ri-mp2 aug-cc-pvdz aug-cc-pvdz/c tightscf
|  2> %pal nprocs 16 end
|  3> %maxcore 3800
|  4> %base "DZ_P-Si_14_AB"
|  5>
|  6> *xyz 0 1
|  7> Si         0.523794    0.174043   -0.868365
|  8> N         1.487410   -1.203829   -0.012766
|  9> P        -1.499103    0.044841    0.132360
| 10> O         0.892005   -2.099779    0.575663
| 11> O         2.693824   -1.153214   -0.105074
| 12> O        -1.538110    0.827996    1.370004
| 13> O        -1.822300   -1.499429    0.203888
| 14> C         1.432960    1.751601   -0.555068
| 15> C         1.663813    2.065695    0.925755
| 16> H         0.848741    2.546511   -1.029738
| 17> H         2.379099    1.701102   -1.098129
| 18> H         0.725560    2.093711    1.478083
| 19> H         2.156138    3.031282    1.035368
| 20> H         2.306577    1.316899    1.388523
| 21> O        -2.552275    0.521396   -0.965605
| 22> H        -3.096747    1.248023   -0.637389
| 23> H        -1.053760   -2.003516    0.532976
| 24> H         0.510165   -0.295963   -2.263758
| 25> *
| 26>
| 27> $new_job
| 28> ! ri-mp2 aug-cc-pvtz aug-cc-pvtz/c tightscf
| 29> %pal nprocs 16 end
| 30> %maxcore 3800
| 31> %base "TZ_P-Si_14_AB"
| 32>
| 33> *xyz 0 1
| 34> Si         0.523794    0.174043   -0.868365
| 35> N         1.487410   -1.203829   -0.012766
| 36> P        -1.499103    0.044841    0.132360
| 37> O         0.892005   -2.099779    0.575663
| 38> O         2.693824   -1.153214   -0.105074
| 39> O        -1.538110    0.827996    1.370004
| 40> O        -1.822300   -1.499429    0.203888
| 41> C         1.432960    1.751601   -0.555068
| 42> C         1.663813    2.065695    0.925755
| 43> H         0.848741    2.546511   -1.029738
| 44> H         2.379099    1.701102   -1.098129
| 45> H         0.725560    2.093711    1.478083
| 46> H         2.156138    3.031282    1.035368
| 47> H         2.306577    1.316899    1.388523
| 48> O        -2.552275    0.521396   -0.965605
| 49> H        -3.096747    1.248023   -0.637389
| 50> H        -1.053760   -2.003516    0.532976
| 51> H         0.510165   -0.295963   -2.263758
| 52> *
| 53>
| 54> $new_job
| 55> ! ri-mp2 aug-cc-pvqz aug-cc-pvqz/c tightscf
| 56> %pal nprocs 16 end
| 57> %maxcore 3800
| 58> %base "QZ_P-Si_14_AB"
| 59>
| 60> *xyz 0 1
| 61> Si         0.523794    0.174043   -0.868365
| 62> N         1.487410   -1.203829   -0.012766
| 63> P        -1.499103    0.044841    0.132360
| 64> O         0.892005   -2.099779    0.575663
| 65> O         2.693824   -1.153214   -0.105074
| 66> O        -1.538110    0.827996    1.370004
| 67> O        -1.822300   -1.499429    0.203888
| 68> C         1.432960    1.751601   -0.555068
| 69> C         1.663813    2.065695    0.925755
| 70> H         0.848741    2.546511   -1.029738
| 71> H         2.379099    1.701102   -1.098129
| 72> H         0.725560    2.093711    1.478083
| 73> H         2.156138    3.031282    1.035368
| 74> H         2.306577    1.316899    1.388523
| 75> O        -2.552275    0.521396   -0.965605
| 76> H        -3.096747    1.248023   -0.637389
| 77> H        -1.053760   -2.003516    0.532976
| 78> H         0.510165   -0.295963   -2.263758
| 79> *
| 80>
| 81>
| 82>
| 83>
| 84>                          ****END OF INPUT****
 Total Charge           Charge          ....    0
 Multiplicity           Mult            ....    1
 Number of Electrons    NEL             ....   96
MP2 TOTAL ENERGY:    -1140.587169213 Eh
FINAL SINGLE POINT ENERGY     -1140.587169212652
MP2 TOTAL ENERGY:    -1141.134107550 Eh
FINAL SINGLE POINT ENERGY     -1141.134107549949

CARTESIAN COORDINATES (ANGSTROEM)
---------------------------------
  Si     0.523794    0.174043   -0.868365
  N      1.487410   -1.203829   -0.012766
  P     -1.499103    0.044841    0.132360
  O      0.892005   -2.099779    0.575663
  O      2.693824   -1.153214   -0.105074
  O     -1.538110    0.827996    1.370004
  O     -1.822300   -1.499429    0.203888
  C      1.432960    1.751601   -0.555068
  C      1.663813    2.065695    0.925755
  H      0.848741    2.546511   -1.029738
  H      2.379099    1.701102   -1.098129
  H      0.725560    2.093711    1.478083
  H      2.156138    3.031282    1.035368
  H      2.306577    1.316899    1.388523
  O     -2.552275    0.521396   -0.965605
  H     -3.096747    1.248023   -0.637389
  H     -1.053760   -2.003516    0.532976
  H      0.510165   -0.295963   -2.263758

 Multiplicity           Mult            ....    1
 Number of Electrons    NEL             ....   96
 Basis Dimension        Dim             .... 1176

ORBITAL ENERGIES
----------------

  NO   OCC          E(Eh)            E(eV)
   0   2.0000     -80.080182     -2179.0925
   1   2.0000     -68.846717     -1873.4144
   2   2.0000     -20.625371      -561.2449
   3   2.0000     -20.618630      -561.0615
   4   2.0000     -20.615723      -560.9823
   5   2.0000     -20.602071      -560.6109
   6   2.0000     -20.520614      -558.3943
   7   2.0000     -15.835021      -430.8928
   8   2.0000     -11.251727      -306.1751
   9   2.0000     -11.235161      -305.7243
  10   2.0000      -7.603329      -206.8971
  11   2.0000      -6.195404      -168.5855
  12   2.0000      -5.501498      -149.7034
  13   2.0000      -5.500825      -149.6851
  14   2.0000      -5.499849      -149.6585
  15   2.0000      -4.302141      -117.0672
  16   2.0000      -4.300840      -117.0318
  17   2.0000      -4.300236      -117.0154
  18   2.0000      -1.618886       -44.0521
  19   2.0000      -1.449320       -39.4380
  20   2.0000      -1.417399       -38.5694
  21   2.0000      -1.394675       -37.9510
  22   2.0000      -1.312589       -35.7174
  23   2.0000      -1.057980       -28.7891
  24   2.0000      -0.972781       -26.4707
  25   2.0000      -0.881322       -23.9820
  26   2.0000      -0.866255       -23.5720
  27   2.0000      -0.819356       -22.2958
  28   2.0000      -0.746939       -20.3253
  29   2.0000      -0.739475       -20.1221
  30   2.0000      -0.727260       -19.7897
  31   2.0000      -0.713811       -19.4238
  32   2.0000      -0.675728       -18.3875
  33   2.0000      -0.654238       -17.8027
  34   2.0000      -0.636270       -17.3138
  35   2.0000      -0.607618       -16.5341
  36   2.0000      -0.600515       -16.3408
  37   2.0000      -0.593754       -16.1569
  38   2.0000      -0.572933       -15.5903
  39   2.0000      -0.542521       -14.7627
  40   2.0000      -0.526791       -14.3347
  41   2.0000      -0.521090       -14.1796
  42   2.0000      -0.515087       -14.0162
  43   2.0000      -0.488040       -13.2803
  44   2.0000      -0.480051       -13.0628
  45   2.0000      -0.475024       -12.9261
  46   2.0000      -0.473890       -12.8952
  47   2.0000      -0.432537       -11.7699
  48   0.0000       0.015427         0.4198
  49   0.0000       0.028072         0.7639
  50   0.0000       0.030576         0.8320
  51   0.0000       0.035155         0.9566
  52   0.0000       0.044275         1.2048

MULLIKEN ATOMIC CHARGES
-----------------------
   0 Si:    1.058312
   1 N :    0.790488
   2 P :    2.338250
   3 O :   -0.710271
   4 O :   -0.633050
   5 O :   -1.234238
   6 O :   -1.014155
   7 C :   -0.523784
   8 C :   -0.926966
   9 H :    0.267724
  10 H :    0.246634
  11 H :    0.303018
  12 H :    0.347055
  13 H :    0.231166
  14 O :   -1.025968
  15 H :    0.409339
  16 H :    0.388035
  17 H :   -0.311588
Sum of atomic charges:   -0.0000000

LOEWDIN ATOMIC CHARGES
----------------------
   0 Si:    0.346079
   1 N :   -0.832036
   2 P :   -0.600877
   3 O :    0.531700
   4 O :    0.483858
   5 O :    0.282703
   6 O :    1.068715
   7 C :    0.517389
   8 C :    0.869839
   9 H :   -0.331026
  10 H :   -0.334933
  11 H :   -0.331757
  12 H :   -0.275548
  13 H :   -0.297853
  14 O :    1.060039
  15 H :   -0.875754
  16 H :   -1.084919
  17 H :   -0.195620

  Mayer bond orders larger than 0.100000
B(  0-Si,  1-N ) :   0.3465 B(  0-Si,  2-P ) :   0.9844 B(  0-Si,  7-C ) :   0.8156
B(  0-Si, 17-H ) :   0.8068 B(  1-N ,  3-O ) :   1.1256 B(  1-N ,  4-O ) :   1.2605
B(  2-P ,  5-O ) :   1.2582 B(  2-P ,  6-O ) :   0.6534 B(  2-P , 14-O ) :   0.5013
B(  3-O ,  4-O ) :   0.1384 B(  6-O , 16-H ) :   0.8328 B(  7-C ,  8-C ) :   0.9610
B(  7-C ,  9-H ) :   0.8848 B(  7-C , 10-H ) :   0.9097 B(  8-C , 11-H ) :   0.8930
B(  8-C , 12-H ) :   0.9039 B(  8-C , 13-H ) :   0.9394 B( 14-O , 15-H ) :   0.9070

MP2 TOTAL ENERGY:    -1141.312627658 Eh
FINAL SINGLE POINT ENERGY     -1141.312627657532

DIPOLE MOMENT
-------------
                                X             Y             Z
Electronic contribution:     -5.98061      -8.03536      -0.71772
Nuclear contribution   :      5.98269       9.27443      -0.63342
                        -----------------------------------------
Total Dipole Moment    :      0.00208       1.23906      -1.35114
                        -----------------------------------------
Magnitude (a.u.)       :      1.83327
Magnitude (Debye)      :      4.65980

Rotational constants in cm-1:     0.044171     0.027222     0.021054
Rotational constants in MHz :  1324.199949   816.089338   631.181735

                             ****ORCA TERMINATED NORMALLY****
TOTAL RUN TIME: 0 days 0 hours 44 minutes 58 seconds 318 msec
