                         Program Version 5.0.4 -  RELEASE  -
|  1> ! ri-mp2 aug-cc-pvdz aug-cc-pvdz/c tightscf
|  2> %pal nprocs 16 end
|  3> %maxcore 3800
|  4> %base "DZ_B-Cl_10_A"
|  5> %scf
|  6> STABPerform true
|  7> STABRestartUHFifUnstable true
|  8> end
|  9>
| 10> *xyz 0 2
| 11> Cl        -2.637090   -0.158709   -0.238716
| 12> B        -1.304424   -0.524926    0.742648
| 13> Si         0.605928    0.006959    0.669584
| 14> Cl         1.527366   -1.500947   -0.372122
| 15> Cl         0.921962    1.802146   -0.276281
| 16> H         1.231087    0.104867    1.993611
| 17> *
| 18>
| 19> $new_job
| 20> ! ri-mp2 aug-cc-pvtz aug-cc-pvtz/c tightscf
| 21> %pal nprocs 16 end
| 22> %maxcore 3800
| 23> %base "TZ_B-Cl_10_A"
| 24>
| 25> *xyz 0 2
| 26> Cl        -2.637090   -0.158709   -0.238716
| 27> B        -1.304424   -0.524926    0.742648
| 28> Si         0.605928    0.006959    0.669584
| 29> Cl         1.527366   -1.500947   -0.372122
| 30> Cl         0.921962    1.802146   -0.276281
| 31> H         1.231087    0.104867    1.993611
| 32> *
| 33>
| 34> $new_job
| 35> ! ri-mp2 aug-cc-pvqz aug-cc-pvqz/c tightscf
| 36> %pal nprocs 16 end
| 37> %maxcore 3800
| 38> %base "QZ_B-Cl_10_A"
| 39>
| 40> *xyz 0 2
| 41> Cl        -2.637090   -0.158709   -0.238716
| 42> B        -1.304424   -0.524926    0.742648
| 43> Si         0.605928    0.006959    0.669584
| 44> Cl         1.527366   -1.500947   -0.372122
| 45> Cl         0.921962    1.802146   -0.276281
| 46> H         1.231087    0.104867    1.993611
| 47> *
| 48>
| 49>
| 50>
| 51>
| 52>                          ****END OF INPUT****
 Total Charge           Charge          ....    0
 Multiplicity           Mult            ....    2
 Number of Electrons    NEL             ....   71
MP2 TOTAL ENERGY:    -1693.383950337 Eh
FINAL SINGLE POINT ENERGY     -1693.383950336874
MP2 TOTAL ENERGY:    -1693.620692780 Eh
FINAL SINGLE POINT ENERGY     -1693.620692780268

CARTESIAN COORDINATES (ANGSTROEM)
---------------------------------
  Cl    -2.637090   -0.158709   -0.238716
  B     -1.304424   -0.524926    0.742648
  Si     0.605928    0.006959    0.669584
  Cl     1.527366   -1.500947   -0.372122
  Cl     0.921962    1.802146   -0.276281
  H      1.231087    0.104867    1.993611

 Multiplicity           Mult            ....    2
 Number of Electrons    NEL             ....   71
 Basis Dimension        Dim             ....  462

ORBITAL ENERGIES
----------------
                 SPIN UP ORBITALS
  NO   OCC          E(Eh)            E(eV)
   0   1.0000    -104.869827     -2853.6531
   1   1.0000    -104.844067     -2852.9521
   2   1.0000    -104.841464     -2852.8813
   3   1.0000     -68.862505     -1873.8440
   4   1.0000     -10.597210      -288.3648
   5   1.0000     -10.571470      -287.6643
   6   1.0000     -10.568882      -287.5939
   7   1.0000      -8.064624      -219.4496
   8   1.0000      -8.063009      -219.4056
   9   1.0000      -8.062447      -219.3903
  10   1.0000      -8.038284      -218.7328
  11   1.0000      -8.037123      -218.7012
  12   1.0000      -8.036998      -218.6978
  13   1.0000      -8.036157      -218.6749
  14   1.0000      -8.034468      -218.6290
  15   1.0000      -8.034381      -218.6266
  16   1.0000      -7.698118      -209.4764
  17   1.0000      -6.204048      -168.8207
  18   1.0000      -4.311018      -117.3088
  19   1.0000      -4.309900      -117.2783
  20   1.0000      -4.309746      -117.2741
  21   1.0000      -1.153803       -31.3966
  22   1.0000      -1.126949       -30.6658
  23   1.0000      -1.099922       -29.9304
  24   1.0000      -0.757678       -20.6175
  25   1.0000      -0.668945       -18.2029
  26   1.0000      -0.570960       -15.5366
  27   1.0000      -0.562448       -15.3050
  28   1.0000      -0.558631       -15.2011
  29   1.0000      -0.528591       -14.3837
  30   1.0000      -0.515085       -14.0162
  31   1.0000      -0.488002       -13.2792
  32   1.0000      -0.482899       -13.1404
  33   1.0000      -0.469358       -12.7719
  34   1.0000      -0.459113       -12.4931
  35   1.0000      -0.339744        -9.2449
  36   0.0000       0.017582         0.4784
  37   0.0000       0.027645         0.7523
  38   0.0000       0.033039         0.8990
  39   0.0000       0.038872         1.0577
  40   0.0000       0.044826         1.2198

                 SPIN DOWN ORBITALS
  NO   OCC          E(Eh)            E(eV)
   0   1.0000    -104.869181     -2853.6355
   1   1.0000    -104.844046     -2852.9515
   2   1.0000    -104.841004     -2852.8687
   3   1.0000     -68.861911     -1873.8278
   4   1.0000     -10.596476      -288.3448
   5   1.0000     -10.571449      -287.6638
   6   1.0000     -10.568373      -287.5800
   7   1.0000      -8.063750      -219.4258
   8   1.0000      -8.062846      -219.4012
   9   1.0000      -8.060195      -219.3291
  10   1.0000      -8.038178      -218.7299
  11   1.0000      -8.037132      -218.7015
  12   1.0000      -8.036980      -218.6973
  13   1.0000      -8.034792      -218.6378
  14   1.0000      -8.034113      -218.6193
  15   1.0000      -8.033790      -218.6105
  16   1.0000      -7.680109      -208.9864
  17   1.0000      -6.202935      -168.7904
  18   1.0000      -4.310515      -117.2951
  19   1.0000      -4.309973      -117.2803
  20   1.0000      -4.307844      -117.2224
  21   1.0000      -1.146009       -31.1845
  22   1.0000      -1.125064       -30.6145
  23   1.0000      -1.097844       -29.8739
  24   1.0000      -0.737220       -20.0608
  25   1.0000      -0.646460       -17.5911
  26   1.0000      -0.562375       -15.3030
  27   1.0000      -0.556957       -15.1556
  28   1.0000      -0.548747       -14.9322
  29   1.0000      -0.516283       -14.0488
  30   1.0000      -0.501688       -13.6516
  31   1.0000      -0.483432       -13.1548
  32   1.0000      -0.479546       -13.0491
  33   1.0000      -0.468318       -12.7436
  34   1.0000      -0.444332       -12.0909
  35   0.0000       0.022712         0.6180
  36   0.0000       0.029703         0.8083
  37   0.0000       0.033121         0.9013
  38   0.0000       0.036890         1.0038
  39   0.0000       0.048924         1.3313

MULLIKEN ATOMIC CHARGES AND SPIN POPULATIONS
--------------------------------------------
   0 Cl:   -0.204709    0.024191
   1 B :    0.066581    0.954437
   2 Si:    1.451469    0.006962
   3 Cl:   -0.549157    0.002739
   4 Cl:   -0.564471    0.020266
   5 H :   -0.199713   -0.008595
Sum of atomic charges         :   -0.0000000

LOEWDIN ATOMIC CHARGES AND SPIN POPULATIONS
-------------------------------------------
   0 Cl:    1.155076    0.193082
   1 B :   -1.261829    0.591897
   2 Si:   -1.240141    0.170445
   3 Cl:    0.863919    0.010264
   4 Cl:    0.849132    0.035071
   5 H :   -0.366157   -0.000759

  Mayer bond orders larger than 0.100000
B(  0-Cl,  1-B ) :   1.2120 B(  1-B ,  2-Si) :   0.8226 B(  2-Si,  3-Cl) :   0.5549
B(  2-Si,  4-Cl) :   0.5471 B(  2-Si,  5-H ) :   0.9644

MP2 TOTAL ENERGY:    -1693.701785971 Eh
FINAL SINGLE POINT ENERGY     -1693.701785970901

DIPOLE MOMENT
-------------
                                X             Y             Z
Electronic contribution:     -2.56858      -0.29383      -1.98340
Nuclear contribution   :      2.29196       0.29499       2.39194
                        -----------------------------------------
Total Dipole Moment    :     -0.27662       0.00116       0.40854
                        -----------------------------------------
Magnitude (a.u.)       :      0.49338
Magnitude (Debye)      :      1.25407

Rotational constants in cm-1:     0.072974     0.039973     0.028645
Rotational constants in MHz :  2187.691277  1198.348631   858.741853

                             ****ORCA TERMINATED NORMALLY****
TOTAL RUN TIME: 0 days 0 hours 16 minutes 54 seconds 87 msec
