                         Program Version 5.0.4 -  RELEASE  -
|  1> ! ri-mp2 aug-cc-pvdz aug-cc-pvdz/c tightscf
|  2> %pal nprocs 16 end
|  3> %maxcore 3800
|  4> %base "DZ_Si-Si_124_AB"
|  5> %scf
|  6> STABPerform true
|  7> STABRestartUHFifUnstable true
|  8> end
|  9>
| 10> *xyz 0 1
| 11> Si        -2.048398   -1.037673    0.544791
| 12> Si        -2.047971    1.038509   -0.544791
| 13> N        -0.517483    1.749141   -0.234067
| 14> H        -3.099464    1.939080   -0.032290
| 15> H        -2.201012    0.884330   -2.005121
| 16> C         0.619801    1.972702    0.013622
| 17> S         2.118229    2.285262    0.340624
| 18> N        -0.518203   -1.748936    0.234066
| 19> H        -3.100262   -1.937811    0.032290
| 20> H        -2.201376   -0.883431    2.005120
| 21> C         0.618990   -1.972955   -0.013622
| 22> S         2.117292   -2.286124   -0.340624
| 23> *
| 24>
| 25> $new_job
| 26> ! ri-mp2 aug-cc-pvtz aug-cc-pvtz/c tightscf
| 27> %pal nprocs 16 end
| 28> %maxcore 3800
| 29> %base "TZ_Si-Si_124_AB"
| 30>
| 31> *xyz 0 1
| 32> Si        -2.048398   -1.037673    0.544791
| 33> Si        -2.047971    1.038509   -0.544791
| 34> N        -0.517483    1.749141   -0.234067
| 35> H        -3.099464    1.939080   -0.032290
| 36> H        -2.201012    0.884330   -2.005121
| 37> C         0.619801    1.972702    0.013622
| 38> S         2.118229    2.285262    0.340624
| 39> N        -0.518203   -1.748936    0.234066
| 40> H        -3.100262   -1.937811    0.032290
| 41> H        -2.201376   -0.883431    2.005120
| 42> C         0.618990   -1.972955   -0.013622
| 43> S         2.117292   -2.286124   -0.340624
| 44> *
| 45>
| 46> $new_job
| 47> ! ri-mp2 aug-cc-pvqz aug-cc-pvqz/c tightscf
| 48> %pal nprocs 16 end
| 49> %maxcore 3800
| 50> %base "QZ_Si-Si_124_AB"
| 51>
| 52> *xyz 0 1
| 53> Si        -2.048398   -1.037673    0.544791
| 54> Si        -2.047971    1.038509   -0.544791
| 55> N        -0.517483    1.749141   -0.234067
| 56> H        -3.099464    1.939080   -0.032290
| 57> H        -2.201012    0.884330   -2.005121
| 58> C         0.619801    1.972702    0.013622
| 59> S         2.118229    2.285262    0.340624
| 60> N        -0.518203   -1.748936    0.234066
| 61> H        -3.100262   -1.937811    0.032290
| 62> H        -2.201376   -0.883431    2.005120
| 63> C         0.618990   -1.972955   -0.013622
| 64> S         2.117292   -2.286124   -0.340624
| 65> *
| 66>
| 67>
| 68>
| 69>
| 70>                          ****END OF INPUT****
 Total Charge           Charge          ....    0
 Multiplicity           Mult            ....    1
 Number of Electrons    NEL             ....   90
MP2 TOTAL ENERGY:    -1561.028797824 Eh
FINAL SINGLE POINT ENERGY     -1561.028797823980
MP2 TOTAL ENERGY:    -1561.361560550 Eh
FINAL SINGLE POINT ENERGY     -1561.361560550109

CARTESIAN COORDINATES (ANGSTROEM)
---------------------------------
  Si    -2.048398   -1.037673    0.544791
  Si    -2.047971    1.038509   -0.544791
  N     -0.517483    1.749141   -0.234067
  H     -3.099464    1.939080   -0.032290
  H     -2.201012    0.884330   -2.005121
  C      0.619801    1.972702    0.013622
  S      2.118229    2.285262    0.340624
  N     -0.518203   -1.748936    0.234066
  H     -3.100262   -1.937811    0.032290
  H     -2.201376   -0.883431    2.005120
  C      0.618990   -1.972955   -0.013622
  S      2.117292   -2.286124   -0.340624

 Multiplicity           Mult            ....    1
 Number of Electrons    NEL             ....   90
 Basis Dimension        Dim             ....  840

ORBITAL ENERGIES
----------------

  NO   OCC          E(Eh)            E(eV)
   0   2.0000     -91.953575     -2502.1840
   1   2.0000     -91.953575     -2502.1840
   2   2.0000     -68.823381     -1872.7794
   3   2.0000     -68.823380     -1872.7794
   4   2.0000     -15.596258      -424.3958
   5   2.0000     -15.596257      -424.3957
   6   2.0000     -11.382589      -309.7360
   7   2.0000     -11.382588      -309.7360
   8   2.0000      -8.958398      -243.7704
   9   2.0000      -8.958397      -243.7704
  10   2.0000      -6.640270      -180.6909
  11   2.0000      -6.640270      -180.6909
  12   2.0000      -6.637784      -180.6233
  13   2.0000      -6.637784      -180.6233
  14   2.0000      -6.637774      -180.6230
  15   2.0000      -6.637774      -180.6230
  16   2.0000      -6.169786      -167.8884
  17   2.0000      -6.169640      -167.8844
  18   2.0000      -4.276940      -116.3815
  19   2.0000      -4.276797      -116.3776
  20   2.0000      -4.276188      -116.3610
  21   2.0000      -4.275851      -116.3518
  22   2.0000      -4.275788      -116.3501
  23   2.0000      -4.275539      -116.3433
  24   2.0000      -1.282102       -34.8878
  25   2.0000      -1.279610       -34.8200
  26   2.0000      -1.045417       -28.4473
  27   2.0000      -1.043928       -28.4067
  28   2.0000      -0.862999       -23.4834
  29   2.0000      -0.831599       -22.6289
  30   2.0000      -0.669258       -18.2114
  31   2.0000      -0.627016       -17.0620
  32   2.0000      -0.603603       -16.4249
  33   2.0000      -0.598770       -16.2934
  34   2.0000      -0.597826       -16.2677
  35   2.0000      -0.591125       -16.0853
  36   2.0000      -0.586808       -15.9679
  37   2.0000      -0.570884       -15.5345
  38   2.0000      -0.514748       -14.0070
  39   2.0000      -0.501048       -13.6342
  40   2.0000      -0.449671       -12.2362
  41   2.0000      -0.374972       -10.2035
  42   2.0000      -0.373918       -10.1748
  43   2.0000      -0.369427       -10.0526
  44   2.0000      -0.360316        -9.8047
  45   0.0000       0.020244         0.5509
  46   0.0000       0.025969         0.7067
  47   0.0000       0.032758         0.8914
  48   0.0000       0.034796         0.9469
  49   0.0000       0.045908         1.2492

MULLIKEN ATOMIC CHARGES
-----------------------
   0 Si:    0.582814
   1 Si:    0.582805
   2 N :   -0.629869
   3 H :   -0.232908
   4 H :   -0.219051
   5 C :    0.382840
   6 S :    0.116182
   7 N :   -0.629873
   8 H :   -0.232907
   9 H :   -0.219050
  10 C :    0.382836
  11 S :    0.116181
Sum of atomic charges:    0.0000000

LOEWDIN ATOMIC CHARGES
----------------------
   0 Si:    0.535999
   1 Si:    0.535998
   2 N :    0.186454
   3 H :   -0.273700
   4 H :   -0.267764
   5 C :   -1.159117
   6 S :    0.978129
   7 N :    0.186454
   8 H :   -0.273700
   9 H :   -0.267764
  10 C :   -1.159117
  11 S :    0.978128

  Mayer bond orders larger than 0.100000
B(  0-Si,  1-Si) :   0.7340 B(  0-Si,  7-N ) :   1.2261 B(  0-Si,  8-H ) :   0.8581
B(  0-Si,  9-H ) :   0.8489 B(  1-Si,  2-N ) :   1.2261 B(  1-Si,  3-H ) :   0.8581
B(  1-Si,  4-H ) :   0.8489 B(  2-N ,  5-C ) :   1.9994 B(  2-N ,  6-S ) :   0.1077
B(  5-C ,  6-S ) :   1.5436 B(  7-N , 10-C ) :   1.9994 B(  7-N , 11-S ) :   0.1077
B( 10-C , 11-S ) :   1.5436

MP2 TOTAL ENERGY:    -1561.470526687 Eh
FINAL SINGLE POINT ENERGY     -1561.470526686978

DIPOLE MOMENT
-------------
                                X             Y             Z
Electronic contribution:      8.42779      -0.00172       0.00000
Nuclear contribution   :    -10.05400       0.00206      -0.00000
                        -----------------------------------------
Total Dipole Moment    :     -1.62621       0.00034       0.00000
                        -----------------------------------------
Magnitude (a.u.)       :      1.62621
Magnitude (Debye)      :      4.13349

Rotational constants in cm-1:     0.027993     0.027294     0.014629
Rotational constants in MHz :   839.217295   818.265931   438.561166

                             ****ORCA TERMINATED NORMALLY****
TOTAL RUN TIME: 0 days 1 hours 1 minutes 33 seconds 538 msec
