                         Program Version 5.0.4 -  RELEASE  -
|  1> ! ri-mp2 aug-cc-pvdz aug-cc-pvdz/c tightscf
|  2> %pal nprocs 16 end
|  3> %maxcore 3800
|  4> %base "DZ_Si-Si_95_AB"
|  5> %scf
|  6> STABPerform true
|  7> STABRestartUHFifUnstable true
|  8> end
|  9>
| 10> *xyz 0 1
| 11> Si         2.061694   -0.746506   -0.000006
| 12> Si         0.535276    1.022803    0.000015
| 13> H         3.441278   -0.210100   -0.000040
| 14> H         1.865026   -1.581530   -1.205092
| 15> H         1.865080   -1.581516    1.205099
| 16> N        -1.064010    0.406600    0.000022
| 17> H         0.698124    1.869400   -1.199897
| 18> H         0.698137    1.869386    1.199934
| 19> C        -2.094927   -0.183361   -0.000006
| 20> O        -3.113450   -0.747479   -0.000031
| 21> *
| 22>
| 23> $new_job
| 24> ! ri-mp2 aug-cc-pvtz aug-cc-pvtz/c tightscf
| 25> %pal nprocs 16 end
| 26> %maxcore 3800
| 27> %base "TZ_Si-Si_95_AB"
| 28>
| 29> *xyz 0 1
| 30> Si         2.061694   -0.746506   -0.000006
| 31> Si         0.535276    1.022803    0.000015
| 32> H         3.441278   -0.210100   -0.000040
| 33> H         1.865026   -1.581530   -1.205092
| 34> H         1.865080   -1.581516    1.205099
| 35> N        -1.064010    0.406600    0.000022
| 36> H         0.698124    1.869400   -1.199897
| 37> H         0.698137    1.869386    1.199934
| 38> C        -2.094927   -0.183361   -0.000006
| 39> O        -3.113450   -0.747479   -0.000031
| 40> *
| 41>
| 42> $new_job
| 43> ! ri-mp2 aug-cc-pvqz aug-cc-pvqz/c tightscf
| 44> %pal nprocs 16 end
| 45> %maxcore 3800
| 46> %base "QZ_Si-Si_95_AB"
| 47>
| 48> *xyz 0 1
| 49> Si         2.061694   -0.746506   -0.000006
| 50> Si         0.535276    1.022803    0.000015
| 51> H         3.441278   -0.210100   -0.000040
| 52> H         1.865026   -1.581530   -1.205092
| 53> H         1.865080   -1.581516    1.205099
| 54> N        -1.064010    0.406600    0.000022
| 55> H         0.698124    1.869400   -1.199897
| 56> H         0.698137    1.869386    1.199934
| 57> C        -2.094927   -0.183361   -0.000006
| 58> O        -3.113450   -0.747479   -0.000031
| 59> *
| 60>
| 61>
| 62>
| 63>
| 64>                          ****END OF INPUT****
 Total Charge           Charge          ....    0
 Multiplicity           Mult            ....    1
 Number of Electrons    NEL             ....   54
MP2 TOTAL ENERGY:     -748.702800281 Eh
FINAL SINGLE POINT ENERGY      -748.702800281020
MP2 TOTAL ENERGY:     -748.921110673 Eh
FINAL SINGLE POINT ENERGY      -748.921110672700

CARTESIAN COORDINATES (ANGSTROEM)
---------------------------------
  Si     2.061694   -0.746506   -0.000006
  Si     0.535276    1.022803    0.000015
  H      3.441278   -0.210100   -0.000040
  H      1.865026   -1.581530   -1.205092
  H      1.865080   -1.581516    1.205099
  N     -1.064010    0.406600    0.000022
  H      0.698124    1.869400   -1.199897
  H      0.698137    1.869386    1.199934
  C     -2.094927   -0.183361   -0.000006
  O     -3.113450   -0.747479   -0.000031

 Multiplicity           Mult            ....    1
 Number of Electrons    NEL             ....   54
 Basis Dimension        Dim             ....  638

ORBITAL ENERGIES
----------------

  NO   OCC          E(Eh)            E(eV)
   0   2.0000     -68.811302     -1872.4507
   1   2.0000     -68.777730     -1871.5372
   2   2.0000     -20.604558      -560.6785
   3   2.0000     -15.578697      -423.9179
   4   2.0000     -11.402475      -310.2771
   5   2.0000      -6.157063      -167.5422
   6   2.0000      -6.128876      -166.7752
   7   2.0000      -4.264223      -116.0354
   8   2.0000      -4.263257      -116.0091
   9   2.0000      -4.263254      -116.0090
  10   2.0000      -4.234977      -115.2396
  11   2.0000      -4.234920      -115.2380
  12   2.0000      -4.234884      -115.2370
  13   2.0000      -1.464159       -39.8418
  14   2.0000      -1.257579       -34.2205
  15   2.0000      -0.846406       -23.0319
  16   2.0000      -0.738603       -20.0984
  17   2.0000      -0.720372       -19.6023
  18   2.0000      -0.653655       -17.7869
  19   2.0000      -0.653509       -17.7829
  20   2.0000      -0.619327       -16.8528
  21   2.0000      -0.527013       -14.3407
  22   2.0000      -0.499707       -13.5977
  23   2.0000      -0.492062       -13.3897
  24   2.0000      -0.482736       -13.1359
  25   2.0000      -0.441863       -12.0237
  26   2.0000      -0.399675       -10.8757
  27   0.0000       0.023766         0.6467
  28   0.0000       0.028120         0.7652
  29   0.0000       0.034881         0.9492
  30   0.0000       0.038180         1.0389
  31   0.0000       0.047945         1.3046

MULLIKEN ATOMIC CHARGES
-----------------------
   0 Si:    0.298393
   1 Si:    0.600898
   2 H :   -0.139765
   3 H :   -0.131092
   4 H :   -0.131092
   5 N :   -0.693796
   6 H :   -0.224887
   7 H :   -0.224888
   8 C :    1.275460
   9 O :   -0.629233
Sum of atomic charges:    0.0000000

LOEWDIN ATOMIC CHARGES
----------------------
   0 Si:    1.053525
   1 Si:    0.464029
   2 H :   -0.320080
   3 H :   -0.315683
   4 H :   -0.315683
   5 N :    0.274986
   6 H :   -0.280393
   7 H :   -0.280394
   8 C :   -0.863910
   9 O :    0.583603

  Mayer bond orders larger than 0.100000
B(  0-Si,  1-Si) :   0.7381 B(  0-Si,  2-H ) :   0.7652 B(  0-Si,  3-H ) :   0.7687
B(  0-Si,  4-H ) :   0.7687 B(  1-Si,  5-N ) :   1.2668 B(  1-Si,  6-H ) :   0.8674
B(  1-Si,  7-H ) :   0.8674 B(  5-N ,  8-C ) :   2.1128 B(  5-N ,  9-O ) :   0.3565
B(  8-C ,  9-O ) :   1.6149

MP2 TOTAL ENERGY:     -748.992738939 Eh
FINAL SINGLE POINT ENERGY      -748.992738938661

DIPOLE MOMENT
-------------
                                X             Y             Z
Electronic contribution:     -7.29650      -0.00192       0.00000
Nuclear contribution   :      8.20793       0.33351       0.00000
                        -----------------------------------------
Total Dipole Moment    :      0.91143       0.33159       0.00001
                        -----------------------------------------
Magnitude (a.u.)       :      0.96987
Magnitude (Debye)      :      2.46522

Rotational constants in cm-1:     0.225964     0.044807     0.038385
Rotational constants in MHz :  6774.216251  1343.268148  1150.750257

                             ****ORCA TERMINATED NORMALLY****
TOTAL RUN TIME: 0 days 0 hours 25 minutes 26 seconds 476 msec
