                         Program Version 5.0.4 -  RELEASE  -
|  1> ! ri-mp2 aug-cc-pvdz aug-cc-pvdz/c tightscf
|  2> %pal nprocs 16 end
|  3> %maxcore 3800
|  4> %base "DZ_P-N_66_AB"
|  5>
|  6> *xyz 0 1
|  7> C         2.365013   -1.467333   -0.084147
|  8> C         1.077066   -1.387274    0.415083
|  9> C         2.999332   -0.313334   -0.504012
| 10> C         2.346684    0.904581   -0.420257
| 11> C         1.056242    1.004954    0.081462
| 12> C         0.409352   -0.167158    0.505691
| 13> H         2.866114   -2.423970   -0.143948
| 14> H         0.576749   -2.289792    0.741424
| 15> N        -2.302286   -0.390910   -0.200520
| 16> O        -2.373659    0.812235   -0.943355
| 17> O        -1.858140   -1.396619   -1.053108
| 18> H         2.852208    1.803997   -0.748491
| 19> H         4.006580   -0.357698   -0.897061
| 20> C         0.388891    2.348680    0.153049
| 21> H         1.075592    3.134686   -0.155816
| 22> H         0.051331    2.568355    1.166655
| 23> H        -0.489920    2.385616   -0.490310
| 24> H        -0.947769   -1.170363   -1.314040
| 25> H        -3.276826    0.821971   -1.281186
| 26> P        -1.283915   -0.078671    1.199440
| 27> H        -1.340424   -1.419977    1.625310
| 28> *
| 29>
| 30> $new_job
| 31> ! ri-mp2 aug-cc-pvtz aug-cc-pvtz/c tightscf
| 32> %pal nprocs 16 end
| 33> %maxcore 3800
| 34> %base "TZ_P-N_66_AB"
| 35>
| 36> *xyz 0 1
| 37> C         2.365013   -1.467333   -0.084147
| 38> C         1.077066   -1.387274    0.415083
| 39> C         2.999332   -0.313334   -0.504012
| 40> C         2.346684    0.904581   -0.420257
| 41> C         1.056242    1.004954    0.081462
| 42> C         0.409352   -0.167158    0.505691
| 43> H         2.866114   -2.423970   -0.143948
| 44> H         0.576749   -2.289792    0.741424
| 45> N        -2.302286   -0.390910   -0.200520
| 46> O        -2.373659    0.812235   -0.943355
| 47> O        -1.858140   -1.396619   -1.053108
| 48> H         2.852208    1.803997   -0.748491
| 49> H         4.006580   -0.357698   -0.897061
| 50> C         0.388891    2.348680    0.153049
| 51> H         1.075592    3.134686   -0.155816
| 52> H         0.051331    2.568355    1.166655
| 53> H        -0.489920    2.385616   -0.490310
| 54> H        -0.947769   -1.170363   -1.314040
| 55> H        -3.276826    0.821971   -1.281186
| 56> P        -1.283915   -0.078671    1.199440
| 57> H        -1.340424   -1.419977    1.625310
| 58> *
| 59>
| 60> $new_job
| 61> ! ri-mp2 aug-cc-pvqz aug-cc-pvqz/c tightscf
| 62> %pal nprocs 16 end
| 63> %maxcore 3800
| 64> %base "QZ_P-N_66_AB"
| 65>
| 66> *xyz 0 1
| 67> C         2.365013   -1.467333   -0.084147
| 68> C         1.077066   -1.387274    0.415083
| 69> C         2.999332   -0.313334   -0.504012
| 70> C         2.346684    0.904581   -0.420257
| 71> C         1.056242    1.004954    0.081462
| 72> C         0.409352   -0.167158    0.505691
| 73> H         2.866114   -2.423970   -0.143948
| 74> H         0.576749   -2.289792    0.741424
| 75> N        -2.302286   -0.390910   -0.200520
| 76> O        -2.373659    0.812235   -0.943355
| 77> O        -1.858140   -1.396619   -1.053108
| 78> H         2.852208    1.803997   -0.748491
| 79> H         4.006580   -0.357698   -0.897061
| 80> C         0.388891    2.348680    0.153049
| 81> H         1.075592    3.134686   -0.155816
| 82> H         0.051331    2.568355    1.166655
| 83> H        -0.489920    2.385616   -0.490310
| 84> H        -0.947769   -1.170363   -1.314040
| 85> H        -3.276826    0.821971   -1.281186
| 86> P        -1.283915   -0.078671    1.199440
| 87> H        -1.340424   -1.419977    1.625310
| 88> *
| 89>
| 90>
| 91>
| 92>
| 93>                          ****END OF INPUT****
 Total Charge           Charge          ....    0
 Multiplicity           Mult            ....    1
 Number of Electrons    NEL             ....   90
MP2 TOTAL ENERGY:     -817.429250349 Eh
FINAL SINGLE POINT ENERGY      -817.429250348900
MP2 TOTAL ENERGY:     -817.886426262 Eh
FINAL SINGLE POINT ENERGY      -817.886426262218

CARTESIAN COORDINATES (ANGSTROEM)
---------------------------------
  C      2.365013   -1.467333   -0.084147
  C      1.077066   -1.387274    0.415083
  C      2.999332   -0.313334   -0.504012
  C      2.346684    0.904581   -0.420257
  C      1.056242    1.004954    0.081462
  C      0.409352   -0.167158    0.505691
  H      2.866114   -2.423970   -0.143948
  H      0.576749   -2.289792    0.741424
  N     -2.302286   -0.390910   -0.200520
  O     -2.373659    0.812235   -0.943355
  O     -1.858140   -1.396619   -1.053108
  H      2.852208    1.803997   -0.748491
  H      4.006580   -0.357698   -0.897061
  C      0.388891    2.348680    0.153049
  H      1.075592    3.134686   -0.155816
  H      0.051331    2.568355    1.166655
  H     -0.489920    2.385616   -0.490310
  H     -0.947769   -1.170363   -1.314040
  H     -3.276826    0.821971   -1.281186
  P     -1.283915   -0.078671    1.199440
  H     -1.340424   -1.419977    1.625310

 Multiplicity           Mult            ....    1
 Number of Electrons    NEL             ....   90
 Basis Dimension        Dim             .... 1344

ORBITAL ENERGIES
----------------

  NO   OCC          E(Eh)            E(eV)
   0   2.0000     -79.964409     -2175.9422
   1   2.0000     -20.600315      -560.5631
   2   2.0000     -20.595446      -560.4306
   3   2.0000     -15.663509      -426.2258
   4   2.0000     -11.256117      -306.2945
   5   2.0000     -11.248594      -306.0898
   6   2.0000     -11.246456      -306.0316
   7   2.0000     -11.240972      -305.8824
   8   2.0000     -11.237616      -305.7911
   9   2.0000     -11.235801      -305.7417
  10   2.0000     -11.220924      -305.3369
  11   2.0000      -7.504471      -204.2070
  12   2.0000      -5.398252      -146.8939
  13   2.0000      -5.397996      -146.8869
  14   2.0000      -5.396950      -146.8585
  15   2.0000      -1.470966       -40.0270
  16   2.0000      -1.349833       -36.7308
  17   2.0000      -1.172077       -31.8938
  18   2.0000      -1.061814       -28.8934
  19   2.0000      -1.048306       -28.5258
  20   2.0000      -1.021356       -27.7925
  21   2.0000      -0.942745       -25.6534
  22   2.0000      -0.861295       -23.4370
  23   2.0000      -0.824419       -22.4336
  24   2.0000      -0.785034       -21.3619
  25   2.0000      -0.752490       -20.4763
  26   2.0000      -0.697456       -18.9787
  27   2.0000      -0.658776       -17.9262
  28   2.0000      -0.655188       -17.8286
  29   2.0000      -0.642725       -17.4894
  30   2.0000      -0.629033       -17.1169
  31   2.0000      -0.622578       -16.9412
  32   2.0000      -0.583395       -15.8750
  33   2.0000      -0.578401       -15.7391
  34   2.0000      -0.560590       -15.2544
  35   2.0000      -0.540236       -14.7006
  36   2.0000      -0.506779       -13.7902
  37   2.0000      -0.504704       -13.7337
  38   2.0000      -0.496907       -13.5215
  39   2.0000      -0.494437       -13.4543
  40   2.0000      -0.487004       -13.2521
  41   2.0000      -0.407833       -11.0977
  42   2.0000      -0.380730       -10.3602
  43   2.0000      -0.348111        -9.4726
  44   2.0000      -0.337156        -9.1745
  45   0.0000       0.021989         0.5983
  46   0.0000       0.027455         0.7471
  47   0.0000       0.030442         0.8284
  48   0.0000       0.037884         1.0309
  49   0.0000       0.041838         1.1385

MULLIKEN ATOMIC CHARGES
-----------------------
   0 C :   -0.359850
   1 C :   -0.411411
   2 C :   -0.370199
   3 C :   -0.526646
   4 C :    0.747919
   5 C :    0.005588
   6 H :    0.273790
   7 H :    0.305304
   8 N :   -0.069855
   9 O :   -0.591641
  10 O :   -0.653628
  11 H :    0.208688
  12 H :    0.271944
  13 C :   -0.895863
  14 H :    0.322588
  15 H :    0.221749
  16 H :    0.291077
  17 H :    0.369902
  18 H :    0.341014
  19 P :    0.664990
  20 H :   -0.145460
Sum of atomic charges:   -0.0000000

LOEWDIN ATOMIC CHARGES
----------------------
   0 C :    0.350130
   1 C :    0.245416
   2 C :    0.351063
   3 C :    0.345863
   4 C :   -0.151466
   5 C :   -0.268050
   6 H :   -0.319652
   7 H :   -0.346991
   8 N :   -0.399905
   9 O :    1.000887
  10 O :    1.012522
  11 H :   -0.322700
  12 H :   -0.313793
  13 C :    0.869845
  14 H :   -0.304613
  15 H :   -0.301691
  16 H :   -0.324683
  17 H :   -0.901425
  18 H :   -0.838986
  19 P :    1.062872
  20 H :   -0.444643

  Mayer bond orders larger than 0.100000
B(  0-C ,  1-C ) :   1.2764 B(  0-C ,  2-C ) :   1.1898 B(  0-C ,  4-C ) :   0.1013
B(  0-C ,  5-C ) :  -0.3259 B(  0-C ,  6-H ) :   1.1066 B(  0-C , 12-H ) :  -0.1116
B(  1-C ,  3-C ) :   0.1563 B(  1-C ,  5-C ) :   0.8683 B(  1-C ,  6-H ) :  -0.1595
B(  1-C ,  7-H ) :   1.0019 B(  2-C ,  3-C ) :   1.2327 B(  2-C ,  4-C ) :  -0.3256
B(  2-C , 12-H ) :   1.1241 B(  3-C ,  4-C ) :   0.9346 B(  3-C ,  5-C ) :  -0.2652
B(  3-C , 11-H ) :   1.0721 B(  3-C , 12-H ) :  -0.1890 B(  3-C , 13-C ) :  -0.1223
B(  4-C ,  5-C ) :   1.0085 B(  4-C , 13-C ) :   0.5573 B(  4-C , 15-H ) :  -0.1205
B(  4-C , 19-P ) :  -0.3096 B(  5-C , 19-P ) :   0.8108 B(  5-C , 20-H ) :  -0.1867
B(  8-N ,  9-O ) :   0.6880 B(  8-N , 10-O ) :   0.6002 B(  8-N , 19-P ) :   0.5357
B(  9-O , 18-H ) :   0.9125 B( 10-O , 17-H ) :   0.7794 B( 13-C , 14-H ) :   0.9779
B( 13-C , 15-H ) :   1.0533 B( 13-C , 16-H ) :   0.9776 B( 19-P , 20-H ) :   0.9844

MP2 TOTAL ENERGY:     -818.033650687 Eh
FINAL SINGLE POINT ENERGY      -818.033650687233

DIPOLE MOMENT
-------------
                                X             Y             Z
Electronic contribution:     -5.67229      -2.86913       2.45590
Nuclear contribution   :      6.43586       3.07783      -2.63949
                        -----------------------------------------
Total Dipole Moment    :      0.76356       0.20870      -0.18359
                        -----------------------------------------
Magnitude (a.u.)       :      0.81258
Magnitude (Debye)      :      2.06542

Rotational constants in cm-1:     0.052482     0.024490     0.020691
Rotational constants in MHz :  1573.382579   734.194980   620.299435

                             ****ORCA TERMINATED NORMALLY****
TOTAL RUN TIME: 0 days 1 hours 6 minutes 53 seconds 666 msec
