                         Program Version 5.0.4 -  RELEASE  -
|  1> ! ri-mp2 aug-cc-pvdz aug-cc-pvdz/c tightscf
|  2> %pal nprocs 16 end
|  3> %maxcore 3800
|  4> %base "DZ_P-F_29_AB"
|  5> %scf
|  6> STABPerform true
|  7> STABRestartUHFifUnstable true
|  8> end
|  9>
| 10> *xyz 0 1
| 11> F         1.131559   -1.162815    1.428398
| 12> F        -2.569288    0.841929   -0.106289
| 13> O        -1.493152   -1.816227   -1.059326
| 14> O         0.027081    2.456201   -0.138415
| 15> P         1.084660   -1.341536   -0.181905
| 16> P        -1.335297    0.281395    0.725520
| 17> C        -0.804685   -1.171226   -0.330491
| 18> C         0.066204    1.263579   -0.071824
| 19> C         1.236380    0.442645   -0.627147
| 20> H         1.071735    0.456623   -1.714390
| 21> C         2.595130    1.058883   -0.313333
| 22> H         2.815566    0.984308    0.751195
| 23> H         2.594783    2.111778   -0.587202
| 24> H         3.387421    0.554301   -0.864113
| 25> *
| 26>
| 27> $new_job
| 28> ! ri-mp2 aug-cc-pvtz aug-cc-pvtz/c tightscf
| 29> %pal nprocs 16 end
| 30> %maxcore 3800
| 31> %base "TZ_P-F_29_AB"
| 32>
| 33> *xyz 0 1
| 34> F         1.131559   -1.162815    1.428398
| 35> F        -2.569288    0.841929   -0.106289
| 36> O        -1.493152   -1.816227   -1.059326
| 37> O         0.027081    2.456201   -0.138415
| 38> P         1.084660   -1.341536   -0.181905
| 39> P        -1.335297    0.281395    0.725520
| 40> C        -0.804685   -1.171226   -0.330491
| 41> C         0.066204    1.263579   -0.071824
| 42> C         1.236380    0.442645   -0.627147
| 43> H         1.071735    0.456623   -1.714390
| 44> C         2.595130    1.058883   -0.313333
| 45> H         2.815566    0.984308    0.751195
| 46> H         2.594783    2.111778   -0.587202
| 47> H         3.387421    0.554301   -0.864113
| 48> *
| 49>
| 50> $new_job
| 51> ! ri-mp2 aug-cc-pvqz aug-cc-pvqz/c tightscf
| 52> %pal nprocs 16 end
| 53> %maxcore 3800
| 54> %base "QZ_P-F_29_AB"
| 55>
| 56> *xyz 0 1
| 57> F         1.131559   -1.162815    1.428398
| 58> F        -2.569288    0.841929   -0.106289
| 59> O        -1.493152   -1.816227   -1.059326
| 60> O         0.027081    2.456201   -0.138415
| 61> P         1.084660   -1.341536   -0.181905
| 62> P        -1.335297    0.281395    0.725520
| 63> C        -0.804685   -1.171226   -0.330491
| 64> C         0.066204    1.263579   -0.071824
| 65> C         1.236380    0.442645   -0.627147
| 66> H         1.071735    0.456623   -1.714390
| 67> C         2.595130    1.058883   -0.313333
| 68> H         2.815566    0.984308    0.751195
| 69> H         2.594783    2.111778   -0.587202
| 70> H         3.387421    0.554301   -0.864113
| 71> *
| 72>
| 73>
| 74>
| 75>
| 76>                          ****END OF INPUT****
 Total Charge           Charge          ....    0
 Multiplicity           Mult            ....    1
 Number of Electrons    NEL             ....   92
MP2 TOTAL ENERGY:    -1185.529788047 Eh
FINAL SINGLE POINT ENERGY     -1185.529788047062
MP2 TOTAL ENERGY:    -1186.040210554 Eh
FINAL SINGLE POINT ENERGY     -1186.040210553617

CARTESIAN COORDINATES (ANGSTROEM)
---------------------------------
  F      1.131559   -1.162815    1.428398
  F     -2.569288    0.841929   -0.106289
  O     -1.493152   -1.816227   -1.059326
  O      0.027081    2.456201   -0.138415
  P      1.084660   -1.341536   -0.181905
  P     -1.335297    0.281395    0.725520
  C     -0.804685   -1.171226   -0.330491
  C      0.066204    1.263579   -0.071824
  C      1.236380    0.442645   -0.627147
  H      1.071735    0.456623   -1.714390
  C      2.595130    1.058883   -0.313333
  H      2.815566    0.984308    0.751195
  H      2.594783    2.111778   -0.587202
  H      3.387421    0.554301   -0.864113

 Multiplicity           Mult            ....    1
 Number of Electrons    NEL             ....   92
 Basis Dimension        Dim             ....  992

ORBITAL ENERGIES
----------------

  NO   OCC          E(Eh)            E(eV)
   0   2.0000     -80.041817     -2178.0486
   1   2.0000     -80.039797     -2177.9936
   2   2.0000     -26.330334      -716.4848
   3   2.0000     -26.325442      -716.3517
   4   2.0000     -20.609818      -560.8217
   5   2.0000     -20.592939      -560.3623
   6   2.0000     -11.370754      -309.4139
   7   2.0000     -11.370078      -309.3956
   8   2.0000     -11.287277      -307.1424
   9   2.0000     -11.254025      -306.2376
  10   2.0000      -7.576839      -206.1763
  11   2.0000      -7.575106      -206.1291
  12   2.0000      -5.470566      -148.8617
  13   2.0000      -5.469312      -148.8275
  14   2.0000      -5.469020      -148.8196
  15   2.0000      -5.468435      -148.8037
  16   2.0000      -5.467801      -148.7864
  17   2.0000      -5.467116      -148.7678
  18   2.0000      -1.636578       -44.5335
  19   2.0000      -1.633526       -44.4505
  20   2.0000      -1.448343       -39.4114
  21   2.0000      -1.439164       -39.1616
  22   2.0000      -1.115751       -30.3611
  23   2.0000      -1.000711       -27.2307
  24   2.0000      -0.911298       -24.7977
  25   2.0000      -0.893723       -24.3194
  26   2.0000      -0.796052       -21.6617
  27   2.0000      -0.778496       -21.1839
  28   2.0000      -0.732486       -19.9320
  29   2.0000      -0.730312       -19.8728
  30   2.0000      -0.723776       -19.6949
  31   2.0000      -0.715726       -19.4759
  32   2.0000      -0.692244       -18.8369
  33   2.0000      -0.684783       -18.6339
  34   2.0000      -0.674233       -18.3468
  35   2.0000      -0.642834       -17.4924
  36   2.0000      -0.631664       -17.1885
  37   2.0000      -0.603561       -16.4237
  38   2.0000      -0.578930       -15.7535
  39   2.0000      -0.567663       -15.4469
  40   2.0000      -0.558162       -15.1884
  41   2.0000      -0.530555       -14.4371
  42   2.0000      -0.505291       -13.7497
  43   2.0000      -0.448156       -12.1949
  44   2.0000      -0.397081       -10.8051
  45   2.0000      -0.372034       -10.1236
  46   0.0000       0.020119         0.5475
  47   0.0000       0.028876         0.7858
  48   0.0000       0.032796         0.8924
  49   0.0000       0.038443         1.0461
  50   0.0000       0.039611         1.0779

MULLIKEN ATOMIC CHARGES
-----------------------
   0 F :   -0.724740
   1 F :   -0.707317
   2 O :   -0.770885
   3 O :   -0.831313
   4 P :    1.113071
   5 P :    1.225153
   6 C :    0.184023
   7 C :    0.576894
   8 C :   -0.418125
   9 H :    0.353113
  10 C :   -0.807995
  11 H :    0.258356
  12 H :    0.268757
  13 H :    0.281007
Sum of atomic charges:   -0.0000000

LOEWDIN ATOMIC CHARGES
----------------------
   0 F :    0.316716
   1 F :    0.301951
   2 O :    0.541344
   3 O :    0.669214
   4 P :    0.387268
   5 P :    0.323107
   6 C :   -1.032607
   7 C :   -0.897730
   8 C :   -0.199864
   9 H :   -0.373021
  10 C :    0.841910
  11 H :   -0.291720
  12 H :   -0.297990
  13 H :   -0.288579

  Mayer bond orders larger than 0.100000
B(  0-F ,  4-P ) :   0.4305 B(  1-F ,  5-P ) :   0.6105 B(  1-F ,  7-C ) :  -0.1407
B(  2-O ,  6-C ) :   1.3696 B(  3-O ,  7-C ) :   1.1863 B(  3-O ,  8-C ) :   0.1508
B(  4-P ,  6-C ) :   0.9364 B(  4-P ,  8-C ) :   0.7213 B(  5-P ,  6-C ) :   0.8251
B(  5-P ,  7-C ) :   0.8692 B(  7-C ,  8-C ) :   0.9179 B(  8-C ,  9-H ) :   0.8069
B(  8-C , 10-C ) :   0.7664 B( 10-C , 11-H ) :   0.9481 B( 10-C , 12-H ) :   0.9738
B( 10-C , 13-H ) :   0.9741

MP2 TOTAL ENERGY:    -1186.209156616 Eh
FINAL SINGLE POINT ENERGY     -1186.209156615865

DIPOLE MOMENT
-------------
                                X             Y             Z
Electronic contribution:     -9.56470      -5.32964       3.94361
Nuclear contribution   :     10.80254       5.11129      -3.99692
                        -----------------------------------------
Total Dipole Moment    :      1.23784      -0.21835      -0.05330
                        -----------------------------------------
Magnitude (a.u.)       :      1.25808
Magnitude (Debye)      :      3.19778

Rotational constants in cm-1:     0.043460     0.033736     0.023577
Rotational constants in MHz :  1302.888963  1011.383826   706.827980

                             ****ORCA TERMINATED NORMALLY****
TOTAL RUN TIME: 0 days 2 hours 19 minutes 24 seconds 543 msec
