                         Program Version 5.0.4 -  RELEASE  -
|  1> ! ri-mp2 aug-cc-pvdz aug-cc-pvdz/c tightscf
|  2> %pal nprocs 16 end
|  3> %maxcore 3800
|  4> %base "DZ_Si-Si_76_A"
|  5> %scf
|  6> STABPerform true
|  7> STABRestartUHFifUnstable true
|  8> end
|  9>
| 10> *xyz 0 2
| 11> Si         1.392635    0.000000    0.109391
| 12> N        -0.315980    0.000000   -0.086322
| 13> H         1.905868   -1.224764   -0.563020
| 14> H         1.905869    1.224763   -0.563021
| 15> C        -1.100710    1.209708    0.005031
| 16> H        -1.844254    1.242976   -0.797825
| 17> H        -0.463044    2.087274   -0.091820
| 18> H        -1.636825    1.279951    0.958869
| 19> C        -1.100710   -1.209708    0.005031
| 20> H        -0.463044   -2.087274   -0.091821
| 21> H        -1.844254   -1.242975   -0.797825
| 22> H        -1.636824   -1.279951    0.958869
| 23> *
| 24>
| 25> $new_job
| 26> ! ri-mp2 aug-cc-pvtz aug-cc-pvtz/c tightscf
| 27> %pal nprocs 16 end
| 28> %maxcore 3800
| 29> %base "TZ_Si-Si_76_A"
| 30>
| 31> *xyz 0 2
| 32> Si         1.392635    0.000000    0.109391
| 33> N        -0.315980    0.000000   -0.086322
| 34> H         1.905868   -1.224764   -0.563020
| 35> H         1.905869    1.224763   -0.563021
| 36> C        -1.100710    1.209708    0.005031
| 37> H        -1.844254    1.242976   -0.797825
| 38> H        -0.463044    2.087274   -0.091820
| 39> H        -1.636825    1.279951    0.958869
| 40> C        -1.100710   -1.209708    0.005031
| 41> H        -0.463044   -2.087274   -0.091821
| 42> H        -1.844254   -1.242975   -0.797825
| 43> H        -1.636824   -1.279951    0.958869
| 44> *
| 45>
| 46> $new_job
| 47> ! ri-mp2 aug-cc-pvqz aug-cc-pvqz/c tightscf
| 48> %pal nprocs 16 end
| 49> %maxcore 3800
| 50> %base "QZ_Si-Si_76_A"
| 51>
| 52> *xyz 0 2
| 53> Si         1.392635    0.000000    0.109391
| 54> N        -0.315980    0.000000   -0.086322
| 55> H         1.905868   -1.224764   -0.563020
| 56> H         1.905869    1.224763   -0.563021
| 57> C        -1.100710    1.209708    0.005031
| 58> H        -1.844254    1.242976   -0.797825
| 59> H        -0.463044    2.087274   -0.091820
| 60> H        -1.636825    1.279951    0.958869
| 61> C        -1.100710   -1.209708    0.005031
| 62> H        -0.463044   -2.087274   -0.091821
| 63> H        -1.844254   -1.242975   -0.797825
| 64> H        -1.636824   -1.279951    0.958869
| 65> *
| 66>
| 67>
| 68>
| 69>
| 70>                          ****END OF INPUT****
 Total Charge           Charge          ....    0
 Multiplicity           Mult            ....    2
 Number of Electrons    NEL             ....   41
MP2 TOTAL ENERGY:     -424.322362553 Eh
FINAL SINGLE POINT ENERGY      -424.322362552891
MP2 TOTAL ENERGY:     -424.489495150 Eh
FINAL SINGLE POINT ENERGY      -424.489495150088

CARTESIAN COORDINATES (ANGSTROEM)
---------------------------------
  Si     1.392635    0.000000    0.109391
  N     -0.315980    0.000000   -0.086322
  H      1.905868   -1.224764   -0.563020
  H      1.905869    1.224763   -0.563021
  C     -1.100710    1.209708    0.005031
  H     -1.844254    1.242976   -0.797825
  H     -0.463044    2.087274   -0.091820
  H     -1.636825    1.279951    0.958869
  C     -1.100710   -1.209708    0.005031
  H     -0.463044   -2.087274   -0.091821
  H     -1.844254   -1.242975   -0.797825
  H     -1.636824   -1.279951    0.958869

 Multiplicity           Mult            ....    2
 Number of Electrons    NEL             ....   41
 Basis Dimension        Dim             ....  692

ORBITAL ENERGIES
----------------
                 SPIN UP ORBITALS
  NO   OCC          E(Eh)            E(eV)
   0   1.0000     -68.775575     -1871.4785
   1   1.0000     -15.546742      -423.0484
   2   1.0000     -11.251452      -306.1676
   3   1.0000     -11.251434      -306.1671
   4   1.0000      -6.123369      -166.6253
   5   1.0000      -4.234583      -115.2289
   6   1.0000      -4.226793      -115.0169
   7   1.0000      -4.226489      -115.0086
   8   1.0000      -1.211486       -32.9662
   9   1.0000      -0.961062       -26.1518
  10   1.0000      -0.865157       -23.5421
  11   1.0000      -0.713941       -19.4273
  12   1.0000      -0.636692       -17.3253
  13   1.0000      -0.617016       -16.7899
  14   1.0000      -0.604117       -16.4389
  15   1.0000      -0.548090       -14.9143
  16   1.0000      -0.523509       -14.2454
  17   1.0000      -0.497328       -13.5330
  18   1.0000      -0.476852       -12.9758
  19   1.0000      -0.409085       -11.1318
  20   1.0000      -0.294154        -8.0043
  21   0.0000       0.024432         0.6648
  22   0.0000       0.036055         0.9811
  23   0.0000       0.036263         0.9868
  24   0.0000       0.038334         1.0431
  25   0.0000       0.049963         1.3596

                 SPIN DOWN ORBITALS
  NO   OCC          E(Eh)            E(eV)
   0   1.0000     -68.770821     -1871.3492
   1   1.0000     -15.540038      -422.8659
   2   1.0000     -11.251943      -306.1809
   3   1.0000     -11.251926      -306.1805
   4   1.0000      -6.115823      -166.4200
   5   1.0000      -4.224051      -114.9423
   6   1.0000      -4.223924      -114.9388
   7   1.0000      -4.215969      -114.7224
   8   1.0000      -1.198137       -32.6030
   9   1.0000      -0.961123       -26.1535
  10   1.0000      -0.859023       -23.3752
  11   1.0000      -0.694340       -18.8939
  12   1.0000      -0.624371       -16.9900
  13   1.0000      -0.614683       -16.7264
  14   1.0000      -0.585748       -15.9390
  15   1.0000      -0.547629       -14.9017
  16   1.0000      -0.522636       -14.2217
  17   1.0000      -0.489611       -13.3230
  18   1.0000      -0.462636       -12.5890
  19   1.0000      -0.357467        -9.7272
  20   0.0000       0.024368         0.6631
  21   0.0000       0.031382         0.8539
  22   0.0000       0.036415         0.9909
  23   0.0000       0.037104         1.0097
  24   0.0000       0.050263         1.3677

MULLIKEN ATOMIC CHARGES AND SPIN POPULATIONS
--------------------------------------------
   0 Si:    0.396341    0.809421
   1 N :   -0.098595    0.093296
   2 H :   -0.252307    0.044429
   3 H :   -0.252306    0.044429
   4 C :   -0.779182   -0.006170
   5 H :    0.274220    0.005810
   6 H :    0.301256    0.000592
   7 H :    0.307141    0.003980
   8 C :   -0.779182   -0.006169
   9 H :    0.301254    0.000591
  10 H :    0.274221    0.005811
  11 H :    0.307139    0.003980
Sum of atomic charges         :    0.0000000

LOEWDIN ATOMIC CHARGES AND SPIN POPULATIONS
-------------------------------------------
   0 Si:    0.923600    0.533416
   1 N :    0.250364    0.171769
   2 H :   -0.313676    0.123202
   3 H :   -0.313676    0.123202
   4 C :    0.640524    0.020943
   5 H :   -0.290824    0.001826
   6 H :   -0.336914    0.000030
   7 H :   -0.286091    0.001405
   8 C :    0.640524    0.020943
   9 H :   -0.336914    0.000030
  10 H :   -0.290824    0.001826
  11 H :   -0.286092    0.001405

  Mayer bond orders larger than 0.100000
B(  0-Si,  1-N ) :   0.8436 B(  0-Si,  2-H ) :   0.9140 B(  0-Si,  3-H ) :   0.9140
B(  1-N ,  4-C ) :   0.8065 B(  1-N ,  8-C ) :   0.8065 B(  4-C ,  5-H ) :   0.9588
B(  4-C ,  6-H ) :   0.9162 B(  4-C ,  7-H ) :   0.9204 B(  8-C ,  9-H ) :   0.9162
B(  8-C , 10-H ) :   0.9588 B(  8-C , 11-H ) :   0.9204

MP2 TOTAL ENERGY:     -424.540296936 Eh
FINAL SINGLE POINT ENERGY      -424.540296936435

DIPOLE MOMENT
-------------
                                X             Y             Z
Electronic contribution:      3.81976       0.00000       1.05272
Nuclear contribution   :     -4.32128       0.00000      -1.03258
                        -----------------------------------------
Total Dipole Moment    :     -0.50152       0.00000       0.02014
                        -----------------------------------------
Magnitude (a.u.)       :      0.50192
Magnitude (Debye)      :      1.27579

Rotational constants in cm-1:     0.292916     0.154690     0.106571
Rotational constants in MHz :  8781.408584  4637.495416  3194.916353

                             ****ORCA TERMINATED NORMALLY****
TOTAL RUN TIME: 0 days 1 hours 18 minutes 2 seconds 387 msec
