                         Program Version 5.0.4 -  RELEASE  -
|  1> ! ri-mp2 aug-cc-pvdz aug-cc-pvdz/c tightscf
|  2> %pal nprocs 16 end
|  3> %maxcore 3800
|  4> %base "DZ_P-Cl_12_AB"
|  5>
|  6> *xyz 0 1
|  7> Cl        -1.480098    1.573517    1.287123
|  8> Cl        -1.480148   -1.595317    1.259956
|  9> S        -0.411001    0.011519   -1.344128
| 10> O        -0.566974    1.270321   -2.019567
| 11> O        -0.566988   -1.235539   -2.041010
| 12> P        -2.066052   -0.001044    0.124982
| 13> C         1.711265    1.212611   -0.146294
| 14> C         2.912227    1.199284    0.537550
| 15> C         3.507069   -0.007484    0.870346
| 16> C         2.912136   -1.208364    0.517046
| 17> C         1.711176   -1.209955   -0.166925
| 18> C         1.124368    0.004190   -0.490056
| 19> H         1.235662    2.139584   -0.430831
| 20> H         3.387409    2.132260    0.807354
| 21> H         4.447398   -0.012077    1.405344
| 22> H         3.387250   -2.145837    0.770916
| 23> H         1.235504   -2.131914   -0.467207
| 24> *
| 25>
| 26> $new_job
| 27> ! ri-mp2 aug-cc-pvtz aug-cc-pvtz/c tightscf
| 28> %pal nprocs 16 end
| 29> %maxcore 3800
| 30> %base "TZ_P-Cl_12_AB"
| 31>
| 32> *xyz 0 1
| 33> Cl        -1.480098    1.573517    1.287123
| 34> Cl        -1.480148   -1.595317    1.259956
| 35> S        -0.411001    0.011519   -1.344128
| 36> O        -0.566974    1.270321   -2.019567
| 37> O        -0.566988   -1.235539   -2.041010
| 38> P        -2.066052   -0.001044    0.124982
| 39> C         1.711265    1.212611   -0.146294
| 40> C         2.912227    1.199284    0.537550
| 41> C         3.507069   -0.007484    0.870346
| 42> C         2.912136   -1.208364    0.517046
| 43> C         1.711176   -1.209955   -0.166925
| 44> C         1.124368    0.004190   -0.490056
| 45> H         1.235662    2.139584   -0.430831
| 46> H         3.387409    2.132260    0.807354
| 47> H         4.447398   -0.012077    1.405344
| 48> H         3.387250   -2.145837    0.770916
| 49> H         1.235504   -2.131914   -0.467207
| 50> *
| 51>
| 52> $new_job
| 53> ! ri-mp2 aug-cc-pvqz aug-cc-pvqz/c tightscf
| 54> %pal nprocs 16 end
| 55> %maxcore 3800
| 56> %base "QZ_P-Cl_12_AB"
| 57>
| 58> *xyz 0 1
| 59> Cl        -1.480098    1.573517    1.287123
| 60> Cl        -1.480148   -1.595317    1.259956
| 61> S        -0.411001    0.011519   -1.344128
| 62> O        -0.566974    1.270321   -2.019567
| 63> O        -0.566988   -1.235539   -2.041010
| 64> P        -2.066052   -0.001044    0.124982
| 65> C         1.711265    1.212611   -0.146294
| 66> C         2.912227    1.199284    0.537550
| 67> C         3.507069   -0.007484    0.870346
| 68> C         2.912136   -1.208364    0.517046
| 69> C         1.711176   -1.209955   -0.166925
| 70> C         1.124368    0.004190   -0.490056
| 71> H         1.235662    2.139584   -0.430831
| 72> H         3.387409    2.132260    0.807354
| 73> H         4.447398   -0.012077    1.405344
| 74> H         3.387250   -2.145837    0.770916
| 75> H         1.235504   -2.131914   -0.467207
| 76> *
| 77>
| 78>
| 79>
| 80>
| 81>                          ****END OF INPUT****
 Total Charge           Charge          ....    0
 Multiplicity           Mult            ....    1
 Number of Electrons    NEL             ....  122
MP2 TOTAL ENERGY:    -2038.898962578 Eh
FINAL SINGLE POINT ENERGY     -2038.898962578109
MP2 TOTAL ENERGY:    -2039.481913099 Eh
FINAL SINGLE POINT ENERGY     -2039.481913099154

CARTESIAN COORDINATES (ANGSTROEM)
---------------------------------
  Cl    -1.480098    1.573517    1.287123
  Cl    -1.480148   -1.595317    1.259956
  S     -0.411001    0.011519   -1.344128
  O     -0.566974    1.270321   -2.019567
  O     -0.566988   -1.235539   -2.041010
  P     -2.066052   -0.001044    0.124982
  C      1.711265    1.212611   -0.146294
  C      2.912227    1.199284    0.537550
  C      3.507069   -0.007484    0.870346
  C      2.912136   -1.208364    0.517046
  C      1.711176   -1.209955   -0.166925
  C      1.124368    0.004190   -0.490056
  H      1.235662    2.139584   -0.430831
  H      3.387409    2.132260    0.807354
  H      4.447398   -0.012077    1.405344
  H      3.387250   -2.145837    0.770916
  H      1.235504   -2.131914   -0.467207

 Multiplicity           Mult            ....    1
 Number of Electrons    NEL             ....  122
 Basis Dimension        Dim             .... 1206

ORBITAL ENERGIES
----------------

  NO   OCC          E(Eh)            E(eV)
   0   2.0000    -104.869521     -2853.6447
   1   2.0000    -104.869521     -2853.6447
   2   2.0000     -92.181245     -2508.3792
   3   2.0000     -80.083053     -2179.1707
   4   2.0000     -20.558990      -559.4386
   5   2.0000     -20.558970      -559.4380
   6   2.0000     -11.283392      -307.0367
   7   2.0000     -11.272684      -306.7453
   8   2.0000     -11.272593      -306.7429
   9   2.0000     -11.269086      -306.6474
  10   2.0000     -11.259311      -306.3814
  11   2.0000     -11.259218      -306.3789
  12   2.0000     -10.595875      -288.3284
  13   2.0000     -10.595869      -288.3282
  14   2.0000      -9.152899      -249.0630
  15   2.0000      -8.062659      -219.3961
  16   2.0000      -8.062658      -219.3961
  17   2.0000      -8.061119      -219.3542
  18   2.0000      -8.061119      -219.3542
  19   2.0000      -8.061021      -219.3515
  20   2.0000      -8.061020      -219.3515
  21   2.0000      -7.614702      -207.2066
  22   2.0000      -6.837994      -186.0713
  23   2.0000      -6.837430      -186.0559
  24   2.0000      -6.837158      -186.0485
  25   2.0000      -5.506824      -149.8483
  26   2.0000      -5.506219      -149.8318
  27   2.0000      -5.505060      -149.8003
  28   2.0000      -1.470644       -40.0183
  29   2.0000      -1.360107       -37.0104
  30   2.0000      -1.196745       -32.5651
  31   2.0000      -1.174458       -31.9586
  32   2.0000      -1.121281       -30.5116
  33   2.0000      -1.071522       -29.1576
  34   2.0000      -1.053628       -28.6707
  35   2.0000      -0.937498       -25.5106
  36   2.0000      -0.864528       -23.5250
  37   2.0000      -0.857474       -23.3330
  38   2.0000      -0.794335       -21.6150
  39   2.0000      -0.740812       -20.1585
  40   2.0000      -0.690880       -18.7998
  41   2.0000      -0.676960       -18.4210
  42   2.0000      -0.675122       -18.3710
  43   2.0000      -0.647120       -17.6090
  44   2.0000      -0.643297       -17.5050
  45   2.0000      -0.624529       -16.9943
  46   2.0000      -0.596777       -16.2391
  47   2.0000      -0.566086       -15.4040
  48   2.0000      -0.556328       -15.1384
  49   2.0000      -0.537524       -14.6268
  50   2.0000      -0.531401       -14.4602
  51   2.0000      -0.531220       -14.4552
  52   2.0000      -0.523197       -14.2369
  53   2.0000      -0.506844       -13.7919
  54   2.0000      -0.505200       -13.7472
  55   2.0000      -0.488889       -13.3034
  56   2.0000      -0.475291       -12.9333
  57   2.0000      -0.457193       -12.4409
  58   2.0000      -0.394826       -10.7438
  59   2.0000      -0.373906       -10.1745
  60   2.0000      -0.368972       -10.0402
  61   0.0000       0.018229         0.4960
  62   0.0000       0.026124         0.7109
  63   0.0000       0.032511         0.8847
  64   0.0000       0.040215         1.0943
  65   0.0000       0.044913         1.2221

MULLIKEN ATOMIC CHARGES
-----------------------
   0 Cl:   -0.442687
   1 Cl:   -0.442694
   2 S :    2.784763
   3 O :   -1.333011
   4 O :   -1.333002
   5 P :    0.984646
   6 C :   -0.314946
   7 C :   -0.305939
   8 C :   -0.304794
   9 C :   -0.305918
  10 C :   -0.314935
  11 C :   -0.320095
  12 H :    0.419410
  13 H :    0.236279
  14 H :    0.337212
  15 H :    0.236269
  16 H :    0.419442
Sum of atomic charges:   -0.0000000

LOEWDIN ATOMIC CHARGES
----------------------
   0 Cl:    0.685997
   1 Cl:    0.686004
   2 S :   -0.558847
   3 O :    0.244452
   4 O :    0.244451
   5 P :   -0.804990
   6 C :    0.234707
   7 C :    0.356109
   8 C :    0.351543
   9 C :    0.356106
  10 C :    0.234697
  11 C :   -0.368571
  12 H :   -0.359072
  13 H :   -0.316314
  14 H :   -0.310881
  15 H :   -0.316313
  16 H :   -0.359078

  Mayer bond orders larger than 0.100000
B(  0-Cl,  5-P ) :   0.8558 B(  1-Cl,  5-P ) :   0.8558 B(  2-S ,  3-O ) :   0.9134
B(  2-S ,  4-O ) :   0.9134 B(  2-S ,  5-P ) :   0.7167 B(  2-S ,  6-C ) :  -0.1142
B(  2-S , 10-C ) :  -0.1142 B(  2-S , 11-C ) :   0.9946 B(  3-O ,  6-C ) :   0.1160
B(  3-O , 11-C ) :  -0.1078 B(  4-O , 10-C ) :   0.1160 B(  4-O , 11-C ) :  -0.1078
B(  6-C ,  7-C ) :   1.3625 B(  6-C ,  9-C ) :   0.1030 B(  6-C , 11-C ) :   0.9152
B(  6-C , 12-H ) :   0.8199 B(  6-C , 13-H ) :  -0.1288 B(  7-C ,  8-C ) :   1.1244
B(  7-C , 10-C ) :   0.1030 B(  7-C , 11-C ) :  -0.2965 B(  7-C , 13-H ) :   1.1387
B(  8-C ,  9-C ) :   1.1243 B(  8-C , 13-H ) :  -0.1094 B(  8-C , 14-H ) :   0.9990
B(  8-C , 15-H ) :  -0.1094 B(  9-C , 10-C ) :   1.3625 B(  9-C , 11-C ) :  -0.2965
B(  9-C , 15-H ) :   1.1387 B( 10-C , 11-C ) :   0.9152 B( 10-C , 15-H ) :  -0.1288
B( 10-C , 16-H ) :   0.8199 B( 11-C , 12-H ) :  -0.1014 B( 11-C , 16-H ) :  -0.1014

MP2 TOTAL ENERGY:    -2039.673536858 Eh
FINAL SINGLE POINT ENERGY     -2039.673536858045

DIPOLE MOMENT
-------------
                                X             Y             Z
Electronic contribution:    -17.62619      -0.02706       3.17836
Nuclear contribution   :     18.75163       0.01357      -1.60262
                        -----------------------------------------
Total Dipole Moment    :      1.12544      -0.01349       1.57574
                        -----------------------------------------
Magnitude (a.u.)       :      1.93643
Magnitude (Debye)      :      4.92200

Rotational constants in cm-1:     0.026160     0.015296     0.015146
Rotational constants in MHz :   784.260526   458.575449   454.069685

                             ****ORCA TERMINATED NORMALLY****
TOTAL RUN TIME: 0 days 0 hours 56 minutes 27 seconds 630 msec
