                         Program Version 5.0.4 -  RELEASE  -
|  1> ! ri-mp2 aug-cc-pvdz aug-cc-pvdz/c tightscf
|  2> %pal nprocs 16 end
|  3> %maxcore 3800
|  4> %base "DZ_Si-Si_121_AB"
|  5> %scf
|  6> STABPerform true
|  7> STABRestartUHFifUnstable true
|  8> end
|  9>
| 10> *xyz 0 1
| 11> Si         2.502688   -0.402847    0.010485
| 12> Si         0.723198    1.108992    0.045773
| 13> S        -1.137058   -0.080825   -0.141833
| 14> H         0.661765    2.010984   -1.119004
| 15> H         0.570851    1.866276    1.303125
| 16> O        -2.311183    0.739458   -0.061884
| 17> O        -1.105366   -0.952135    1.213497
| 18> O        -0.958816   -1.004435   -1.216897
| 19> H         3.749211    0.354328    0.257178
| 20> H         2.558279   -1.050029   -1.312848
| 21> H         2.304316   -1.400667    1.078853
| 22> H        -1.810971   -0.636815    1.796672
| 23> *
| 24>
| 25> $new_job
| 26> ! ri-mp2 aug-cc-pvtz aug-cc-pvtz/c tightscf
| 27> %pal nprocs 16 end
| 28> %maxcore 3800
| 29> %base "TZ_Si-Si_121_AB"
| 30>
| 31> *xyz 0 1
| 32> Si         2.502688   -0.402847    0.010485
| 33> Si         0.723198    1.108992    0.045773
| 34> S        -1.137058   -0.080825   -0.141833
| 35> H         0.661765    2.010984   -1.119004
| 36> H         0.570851    1.866276    1.303125
| 37> O        -2.311183    0.739458   -0.061884
| 38> O        -1.105366   -0.952135    1.213497
| 39> O        -0.958816   -1.004435   -1.216897
| 40> H         3.749211    0.354328    0.257178
| 41> H         2.558279   -1.050029   -1.312848
| 42> H         2.304316   -1.400667    1.078853
| 43> H        -1.810971   -0.636815    1.796672
| 44> *
| 45>
| 46> $new_job
| 47> ! ri-mp2 aug-cc-pvqz aug-cc-pvqz/c tightscf
| 48> %pal nprocs 16 end
| 49> %maxcore 3800
| 50> %base "QZ_Si-Si_121_AB"
| 51>
| 52> *xyz 0 1
| 53> Si         2.502688   -0.402847    0.010485
| 54> Si         0.723198    1.108992    0.045773
| 55> S        -1.137058   -0.080825   -0.141833
| 56> H         0.661765    2.010984   -1.119004
| 57> H         0.570851    1.866276    1.303125
| 58> O        -2.311183    0.739458   -0.061884
| 59> O        -1.105366   -0.952135    1.213497
| 60> O        -0.958816   -1.004435   -1.216897
| 61> H         3.749211    0.354328    0.257178
| 62> H         2.558279   -1.050029   -1.312848
| 63> H         2.304316   -1.400667    1.078853
| 64> H        -1.810971   -0.636815    1.796672
| 65> *
| 66>
| 67>
| 68>
| 69>
| 70>                          ****END OF INPUT****
 Total Charge           Charge          ....    0
 Multiplicity           Mult            ....    1
 Number of Electrons    NEL             ....   74
MP2 TOTAL ENERGY:    -1204.387114304 Eh
FINAL SINGLE POINT ENERGY     -1204.387114303991
MP2 TOTAL ENERGY:    -1204.747716950 Eh
FINAL SINGLE POINT ENERGY     -1204.747716949969

CARTESIAN COORDINATES (ANGSTROEM)
---------------------------------
  Si     2.502688   -0.402847    0.010485
  Si     0.723198    1.108992    0.045773
  S     -1.137058   -0.080825   -0.141833
  H      0.661765    2.010984   -1.119004
  H      0.570851    1.866276    1.303125
  O     -2.311183    0.739458   -0.061884
  O     -1.105366   -0.952135    1.213497
  O     -0.958816   -1.004435   -1.216897
  H      3.749211    0.354328    0.257178
  H      2.558279   -1.050029   -1.312848
  H      2.304316   -1.400667    1.078853
  H     -1.810971   -0.636815    1.796672

 Multiplicity           Mult            ....    1
 Number of Electrons    NEL             ....   74
 Basis Dimension        Dim             ....  768

ORBITAL ENERGIES
----------------

  NO   OCC          E(Eh)            E(eV)
   0   2.0000     -92.194680     -2508.7448
   1   2.0000     -68.821240     -1872.7211
   2   2.0000     -68.794250     -1871.9867
   3   2.0000     -20.628209      -561.3221
   4   2.0000     -20.558231      -559.4179
   5   2.0000     -20.555697      -559.3490
   6   2.0000      -9.162237      -249.3172
   7   2.0000      -6.848256      -186.3505
   8   2.0000      -6.846584      -186.3050
   9   2.0000      -6.846167      -186.2937
  10   2.0000      -6.171325      -167.9303
  11   2.0000      -6.145092      -167.2165
  12   2.0000      -4.277688      -116.4018
  13   2.0000      -4.276758      -116.3765
  14   2.0000      -4.276620      -116.3727
  15   2.0000      -4.251468      -115.6883
  16   2.0000      -4.251086      -115.6779
  17   2.0000      -4.250974      -115.6749
  18   2.0000      -1.507378       -41.0178
  19   2.0000      -1.391911       -37.8758
  20   2.0000      -1.360692       -37.0263
  21   2.0000      -0.915017       -24.8989
  22   2.0000      -0.798588       -21.7307
  23   2.0000      -0.750117       -20.4117
  24   2.0000      -0.721447       -19.6316
  25   2.0000      -0.687688       -18.7129
  26   2.0000      -0.659671       -17.9506
  27   2.0000      -0.633638       -17.2422
  28   2.0000      -0.575711       -15.6659
  29   2.0000      -0.541586       -14.7373
  30   2.0000      -0.524007       -14.2590
  31   2.0000      -0.516023       -14.0417
  32   2.0000      -0.508445       -13.8355
  33   2.0000      -0.502457       -13.6725
  34   2.0000      -0.489219       -13.3123
  35   2.0000      -0.455894       -12.4055
  36   2.0000      -0.427939       -11.6448
  37   0.0000       0.018806         0.5117
  38   0.0000       0.026491         0.7209
  39   0.0000       0.030639         0.8337
  40   0.0000       0.038296         1.0421
  41   0.0000       0.046527         1.2661

MULLIKEN ATOMIC CHARGES
-----------------------
   0 Si:    0.324969
   1 Si:    0.908307
   2 S :    2.325960
   3 H :   -0.204000
   4 H :   -0.187508
   5 O :   -1.196097
   6 O :   -0.812798
   7 O :   -1.169563
   8 H :   -0.148713
   9 H :   -0.096560
  10 H :   -0.096570
  11 H :    0.352573
Sum of atomic charges:    0.0000000

LOEWDIN ATOMIC CHARGES
----------------------
   0 Si:    1.035065
   1 Si:    0.588222
   2 S :   -0.650615
   3 H :   -0.289252
   4 H :   -0.288929
   5 O :    0.232312
   6 O :    0.986728
   7 O :    0.219435
   8 H :   -0.317481
   9 H :   -0.305129
  10 H :   -0.306471
  11 H :   -0.903885

  Mayer bond orders larger than 0.100000
B(  0-Si,  1-Si) :   0.7218 B(  0-Si,  8-H ) :   0.7532 B(  0-Si,  9-H ) :   0.7593
B(  0-Si, 10-H ) :   0.7506 B(  1-Si,  2-S ) :   0.6061 B(  1-Si,  3-H ) :   0.8406
B(  1-Si,  4-H ) :   0.8451 B(  2-S ,  5-O ) :   1.1167 B(  2-S ,  6-O ) :   0.6679
B(  2-S ,  7-O ) :   1.2028 B(  6-O , 11-H ) :   0.9077

MP2 TOTAL ENERGY:    -1204.867217697 Eh
FINAL SINGLE POINT ENERGY     -1204.867217696916

DIPOLE MOMENT
-------------
                                X             Y             Z
Electronic contribution:     -6.26286      -0.42074      -0.86535
Nuclear contribution   :      7.62275       1.05936       1.95744
                        -----------------------------------------
Total Dipole Moment    :      1.35989       0.63862       1.09208
                        -----------------------------------------
Magnitude (a.u.)       :      1.85736
Magnitude (Debye)      :      4.72102

Rotational constants in cm-1:     0.114622     0.038425     0.035753
Rotational constants in MHz :  3436.284553  1151.957221  1071.839848

                             ****ORCA TERMINATED NORMALLY****
TOTAL RUN TIME: 0 days 0 hours 49 minutes 33 seconds 320 msec
