                         Program Version 5.0.4 -  RELEASE  -
|  1> ! ri-mp2 aug-cc-pvdz aug-cc-pvdz/c tightscf
|  2> %pal nprocs 16 end
|  3> %maxcore 3800
|  4> %base "DZ_Si-Cl_92_A"
|  5> %scf
|  6> STABPerform true
|  7> STABRestartUHFifUnstable true
|  8> end
|  9>
| 10> *xyz 0 2
| 11> C         0.674333    0.023837   -0.457725
| 12> Si        -0.772051   -0.930758    0.318437
| 13> Cl         0.759992    1.689026    0.163814
| 14> Cl         2.163362   -0.884492   -0.085263
| 15> Cl        -2.525769    0.001281   -0.193944
| 16> H         0.607828    0.095137   -1.537679
| 17> H        -0.604044   -0.906411    1.787591
| 18> *
| 19>
| 20> $new_job
| 21> ! ri-mp2 aug-cc-pvtz aug-cc-pvtz/c tightscf
| 22> %pal nprocs 16 end
| 23> %maxcore 3800
| 24> %base "TZ_Si-Cl_92_A"
| 25>
| 26> *xyz 0 2
| 27> C         0.674333    0.023837   -0.457725
| 28> Si        -0.772051   -0.930758    0.318437
| 29> Cl         0.759992    1.689026    0.163814
| 30> Cl         2.163362   -0.884492   -0.085263
| 31> Cl        -2.525769    0.001281   -0.193944
| 32> H         0.607828    0.095137   -1.537679
| 33> H        -0.604044   -0.906411    1.787591
| 34> *
| 35>
| 36> $new_job
| 37> ! ri-mp2 aug-cc-pvqz aug-cc-pvqz/c tightscf
| 38> %pal nprocs 16 end
| 39> %maxcore 3800
| 40> %base "QZ_Si-Cl_92_A"
| 41>
| 42> *xyz 0 2
| 43> C         0.674333    0.023837   -0.457725
| 44> Si        -0.772051   -0.930758    0.318437
| 45> Cl         0.759992    1.689026    0.163814
| 46> Cl         2.163362   -0.884492   -0.085263
| 47> Cl        -2.525769    0.001281   -0.193944
| 48> H         0.607828    0.095137   -1.537679
| 49> H        -0.604044   -0.906411    1.787591
| 50> *
| 51>
| 52>
| 53>
| 54>
| 55>                          ****END OF INPUT****
 Total Charge           Charge          ....    0
 Multiplicity           Mult            ....    2
 Number of Electrons    NEL             ....   73
MP2 TOTAL ENERGY:    -1707.158691843 Eh
FINAL SINGLE POINT ENERGY     -1707.158691843240
MP2 TOTAL ENERGY:    -1707.409285862 Eh
FINAL SINGLE POINT ENERGY     -1707.409285861712

CARTESIAN COORDINATES (ANGSTROEM)
---------------------------------
  C      0.674333    0.023837   -0.457725
  Si    -0.772051   -0.930758    0.318437
  Cl     0.759992    1.689026    0.163814
  Cl     2.163362   -0.884492   -0.085263
  Cl    -2.525769    0.001281   -0.193944
  H      0.607828    0.095137   -1.537679
  H     -0.604044   -0.906411    1.787591

 Multiplicity           Mult            ....    2
 Number of Electrons    NEL             ....   73
 Basis Dimension        Dim             ....  508

ORBITAL ENERGIES
----------------
                 SPIN UP ORBITALS
  NO   OCC          E(Eh)            E(eV)
   0   1.0000    -104.857535     -2853.3186
   1   1.0000    -104.854403     -2853.2334
   2   1.0000    -104.844854     -2852.9735
   3   1.0000     -68.848237     -1873.4558
   4   1.0000     -11.362146      -309.1797
   5   1.0000     -10.582988      -287.9777
   6   1.0000     -10.579849      -287.8923
   7   1.0000     -10.572083      -287.6810
   8   1.0000      -8.049941      -219.0500
   9   1.0000      -8.048269      -219.0045
  10   1.0000      -8.048095      -218.9998
  11   1.0000      -8.047458      -218.9825
  12   1.0000      -8.045006      -218.9157
  13   1.0000      -8.044886      -218.9125
  14   1.0000      -8.039877      -218.7762
  15   1.0000      -8.037801      -218.7197
  16   1.0000      -8.037404      -218.7089
  17   1.0000      -6.193997      -168.5472
  18   1.0000      -4.305475      -117.1579
  19   1.0000      -4.296880      -116.9240
  20   1.0000      -4.295744      -116.8931
  21   1.0000      -1.197214       -32.5779
  22   1.0000      -1.116844       -30.3909
  23   1.0000      -1.103649       -30.0318
  24   1.0000      -0.895926       -24.3794
  25   1.0000      -0.735094       -20.0029
  26   1.0000      -0.642615       -17.4864
  27   1.0000      -0.597482       -16.2583
  28   1.0000      -0.584625       -15.9085
  29   1.0000      -0.546931       -14.8828
  30   1.0000      -0.509233       -13.8569
  31   1.0000      -0.487918       -13.2769
  32   1.0000      -0.481592       -13.1048
  33   1.0000      -0.471328       -12.8255
  34   1.0000      -0.454034       -12.3549
  35   1.0000      -0.434802       -11.8316
  36   1.0000      -0.361131        -9.8269
  37   0.0000       0.025693         0.6991
  38   0.0000       0.034599         0.9415
  39   0.0000       0.039671         1.0795
  40   0.0000       0.043235         1.1765
  41   0.0000       0.056406         1.5349

                 SPIN DOWN ORBITALS
  NO   OCC          E(Eh)            E(eV)
   0   1.0000    -104.857562     -2853.3193
   1   1.0000    -104.853901     -2853.2197
   2   1.0000    -104.843873     -2852.9468
   3   1.0000     -68.842206     -1873.2917
   4   1.0000     -11.360742      -309.1415
   5   1.0000     -10.583017      -287.9785
   6   1.0000     -10.579310      -287.8777
   7   1.0000     -10.571017      -287.6520
   8   1.0000      -8.050088      -219.0540
   9   1.0000      -8.048214      -219.0030
  10   1.0000      -8.048145      -219.0012
  11   1.0000      -8.045968      -218.9419
  12   1.0000      -8.044611      -218.9050
  13   1.0000      -8.044184      -218.8934
  14   1.0000      -8.037805      -218.7198
  15   1.0000      -8.036893      -218.6950
  16   1.0000      -8.035410      -218.6546
  17   1.0000      -6.184292      -168.2832
  18   1.0000      -4.293034      -116.8194
  19   1.0000      -4.291964      -116.7903
  20   1.0000      -4.283495      -116.5598
  21   1.0000      -1.194639       -32.5078
  22   1.0000      -1.109392       -30.1881
  23   1.0000      -1.101142       -29.9636
  24   1.0000      -0.889273       -24.1984
  25   1.0000      -0.707330       -19.2474
  26   1.0000      -0.634064       -17.2538
  27   1.0000      -0.593152       -16.1405
  28   1.0000      -0.575509       -15.6604
  29   1.0000      -0.533521       -14.5178
  30   1.0000      -0.492429       -13.3997
  31   1.0000      -0.484155       -13.1745
  32   1.0000      -0.478590       -13.0231
  33   1.0000      -0.469464       -12.7748
  34   1.0000      -0.452652       -12.3173
  35   1.0000      -0.426441       -11.6040
  36   0.0000       0.012156         0.3308
  37   0.0000       0.031621         0.8605
  38   0.0000       0.035384         0.9628
  39   0.0000       0.040739         1.1086
  40   0.0000       0.048046         1.3074

MULLIKEN ATOMIC CHARGES AND SPIN POPULATIONS
--------------------------------------------
   0 C :   -0.198807   -0.007072
   1 Si:    1.065496    0.892365
   2 Cl:   -0.230235    0.031562
   3 Cl:   -0.242989   -0.001049
   4 Cl:   -0.571699    0.038891
   5 H :    0.374834    0.001284
   6 H :   -0.196601    0.044019
Sum of atomic charges         :   -0.0000000

LOEWDIN ATOMIC CHARGES AND SPIN POPULATIONS
-------------------------------------------
   0 C :   -1.462780    0.129738
   1 Si:   -0.363164    0.550982
   2 Cl:    1.022240    0.036808
   3 Cl:    1.020540    0.017210
   4 Cl:    0.792019    0.130921
   5 H :   -0.642801    0.011371
   6 H :   -0.366053    0.122970

  Mayer bond orders larger than 0.100000
B(  0-C ,  1-Si) :   0.7274 B(  0-C ,  2-Cl) :   0.8634 B(  0-C ,  3-Cl) :   0.8687
B(  0-C ,  5-H ) :   0.7940 B(  1-Si,  4-Cl) :   0.6357 B(  1-Si,  6-H ) :   0.9371

MP2 TOTAL ENERGY:    -1707.493058868 Eh
FINAL SINGLE POINT ENERGY     -1707.493058868309

DIPOLE MOMENT
-------------
                                X             Y             Z
Electronic contribution:      0.39033       1.34791      -0.57313
Nuclear contribution   :     -0.47846      -1.76149       0.36536
                        -----------------------------------------
Total Dipole Moment    :     -0.08814      -0.41358      -0.20777
                        -----------------------------------------
Magnitude (a.u.)       :      0.47115
Magnitude (Debye)      :      1.19758

Rotational constants in cm-1:     0.100634     0.037545     0.028592
Rotational constants in MHz :  3016.928809  1125.572332   857.162902

                             ****ORCA TERMINATED NORMALLY****
TOTAL RUN TIME: 0 days 0 hours 34 minutes 38 seconds 402 msec
