                         Program Version 5.0.4 -  RELEASE  -
|  1> ! ri-mp2 aug-cc-pvdz aug-cc-pvdz/c tightscf
|  2> %pal nprocs 16 end
|  3> %maxcore 3800
|  4> %base "DZ_B-B_35_AB"
|  5> %scf
|  6> STABPerform true
|  7> STABRestartUHFifUnstable true
|  8> end
|  9>
| 10> *xyz 0 1
| 11> B        -2.270294   -0.256162   -0.327341
| 12> B        -0.938651   -0.262953    0.618077
| 13> C         0.472282    0.148542    0.080493
| 14> N         0.762081    1.374065   -0.105207
| 15> H        -0.030620    1.993509    0.071692
| 16> C         1.520656   -0.892254   -0.164295
| 17> H         1.179751   -1.617206   -0.907067
| 18> H         1.728348   -1.447415    0.753130
| 19> H         2.434161   -0.416215   -0.517313
| 20> H        -0.999216   -0.557365    1.776790
| 21> H        -2.910883    0.732712   -0.519036
| 22> H        -2.649006   -1.248626   -0.872613
| 23> *
| 24>
| 25> $new_job
| 26> ! ri-mp2 aug-cc-pvtz aug-cc-pvtz/c tightscf
| 27> %pal nprocs 16 end
| 28> %maxcore 3800
| 29> %base "TZ_B-B_35_AB"
| 30>
| 31> *xyz 0 1
| 32> B        -2.270294   -0.256162   -0.327341
| 33> B        -0.938651   -0.262953    0.618077
| 34> C         0.472282    0.148542    0.080493
| 35> N         0.762081    1.374065   -0.105207
| 36> H        -0.030620    1.993509    0.071692
| 37> C         1.520656   -0.892254   -0.164295
| 38> H         1.179751   -1.617206   -0.907067
| 39> H         1.728348   -1.447415    0.753130
| 40> H         2.434161   -0.416215   -0.517313
| 41> H        -0.999216   -0.557365    1.776790
| 42> H        -2.910883    0.732712   -0.519036
| 43> H        -2.649006   -1.248626   -0.872613
| 44> *
| 45>
| 46> $new_job
| 47> ! ri-mp2 aug-cc-pvqz aug-cc-pvqz/c tightscf
| 48> %pal nprocs 16 end
| 49> %maxcore 3800
| 50> %base "QZ_B-B_35_AB"
| 51>
| 52> *xyz 0 1
| 53> B        -2.270294   -0.256162   -0.327341
| 54> B        -0.938651   -0.262953    0.618077
| 55> C         0.472282    0.148542    0.080493
| 56> N         0.762081    1.374065   -0.105207
| 57> H        -0.030620    1.993509    0.071692
| 58> C         1.520656   -0.892254   -0.164295
| 59> H         1.179751   -1.617206   -0.907067
| 60> H         1.728348   -1.447415    0.753130
| 61> H         2.434161   -0.416215   -0.517313
| 62> H        -0.999216   -0.557365    1.776790
| 63> H        -2.910883    0.732712   -0.519036
| 64> H        -2.649006   -1.248626   -0.872613
| 65> *
| 66>
| 67>
| 68>
| 69>
| 70>                          ****END OF INPUT****
 Total Charge           Charge          ....    0
 Multiplicity           Mult            ....    1
 Number of Electrons    NEL             ....   36
MP2 TOTAL ENERGY:     -184.202788387 Eh
FINAL SINGLE POINT ENERGY      -184.202788387230
MP2 TOTAL ENERGY:     -184.368882321 Eh
FINAL SINGLE POINT ENERGY      -184.368882321372

CARTESIAN COORDINATES (ANGSTROEM)
---------------------------------
  B     -2.270294   -0.256162   -0.327341
  B     -0.938651   -0.262953    0.618077
  C      0.472282    0.148542    0.080493
  N      0.762081    1.374065   -0.105207
  H     -0.030620    1.993509    0.071692
  C      1.520656   -0.892254   -0.164295
  H      1.179751   -1.617206   -0.907067
  H      1.728348   -1.447415    0.753130
  H      2.434161   -0.416215   -0.517313
  H     -0.999216   -0.557365    1.776790
  H     -2.910883    0.732712   -0.519036
  H     -2.649006   -1.248626   -0.872613

 Multiplicity           Mult            ....    1
 Number of Electrons    NEL             ....   36
 Basis Dimension        Dim             ....  722

ORBITAL ENERGIES
----------------

  NO   OCC          E(Eh)            E(eV)
   0   2.0000     -15.545351      -423.0105
   1   2.0000     -11.268852      -306.6410
   2   2.0000     -11.225706      -305.4670
   3   2.0000      -7.600458      -206.8190
   4   2.0000      -7.598041      -206.7532
   5   2.0000      -1.207183       -32.8491
   6   2.0000      -0.991950       -26.9923
   7   2.0000      -0.801472       -21.8092
   8   2.0000      -0.734829       -19.9957
   9   2.0000      -0.677383       -18.4325
  10   2.0000      -0.594392       -16.1742
  11   2.0000      -0.578887       -15.7523
  12   2.0000      -0.563211       -15.3257
  13   2.0000      -0.533299       -14.5118
  14   2.0000      -0.503303       -13.6956
  15   2.0000      -0.473998       -12.8981
  16   2.0000      -0.409769       -11.1504
  17   2.0000      -0.391146       -10.6436
  18   0.0000       0.020429         0.5559
  19   0.0000       0.028243         0.7685
  20   0.0000       0.029143         0.7930
  21   0.0000       0.031515         0.8576
  22   0.0000       0.042029         1.1437

MULLIKEN ATOMIC CHARGES
-----------------------
   0 B :    0.462740
   1 B :    0.348976
   2 C :    0.306634
   3 N :   -0.806785
   4 H :    0.305323
   5 C :   -0.758188
   6 H :    0.250536
   7 H :    0.253630
   8 H :    0.327661
   9 H :   -0.253197
  10 H :   -0.226681
  11 H :   -0.210649
Sum of atomic charges:    0.0000000

LOEWDIN ATOMIC CHARGES
----------------------
   0 B :    0.502404
   1 B :   -0.040881
   2 C :   -0.226373
   3 N :    0.999853
   4 H :   -0.655547
   5 C :    0.873712
   6 H :   -0.286056
   7 H :   -0.288318
   8 H :   -0.315398
   9 H :   -0.158611
  10 H :   -0.200480
  11 H :   -0.204305

  Mayer bond orders larger than 0.100000
B(  0-B ,  1-B ) :   1.0671 B(  0-B , 10-H ) :   0.9667 B(  0-B , 11-H ) :   0.9711
B(  1-B ,  2-C ) :   0.8165 B(  1-B ,  9-H ) :   0.9065 B(  2-C ,  3-N ) :   1.5354
B(  2-C ,  5-C ) :   0.8634 B(  3-N ,  4-H ) :   0.8209 B(  5-C ,  6-H ) :   0.9384
B(  5-C ,  7-H ) :   0.9410 B(  5-C ,  8-H ) :   0.9525

MP2 TOTAL ENERGY:     -184.420842471 Eh
FINAL SINGLE POINT ENERGY      -184.420842470591

DIPOLE MOMENT
-------------
                                X             Y             Z
Electronic contribution:     -1.90295       1.48981       0.65948
Nuclear contribution   :      1.36101      -2.16321      -0.45541
                        -----------------------------------------
Total Dipole Moment    :     -0.54193      -0.67340       0.20407
                        -----------------------------------------
Magnitude (a.u.)       :      0.88815
Magnitude (Debye)      :      2.25749

Rotational constants in cm-1:     0.278591     0.118064     0.093736
Rotational constants in MHz :  8351.938852  3539.480248  2810.143898

                             ****ORCA TERMINATED NORMALLY****
TOTAL RUN TIME: 0 days 0 hours 25 minutes 13 seconds 76 msec
