                         Program Version 5.0.4 -  RELEASE  -
|  1> ! ri-mp2 aug-cc-pvdz aug-cc-pvdz/c tightscf
|  2> %pal nprocs 16 end
|  3> %maxcore 3800
|  4> %base "DZ_S-Cl_65_AB"
|  5> %scf
|  6> STABPerform true
|  7> STABRestartUHFifUnstable true
|  8> end
|  9>
| 10> *xyz 0 1
| 11> Cl         2.314396    0.240140    0.274207
| 12> S         0.727103   -0.889143   -0.294409
| 13> C        -0.635046    0.230916    0.187452
| 14> O        -1.730872   -0.520264   -0.207607
| 15> O        -0.581014    1.478796   -0.394209
| 16> C        -2.955651   -0.106398    0.376987
| 17> H        -2.919518   -0.214688    1.464489
| 18> H        -3.728176   -0.756094   -0.024586
| 19> H        -3.177719    0.930692    0.121387
| 20> H        -0.500206    1.369519   -1.350711
| 21> H        -0.613484    0.399109    1.266332
| 22> *
| 23>
| 24> $new_job
| 25> ! ri-mp2 aug-cc-pvtz aug-cc-pvtz/c tightscf
| 26> %pal nprocs 16 end
| 27> %maxcore 3800
| 28> %base "TZ_S-Cl_65_AB"
| 29>
| 30> *xyz 0 1
| 31> Cl         2.314396    0.240140    0.274207
| 32> S         0.727103   -0.889143   -0.294409
| 33> C        -0.635046    0.230916    0.187452
| 34> O        -1.730872   -0.520264   -0.207607
| 35> O        -0.581014    1.478796   -0.394209
| 36> C        -2.955651   -0.106398    0.376987
| 37> H        -2.919518   -0.214688    1.464489
| 38> H        -3.728176   -0.756094   -0.024586
| 39> H        -3.177719    0.930692    0.121387
| 40> H        -0.500206    1.369519   -1.350711
| 41> H        -0.613484    0.399109    1.266332
| 42> *
| 43>
| 44> $new_job
| 45> ! ri-mp2 aug-cc-pvqz aug-cc-pvqz/c tightscf
| 46> %pal nprocs 16 end
| 47> %maxcore 3800
| 48> %base "QZ_S-Cl_65_AB"
| 49>
| 50> *xyz 0 1
| 51> Cl         2.314396    0.240140    0.274207
| 52> S         0.727103   -0.889143   -0.294409
| 53> C        -0.635046    0.230916    0.187452
| 54> O        -1.730872   -0.520264   -0.207607
| 55> O        -0.581014    1.478796   -0.394209
| 56> C        -2.955651   -0.106398    0.376987
| 57> H        -2.919518   -0.214688    1.464489
| 58> H        -3.728176   -0.756094   -0.024586
| 59> H        -3.177719    0.930692    0.121387
| 60> H        -0.500206    1.369519   -1.350711
| 61> H        -0.613484    0.399109    1.266332
| 62> *
| 63>
| 64>
| 65>
| 66>
| 67>                          ****END OF INPUT****
 Total Charge           Charge          ....    0
 Multiplicity           Mult            ....    1
 Number of Electrons    NEL             ....   66
MP2 TOTAL ENERGY:    -1086.392276295 Eh
FINAL SINGLE POINT ENERGY     -1086.392276295452
MP2 TOTAL ENERGY:    -1086.710480829 Eh
FINAL SINGLE POINT ENERGY     -1086.710480829061

CARTESIAN COORDINATES (ANGSTROEM)
---------------------------------
  Cl     2.314396    0.240140    0.274207
  S      0.727103   -0.889143   -0.294409
  C     -0.635046    0.230916    0.187452
  O     -1.730872   -0.520264   -0.207607
  O     -0.581014    1.478796   -0.394209
  C     -2.955651   -0.106398    0.376987
  H     -2.919518   -0.214688    1.464489
  H     -3.728176   -0.756094   -0.024586
  H     -3.177719    0.930692    0.121387
  H     -0.500206    1.369519   -1.350711
  H     -0.613484    0.399109    1.266332

 Multiplicity           Mult            ....    1
 Number of Electrons    NEL             ....   66
 Basis Dimension        Dim             ....  718

ORBITAL ENERGIES
----------------

  NO   OCC          E(Eh)            E(eV)
   0   2.0000    -104.850918     -2853.1385
   1   2.0000     -92.008585     -2503.6809
   2   2.0000     -20.590779      -560.3036
   3   2.0000     -20.590146      -560.2864
   4   2.0000     -11.386451      -309.8411
   5   2.0000     -11.291005      -307.2439
   6   2.0000     -10.575287      -287.7682
   7   2.0000      -9.007391      -245.1036
   8   2.0000      -8.042326      -218.8428
   9   2.0000      -8.040400      -218.7904
  10   2.0000      -8.040215      -218.7854
  11   2.0000      -6.688536      -182.0043
  12   2.0000      -6.686856      -181.9586
  13   2.0000      -6.685727      -181.9279
  14   2.0000      -1.454240       -39.5719
  15   2.0000      -1.375288       -37.4235
  16   2.0000      -1.144277       -31.1373
  17   2.0000      -1.013058       -27.5667
  18   2.0000      -0.923938       -25.1416
  19   2.0000      -0.864150       -23.5147
  20   2.0000      -0.732436       -19.9306
  21   2.0000      -0.711230       -19.3536
  22   2.0000      -0.675844       -18.3907
  23   2.0000      -0.624927       -17.0051
  24   2.0000      -0.614617       -16.7246
  25   2.0000      -0.572632       -15.5821
  26   2.0000      -0.530206       -14.4276
  27   2.0000      -0.517092       -14.0708
  28   2.0000      -0.504892       -13.7388
  29   2.0000      -0.496837       -13.5196
  30   2.0000      -0.472543       -12.8585
  31   2.0000      -0.432542       -11.7701
  32   2.0000      -0.366074        -9.9614
  33   0.0000       0.024313         0.6616
  34   0.0000       0.034099         0.9279
  35   0.0000       0.037989         1.0337
  36   0.0000       0.044473         1.2102
  37   0.0000       0.054435         1.4812

MULLIKEN ATOMIC CHARGES
-----------------------
   0 Cl:   -0.340687
   1 S :    0.133999
   2 C :    0.778299
   3 O :   -0.775404
   4 O :   -0.827493
   5 C :   -0.613396
   6 H :    0.279286
   7 H :    0.385876
   8 H :    0.292370
   9 H :    0.379612
  10 H :    0.307538
Sum of atomic charges:   -0.0000000

LOEWDIN ATOMIC CHARGES
----------------------
   0 Cl:    0.465650
   1 S :    0.398913
   2 C :   -1.182600
   3 O :    0.754352
   4 O :    1.202270
   5 C :    0.577029
   6 H :   -0.309366
   7 H :   -0.322793
   8 H :   -0.314003
   9 H :   -0.817526
  10 H :   -0.451926

  Mayer bond orders larger than 0.100000
B(  0-Cl,  1-S ) :   0.9829 B(  0-Cl,  2-C ) :  -0.1263 B(  1-S ,  2-C ) :   0.7897
B(  2-C ,  3-O ) :   0.7612 B(  2-C ,  4-O ) :   0.6322 B(  2-C , 10-H ) :   0.8570
B(  3-O ,  5-C ) :   0.8654 B(  4-O ,  9-H ) :   0.8301 B(  5-C ,  6-H ) :   0.9075
B(  5-C ,  7-H ) :   0.8699 B(  5-C ,  8-H ) :   0.9124

MP2 TOTAL ENERGY:    -1086.813943478 Eh
FINAL SINGLE POINT ENERGY     -1086.813943478151

DIPOLE MOMENT
-------------
                                X             Y             Z
Electronic contribution:     12.78520      -1.27003      -0.98100
Nuclear contribution   :    -13.79490       1.37623       1.04525
                        -----------------------------------------
Total Dipole Moment    :     -1.00970       0.10620       0.06425
                        -----------------------------------------
Magnitude (a.u.)       :      1.01730
Magnitude (Debye)      :      2.58578

Rotational constants in cm-1:     0.193099     0.040317     0.035644
Rotational constants in MHz :  5788.971289  1208.677224  1068.594447

                             ****ORCA TERMINATED NORMALLY****
TOTAL RUN TIME: 0 days 0 hours 38 minutes 48 seconds 52 msec
