                         Program Version 5.0.4 -  RELEASE  -
|  1> ! ri-mp2 aug-cc-pvdz aug-cc-pvdz/c tightscf
|  2> %pal nprocs 16 end
|  3> %maxcore 3800
|  4> %base "DZ_Si-S_47_AB"
|  5> %scf
|  6> STABPerform true
|  7> STABRestartUHFifUnstable true
|  8> end
|  9>
| 10> *xyz 0 1
| 11> S         0.540966    0.983783   -0.308840
| 12> Si         1.913126   -0.617639   -0.047364
| 13> C        -0.751223    0.541688    0.910353
| 14> C        -1.647018   -0.622071    0.515625
| 15> H        -1.342009    1.451350    1.021433
| 16> H        -0.267473    0.353232    1.868053
| 17> C        -2.466401   -0.370352   -0.738746
| 18> H        -2.315965   -0.819906    1.358229
| 19> H        -1.042956   -1.523423    0.389445
| 20> H        -3.107071    0.505426   -0.617135
| 21> H        -3.106586   -1.223050   -0.964386
| 22> H        -1.822116   -0.194046   -1.599395
| 23> H         3.110551   -0.255956   -0.830072
| 24> H         1.389063   -1.914067   -0.530312
| 25> H         2.253206   -0.768730    1.385275
| 26> *
| 27>
| 28> $new_job
| 29> ! ri-mp2 aug-cc-pvtz aug-cc-pvtz/c tightscf
| 30> %pal nprocs 16 end
| 31> %maxcore 3800
| 32> %base "TZ_Si-S_47_AB"
| 33>
| 34> *xyz 0 1
| 35> S         0.540966    0.983783   -0.308840
| 36> Si         1.913126   -0.617639   -0.047364
| 37> C        -0.751223    0.541688    0.910353
| 38> C        -1.647018   -0.622071    0.515625
| 39> H        -1.342009    1.451350    1.021433
| 40> H        -0.267473    0.353232    1.868053
| 41> C        -2.466401   -0.370352   -0.738746
| 42> H        -2.315965   -0.819906    1.358229
| 43> H        -1.042956   -1.523423    0.389445
| 44> H        -3.107071    0.505426   -0.617135
| 45> H        -3.106586   -1.223050   -0.964386
| 46> H        -1.822116   -0.194046   -1.599395
| 47> H         3.110551   -0.255956   -0.830072
| 48> H         1.389063   -1.914067   -0.530312
| 49> H         2.253206   -0.768730    1.385275
| 50> *
| 51>
| 52> $new_job
| 53> ! ri-mp2 aug-cc-pvqz aug-cc-pvqz/c tightscf
| 54> %pal nprocs 16 end
| 55> %maxcore 3800
| 56> %base "QZ_Si-S_47_AB"
| 57>
| 58> *xyz 0 1
| 59> S         0.540966    0.983783   -0.308840
| 60> Si         1.913126   -0.617639   -0.047364
| 61> C        -0.751223    0.541688    0.910353
| 62> C        -1.647018   -0.622071    0.515625
| 63> H        -1.342009    1.451350    1.021433
| 64> H        -0.267473    0.353232    1.868053
| 65> C        -2.466401   -0.370352   -0.738746
| 66> H        -2.315965   -0.819906    1.358229
| 67> H        -1.042956   -1.523423    0.389445
| 68> H        -3.107071    0.505426   -0.617135
| 69> H        -3.106586   -1.223050   -0.964386
| 70> H        -1.822116   -0.194046   -1.599395
| 71> H         3.110551   -0.255956   -0.830072
| 72> H         1.389063   -1.914067   -0.530312
| 73> H         2.253206   -0.768730    1.385275
| 74> *
| 75>
| 76>
| 77>
| 78>
| 79>                          ****END OF INPUT****
 Total Charge           Charge          ....    0
 Multiplicity           Mult            ....    1
 Number of Electrons    NEL             ....   58
MP2 TOTAL ENERGY:     -806.629327773 Eh
FINAL SINGLE POINT ENERGY      -806.629327773240
MP2 TOTAL ENERGY:     -806.837660040 Eh
FINAL SINGLE POINT ENERGY      -806.837660039666

CARTESIAN COORDINATES (ANGSTROEM)
---------------------------------
  S      0.540966    0.983783   -0.308840
  Si     1.913126   -0.617639   -0.047364
  C     -0.751223    0.541688    0.910353
  C     -1.647018   -0.622071    0.515625
  H     -1.342009    1.451350    1.021433
  H     -0.267473    0.353232    1.868053
  C     -2.466401   -0.370352   -0.738746
  H     -2.315965   -0.819906    1.358229
  H     -1.042956   -1.523423    0.389445
  H     -3.107071    0.505426   -0.617135
  H     -3.106586   -1.223050   -0.964386
  H     -1.822116   -0.194046   -1.599395
  H      3.110551   -0.255956   -0.830072
  H      1.389063   -1.914067   -0.530312
  H      2.253206   -0.768730    1.385275

 Multiplicity           Mult            ....    1
 Number of Electrons    NEL             ....   58
 Basis Dimension        Dim             ....  868

ORBITAL ENERGIES
----------------

  NO   OCC          E(Eh)            E(eV)
   0   2.0000     -91.934849     -2501.6744
   1   2.0000     -68.788723     -1871.8363
   2   2.0000     -11.262731      -306.4745
   3   2.0000     -11.230591      -305.5999
   4   2.0000     -11.213004      -305.1213
   5   2.0000      -8.939242      -243.2491
   6   2.0000      -6.620701      -180.1584
   7   2.0000      -6.619973      -180.1386
   8   2.0000      -6.619281      -180.1198
   9   2.0000      -6.136328      -166.9780
  10   2.0000      -4.242915      -115.4556
  11   2.0000      -4.242523      -115.4449
  12   2.0000      -4.242266      -115.4379
  13   2.0000      -1.088582       -29.6218
  14   2.0000      -0.987263       -26.8648
  15   2.0000      -0.889396       -24.2017
  16   2.0000      -0.800286       -21.7769
  17   2.0000      -0.700963       -19.0742
  18   2.0000      -0.634121       -17.2553
  19   2.0000      -0.622769       -16.9464
  20   2.0000      -0.575018       -15.6470
  21   2.0000      -0.527132       -14.3440
  22   2.0000      -0.509845       -13.8736
  23   2.0000      -0.501837       -13.6557
  24   2.0000      -0.490853       -13.3568
  25   2.0000      -0.486056       -13.2262
  26   2.0000      -0.457911       -12.4604
  27   2.0000      -0.416085       -11.3222
  28   2.0000      -0.355113        -9.6631
  29   0.0000       0.023684         0.6445
  30   0.0000       0.031028         0.8443
  31   0.0000       0.033173         0.9027
  32   0.0000       0.034547         0.9401
  33   0.0000       0.046115         1.2549

MULLIKEN ATOMIC CHARGES
-----------------------
   0 S :   -0.404744
   1 Si:    0.805664
   2 C :   -0.501354
   3 C :   -0.380038
   4 H :    0.328132
   5 H :    0.276995
   6 C :   -0.878626
   7 H :    0.259001
   8 H :    0.293063
   9 H :    0.229756
  10 H :    0.299827
  11 H :    0.275887
  12 H :   -0.256260
  13 H :   -0.170095
  14 H :   -0.177209
Sum of atomic charges:   -0.0000000

LOEWDIN ATOMIC CHARGES
----------------------
   0 S :    1.144912
   1 Si:    0.611102
   2 C :    0.073041
   3 C :    0.404443
   4 H :   -0.374689
   5 H :   -0.372398
   6 C :    0.893151
   7 H :   -0.275937
   8 H :   -0.320492
   9 H :   -0.283277
  10 H :   -0.280536
  11 H :   -0.314605
  12 H :   -0.321396
  13 H :   -0.292951
  14 H :   -0.290367

  Mayer bond orders larger than 0.100000
B(  0-S ,  1-Si) :   0.8151 B(  0-S ,  2-C ) :   0.8767 B(  1-Si, 12-H ) :   0.7943
B(  1-Si, 13-H ) :   0.7777 B(  1-Si, 14-H ) :   0.7929 B(  2-C ,  3-C ) :   0.8992
B(  2-C ,  4-H ) :   0.8304 B(  2-C ,  5-H ) :   0.9463 B(  3-C ,  6-C ) :   0.9477
B(  3-C ,  7-H ) :   0.8576 B(  3-C ,  8-H ) :   0.8629 B(  6-C ,  9-H ) :   0.9573
B(  6-C , 10-H ) :   0.9461 B(  6-C , 11-H ) :   0.9332

MP2 TOTAL ENERGY:     -806.902279037 Eh
FINAL SINGLE POINT ENERGY      -806.902279036856

DIPOLE MOMENT
-------------
                                X             Y             Z
Electronic contribution:      6.16954       4.11217      -1.11179
Nuclear contribution   :     -6.54456      -4.49211       1.53106
                        -----------------------------------------
Total Dipole Moment    :     -0.37502      -0.37993       0.41927
                        -----------------------------------------
Magnitude (a.u.)       :      0.67880
Magnitude (Debye)      :      1.72538

Rotational constants in cm-1:     0.170310     0.054675     0.050296
Rotational constants in MHz :  5105.771570  1639.100694  1507.823196

                             ****ORCA TERMINATED NORMALLY****
TOTAL RUN TIME: 0 days 1 hours 16 minutes 16 seconds 988 msec
