                         Program Version 5.0.4 -  RELEASE  -
|  1> ! ri-mp2 aug-cc-pvdz aug-cc-pvdz/c tightscf
|  2> %pal nprocs 16 end
|  3> %maxcore 3800
|  4> %base "DZ_S-F_50_AB"
|  5>
|  6> *xyz 0 1
|  7> F         2.152988    0.457867   -0.000013
|  8> S         0.887720   -0.544761    0.000014
|  9> C        -0.417012    0.537113    0.000021
| 10> S        -1.934168   -0.013526   -0.000015
| 11> H        -0.131653    1.589111    0.000017
| 12> *
| 13>
| 14> $new_job
| 15> ! ri-mp2 aug-cc-pvtz aug-cc-pvtz/c tightscf
| 16> %pal nprocs 16 end
| 17> %maxcore 3800
| 18> %base "TZ_S-F_50_AB"
| 19>
| 20> *xyz 0 1
| 21> F         2.152988    0.457867   -0.000013
| 22> S         0.887720   -0.544761    0.000014
| 23> C        -0.417012    0.537113    0.000021
| 24> S        -1.934168   -0.013526   -0.000015
| 25> H        -0.131653    1.589111    0.000017
| 26> *
| 27>
| 28> $new_job
| 29> ! ri-mp2 aug-cc-pvqz aug-cc-pvqz/c tightscf
| 30> %pal nprocs 16 end
| 31> %maxcore 3800
| 32> %base "QZ_S-F_50_AB"
| 33>
| 34> *xyz 0 1
| 35> F         2.152988    0.457867   -0.000013
| 36> S         0.887720   -0.544761    0.000014
| 37> C        -0.417012    0.537113    0.000021
| 38> S        -1.934168   -0.013526   -0.000015
| 39> H        -0.131653    1.589111    0.000017
| 40> *
| 41>
| 42>
| 43>
| 44>
| 45>                          ****END OF INPUT****
 Total Charge           Charge          ....    0
 Multiplicity           Mult            ....    1
 Number of Electrons    NEL             ....   48
MP2 TOTAL ENERGY:     -933.529981523 Eh
FINAL SINGLE POINT ENERGY      -933.529981523049
MP2 TOTAL ENERGY:     -933.748678820 Eh
FINAL SINGLE POINT ENERGY      -933.748678819592

CARTESIAN COORDINATES (ANGSTROEM)
---------------------------------
  F      2.152988    0.457867   -0.000013
  S      0.887720   -0.544761    0.000014
  C     -0.417012    0.537113    0.000021
  S     -1.934168   -0.013526   -0.000015
  H     -0.131653    1.589111    0.000017

 Multiplicity           Mult            ....    1
 Number of Electrons    NEL             ....   48
 Basis Dimension        Dim             ....  374

ORBITAL ENERGIES
----------------

  NO   OCC          E(Eh)            E(eV)
   0   2.0000     -92.077874     -2505.5663
   1   2.0000     -91.957654     -2502.2950
   2   2.0000     -26.341151      -716.7792
   3   2.0000     -11.364750      -309.2506
   4   2.0000      -9.072441      -246.8737
   5   2.0000      -8.961291      -243.8491
   6   2.0000      -6.753757      -183.7791
   7   2.0000      -6.751755      -183.7246
   8   2.0000      -6.750697      -183.6958
   9   2.0000      -6.642501      -180.7516
  10   2.0000      -6.641514      -180.7248
  11   2.0000      -6.640238      -180.6901
  12   2.0000      -1.642986       -44.7079
  13   2.0000      -1.140350       -31.0305
  14   2.0000      -0.983357       -26.7585
  15   2.0000      -0.818130       -22.2624
  16   2.0000      -0.727434       -19.7945
  17   2.0000      -0.723446       -19.6860
  18   2.0000      -0.709837       -19.3156
  19   2.0000      -0.572569       -15.5804
  20   2.0000      -0.542034       -14.7495
  21   2.0000      -0.502298       -13.6682
  22   2.0000      -0.366214        -9.9652
  23   2.0000      -0.366117        -9.9626
  24   0.0000       0.026436         0.7193
  25   0.0000       0.028791         0.7834
  26   0.0000       0.044707         1.2166
  27   0.0000       0.048758         1.3268
  28   0.0000       0.070502         1.9185

MULLIKEN ATOMIC CHARGES
-----------------------
   0 F :   -0.603125
   1 S :    0.895971
   2 C :   -0.852005
   3 S :    0.108529
   4 H :    0.450631
Sum of atomic charges:    0.0000000

LOEWDIN ATOMIC CHARGES
----------------------
   0 F :    0.091762
   1 S :    0.584627
   2 C :   -1.037588
   3 S :    0.922835
   4 H :   -0.561636

  Mayer bond orders larger than 0.100000
B(  0-F ,  1-S ) :   0.6021 B(  1-S ,  2-C ) :   1.1542 B(  2-C ,  3-S ) :   1.6929
B(  2-C ,  4-H ) :   0.7240

MP2 TOTAL ENERGY:     -933.822284374 Eh
FINAL SINGLE POINT ENERGY      -933.822284373927

DIPOLE MOMENT
-------------
                                X             Y             Z
Electronic contribution:      2.46429      -0.88539      -0.00001
Nuclear contribution   :     -2.08697       1.08225       0.00003
                        -----------------------------------------
Total Dipole Moment    :      0.37731       0.19685       0.00001
                        -----------------------------------------
Magnitude (a.u.)       :      0.42558
Magnitude (Debye)      :      1.08173

Rotational constants in cm-1:     0.864795     0.071635     0.066155
Rotational constants in MHz : 25925.897073  2147.573940  1983.288098

                             ****ORCA TERMINATED NORMALLY****
TOTAL RUN TIME: 0 days 0 hours 1 minutes 27 seconds 499 msec
