                         Program Version 5.0.4 -  RELEASE  -
|  1> ! ri-mp2 aug-cc-pvdz aug-cc-pvdz/c tightscf
|  2> %pal nprocs 16 end
|  3> %maxcore 3800
|  4> %base "DZ_B-S_20_AB"
|  5>
|  6> *xyz 0 1
|  7> O         0.851896    0.564812    0.000002
|  8> C        -0.139535   -0.369963   -0.000002
|  9> C         0.435349   -1.611175   -0.000009
| 10> C         1.834592   -1.430837   -0.000008
| 11> C         2.037082   -0.085318    0.000000
| 12> B        -1.607156    0.096645   -0.000000
| 13> S        -2.872109   -1.182538    0.000011
| 14> S        -2.058472    1.829914   -0.000009
| 15> C         3.242629    0.732284    0.000008
| 16> O         4.355051    0.273862    0.000004
| 17> H         3.059583    1.822482    0.000021
| 18> H        -0.097703   -2.547275   -0.000015
| 19> H         2.607564   -2.179656   -0.000012
| 20> H        -0.814175    2.326588   -0.000015
| 21> H        -3.946475   -0.382727    0.000006
| 22> *
| 23>
| 24> $new_job
| 25> ! ri-mp2 aug-cc-pvtz aug-cc-pvtz/c tightscf
| 26> %pal nprocs 16 end
| 27> %maxcore 3800
| 28> %base "TZ_B-S_20_AB"
| 29>
| 30> *xyz 0 1
| 31> O         0.851896    0.564812    0.000002
| 32> C        -0.139535   -0.369963   -0.000002
| 33> C         0.435349   -1.611175   -0.000009
| 34> C         1.834592   -1.430837   -0.000008
| 35> C         2.037082   -0.085318    0.000000
| 36> B        -1.607156    0.096645   -0.000000
| 37> S        -2.872109   -1.182538    0.000011
| 38> S        -2.058472    1.829914   -0.000009
| 39> C         3.242629    0.732284    0.000008
| 40> O         4.355051    0.273862    0.000004
| 41> H         3.059583    1.822482    0.000021
| 42> H        -0.097703   -2.547275   -0.000015
| 43> H         2.607564   -2.179656   -0.000012
| 44> H        -0.814175    2.326588   -0.000015
| 45> H        -3.946475   -0.382727    0.000006
| 46> *
| 47>
| 48> $new_job
| 49> ! ri-mp2 aug-cc-pvqz aug-cc-pvqz/c tightscf
| 50> %pal nprocs 16 end
| 51> %maxcore 3800
| 52> %base "QZ_B-S_20_AB"
| 53>
| 54> *xyz 0 1
| 55> O         0.851896    0.564812    0.000002
| 56> C        -0.139535   -0.369963   -0.000002
| 57> C         0.435349   -1.611175   -0.000009
| 58> C         1.834592   -1.430837   -0.000008
| 59> C         2.037082   -0.085318    0.000000
| 60> B        -1.607156    0.096645   -0.000000
| 61> S        -2.872109   -1.182538    0.000011
| 62> S        -2.058472    1.829914   -0.000009
| 63> C         3.242629    0.732284    0.000008
| 64> O         4.355051    0.273862    0.000004
| 65> H         3.059583    1.822482    0.000021
| 66> H        -0.097703   -2.547275   -0.000015
| 67> H         2.607564   -2.179656   -0.000012
| 68> H        -0.814175    2.326588   -0.000015
| 69> H        -3.946475   -0.382727    0.000006
| 70> *
| 71>
| 72>
| 73>
| 74>
| 75>                          ****END OF INPUT****
 Total Charge           Charge          ....    0
 Multiplicity           Mult            ....    1
 Number of Electrons    NEL             ....   88
MP2 TOTAL ENERGY:    -1163.239877345 Eh
FINAL SINGLE POINT ENERGY     -1163.239877344773
MP2 TOTAL ENERGY:    -1163.649534467 Eh
FINAL SINGLE POINT ENERGY     -1163.649534466658

CARTESIAN COORDINATES (ANGSTROEM)
---------------------------------
  O      0.851896    0.564812    0.000002
  C     -0.139535   -0.369963   -0.000002
  C      0.435349   -1.611175   -0.000009
  C      1.834592   -1.430837   -0.000008
  C      2.037082   -0.085318    0.000000
  B     -1.607156    0.096645   -0.000000
  S     -2.872109   -1.182538    0.000011
  S     -2.058472    1.829914   -0.000009
  C      3.242629    0.732284    0.000008
  O      4.355051    0.273862    0.000004
  H      3.059583    1.822482    0.000021
  H     -0.097703   -2.547275   -0.000015
  H      2.607564   -2.179656   -0.000012
  H     -0.814175    2.326588   -0.000015
  H     -3.946475   -0.382727    0.000006

 Multiplicity           Mult            ....    1
 Number of Electrons    NEL             ....   88
 Basis Dimension        Dim             .... 1038

ORBITAL ENERGIES
----------------

  NO   OCC          E(Eh)            E(eV)
   0   2.0000     -91.966875     -2502.5459
   1   2.0000     -91.966232     -2502.5284
   2   2.0000     -20.651608      -561.9588
   3   2.0000     -20.569335      -559.7201
   4   2.0000     -11.350145      -308.8532
   5   2.0000     -11.314904      -307.8942
   6   2.0000     -11.300479      -307.5017
   7   2.0000     -11.263577      -306.4975
   8   2.0000     -11.262236      -306.4610
   9   2.0000      -8.972052      -244.1420
  10   2.0000      -8.971440      -244.1253
  11   2.0000      -7.666215      -208.6083
  12   2.0000      -6.653639      -181.0547
  13   2.0000      -6.652985      -181.0369
  14   2.0000      -6.652714      -181.0296
  15   2.0000      -6.652217      -181.0160
  16   2.0000      -6.652089      -181.0125
  17   2.0000      -6.651617      -180.9997
  18   2.0000      -1.495033       -40.6819
  19   2.0000      -1.410738       -38.3881
  20   2.0000      -1.120386       -30.4872
  21   2.0000      -1.067659       -29.0525
  22   2.0000      -1.018810       -27.7232
  23   2.0000      -0.974611       -26.5205
  24   2.0000      -0.901733       -24.5374
  25   2.0000      -0.835531       -22.7360
  26   2.0000      -0.794948       -21.6316
  27   2.0000      -0.749350       -20.3908
  28   2.0000      -0.695802       -18.9337
  29   2.0000      -0.674369       -18.3505
  30   2.0000      -0.651956       -17.7406
  31   2.0000      -0.621567       -16.9137
  32   2.0000      -0.606927       -16.5153
  33   2.0000      -0.600697       -16.3458
  34   2.0000      -0.575427       -15.6582
  35   2.0000      -0.554723       -15.0948
  36   2.0000      -0.551830       -15.0161
  37   2.0000      -0.480957       -13.0875
  38   2.0000      -0.464890       -12.6503
  39   2.0000      -0.452299       -12.3077
  40   2.0000      -0.450588       -12.2611
  41   2.0000      -0.424772       -11.5586
  42   2.0000      -0.380102       -10.3431
  43   2.0000      -0.343503        -9.3472
  44   0.0000       0.021678         0.5899
  45   0.0000       0.027034         0.7356
  46   0.0000       0.029941         0.8147
  47   0.0000       0.031173         0.8483
  48   0.0000       0.035553         0.9674

MULLIKEN ATOMIC CHARGES
-----------------------
   0 O :   -0.643240
   1 C :    0.368269
   2 C :   -0.604554
   3 C :   -0.158222
   4 C :   -0.220366
   5 B :    0.480220
   6 S :   -0.028649
   7 S :   -0.045082
   8 C :    0.533928
   9 O :   -0.751217
  10 H :    0.399927
  11 H :    0.311482
  12 H :    0.415921
  13 H :   -0.025214
  14 H :   -0.033203
Sum of atomic charges:   -0.0000000

LOEWDIN ATOMIC CHARGES
----------------------
   0 O :    0.821906
   1 C :   -0.478643
   2 C :    0.283067
   3 C :    0.332304
   4 C :   -0.500843
   5 B :   -1.674792
   6 S :    1.679983
   7 S :    1.700408
   8 C :   -0.281762
   9 O :    0.695161
  10 H :   -0.363961
  11 H :   -0.315766
  12 H :   -0.299177
  13 H :   -0.798926
  14 H :   -0.798958

  Mayer bond orders larger than 0.100000
B(  0-O ,  1-C ) :   0.8163 B(  0-O ,  4-C ) :   0.8165 B(  1-C ,  2-C ) :   1.1333
B(  1-C ,  3-C ) :  -0.4533 B(  1-C ,  4-C ) :  -0.1285 B(  1-C ,  5-B ) :   1.0657
B(  1-C ,  7-S ) :   0.1437 B(  2-C ,  3-C ) :   1.2703 B(  2-C , 11-H ) :   0.9367
B(  3-C ,  4-C ) :   1.4961 B(  3-C , 12-H ) :   0.8222 B(  4-C ,  8-C ) :   1.0280
B(  4-C ,  9-O ) :   0.2490 B(  4-C , 10-H ) :  -0.1546 B(  5-B ,  6-S ) :   1.1291
B(  5-B ,  7-S ) :   1.0576 B(  5-B , 13-H ) :  -0.1031 B(  5-B , 14-H ) :  -0.1029
B(  6-S , 14-H ) :   1.1102 B(  7-S , 13-H ) :   1.0610 B(  8-C ,  9-O ) :   1.3230
B(  8-C , 10-H ) :   0.8588

MP2 TOTAL ENERGY:    -1163.783920813 Eh
FINAL SINGLE POINT ENERGY     -1163.783920813476

DIPOLE MOMENT
-------------
                                X             Y             Z
Electronic contribution:     -3.02383       0.94897       0.00001
Nuclear contribution   :      2.24629      -1.00419      -0.00001
                        -----------------------------------------
Total Dipole Moment    :     -0.77754      -0.05522      -0.00000
                        -----------------------------------------
Magnitude (a.u.)       :      0.77950
Magnitude (Debye)      :      1.98132

Rotational constants in cm-1:     0.069427     0.016942     0.013619
Rotational constants in MHz :  2081.382316   507.922456   408.287518

                             ****ORCA TERMINATED NORMALLY****
TOTAL RUN TIME: 0 days 0 hours 29 minutes 53 seconds 928 msec
