                         Program Version 5.0.4 -  RELEASE  -
|  1> ! ri-mp2 aug-cc-pvdz aug-cc-pvdz/c tightscf
|  2> %pal nprocs 16 end
|  3> %maxcore 3800
|  4> %base "DZ_Si-Si_48_AB"
|  5> %scf
|  6> STABPerform true
|  7> STABRestartUHFifUnstable true
|  8> end
|  9>
| 10> *xyz 0 1
| 11> Si        -1.738366   -0.677137    0.244631
| 12> Si         0.341278   -1.169559   -0.689031
| 13> C         1.597849   -0.066381    0.274934
| 14> O         1.689155   -0.275241    1.462760
| 15> C        -1.865912    1.240590    0.143973
| 16> O        -0.980172    1.894190   -0.352141
| 17> C         2.380159    1.010061   -0.414321
| 18> H         3.035589    1.514009    0.293819
| 19> H         1.680053    1.723430   -0.854360
| 20> H         2.963743    0.582638   -1.232715
| 21> H         0.333061   -0.894582   -2.143960
| 22> H         0.715646   -2.580754   -0.458995
| 23> H        -1.862965   -1.075651    1.663709
| 24> H        -2.889851   -1.240433   -0.499313
| 25> H        -2.760491    1.767874    0.540959
| 26> *
| 27>
| 28> $new_job
| 29> ! ri-mp2 aug-cc-pvtz aug-cc-pvtz/c tightscf
| 30> %pal nprocs 16 end
| 31> %maxcore 3800
| 32> %base "TZ_Si-Si_48_AB"
| 33>
| 34> *xyz 0 1
| 35> Si        -1.738366   -0.677137    0.244631
| 36> Si         0.341278   -1.169559   -0.689031
| 37> C         1.597849   -0.066381    0.274934
| 38> O         1.689155   -0.275241    1.462760
| 39> C        -1.865912    1.240590    0.143973
| 40> O        -0.980172    1.894190   -0.352141
| 41> C         2.380159    1.010061   -0.414321
| 42> H         3.035589    1.514009    0.293819
| 43> H         1.680053    1.723430   -0.854360
| 44> H         2.963743    0.582638   -1.232715
| 45> H         0.333061   -0.894582   -2.143960
| 46> H         0.715646   -2.580754   -0.458995
| 47> H        -1.862965   -1.075651    1.663709
| 48> H        -2.889851   -1.240433   -0.499313
| 49> H        -2.760491    1.767874    0.540959
| 50> *
| 51>
| 52> $new_job
| 53> ! ri-mp2 aug-cc-pvqz aug-cc-pvqz/c tightscf
| 54> %pal nprocs 16 end
| 55> %maxcore 3800
| 56> %base "QZ_Si-Si_48_AB"
| 57>
| 58> *xyz 0 1
| 59> Si        -1.738366   -0.677137    0.244631
| 60> Si         0.341278   -1.169559   -0.689031
| 61> C         1.597849   -0.066381    0.274934
| 62> O         1.689155   -0.275241    1.462760
| 63> C        -1.865912    1.240590    0.143973
| 64> O        -0.980172    1.894190   -0.352141
| 65> C         2.380159    1.010061   -0.414321
| 66> H         3.035589    1.514009    0.293819
| 67> H         1.680053    1.723430   -0.854360
| 68> H         2.963743    0.582638   -1.232715
| 69> H         0.333061   -0.894582   -2.143960
| 70> H         0.715646   -2.580754   -0.458995
| 71> H        -1.862965   -1.075651    1.663709
| 72> H        -2.889851   -1.240433   -0.499313
| 73> H        -2.760491    1.767874    0.540959
| 74> *
| 75>
| 76>
| 77>
| 78>
| 79>                          ****END OF INPUT****
 Total Charge           Charge          ....    0
 Multiplicity           Mult            ....    1
 Number of Electrons    NEL             ....   70
MP2 TOTAL ENERGY:     -846.858826299 Eh
FINAL SINGLE POINT ENERGY      -846.858826298726
MP2 TOTAL ENERGY:     -847.157660562 Eh
FINAL SINGLE POINT ENERGY      -847.157660561989

CARTESIAN COORDINATES (ANGSTROEM)
---------------------------------
  Si    -1.738366   -0.677137    0.244631
  Si     0.341278   -1.169559   -0.689031
  C      1.597849   -0.066381    0.274934
  O      1.689155   -0.275241    1.462760
  C     -1.865912    1.240590    0.143973
  O     -0.980172    1.894190   -0.352141
  C      2.380159    1.010061   -0.414321
  H      3.035589    1.514009    0.293819
  H      1.680053    1.723430   -0.854360
  H      2.963743    0.582638   -1.232715
  H      0.333061   -0.894582   -2.143960
  H      0.715646   -2.580754   -0.458995
  H     -1.862965   -1.075651    1.663709
  H     -2.889851   -1.240433   -0.499313
  H     -2.760491    1.767874    0.540959

 Multiplicity           Mult            ....    1
 Number of Electrons    NEL             ....   70
 Basis Dimension        Dim             ....  936

ORBITAL ENERGIES
----------------

  NO   OCC          E(Eh)            E(eV)
   0   2.0000     -68.786968     -1871.7886
   1   2.0000     -68.781133     -1871.6298
   2   2.0000     -20.579844      -560.0060
   3   2.0000     -20.553770      -559.2965
   4   2.0000     -11.331258      -308.3392
   5   2.0000     -11.320492      -308.0463
   6   2.0000     -11.226759      -305.4956
   7   2.0000      -6.138211      -167.0292
   8   2.0000      -6.132326      -166.8691
   9   2.0000      -4.244197      -115.4905
  10   2.0000      -4.244146      -115.4891
  11   2.0000      -4.244050      -115.4865
  12   2.0000      -4.238412      -115.3331
  13   2.0000      -4.238301      -115.3300
  14   2.0000      -4.238105      -115.3247
  15   2.0000      -1.411570       -38.4108
  16   2.0000      -1.392580       -37.8940
  17   2.0000      -1.009229       -27.4625
  18   2.0000      -0.861017       -23.4295
  19   2.0000      -0.801718       -21.8159
  20   2.0000      -0.737963       -20.0810
  21   2.0000      -0.690419       -18.7872
  22   2.0000      -0.667965       -18.1763
  23   2.0000      -0.623615       -16.9694
  24   2.0000      -0.618764       -16.8374
  25   2.0000      -0.599320       -16.3083
  26   2.0000      -0.590320       -16.0634
  27   2.0000      -0.552961       -15.0468
  28   2.0000      -0.537470       -14.6253
  29   2.0000      -0.509105       -13.8535
  30   2.0000      -0.499655       -13.5963
  31   2.0000      -0.486152       -13.2289
  32   2.0000      -0.431747       -11.7484
  33   2.0000      -0.401577       -10.9275
  34   2.0000      -0.379598       -10.3294
  35   0.0000       0.021371         0.5815
  36   0.0000       0.025943         0.7059
  37   0.0000       0.033663         0.9160
  38   0.0000       0.037543         1.0216
  39   0.0000       0.042721         1.1625

MULLIKEN ATOMIC CHARGES
-----------------------
   0 Si:    0.787276
   1 Si:    0.914076
   2 C :    0.639168
   3 O :   -0.899872
   4 C :   -0.140376
   5 O :   -0.834947
   6 C :   -0.982870
   7 H :    0.363858
   8 H :    0.316676
   9 H :    0.260534
  10 H :   -0.252626
  11 H :   -0.285342
  12 H :   -0.188855
  13 H :   -0.245760
  14 H :    0.549060
Sum of atomic charges:    0.0000000

LOEWDIN ATOMIC CHARGES
----------------------
   0 Si:    0.742743
   1 Si:    0.699275
   2 C :   -0.728864
   3 O :    0.645312
   4 C :   -0.319609
   5 O :    0.621936
   6 C :    0.816245
   7 H :   -0.317960
   8 H :   -0.336274
   9 H :   -0.309831
  10 H :   -0.261020
  11 H :   -0.271657
  12 H :   -0.271256
  13 H :   -0.282179
  14 H :   -0.426861

  Mayer bond orders larger than 0.100000
B(  0-Si,  1-Si) :   0.8219 B(  0-Si,  4-C ) :   0.7663 B(  0-Si, 12-H ) :   0.8155
B(  0-Si, 13-H ) :   0.8045 B(  1-Si,  2-C ) :   0.6539 B(  1-Si, 10-H ) :   0.7994
B(  1-Si, 11-H ) :   0.7609 B(  2-C ,  3-O ) :   1.1986 B(  2-C ,  6-C ) :   0.9264
B(  3-O ,  6-C ) :   0.1540 B(  4-C ,  5-O ) :   1.7095 B(  4-C , 14-H ) :   0.6233
B(  6-C ,  7-H ) :   0.9105 B(  6-C ,  8-H ) :   0.8884 B(  6-C ,  9-H ) :   0.9444

MP2 TOTAL ENERGY:     -847.255711595 Eh
FINAL SINGLE POINT ENERGY      -847.255711595116

DIPOLE MOMENT
-------------
                                X             Y             Z
Electronic contribution:     -2.00224      -0.24363       1.91657
Nuclear contribution   :      1.30283      -0.06544      -2.63033
                        -----------------------------------------
Total Dipole Moment    :     -0.69941      -0.30907      -0.71376
                        -----------------------------------------
Magnitude (a.u.)       :      1.04602
Magnitude (Debye)      :      2.65877

Rotational constants in cm-1:     0.075233     0.042552     0.034341
Rotational constants in MHz :  2255.431378  1275.685036  1029.503095

                             ****ORCA TERMINATED NORMALLY****
TOTAL RUN TIME: 0 days 1 hours 37 minutes 15 seconds 228 msec
