                         Program Version 5.0.4 -  RELEASE  -
|  1> ! ri-mp2 aug-cc-pvdz aug-cc-pvdz/c tightscf
|  2> %pal nprocs 16 end
|  3> %maxcore 3800
|  4> %base "DZ_Si-Cl_89_AB"
|  5> %scf
|  6> STABPerform true
|  7> STABRestartUHFifUnstable true
|  8> end
|  9>
| 10> *xyz 0 1
| 11> C        -1.108661    0.000000   -0.660421
| 12> Si         0.655192    0.000000    0.001894
| 13> H        -1.103576    0.000000   -1.746520
| 14> Cl        -1.961055    1.468092   -0.145019
| 15> Cl        -1.961055   -1.468092   -0.145019
| 16> Cl         0.639317    0.000001    2.020314
| 17> Cl         1.599716    1.650596   -0.698005
| 18> Cl         1.599716   -1.650597   -0.698004
| 19> *
| 20>
| 21> $new_job
| 22> ! ri-mp2 aug-cc-pvtz aug-cc-pvtz/c tightscf
| 23> %pal nprocs 16 end
| 24> %maxcore 3800
| 25> %base "TZ_Si-Cl_89_AB"
| 26>
| 27> *xyz 0 1
| 28> C        -1.108661    0.000000   -0.660421
| 29> Si         0.655192    0.000000    0.001894
| 30> H        -1.103576    0.000000   -1.746520
| 31> Cl        -1.961055    1.468092   -0.145019
| 32> Cl        -1.961055   -1.468092   -0.145019
| 33> Cl         0.639317    0.000001    2.020314
| 34> Cl         1.599716    1.650596   -0.698005
| 35> Cl         1.599716   -1.650597   -0.698004
| 36> *
| 37>
| 38> $new_job
| 39> ! ri-mp2 aug-cc-pvqz aug-cc-pvqz/c tightscf
| 40> %pal nprocs 16 end
| 41> %maxcore 3800
| 42> %base "QZ_Si-Cl_89_AB"
| 43>
| 44> *xyz 0 1
| 45> C        -1.108661    0.000000   -0.660421
| 46> Si         0.655192    0.000000    0.001894
| 47> H        -1.103576    0.000000   -1.746520
| 48> Cl        -1.961055    1.468092   -0.145019
| 49> Cl        -1.961055   -1.468092   -0.145019
| 50> Cl         0.639317    0.000001    2.020314
| 51> Cl         1.599716    1.650596   -0.698005
| 52> Cl         1.599716   -1.650597   -0.698004
| 53> *
| 54>
| 55>
| 56>
| 57>
| 58>                          ****END OF INPUT****
 Total Charge           Charge          ....    0
 Multiplicity           Mult            ....    1
 Number of Electrons    NEL             ....  106
MP2 TOTAL ENERGY:    -2626.039783218 Eh
FINAL SINGLE POINT ENERGY     -2626.039783218220
MP2 TOTAL ENERGY:    -2626.420252136 Eh
FINAL SINGLE POINT ENERGY     -2626.420252136332

CARTESIAN COORDINATES (ANGSTROEM)
---------------------------------
  C     -1.108661    0.000000   -0.660421
  Si     0.655192    0.000000    0.001894
  H     -1.103576    0.000000   -1.746520
  Cl    -1.961055    1.468092   -0.145019
  Cl    -1.961055   -1.468092   -0.145019
  Cl     0.639317    0.000001    2.020314
  Cl     1.599716    1.650596   -0.698005
  Cl     1.599716   -1.650597   -0.698004

 Multiplicity           Mult            ....    1
 Number of Electrons    NEL             ....  106
 Basis Dimension        Dim             ....  630

ORBITAL ENERGIES
----------------

  NO   OCC          E(Eh)            E(eV)
   0   2.0000    -104.861537     -2853.4275
   1   2.0000    -104.861536     -2853.4275
   2   2.0000    -104.859339     -2853.3677
   3   2.0000    -104.859339     -2853.3677
   4   2.0000    -104.858632     -2853.3484
   5   2.0000     -68.916013     -1875.3000
   6   2.0000     -11.370302      -309.4016
   7   2.0000     -10.587057      -288.0885
   8   2.0000     -10.587050      -288.0883
   9   2.0000     -10.586976      -288.0863
  10   2.0000     -10.586970      -288.0861
  11   2.0000     -10.586258      -288.0667
  12   2.0000      -8.054096      -219.1631
  13   2.0000      -8.054095      -219.1631
  14   2.0000      -8.053753      -219.1537
  15   2.0000      -8.053751      -219.1537
  16   2.0000      -8.053052      -219.1347
  17   2.0000      -8.052526      -219.1204
  18   2.0000      -8.052525      -219.1203
  19   2.0000      -8.052505      -219.1198
  20   2.0000      -8.052505      -219.1198
  21   2.0000      -8.052222      -219.1121
  22   2.0000      -8.052222      -219.1121
  23   2.0000      -8.052132      -219.1096
  24   2.0000      -8.052131      -219.1096
  25   2.0000      -8.051791      -219.1004
  26   2.0000      -8.051779      -219.1000
  27   2.0000      -6.251897      -170.1228
  28   2.0000      -4.359402      -118.6254
  29   2.0000      -4.359291      -118.6223
  30   2.0000      -4.358095      -118.5898
  31   2.0000      -1.208786       -32.8927
  32   2.0000      -1.158172       -31.5154
  33   2.0000      -1.120247       -30.4835
  34   2.0000      -1.118615       -30.4391
  35   2.0000      -1.108195       -30.1555
  36   2.0000      -0.903193       -24.5771
  37   2.0000      -0.727906       -19.8073
  38   2.0000      -0.657145       -17.8818
  39   2.0000      -0.613743       -16.7008
  40   2.0000      -0.612724       -16.6731
  41   2.0000      -0.584475       -15.9044
  42   2.0000      -0.578043       -15.7293
  43   2.0000      -0.517640       -14.0857
  44   2.0000      -0.515208       -14.0195
  45   2.0000      -0.511564       -13.9204
  46   2.0000      -0.497191       -13.5293
  47   2.0000      -0.489002       -13.3064
  48   2.0000      -0.481523       -13.1029
  49   2.0000      -0.477627       -12.9969
  50   2.0000      -0.474165       -12.9027
  51   2.0000      -0.455706       -12.4004
  52   2.0000      -0.436575       -11.8798
  53   0.0000       0.027481         0.7478
  54   0.0000       0.037799         1.0286
  55   0.0000       0.041234         1.1220
  56   0.0000       0.042272         1.1503
  57   0.0000       0.059846         1.6285

MULLIKEN ATOMIC CHARGES
-----------------------
   0 C :   -0.191280
   1 Si:    2.166632
   2 H :    0.366268
   3 Cl:   -0.259482
   4 Cl:   -0.259482
   5 Cl:   -0.604101
   6 Cl:   -0.609277
   7 Cl:   -0.609277
Sum of atomic charges:    0.0000000

LOEWDIN ATOMIC CHARGES
----------------------
   0 C :   -1.487194
   1 Si:   -2.725539
   2 H :   -0.634048
   3 Cl:    1.051269
   4 Cl:    1.051269
   5 Cl:    0.919758
   6 Cl:    0.912242
   7 Cl:    0.912242

  Mayer bond orders larger than 0.100000
B(  0-C ,  1-Si) :   0.8138 B(  0-C ,  2-H ) :   0.7715 B(  0-C ,  3-Cl) :   0.7943
B(  0-C ,  4-Cl) :   0.7943 B(  1-Si,  5-Cl) :   0.5500 B(  1-Si,  6-Cl) :   0.5268
B(  1-Si,  7-Cl) :   0.5268

MP2 TOTAL ENERGY:    -2626.548421874 Eh
FINAL SINGLE POINT ENERGY     -2626.548421873731

DIPOLE MOMENT
-------------
                                X             Y             Z
Electronic contribution:      1.04581       0.00000       1.62394
Nuclear contribution   :     -0.93361      -0.00000      -2.02828
                        -----------------------------------------
Total Dipole Moment    :      0.11221       0.00000      -0.40433
                        -----------------------------------------
Magnitude (a.u.)       :      0.41961
Magnitude (Debye)      :      1.06658

Rotational constants in cm-1:     0.031508     0.024584     0.020004
Rotational constants in MHz :   944.597990   737.016615   599.716015

                             ****ORCA TERMINATED NORMALLY****
TOTAL RUN TIME: 0 days 0 hours 38 minutes 22 seconds 104 msec
