                         Program Version 5.0.4 -  RELEASE  -
|  1> ! ri-mp2 aug-cc-pvdz aug-cc-pvdz/c tightscf
|  2> %pal nprocs 16 end
|  3> %maxcore 3800
|  4> %base "DZ_S-Cl_6_A"
|  5> %scf
|  6> STABPerform true
|  7> STABRestartUHFifUnstable true
|  8> end
|  9>
| 10> *xyz 0 2
| 11> N         0.359600    0.508649   -0.023294
| 12> S        -1.136461   -0.133038    0.002877
| 13> C         1.585743   -0.259058    0.004201
| 14> H         0.450670    1.508205    0.073814
| 15> H         1.387473   -1.247511   -0.402395
| 16> H         1.965749   -0.369618    1.023350
| 17> H         2.347825    0.231327   -0.602950
| 18> *
| 19>
| 20> $new_job
| 21> ! ri-mp2 aug-cc-pvtz aug-cc-pvtz/c tightscf
| 22> %pal nprocs 16 end
| 23> %maxcore 3800
| 24> %base "TZ_S-Cl_6_A"
| 25>
| 26> *xyz 0 2
| 27> N         0.359600    0.508649   -0.023294
| 28> S        -1.136461   -0.133038    0.002877
| 29> C         1.585743   -0.259058    0.004201
| 30> H         0.450670    1.508205    0.073814
| 31> H         1.387473   -1.247511   -0.402395
| 32> H         1.965749   -0.369618    1.023350
| 33> H         2.347825    0.231327   -0.602950
| 34> *
| 35>
| 36> $new_job
| 37> ! ri-mp2 aug-cc-pvqz aug-cc-pvqz/c tightscf
| 38> %pal nprocs 16 end
| 39> %maxcore 3800
| 40> %base "QZ_S-Cl_6_A"
| 41>
| 42> *xyz 0 2
| 43> N         0.359600    0.508649   -0.023294
| 44> S        -1.136461   -0.133038    0.002877
| 45> C         1.585743   -0.259058    0.004201
| 46> H         0.450670    1.508205    0.073814
| 47> H         1.387473   -1.247511   -0.402395
| 48> H         1.965749   -0.369618    1.023350
| 49> H         2.347825    0.231327   -0.602950
| 50> *
| 51>
| 52>
| 53>
| 54>
| 55>                          ****END OF INPUT****
 Total Charge           Charge          ....    0
 Multiplicity           Mult            ....    2
 Number of Electrons    NEL             ....   33
MP2 TOTAL ENERGY:     -492.613324208 Eh
FINAL SINGLE POINT ENERGY      -492.613324208494
MP2 TOTAL ENERGY:     -492.753165737 Eh
FINAL SINGLE POINT ENERGY      -492.753165736960

CARTESIAN COORDINATES (ANGSTROEM)
---------------------------------
  N      0.359600    0.508649   -0.023294
  S     -1.136461   -0.133038    0.002877
  C      1.585743   -0.259058    0.004201
  H      0.450670    1.508205    0.073814
  H      1.387473   -1.247511   -0.402395
  H      1.965749   -0.369618    1.023350
  H      2.347825    0.231327   -0.602950

 Multiplicity           Mult            ....    2
 Number of Electrons    NEL             ....   33
 Basis Dimension        Dim             ....  428

ORBITAL ENERGIES
----------------
                 SPIN UP ORBITALS
  NO   OCC          E(Eh)            E(eV)
   0   1.0000     -91.966068     -2502.5239
   1   1.0000     -15.613317      -424.8600
   2   1.0000     -11.266537      -306.5781
   3   1.0000      -8.965274      -243.9575
   4   1.0000      -6.657804      -181.1680
   5   1.0000      -6.643444      -180.7773
   6   1.0000      -6.642109      -180.7410
   7   1.0000      -1.256664       -34.1956
   8   1.0000      -0.979825       -26.6624
   9   1.0000      -0.869342       -23.6560
  10   1.0000      -0.683022       -18.5860
  11   1.0000      -0.637952       -17.3596
  12   1.0000      -0.603556       -16.4236
  13   1.0000      -0.541141       -14.7252
  14   1.0000      -0.505327       -13.7507
  15   1.0000      -0.359762        -9.7896
  16   1.0000      -0.350690        -9.5428
  17   0.0000       0.022834         0.6213
  18   0.0000       0.037366         1.0168
  19   0.0000       0.039945         1.0870
  20   0.0000       0.046434         1.2635
  21   0.0000       0.064786         1.7629

                 SPIN DOWN ORBITALS
  NO   OCC          E(Eh)            E(eV)
   0   1.0000     -91.958998     -2502.3315
   1   1.0000     -15.599249      -424.4771
   2   1.0000     -11.267706      -306.6099
   3   1.0000      -8.957488      -243.7456
   4   1.0000      -6.641203      -180.7163
   5   1.0000      -6.637979      -180.6286
   6   1.0000      -6.624660      -180.2662
   7   1.0000      -1.223869       -33.3032
   8   1.0000      -0.963025       -26.2052
   9   1.0000      -0.827101       -22.5066
  10   1.0000      -0.668694       -18.1961
  11   1.0000      -0.606940       -16.5157
  12   1.0000      -0.585346       -15.9281
  13   1.0000      -0.527273       -14.3478
  14   1.0000      -0.405033       -11.0215
  15   1.0000      -0.345635        -9.4052
  16   0.0000       0.022887         0.6228
  17   0.0000       0.037123         1.0102
  18   0.0000       0.037769         1.0277
  19   0.0000       0.046154         1.2559
  20   0.0000       0.054762         1.4902

MULLIKEN ATOMIC CHARGES AND SPIN POPULATIONS
--------------------------------------------
   0 N :   -0.589543    0.256654
   1 S :    0.144372    0.787186
   2 C :   -0.683264   -0.048364
   3 H :    0.271951   -0.029126
   4 H :    0.303119    0.006252
   5 H :    0.270139    0.019073
   6 H :    0.283226    0.008325
Sum of atomic charges         :    0.0000000

LOEWDIN ATOMIC CHARGES AND SPIN POPULATIONS
-------------------------------------------
   0 N :    0.094194    0.305151
   1 S :    0.896681    0.638020
   2 C :    0.629215    0.022633
   3 H :   -0.648015    0.028841
   4 H :   -0.361035   -0.002125
   5 H :   -0.304078    0.005336
   6 H :   -0.306962    0.002145

  Mayer bond orders larger than 0.100000
B(  0-N ,  1-S ) :   1.1950 B(  0-N ,  2-C ) :   0.9084 B(  0-N ,  3-H ) :   0.9575
B(  2-C ,  4-H ) :   0.9291 B(  2-C ,  5-H ) :   0.9253 B(  2-C ,  6-H ) :   0.9334

MP2 TOTAL ENERGY:     -492.797302531 Eh
FINAL SINGLE POINT ENERGY      -492.797302531286

DIPOLE MOMENT
-------------
                                X             Y             Z
Electronic contribution:     -5.19557       0.22179      -0.04224
Nuclear contribution   :      6.17558       0.12922       0.09140
                        -----------------------------------------
Total Dipole Moment    :      0.98001       0.35100       0.04916
                        -----------------------------------------
Magnitude (a.u.)       :      1.04214
Magnitude (Debye)      :      2.64890

Rotational constants in cm-1:     1.585942     0.195961     0.180373
Rotational constants in MHz : 47545.333364  5874.757590  5407.437263

                             ****ORCA TERMINATED NORMALLY****
TOTAL RUN TIME: 0 days 0 hours 15 minutes 26 seconds 903 msec
