                         Program Version 5.0.4 -  RELEASE  -
|  1> ! ri-mp2 aug-cc-pvdz aug-cc-pvdz/c tightscf
|  2> %pal nprocs 16 end
|  3> %maxcore 3800
|  4> %base "DZ_B-Si_10_AB"
|  5> %scf
|  6> STABPerform true
|  7> STABRestartUHFifUnstable true
|  8> end
|  9>
| 10> *xyz 0 1
| 11> B        -1.466066   -0.000659   -1.473258
| 12> Si        -0.025965   -0.000013   -0.068255
| 13> C        -0.921897   -0.000439    1.589208
| 14> H        -1.552427   -0.882784    1.707538
| 15> H        -1.553243    0.881320    1.707549
| 16> C         1.056861    1.529563   -0.173351
| 17> H        -0.196103   -0.000109    2.405309
| 18> H         1.797954    1.539975    0.628386
| 19> H         1.596322    1.573668   -1.121038
| 20> H         0.460851    2.439703   -0.090586
| 21> C         1.058275   -1.528586   -0.173372
| 22> H         0.463106   -2.439277   -0.090630
| 23> H         1.799373   -1.538330    0.628369
| 24> H         1.597781   -1.572173   -1.121058
| 25> H        -1.940103    1.011395   -1.893391
| 26> H        -1.939108   -1.013134   -1.893500
| 27> *
| 28>
| 29> $new_job
| 30> ! ri-mp2 aug-cc-pvtz aug-cc-pvtz/c tightscf
| 31> %pal nprocs 16 end
| 32> %maxcore 3800
| 33> %base "TZ_B-Si_10_AB"
| 34>
| 35> *xyz 0 1
| 36> B        -1.466066   -0.000659   -1.473258
| 37> Si        -0.025965   -0.000013   -0.068255
| 38> C        -0.921897   -0.000439    1.589208
| 39> H        -1.552427   -0.882784    1.707538
| 40> H        -1.553243    0.881320    1.707549
| 41> C         1.056861    1.529563   -0.173351
| 42> H        -0.196103   -0.000109    2.405309
| 43> H         1.797954    1.539975    0.628386
| 44> H         1.596322    1.573668   -1.121038
| 45> H         0.460851    2.439703   -0.090586
| 46> C         1.058275   -1.528586   -0.173372
| 47> H         0.463106   -2.439277   -0.090630
| 48> H         1.799373   -1.538330    0.628369
| 49> H         1.597781   -1.572173   -1.121058
| 50> H        -1.940103    1.011395   -1.893391
| 51> H        -1.939108   -1.013134   -1.893500
| 52> *
| 53>
| 54> $new_job
| 55> ! ri-mp2 aug-cc-pvqz aug-cc-pvqz/c tightscf
| 56> %pal nprocs 16 end
| 57> %maxcore 3800
| 58> %base "QZ_B-Si_10_AB"
| 59>
| 60> *xyz 0 1
| 61> B        -1.466066   -0.000659   -1.473258
| 62> Si        -0.025965   -0.000013   -0.068255
| 63> C        -0.921897   -0.000439    1.589208
| 64> H        -1.552427   -0.882784    1.707538
| 65> H        -1.553243    0.881320    1.707549
| 66> C         1.056861    1.529563   -0.173351
| 67> H        -0.196103   -0.000109    2.405309
| 68> H         1.797954    1.539975    0.628386
| 69> H         1.596322    1.573668   -1.121038
| 70> H         0.460851    2.439703   -0.090586
| 71> C         1.058275   -1.528586   -0.173372
| 72> H         0.463106   -2.439277   -0.090630
| 73> H         1.799373   -1.538330    0.628369
| 74> H         1.597781   -1.572173   -1.121058
| 75> H        -1.940103    1.011395   -1.893391
| 76> H        -1.939108   -1.013134   -1.893500
| 77> *
| 78>
| 79>
| 80>
| 81>
| 82>                          ****END OF INPUT****
 Total Charge           Charge          ....    0
 Multiplicity           Mult            ....    1
 Number of Electrons    NEL             ....   48
MP2 TOTAL ENERGY:     -434.276899193 Eh
FINAL SINGLE POINT ENERGY      -434.276899192787
MP2 TOTAL ENERGY:     -434.461498907 Eh
FINAL SINGLE POINT ENERGY      -434.461498906699

CARTESIAN COORDINATES (ANGSTROEM)
---------------------------------
  B     -1.466066   -0.000659   -1.473258
  Si    -0.025965   -0.000013   -0.068255
  C     -0.921897   -0.000439    1.589208
  H     -1.552427   -0.882784    1.707538
  H     -1.553243    0.881320    1.707549
  C      1.056861    1.529563   -0.173351
  H     -0.196103   -0.000109    2.405309
  H      1.797954    1.539975    0.628386
  H      1.596322    1.573668   -1.121038
  H      0.460851    2.439703   -0.090586
  C      1.058275   -1.528586   -0.173372
  H      0.463106   -2.439277   -0.090630
  H      1.799373   -1.538330    0.628369
  H      1.597781   -1.572173   -1.121058
  H     -1.940103    1.011395   -1.893391
  H     -1.939108   -1.013134   -1.893500

 Multiplicity           Mult            ....    1
 Number of Electrons    NEL             ....   48
 Basis Dimension        Dim             ....  910

ORBITAL ENERGIES
----------------

  NO   OCC          E(Eh)            E(eV)
   0   2.0000     -68.734400     -1870.3581
   1   2.0000     -11.195417      -304.6428
   2   2.0000     -11.192616      -304.5666
   3   2.0000     -11.192609      -304.5664
   4   2.0000      -7.594935      -206.6687
   5   2.0000      -6.085276      -165.5888
   6   2.0000      -4.191759      -114.0636
   7   2.0000      -4.191495      -114.0564
   8   2.0000      -4.191487      -114.0562
   9   2.0000      -0.964360       -26.2416
  10   2.0000      -0.921473       -25.0746
  11   2.0000      -0.920403       -25.0454
  12   2.0000      -0.701824       -19.0976
  13   2.0000      -0.605387       -16.4734
  14   2.0000      -0.565663       -15.3925
  15   2.0000      -0.560939       -15.2639
  16   2.0000      -0.558262       -15.1911
  17   2.0000      -0.539957       -14.6930
  18   2.0000      -0.539635       -14.6842
  19   2.0000      -0.528516       -14.3816
  20   2.0000      -0.487622       -13.2689
  21   2.0000      -0.429004       -11.6738
  22   2.0000      -0.423635       -11.5277
  23   2.0000      -0.386213       -10.5094
  24   0.0000       0.021441         0.5834
  25   0.0000       0.026577         0.7232
  26   0.0000       0.031081         0.8458
  27   0.0000       0.031221         0.8496
  28   0.0000       0.044584         1.2132

MULLIKEN ATOMIC CHARGES
-----------------------
   0 B :    0.193780
   1 Si:    1.397477
   2 C :   -1.197496
   3 H :    0.286887
   4 H :    0.286890
   5 C :   -1.179550
   6 H :    0.270822
   7 H :    0.261945
   8 H :    0.270063
   9 H :    0.283450
  10 C :   -1.179545
  11 H :    0.283451
  12 H :    0.261945
  13 H :    0.270060
  14 H :   -0.255081
  15 H :   -0.255097
Sum of atomic charges:    0.0000000

LOEWDIN ATOMIC CHARGES
----------------------
   0 B :    0.441552
   1 Si:    0.244283
   2 C :    0.957993
   3 H :   -0.339748
   4 H :   -0.339749
   5 C :    0.955124
   6 H :   -0.339534
   7 H :   -0.340626
   8 H :   -0.342731
   9 H :   -0.344552
  10 C :    0.955124
  11 H :   -0.344554
  12 H :   -0.340626
  13 H :   -0.342731
  14 H :   -0.239613
  15 H :   -0.239612

  Mayer bond orders larger than 0.100000
B(  0-B ,  1-Si) :   0.8560 B(  0-B , 14-H ) :   0.8414 B(  0-B , 15-H ) :   0.8414
B(  1-Si,  2-C ) :   0.7858 B(  1-Si,  5-C ) :   0.7962 B(  1-Si, 10-C ) :   0.7963
B(  2-C ,  3-H ) :   0.9461 B(  2-C ,  4-H ) :   0.9461 B(  2-C ,  6-H ) :   0.9418
B(  5-C ,  7-H ) :   0.9447 B(  5-C ,  8-H ) :   0.9617 B(  5-C ,  9-H ) :   0.9628
B( 10-C , 11-H ) :   0.9628 B( 10-C , 12-H ) :   0.9447 B( 10-C , 13-H ) :   0.9617

MP2 TOTAL ENERGY:     -434.516372666 Eh
FINAL SINGLE POINT ENERGY      -434.516372665964

DIPOLE MOMENT
-------------
                                X             Y             Z
Electronic contribution:     -1.68218      -0.00077      -2.07588
Nuclear contribution   :      1.79981       0.00082       2.15708
                        -----------------------------------------
Total Dipole Moment    :      0.11762       0.00005       0.08121
                        -----------------------------------------
Magnitude (a.u.)       :      0.14293
Magnitude (Debye)      :      0.36330

Rotational constants in cm-1:     0.106583     0.104214     0.101117
Rotational constants in MHz :  3195.264362  3124.269017  3031.398958

                             ****ORCA TERMINATED NORMALLY****
TOTAL RUN TIME: 0 days 1 hours 6 minutes 58 seconds 280 msec
