                         Program Version 5.0.4 -  RELEASE  -
|  1> ! ri-mp2 aug-cc-pvdz aug-cc-pvdz/c tightscf
|  2> %pal nprocs 16 end
|  3> %maxcore 3800
|  4> %base "DZ_Si-Si_107_AB"
|  5>
|  6> *xyz 0 1
|  7> Si         2.244303    0.154013   -0.431192
|  8> Si         0.631328   -1.144656    0.648098
|  9> H         1.781360    0.491772   -1.795642
| 10> H         3.522978   -0.587254   -0.550032
| 11> H         2.500729    1.401048    0.319532
| 12> C        -1.089813   -0.778152   -0.057121
| 13> H         0.631464   -0.889316    2.105230
| 14> H         0.863036   -2.594117    0.438641
| 15> N        -1.501994    0.416125   -0.173531
| 16> O        -0.554396    1.320787    0.299163
| 17> C        -2.011653   -1.861152   -0.521238
| 18> H        -1.539891   -2.458101   -1.303917
| 19> H        -2.936671   -1.435170   -0.906248
| 20> H        -2.246905   -2.542590    0.298546
| 21> C        -0.998368    2.646650    0.087324
| 22> H        -0.214713    3.289388    0.481665
| 23> H        -1.932688    2.828191    0.619777
| 24> H        -1.139392    2.841907   -0.976616
| 25> *
| 26>
| 27> $new_job
| 28> ! ri-mp2 aug-cc-pvtz aug-cc-pvtz/c tightscf
| 29> %pal nprocs 16 end
| 30> %maxcore 3800
| 31> %base "TZ_Si-Si_107_AB"
| 32>
| 33> *xyz 0 1
| 34> Si         2.244303    0.154013   -0.431192
| 35> Si         0.631328   -1.144656    0.648098
| 36> H         1.781360    0.491772   -1.795642
| 37> H         3.522978   -0.587254   -0.550032
| 38> H         2.500729    1.401048    0.319532
| 39> C        -1.089813   -0.778152   -0.057121
| 40> H         0.631464   -0.889316    2.105230
| 41> H         0.863036   -2.594117    0.438641
| 42> N        -1.501994    0.416125   -0.173531
| 43> O        -0.554396    1.320787    0.299163
| 44> C        -2.011653   -1.861152   -0.521238
| 45> H        -1.539891   -2.458101   -1.303917
| 46> H        -2.936671   -1.435170   -0.906248
| 47> H        -2.246905   -2.542590    0.298546
| 48> C        -0.998368    2.646650    0.087324
| 49> H        -0.214713    3.289388    0.481665
| 50> H        -1.932688    2.828191    0.619777
| 51> H        -1.139392    2.841907   -0.976616
| 52> *
| 53>
| 54> $new_job
| 55> ! ri-mp2 aug-cc-pvqz aug-cc-pvqz/c tightscf
| 56> %pal nprocs 16 end
| 57> %maxcore 3800
| 58> %base "QZ_Si-Si_107_AB"
| 59>
| 60> *xyz 0 1
| 61> Si         2.244303    0.154013   -0.431192
| 62> Si         0.631328   -1.144656    0.648098
| 63> H         1.781360    0.491772   -1.795642
| 64> H         3.522978   -0.587254   -0.550032
| 65> H         2.500729    1.401048    0.319532
| 66> C        -1.089813   -0.778152   -0.057121
| 67> H         0.631464   -0.889316    2.105230
| 68> H         0.863036   -2.594117    0.438641
| 69> N        -1.501994    0.416125   -0.173531
| 70> O        -0.554396    1.320787    0.299163
| 71> C        -2.011653   -1.861152   -0.521238
| 72> H        -1.539891   -2.458101   -1.303917
| 73> H        -2.936671   -1.435170   -0.906248
| 74> H        -2.246905   -2.542590    0.298546
| 75> C        -0.998368    2.646650    0.087324
| 76> H        -0.214713    3.289388    0.481665
| 77> H        -1.932688    2.828191    0.619777
| 78> H        -1.139392    2.841907   -0.976616
| 79> *
| 80>
| 81>
| 82>
| 83>
| 84>                          ****END OF INPUT****
 Total Charge           Charge          ....    0
 Multiplicity           Mult            ....    1
 Number of Electrons    NEL             ....   72
MP2 TOTAL ENERGY:     -828.157294998 Eh
FINAL SINGLE POINT ENERGY      -828.157294998013
MP2 TOTAL ENERGY:     -828.450874297 Eh
FINAL SINGLE POINT ENERGY      -828.450874297461

CARTESIAN COORDINATES (ANGSTROEM)
---------------------------------
  Si     2.244303    0.154013   -0.431192
  Si     0.631328   -1.144656    0.648098
  H      1.781360    0.491772   -1.795642
  H      3.522978   -0.587254   -0.550032
  H      2.500729    1.401048    0.319532
  C     -1.089813   -0.778152   -0.057121
  H      0.631464   -0.889316    2.105230
  H      0.863036   -2.594117    0.438641
  N     -1.501994    0.416125   -0.173531
  O     -0.554396    1.320787    0.299163
  C     -2.011653   -1.861152   -0.521238
  H     -1.539891   -2.458101   -1.303917
  H     -2.936671   -1.435170   -0.906248
  H     -2.246905   -2.542590    0.298546
  C     -0.998368    2.646650    0.087324
  H     -0.214713    3.289388    0.481665
  H     -1.932688    2.828191    0.619777
  H     -1.139392    2.841907   -0.976616

 Multiplicity           Mult            ....    1
 Number of Electrons    NEL             ....   72
 Basis Dimension        Dim             .... 1074

ORBITAL ENERGIES
----------------

  NO   OCC          E(Eh)            E(eV)
   0   2.0000     -68.769843     -1871.3226
   1   2.0000     -68.762268     -1871.1164
   2   2.0000     -20.595690      -560.4372
   3   2.0000     -15.619991      -425.0416
   4   2.0000     -11.273639      -306.7713
   5   2.0000     -11.262830      -306.4772
   6   2.0000     -11.230852      -305.6070
   7   2.0000      -6.120343      -166.5430
   8   2.0000      -6.112817      -166.3382
   9   2.0000      -4.226555      -115.0104
  10   2.0000      -4.226375      -115.0055
  11   2.0000      -4.226336      -115.0044
  12   2.0000      -4.218906      -114.8023
  13   2.0000      -4.218877      -114.8015
  14   2.0000      -4.218794      -114.7992
  15   2.0000      -1.438549       -39.1449
  16   2.0000      -1.177630       -32.0449
  17   2.0000      -0.993148       -27.0249
  18   2.0000      -0.910397       -24.7732
  19   2.0000      -0.798188       -21.7198
  20   2.0000      -0.731877       -19.9154
  21   2.0000      -0.697264       -18.9735
  22   2.0000      -0.660077       -17.9616
  23   2.0000      -0.656235       -17.8571
  24   2.0000      -0.613024       -16.6812
  25   2.0000      -0.586661       -15.9639
  26   2.0000      -0.564941       -15.3728
  27   2.0000      -0.544084       -14.8053
  28   2.0000      -0.519092       -14.1252
  29   2.0000      -0.505216       -13.7476
  30   2.0000      -0.491406       -13.3718
  31   2.0000      -0.479238       -13.0407
  32   2.0000      -0.466639       -12.6979
  33   2.0000      -0.424961       -11.5638
  34   2.0000      -0.395590       -10.7646
  35   2.0000      -0.378364       -10.2958
  36   0.0000       0.022814         0.6208
  37   0.0000       0.029096         0.7917
  38   0.0000       0.032818         0.8930
  39   0.0000       0.034113         0.9283
  40   0.0000       0.044725         1.2170

MULLIKEN ATOMIC CHARGES
-----------------------
   0 Si:    0.668639
   1 Si:    1.061671
   2 H :   -0.185971
   3 H :   -0.369602
   4 H :   -0.153087
   5 C :    0.184942
   6 H :   -0.207734
   7 H :   -0.438142
   8 N :   -0.345738
   9 O :   -0.582420
  10 C :   -0.802922
  11 H :    0.246488
  12 H :    0.356539
  13 H :    0.255887
  14 C :   -0.733796
  15 H :    0.407116
  16 H :    0.308754
  17 H :    0.329374
Sum of atomic charges:    0.0000000

LOEWDIN ATOMIC CHARGES
----------------------
   0 Si:    1.020023
   1 Si:    0.651216
   2 H :   -0.296924
   3 H :   -0.320563
   4 H :   -0.301271
   5 C :   -0.426442
   6 H :   -0.254820
   7 H :   -0.263985
   8 N :    0.226700
   9 O :    0.546028
  10 C :    0.798787
  11 H :   -0.305372
  12 H :   -0.323868
  13 H :   -0.302203
  14 C :    0.526643
  15 H :   -0.335941
  16 H :   -0.319742
  17 H :   -0.318268

  Mayer bond orders larger than 0.100000
B(  0-Si,  1-Si) :   0.8115 B(  0-Si,  2-H ) :   0.7842 B(  0-Si,  3-H ) :   0.6967
B(  0-Si,  4-H ) :   0.8160 B(  1-Si,  5-C ) :   0.6845 B(  1-Si,  6-H ) :   0.8078
B(  1-Si,  7-H ) :   0.6499 B(  5-C ,  8-N ) :   1.4715 B(  5-C , 10-C ) :   0.7463
B(  8-N ,  9-O ) :   0.6718 B(  9-O , 14-C ) :   0.8838 B( 10-C , 11-H ) :   0.9619
B( 10-C , 12-H ) :   0.9134 B( 10-C , 13-H ) :   0.9896 B( 14-C , 15-H ) :   0.8655
B( 14-C , 16-H ) :   0.9266 B( 14-C , 17-H ) :   0.8734

MP2 TOTAL ENERGY:     -828.544410825 Eh
FINAL SINGLE POINT ENERGY      -828.544410824893

DIPOLE MOMENT
-------------
                                X             Y             Z
Electronic contribution:      0.77425      -0.52221       1.26857
Nuclear contribution   :     -0.91584       0.43535      -1.29697
                        -----------------------------------------
Total Dipole Moment    :     -0.14159      -0.08686      -0.02840
                        -----------------------------------------
Magnitude (a.u.)       :      0.16852
Magnitude (Debye)      :      0.42834

Rotational constants in cm-1:     0.058680     0.049075     0.030036
Rotational constants in MHz :  1759.178682  1471.223692   900.468871

                             ****ORCA TERMINATED NORMALLY****
TOTAL RUN TIME: 0 days 0 hours 28 minutes 3 seconds 75 msec
