                         Program Version 5.0.4 -  RELEASE  -
|  1> ! ri-mp2 aug-cc-pvdz aug-cc-pvdz/c tightscf
|  2> %pal nprocs 16 end
|  3> %maxcore 3800
|  4> %base "DZ_B-P_80_AB"
|  5>
|  6> *xyz 0 1
|  7> P         2.952538   -0.213227   -0.114653
|  8> B         1.415591    0.868776    0.024481
|  9> C        -0.040608    0.370515    0.013932
| 10> C        -1.082983    1.304331    0.008386
| 11> C        -0.388360   -0.985566    0.009427
| 12> C        -1.708388   -1.389801   -0.004117
| 13> C        -2.720281   -0.440923   -0.006274
| 14> C        -2.408024    0.908094    0.001224
| 15> H        -3.755658   -0.756327   -0.013797
| 16> H        -3.197622    1.647783   -0.000767
| 17> H        -0.839806    2.359203    0.008994
| 18> H         0.390795   -1.737153    0.016357
| 19> H        -1.954580   -2.443342   -0.010514
| 20> H         1.614172    2.044855   -0.011399
| 21> H         2.651617   -1.319299    0.703994
| 22> H         3.816923    0.458907    0.769056
| 23> *
| 24>
| 25> $new_job
| 26> ! ri-mp2 aug-cc-pvtz aug-cc-pvtz/c tightscf
| 27> %pal nprocs 16 end
| 28> %maxcore 3800
| 29> %base "TZ_B-P_80_AB"
| 30>
| 31> *xyz 0 1
| 32> P         2.952538   -0.213227   -0.114653
| 33> B         1.415591    0.868776    0.024481
| 34> C        -0.040608    0.370515    0.013932
| 35> C        -1.082983    1.304331    0.008386
| 36> C        -0.388360   -0.985566    0.009427
| 37> C        -1.708388   -1.389801   -0.004117
| 38> C        -2.720281   -0.440923   -0.006274
| 39> C        -2.408024    0.908094    0.001224
| 40> H        -3.755658   -0.756327   -0.013797
| 41> H        -3.197622    1.647783   -0.000767
| 42> H        -0.839806    2.359203    0.008994
| 43> H         0.390795   -1.737153    0.016357
| 44> H        -1.954580   -2.443342   -0.010514
| 45> H         1.614172    2.044855   -0.011399
| 46> H         2.651617   -1.319299    0.703994
| 47> H         3.816923    0.458907    0.769056
| 48> *
| 49>
| 50> $new_job
| 51> ! ri-mp2 aug-cc-pvqz aug-cc-pvqz/c tightscf
| 52> %pal nprocs 16 end
| 53> %maxcore 3800
| 54> %base "QZ_B-P_80_AB"
| 55>
| 56> *xyz 0 1
| 57> P         2.952538   -0.213227   -0.114653
| 58> B         1.415591    0.868776    0.024481
| 59> C        -0.040608    0.370515    0.013932
| 60> C        -1.082983    1.304331    0.008386
| 61> C        -0.388360   -0.985566    0.009427
| 62> C        -1.708388   -1.389801   -0.004117
| 63> C        -2.720281   -0.440923   -0.006274
| 64> C        -2.408024    0.908094    0.001224
| 65> H        -3.755658   -0.756327   -0.013797
| 66> H        -3.197622    1.647783   -0.000767
| 67> H        -0.839806    2.359203    0.008994
| 68> H         0.390795   -1.737153    0.016357
| 69> H        -1.954580   -2.443342   -0.010514
| 70> H         1.614172    2.044855   -0.011399
| 71> H         2.651617   -1.319299    0.703994
| 72> H         3.816923    0.458907    0.769056
| 73> *
| 74>
| 75>
| 76>
| 77>
| 78>                          ****END OF INPUT****
 Total Charge           Charge          ....    0
 Multiplicity           Mult            ....    1
 Number of Electrons    NEL             ....   64
MP2 TOTAL ENERGY:     -598.335723691 Eh
FINAL SINGLE POINT ENERGY      -598.335723691278
MP2 TOTAL ENERGY:     -598.603461993 Eh
FINAL SINGLE POINT ENERGY      -598.603461992846

CARTESIAN COORDINATES (ANGSTROEM)
---------------------------------
  P      2.952538   -0.213227   -0.114653
  B      1.415591    0.868776    0.024481
  C     -0.040608    0.370515    0.013932
  C     -1.082983    1.304331    0.008386
  C     -0.388360   -0.985566    0.009427
  C     -1.708388   -1.389801   -0.004117
  C     -2.720281   -0.440923   -0.006274
  C     -2.408024    0.908094    0.001224
  H     -3.755658   -0.756327   -0.013797
  H     -3.197622    1.647783   -0.000767
  H     -0.839806    2.359203    0.008994
  H      0.390795   -1.737153    0.016357
  H     -1.954580   -2.443342   -0.010514
  H      1.614172    2.044855   -0.011399
  H      2.651617   -1.319299    0.703994
  H      3.816923    0.458907    0.769056

 Multiplicity           Mult            ....    1
 Number of Electrons    NEL             ....   64
 Basis Dimension        Dim             .... 1012

ORBITAL ENERGIES
----------------

  NO   OCC          E(Eh)            E(eV)
   0   2.0000     -79.920201     -2174.7392
   1   2.0000     -11.248653      -306.0914
   2   2.0000     -11.245268      -305.9993
   3   2.0000     -11.244706      -305.9840
   4   2.0000     -11.237021      -305.7749
   5   2.0000     -11.236463      -305.7597
   6   2.0000     -11.218562      -305.2726
   7   2.0000      -7.603190      -206.8933
   8   2.0000      -7.466619      -203.1770
   9   2.0000      -5.361000      -145.8802
  10   2.0000      -5.360555      -145.8681
  11   2.0000      -5.360306      -145.8613
  12   2.0000      -1.162386       -31.6301
  13   2.0000      -1.026271       -27.9263
  14   2.0000      -1.025704       -27.9108
  15   2.0000      -0.863432       -23.4952
  16   2.0000      -0.835481       -22.7346
  17   2.0000      -0.825334       -22.4585
  18   2.0000      -0.722849       -19.6697
  19   2.0000      -0.662552       -18.0289
  20   2.0000      -0.636639       -17.3238
  21   2.0000      -0.620161       -16.8755
  22   2.0000      -0.596811       -16.2401
  23   2.0000      -0.562148       -15.2968
  24   2.0000      -0.520012       -14.1502
  25   2.0000      -0.514452       -13.9990
  26   2.0000      -0.502318       -13.6688
  27   2.0000      -0.469646       -12.7797
  28   2.0000      -0.456206       -12.4140
  29   2.0000      -0.369879       -10.0649
  30   2.0000      -0.346538        -9.4298
  31   2.0000      -0.338827        -9.2199
  32   0.0000       0.020887         0.5684
  33   0.0000       0.027003         0.7348
  34   0.0000       0.029778         0.8103
  35   0.0000       0.037224         1.0129
  36   0.0000       0.040741         1.1086

MULLIKEN ATOMIC CHARGES
-----------------------
   0 P :    0.215677
   1 B :    0.549799
   2 C :    0.130809
   3 C :   -0.510291
   4 C :   -0.433379
   5 C :   -0.270809
   6 C :   -0.344449
   7 C :   -0.301041
   8 H :    0.359576
   9 H :    0.264392
  10 H :    0.259436
  11 H :    0.290158
  12 H :    0.252729
  13 H :   -0.331832
  14 H :   -0.057079
  15 H :   -0.073697
Sum of atomic charges:   -0.0000000

LOEWDIN ATOMIC CHARGES
----------------------
   0 P :    1.619993
   1 B :   -0.404317
   2 C :   -0.027470
   3 C :    0.308133
   4 C :    0.289109
   5 C :    0.356826
   6 C :    0.343369
   7 C :    0.355543
   8 H :   -0.314525
   9 H :   -0.320245
  10 H :   -0.326886
  11 H :   -0.355703
  12 H :   -0.319417
  13 H :   -0.218391
  14 H :   -0.488464
  15 H :   -0.497553

  Mayer bond orders larger than 0.100000
B(  0-P ,  1-B ) :   1.0848 B(  0-P , 14-H ) :   0.8977 B(  0-P , 15-H ) :   0.9212
B(  1-B ,  2-C ) :   0.9941 B(  1-B , 13-H ) :   0.7230 B(  2-C ,  3-C ) :   0.9156
B(  2-C ,  4-C ) :   0.9011 B(  2-C ,  5-C ) :  -0.3286 B(  2-C ,  6-C ) :  -0.1066
B(  2-C ,  7-C ) :  -0.3489 B(  3-C ,  4-C ) :   0.1205 B(  3-C ,  5-C ) :   0.1462
B(  3-C ,  6-C ) :   0.1378 B(  3-C ,  7-C ) :   1.3145 B(  3-C ,  9-H ) :  -0.1362
B(  3-C , 10-H ) :   1.0000 B(  4-C ,  5-C ) :   1.2707 B(  4-C ,  7-C ) :   0.1368
B(  4-C , 11-H ) :   0.9576 B(  4-C , 12-H ) :  -0.1430 B(  5-C ,  6-C ) :   1.1619
B(  5-C , 12-H ) :   1.1143 B(  6-C ,  7-C ) :   1.1563 B(  6-C ,  8-H ) :   0.9722
B(  6-C ,  9-H ) :  -0.1026 B(  7-C ,  9-H ) :   1.1067

MP2 TOTAL ENERGY:     -598.688580059 Eh
FINAL SINGLE POINT ENERGY      -598.688580058913

DIPOLE MOMENT
-------------
                                X             Y             Z
Electronic contribution:      4.47556       0.16994      -1.23725
Nuclear contribution   :     -5.15314      -0.23895       1.52954
                        -----------------------------------------
Total Dipole Moment    :     -0.67758      -0.06901       0.29229
                        -----------------------------------------
Magnitude (a.u.)       :      0.74115
Magnitude (Debye)      :      1.88386

Rotational constants in cm-1:     0.161520     0.030315     0.025636
Rotational constants in MHz :  4842.236864   908.808752   768.559270

                             ****ORCA TERMINATED NORMALLY****
TOTAL RUN TIME: 0 days 0 hours 28 minutes 31 seconds 950 msec
