                         Program Version 5.0.4 -  RELEASE  -
|  1> ! ri-mp2 aug-cc-pvdz aug-cc-pvdz/c tightscf
|  2> %pal nprocs 16 end
|  3> %maxcore 3800
|  4> %base "DZ_B-Si_79_AB"
|  5>
|  6> *xyz 0 1
|  7> Si        -0.059093   -0.137766    0.253948
|  8> N        -0.490611    1.640275   -0.129952
|  9> B         1.934247   -0.379634   -0.000490
| 10> N        -1.031413   -0.974889   -1.077009
| 11> Cl        -0.894876   -0.526369    2.037678
| 12> O        -1.935263   -1.751503   -0.912253
| 13> O         2.726407    0.677288   -0.227704
| 14> O         0.467494    2.408042   -0.176364
| 15> O         2.386465   -1.644801    0.083177
| 16> O        -1.638569    1.969153   -0.286671
| 17> O        -0.576845   -0.616337   -2.157009
| 18> H         3.336884   -1.738503   -0.058487
| 19> H         2.248742    1.521228   -0.271534
| 20> *
| 21>
| 22> $new_job
| 23> ! ri-mp2 aug-cc-pvtz aug-cc-pvtz/c tightscf
| 24> %pal nprocs 16 end
| 25> %maxcore 3800
| 26> %base "TZ_B-Si_79_AB"
| 27>
| 28> *xyz 0 1
| 29> Si        -0.059093   -0.137766    0.253948
| 30> N        -0.490611    1.640275   -0.129952
| 31> B         1.934247   -0.379634   -0.000490
| 32> N        -1.031413   -0.974889   -1.077009
| 33> Cl        -0.894876   -0.526369    2.037678
| 34> O        -1.935263   -1.751503   -0.912253
| 35> O         2.726407    0.677288   -0.227704
| 36> O         0.467494    2.408042   -0.176364
| 37> O         2.386465   -1.644801    0.083177
| 38> O        -1.638569    1.969153   -0.286671
| 39> O        -0.576845   -0.616337   -2.157009
| 40> H         3.336884   -1.738503   -0.058487
| 41> H         2.248742    1.521228   -0.271534
| 42> *
| 43>
| 44> $new_job
| 45> ! ri-mp2 aug-cc-pvqz aug-cc-pvqz/c tightscf
| 46> %pal nprocs 16 end
| 47> %maxcore 3800
| 48> %base "QZ_B-Si_79_AB"
| 49>
| 50> *xyz 0 1
| 51> Si        -0.059093   -0.137766    0.253948
| 52> N        -0.490611    1.640275   -0.129952
| 53> B         1.934247   -0.379634   -0.000490
| 54> N        -1.031413   -0.974889   -1.077009
| 55> Cl        -0.894876   -0.526369    2.037678
| 56> O        -1.935263   -1.751503   -0.912253
| 57> O         2.726407    0.677288   -0.227704
| 58> O         0.467494    2.408042   -0.176364
| 59> O         2.386465   -1.644801    0.083177
| 60> O        -1.638569    1.969153   -0.286671
| 61> O        -0.576845   -0.616337   -2.157009
| 62> H         3.336884   -1.738503   -0.058487
| 63> H         2.248742    1.521228   -0.271534
| 64> *
| 65>
| 66>
| 67>
| 68>
| 69>                          ****END OF INPUT****
 Total Charge           Charge          ....    0
 Multiplicity           Mult            ....    1
 Number of Electrons    NEL             ....  100
MP2 TOTAL ENERGY:    -1334.281682352 Eh
FINAL SINGLE POINT ENERGY     -1334.281682351847
MP2 TOTAL ENERGY:    -1334.860000532 Eh
FINAL SINGLE POINT ENERGY     -1334.860000531622

CARTESIAN COORDINATES (ANGSTROEM)
---------------------------------
  Si    -0.059093   -0.137766    0.253948
  N     -0.490611    1.640275   -0.129952
  B      1.934247   -0.379634   -0.000490
  N     -1.031413   -0.974889   -1.077009
  Cl    -0.894876   -0.526369    2.037678
  O     -1.935263   -1.751503   -0.912253
  O      2.726407    0.677288   -0.227704
  O      0.467494    2.408042   -0.176364
  O      2.386465   -1.644801    0.083177
  O     -1.638569    1.969153   -0.286671
  O     -0.576845   -0.616337   -2.157009
  H      3.336884   -1.738503   -0.058487
  H      2.248742    1.521228   -0.271534

 Multiplicity           Mult            ....    1
 Number of Electrons    NEL             ....  100
 Basis Dimension        Dim             ....  980

ORBITAL ENERGIES
----------------

  NO   OCC          E(Eh)            E(eV)
   0   2.0000    -104.892685     -2854.2751
   1   2.0000     -68.927565     -1875.6144
   2   2.0000     -20.643855      -561.7479
   3   2.0000     -20.638012      -561.5889
   4   2.0000     -20.634213      -561.4855
   5   2.0000     -20.628609      -561.3330
   6   2.0000     -20.616091      -560.9924
   7   2.0000     -20.608547      -560.7871
   8   2.0000     -15.854652      -431.4270
   9   2.0000     -15.849144      -431.2771
  10   2.0000     -10.619843      -288.9806
  11   2.0000      -8.086606      -220.0477
  12   2.0000      -8.085324      -220.0129
  13   2.0000      -8.085264      -220.0112
  14   2.0000      -7.702177      -209.5869
  15   2.0000      -6.269101      -170.5909
  16   2.0000      -4.375424      -119.0613
  17   2.0000      -4.375395      -119.0606
  18   2.0000      -4.373599      -119.0117
  19   2.0000      -1.638403       -44.5832
  20   2.0000      -1.631746       -44.4021
  21   2.0000      -1.437835       -39.1255
  22   2.0000      -1.433388       -39.0045
  23   2.0000      -1.430597       -38.9285
  24   2.0000      -1.395787       -37.9813
  25   2.0000      -1.168506       -31.7967
  26   2.0000      -1.011554       -27.5258
  27   2.0000      -0.963392       -26.2152
  28   2.0000      -0.841612       -22.9014
  29   2.0000      -0.825362       -22.4592
  30   2.0000      -0.803440       -21.8627
  31   2.0000      -0.782231       -21.2856
  32   2.0000      -0.759734       -20.6734
  33   2.0000      -0.753200       -20.4956
  34   2.0000      -0.747874       -20.3507
  35   2.0000      -0.732846       -19.9418
  36   2.0000      -0.685647       -18.6574
  37   2.0000      -0.648460       -17.6455
  38   2.0000      -0.620953       -16.8970
  39   2.0000      -0.616475       -16.7751
  40   2.0000      -0.561955       -15.2916
  41   2.0000      -0.546945       -14.8831
  42   2.0000      -0.546288       -14.8653
  43   2.0000      -0.536066       -14.5871
  44   2.0000      -0.529287       -14.4026
  45   2.0000      -0.518459       -14.1080
  46   2.0000      -0.490758       -13.3542
  47   2.0000      -0.488715       -13.2986
  48   2.0000      -0.482422       -13.1274
  49   2.0000      -0.472629       -12.8609
  50   0.0000       0.016459         0.4479
  51   0.0000       0.026854         0.7307
  52   0.0000       0.032701         0.8898
  53   0.0000       0.033711         0.9173
  54   0.0000       0.036386         0.9901

MULLIKEN ATOMIC CHARGES
-----------------------
   0 Si:    1.783258
   1 N :    0.700052
   2 B :    1.369994
   3 N :    0.667060
   4 Cl:   -0.666735
   5 O :   -0.584004
   6 O :   -1.178134
   7 O :   -0.659184
   8 O :   -0.978118
   9 O :   -0.560824
  10 O :   -0.610660
  11 H :    0.336967
  12 H :    0.380327
Sum of atomic charges:   -0.0000000

LOEWDIN ATOMIC CHARGES
----------------------
   0 Si:   -0.892425
   1 N :   -0.869878
   2 B :   -1.216630
   3 N :   -0.918633
   4 Cl:    1.081637
   5 O :    0.463453
   6 O :    1.334976
   7 O :    0.531522
   8 O :    1.298273
   9 O :    0.480238
  10 O :    0.472715
  11 H :   -0.774074
  12 H :   -0.991172

  Mayer bond orders larger than 0.100000
B(  0-Si,  1-N ) :   0.5059 B(  0-Si,  2-B ) :   0.9546 B(  0-Si,  3-N ) :   0.5713
B(  0-Si,  4-Cl) :   0.3342 B(  0-Si,  8-O ) :  -0.1581 B(  1-N ,  7-O ) :   1.1580
B(  1-N ,  9-O ) :   1.3518 B(  2-B ,  6-O ) :   0.5349 B(  2-B ,  8-O ) :   0.4150
B(  3-N ,  5-O ) :   1.2794 B(  3-N , 10-O ) :   1.2810 B(  5-O , 10-O ) :   0.1423
B(  6-O ,  8-O ) :  -0.1216 B(  6-O , 12-H ) :   0.8764 B(  7-O ,  9-O ) :   0.1409
B(  8-O , 11-H ) :   0.9437

MP2 TOTAL ENERGY:    -1335.055840257 Eh
FINAL SINGLE POINT ENERGY     -1335.055840257014

DIPOLE MOMENT
-------------
                                X             Y             Z
Electronic contribution:     -3.58333      -1.27587       4.22092
Nuclear contribution   :      4.99055       0.81580      -3.11677
                        -----------------------------------------
Total Dipole Moment    :      1.40722      -0.46008       1.10415
                        -----------------------------------------
Magnitude (a.u.)       :      1.84691
Magnitude (Debye)      :      4.69448

Rotational constants in cm-1:     0.028825     0.024747     0.022356
Rotational constants in MHz :   864.151175   741.899252   670.226912

                             ****ORCA TERMINATED NORMALLY****
TOTAL RUN TIME: 0 days 0 hours 23 minutes 57 seconds 872 msec
