                         Program Version 5.0.4 -  RELEASE  -
|  1> ! ri-mp2 aug-cc-pvdz aug-cc-pvdz/c tightscf
|  2> %pal nprocs 16 end
|  3> %maxcore 3800
|  4> %base "DZ_S-F_66_AB"
|  5> %scf
|  6> STABPerform true
|  7> STABRestartUHFifUnstable true
|  8> end
|  9>
| 10> *xyz 0 1
| 11> F        -2.364332    0.295612    0.041763
| 12> S        -1.224675   -0.834465   -0.206671
| 13> C         0.253531    0.205260    0.080546
| 14> O         1.212631   -0.799739   -0.087124
| 15> O         0.275194    0.744425    1.358057
| 16> C         2.567375   -0.381791   -0.105152
| 17> H         2.806957    0.151034   -1.027286
| 18> H         3.165552   -1.287256   -0.051483
| 19> H         2.791156    0.252605    0.753721
| 20> C         0.348841    1.353569   -0.895228
| 21> H         0.475953    0.975178   -1.906640
| 22> H         1.184381    2.000034   -0.630096
| 23> H        -0.564311    1.942354   -0.845015
| 24> H         0.093017    0.037264    1.989213
| 25> *
| 26>
| 27> $new_job
| 28> ! ri-mp2 aug-cc-pvtz aug-cc-pvtz/c tightscf
| 29> %pal nprocs 16 end
| 30> %maxcore 3800
| 31> %base "TZ_S-F_66_AB"
| 32>
| 33> *xyz 0 1
| 34> F        -2.364332    0.295612    0.041763
| 35> S        -1.224675   -0.834465   -0.206671
| 36> C         0.253531    0.205260    0.080546
| 37> O         1.212631   -0.799739   -0.087124
| 38> O         0.275194    0.744425    1.358057
| 39> C         2.567375   -0.381791   -0.105152
| 40> H         2.806957    0.151034   -1.027286
| 41> H         3.165552   -1.287256   -0.051483
| 42> H         2.791156    0.252605    0.753721
| 43> C         0.348841    1.353569   -0.895228
| 44> H         0.475953    0.975178   -1.906640
| 45> H         1.184381    2.000034   -0.630096
| 46> H        -0.564311    1.942354   -0.845015
| 47> H         0.093017    0.037264    1.989213
| 48> *
| 49>
| 50> $new_job
| 51> ! ri-mp2 aug-cc-pvqz aug-cc-pvqz/c tightscf
| 52> %pal nprocs 16 end
| 53> %maxcore 3800
| 54> %base "QZ_S-F_66_AB"
| 55>
| 56> *xyz 0 1
| 57> F        -2.364332    0.295612    0.041763
| 58> S        -1.224675   -0.834465   -0.206671
| 59> C         0.253531    0.205260    0.080546
| 60> O         1.212631   -0.799739   -0.087124
| 61> O         0.275194    0.744425    1.358057
| 62> C         2.567375   -0.381791   -0.105152
| 63> H         2.806957    0.151034   -1.027286
| 64> H         3.165552   -1.287256   -0.051483
| 65> H         2.791156    0.252605    0.753721
| 66> C         0.348841    1.353569   -0.895228
| 67> H         0.475953    0.975178   -1.906640
| 68> H         1.184381    2.000034   -0.630096
| 69> H        -0.564311    1.942354   -0.845015
| 70> H         0.093017    0.037264    1.989213
| 71> *
| 72>
| 73>
| 74>
| 75>
| 76>                          ****END OF INPUT****
 Total Charge           Charge          ....    0
 Multiplicity           Mult            ....    1
 Number of Electrons    NEL             ....   66
MP2 TOTAL ENERGY:     -765.568268068 Eh
FINAL SINGLE POINT ENERGY      -765.568268067864
MP2 TOTAL ENERGY:     -765.943275722 Eh
FINAL SINGLE POINT ENERGY      -765.943275721505

CARTESIAN COORDINATES (ANGSTROEM)
---------------------------------
  F     -2.364332    0.295612    0.041763
  S     -1.224675   -0.834465   -0.206671
  C      0.253531    0.205260    0.080546
  O      1.212631   -0.799739   -0.087124
  O      0.275194    0.744425    1.358057
  C      2.567375   -0.381791   -0.105152
  H      2.806957    0.151034   -1.027286
  H      3.165552   -1.287256   -0.051483
  H      2.791156    0.252605    0.753721
  C      0.348841    1.353569   -0.895228
  H      0.475953    0.975178   -1.906640
  H      1.184381    2.000034   -0.630096
  H     -0.564311    1.942354   -0.845015
  H      0.093017    0.037264    1.989213

 Multiplicity           Mult            ....    1
 Number of Electrons    NEL             ....   66
 Basis Dimension        Dim             ....  886

ORBITAL ENERGIES
----------------

  NO   OCC          E(Eh)            E(eV)
   0   2.0000     -92.023563     -2504.0885
   1   2.0000     -26.301948      -715.7124
   2   2.0000     -20.585458      -560.1588
   3   2.0000     -20.584546      -560.1340
   4   2.0000     -11.386367      -309.8388
   5   2.0000     -11.287619      -307.1517
   6   2.0000     -11.231600      -305.6274
   7   2.0000      -9.018908      -245.4170
   8   2.0000      -6.700395      -182.3270
   9   2.0000      -6.698177      -182.2667
  10   2.0000      -6.697010      -182.2349
  11   2.0000      -1.601582       -43.5813
  12   2.0000      -1.449052       -39.4307
  13   2.0000      -1.368933       -37.2506
  14   2.0000      -1.059186       -28.8219
  15   2.0000      -0.981562       -26.7097
  16   2.0000      -0.934776       -25.4365
  17   2.0000      -0.817420       -22.2431
  18   2.0000      -0.744761       -20.2660
  19   2.0000      -0.717894       -19.5349
  20   2.0000      -0.688258       -18.7285
  21   2.0000      -0.678183       -18.4543
  22   2.0000      -0.670238       -18.2381
  23   2.0000      -0.618691       -16.8354
  24   2.0000      -0.612370       -16.6634
  25   2.0000      -0.602888       -16.4054
  26   2.0000      -0.570745       -15.5308
  27   2.0000      -0.559732       -15.2311
  28   2.0000      -0.543549       -14.7907
  29   2.0000      -0.498703       -13.5704
  30   2.0000      -0.467712       -12.7271
  31   2.0000      -0.445496       -12.1226
  32   2.0000      -0.373744       -10.1701
  33   0.0000       0.023438         0.6378
  34   0.0000       0.033497         0.9115
  35   0.0000       0.035151         0.9565
  36   0.0000       0.040529         1.1029
  37   0.0000       0.050203         1.3661

MULLIKEN ATOMIC CHARGES
-----------------------
   0 F :   -0.672577
   1 S :    0.413675
   2 C :    1.565513
   3 O :   -0.851009
   4 O :   -0.894116
   5 C :   -0.644032
   6 H :    0.257423
   7 H :    0.422705
   8 H :    0.256784
   9 C :   -1.070360
  10 H :    0.278072
  11 H :    0.245325
  12 H :    0.349051
  13 H :    0.343546
Sum of atomic charges:    0.0000000

LOEWDIN ATOMIC CHARGES
----------------------
   0 F :    0.092906
   1 S :    0.701961
   2 C :   -1.464651
   3 O :    0.766690
   4 O :    1.228667
   5 C :    0.574839
   6 H :   -0.315973
   7 H :   -0.318228
   8 H :   -0.311930
   9 C :    0.778963
  10 H :   -0.302003
  11 H :   -0.299669
  12 H :   -0.316186
  13 H :   -0.815385

  Mayer bond orders larger than 0.100000
B(  0-F ,  1-S ) :   0.5984 B(  0-F ,  2-C ) :  -0.1630 B(  1-S ,  2-C ) :   0.5939
B(  1-S ,  3-O ) :   0.1101 B(  2-C ,  3-O ) :   0.4207 B(  2-C ,  4-O ) :   0.3407
B(  2-C ,  9-C ) :   0.8109 B(  3-O ,  5-C ) :   0.8415 B(  4-O ,  9-C ) :   0.1241
B(  4-O , 13-H ) :   0.8909 B(  5-C ,  6-H ) :   0.9308 B(  5-C ,  7-H ) :   0.8349
B(  5-C ,  8-H ) :   0.9202 B(  9-C , 10-H ) :   0.9708 B(  9-C , 11-H ) :   0.9348
B(  9-C , 12-H ) :   0.9113

MP2 TOTAL ENERGY:     -766.064831020 Eh
FINAL SINGLE POINT ENERGY      -766.064831019668

DIPOLE MOMENT
-------------
                                X             Y             Z
Electronic contribution:    -11.02356      -3.70983       1.63134
Nuclear contribution   :     12.13434       3.73804      -1.70231
                        -----------------------------------------
Total Dipole Moment    :      1.11077       0.02820      -0.07097
                        -----------------------------------------
Magnitude (a.u.)       :      1.11340
Magnitude (Debye)      :      2.83003

Rotational constants in cm-1:     0.130654     0.049937     0.046100
Rotational constants in MHz :  3916.917711  1497.069856  1382.032053

                             ****ORCA TERMINATED NORMALLY****
TOTAL RUN TIME: 0 days 1 hours 21 minutes 57 seconds 31 msec
