                         Program Version 5.0.4 -  RELEASE  -
|  1> ! ri-mp2 aug-cc-pvdz aug-cc-pvdz/c tightscf
|  2> %pal nprocs 16 end
|  3> %maxcore 3800
|  4> %base "DZ_B-P_34_AB"
|  5> %scf
|  6> STABPerform true
|  7> STABRestartUHFifUnstable true
|  8> end
|  9>
| 10> *xyz 0 1
| 11> C        -0.234362    2.124194    0.204126
| 12> B        -0.340947    0.579963   -0.098103
| 13> H        -1.170536    2.677803    0.145322
| 14> H         0.469886    2.605371   -0.476395
| 15> H         0.174747    2.281518    1.207291
| 16> P         1.274785   -0.417797   -0.524787
| 17> N        -1.559665   -0.107131   -0.093869
| 18> C        -2.831576    0.469209    0.296360
| 19> H        -2.711864    1.490547    0.638986
| 20> H        -3.277772   -0.111340    1.109161
| 21> H        -3.536113    0.461007   -0.540868
| 22> C        -1.706657   -1.502355   -0.460954
| 23> H        -2.533149   -1.617325   -1.167487
| 24> H        -0.804380   -1.873490   -0.939760
| 25> H        -1.927788   -2.123970    0.412139
| 26> C         1.431461   -1.487675    0.980040
| 27> H         1.381776   -0.917120    1.908546
| 28> H         2.387313   -2.010704    0.947518
| 29> H         0.644768   -2.239925    0.994923
| 30> C         2.618964    0.793380   -0.167264
| 31> H         3.577750    0.277108   -0.216710
| 32> H         2.629804    1.571825   -0.929018
| 33> H         2.529203    1.265238    0.811903
| 34> *
| 35>
| 36> $new_job
| 37> ! ri-mp2 aug-cc-pvtz aug-cc-pvtz/c tightscf
| 38> %pal nprocs 16 end
| 39> %maxcore 3800
| 40> %base "TZ_B-P_34_AB"
| 41>
| 42> *xyz 0 1
| 43> C        -0.234362    2.124194    0.204126
| 44> B        -0.340947    0.579963   -0.098103
| 45> H        -1.170536    2.677803    0.145322
| 46> H         0.469886    2.605371   -0.476395
| 47> H         0.174747    2.281518    1.207291
| 48> P         1.274785   -0.417797   -0.524787
| 49> N        -1.559665   -0.107131   -0.093869
| 50> C        -2.831576    0.469209    0.296360
| 51> H        -2.711864    1.490547    0.638986
| 52> H        -3.277772   -0.111340    1.109161
| 53> H        -3.536113    0.461007   -0.540868
| 54> C        -1.706657   -1.502355   -0.460954
| 55> H        -2.533149   -1.617325   -1.167487
| 56> H        -0.804380   -1.873490   -0.939760
| 57> H        -1.927788   -2.123970    0.412139
| 58> C         1.431461   -1.487675    0.980040
| 59> H         1.381776   -0.917120    1.908546
| 60> H         2.387313   -2.010704    0.947518
| 61> H         0.644768   -2.239925    0.994923
| 62> C         2.618964    0.793380   -0.167264
| 63> H         3.577750    0.277108   -0.216710
| 64> H         2.629804    1.571825   -0.929018
| 65> H         2.529203    1.265238    0.811903
| 66> *
| 67>
| 68> $new_job
| 69> ! ri-mp2 aug-cc-pvqz aug-cc-pvqz/c tightscf
| 70> %pal nprocs 16 end
| 71> %maxcore 3800
| 72> %base "QZ_B-P_34_AB"
| 73>
| 74> *xyz 0 1
| 75> C        -0.234362    2.124194    0.204126
| 76> B        -0.340947    0.579963   -0.098103
| 77> H        -1.170536    2.677803    0.145322
| 78> H         0.469886    2.605371   -0.476395
| 79> H         0.174747    2.281518    1.207291
| 80> P         1.274785   -0.417797   -0.524787
| 81> N        -1.559665   -0.107131   -0.093869
| 82> C        -2.831576    0.469209    0.296360
| 83> H        -2.711864    1.490547    0.638986
| 84> H        -3.277772   -0.111340    1.109161
| 85> H        -3.536113    0.461007   -0.540868
| 86> C        -1.706657   -1.502355   -0.460954
| 87> H        -2.533149   -1.617325   -1.167487
| 88> H        -0.804380   -1.873490   -0.939760
| 89> H        -1.927788   -2.123970    0.412139
| 90> C         1.431461   -1.487675    0.980040
| 91> H         1.381776   -0.917120    1.908546
| 92> H         2.387313   -2.010704    0.947518
| 93> H         0.644768   -2.239925    0.994923
| 94> C         2.618964    0.793380   -0.167264
| 95> H         3.577750    0.277108   -0.216710
| 96> H         2.629804    1.571825   -0.929018
| 97> H         2.529203    1.265238    0.811903
| 98> *
| 99>
|100>
|101>
|102>
|103>                          ****END OF INPUT****
 Total Charge           Charge          ....    0
 Multiplicity           Mult            ....    1
 Number of Electrons    NEL             ....   72
MP2 TOTAL ENERGY:     -619.169662361 Eh
FINAL SINGLE POINT ENERGY      -619.169662361434
MP2 TOTAL ENERGY:     -619.483378543 Eh
FINAL SINGLE POINT ENERGY      -619.483378542657

CARTESIAN COORDINATES (ANGSTROEM)
---------------------------------
  C     -0.234362    2.124194    0.204126
  B     -0.340947    0.579963   -0.098103
  H     -1.170536    2.677803    0.145322
  H      0.469886    2.605371   -0.476395
  H      0.174747    2.281518    1.207291
  P      1.274785   -0.417797   -0.524787
  N     -1.559665   -0.107131   -0.093869
  C     -2.831576    0.469209    0.296360
  H     -2.711864    1.490547    0.638986
  H     -3.277772   -0.111340    1.109161
  H     -3.536113    0.461007   -0.540868
  C     -1.706657   -1.502355   -0.460954
  H     -2.533149   -1.617325   -1.167487
  H     -0.804380   -1.873490   -0.939760
  H     -1.927788   -2.123970    0.412139
  C      1.431461   -1.487675    0.980040
  H      1.381776   -0.917120    1.908546
  H      2.387313   -2.010704    0.947518
  H      0.644768   -2.239925    0.994923
  C      2.618964    0.793380   -0.167264
  H      3.577750    0.277108   -0.216710
  H      2.629804    1.571825   -0.929018
  H      2.529203    1.265238    0.811903

 Multiplicity           Mult            ....    1
 Number of Electrons    NEL             ....   72
 Basis Dimension        Dim             .... 1334

ORBITAL ENERGIES
----------------

  NO   OCC          E(Eh)            E(eV)
   0   2.0000     -79.896833     -2174.1034
   1   2.0000     -15.554935      -423.2713
   2   2.0000     -11.249325      -306.1097
   3   2.0000     -11.247480      -306.0595
   4   2.0000     -11.212950      -305.1199
   5   2.0000     -11.208369      -304.9952
   6   2.0000     -11.186901      -304.4110
   7   2.0000      -7.580623      -206.2792
   8   2.0000      -7.441061      -202.4816
   9   2.0000      -5.335579      -145.1885
  10   2.0000      -5.335143      -145.1766
  11   2.0000      -5.334542      -145.1603
  12   2.0000      -1.217444       -33.1283
  13   2.0000      -0.992021       -26.9943
  14   2.0000      -0.964645       -26.2493
  15   2.0000      -0.938719       -25.5438
  16   2.0000      -0.924211       -25.1491
  17   2.0000      -0.876557       -23.8523
  18   2.0000      -0.741237       -20.1701
  19   2.0000      -0.677478       -18.4351
  20   2.0000      -0.632998       -17.2248
  21   2.0000      -0.618544       -16.8314
  22   2.0000      -0.592456       -16.1215
  23   2.0000      -0.576501       -15.6874
  24   2.0000      -0.557779       -15.1779
  25   2.0000      -0.550065       -14.9680
  26   2.0000      -0.549299       -14.9472
  27   2.0000      -0.543502       -14.7894
  28   2.0000      -0.534323       -14.5397
  29   2.0000      -0.529630       -14.4120
  30   2.0000      -0.512013       -13.9326
  31   2.0000      -0.491262       -13.3679
  32   2.0000      -0.448261       -12.1978
  33   2.0000      -0.410136       -11.1604
  34   2.0000      -0.380265       -10.3475
  35   2.0000      -0.303824        -8.2675
  36   0.0000       0.021860         0.5949
  37   0.0000       0.029983         0.8159
  38   0.0000       0.031448         0.8557
  39   0.0000       0.034190         0.9304
  40   0.0000       0.042185         1.1479

MULLIKEN ATOMIC CHARGES
-----------------------
   0 C :   -1.129507
   1 B :    0.264019
   2 H :    0.312817
   3 H :    0.368418
   4 H :    0.338051
   5 P :    0.501739
   6 N :   -0.158297
   7 C :   -1.060786
   8 H :    0.335475
   9 H :    0.315442
  10 H :    0.378586
  11 C :   -0.951105
  12 H :    0.296165
  13 H :    0.254494
  14 H :    0.356384
  15 C :   -1.236425
  16 H :    0.275452
  17 H :    0.380367
  18 H :    0.366751
  19 C :   -1.170528
  20 H :    0.352682
  21 H :    0.301350
  22 H :    0.308455
Sum of atomic charges:   -0.0000000

LOEWDIN ATOMIC CHARGES
----------------------
   0 C :    1.020540
   1 B :   -0.868631
   2 H :   -0.321388
   3 H :   -0.319194
   4 H :   -0.283341
   5 P :    1.078048
   6 N :    0.541955
   7 C :    0.770748
   8 H :   -0.335169
   9 H :   -0.267428
  10 H :   -0.265367
  11 C :    0.724182
  12 H :   -0.271973
  13 H :   -0.378368
  14 H :   -0.261253
  15 C :    0.785987
  16 H :   -0.330352
  17 H :   -0.348837
  18 H :   -0.369323
  19 C :    0.758551
  20 H :   -0.354193
  21 H :   -0.359059
  22 H :   -0.346136

  Mayer bond orders larger than 0.100000
B(  0-C ,  1-B ) :   0.7841 B(  0-C ,  2-H ) :   0.8803 B(  0-C ,  3-H ) :   0.8900
B(  0-C ,  4-H ) :   0.9150 B(  0-C ,  6-N ) :   0.1230 B(  1-B ,  5-P ) :   1.0801
B(  1-B ,  6-N ) :   1.0415 B(  5-P ,  6-N ) :  -0.1480 B(  5-P , 15-C ) :   0.8177
B(  5-P , 19-C ) :   0.9245 B(  6-N ,  7-C ) :   0.9632 B(  6-N , 11-C ) :   0.7729
B(  7-C ,  8-H ) :   0.9102 B(  7-C ,  9-H ) :   0.9596 B(  7-C , 10-H ) :   0.8978
B( 11-C , 12-H ) :   0.9347 B( 11-C , 13-H ) :   0.9791 B( 11-C , 14-H ) :   0.9011
B( 15-C , 16-H ) :   0.9022 B( 15-C , 17-H ) :   0.8687 B( 15-C , 18-H ) :   0.8533
B( 19-C , 20-H ) :   0.9204 B( 19-C , 21-H ) :   0.9247 B( 19-C , 22-H ) :   0.8465

MP2 TOTAL ENERGY:     -619.577967292 Eh
FINAL SINGLE POINT ENERGY      -619.577967292216

DIPOLE MOMENT
-------------
                                X             Y             Z
Electronic contribution:      2.64224      -1.62971      -4.12778
Nuclear contribution   :     -3.21605       1.72062       4.62953
                        -----------------------------------------
Total Dipole Moment    :     -0.57381       0.09092       0.50175
                        -----------------------------------------
Magnitude (a.u.)       :      0.76765
Magnitude (Debye)      :      1.95120

Rotational constants in cm-1:     0.079646     0.038295     0.029252
Rotational constants in MHz :  2387.718176  1148.055715   876.953464

                             ****ORCA TERMINATED NORMALLY****
TOTAL RUN TIME: 0 days 5 hours 16 minutes 2 seconds 194 msec
