                         Program Version 5.0.4 -  RELEASE  -
|  1> ! ri-mp2 aug-cc-pvdz aug-cc-pvdz/c tightscf
|  2> %pal nprocs 16 end
|  3> %maxcore 3800
|  4> %base "DZ_B-B_44_AB"
|  5> %scf
|  6> STABPerform true
|  7> STABRestartUHFifUnstable true
|  8> end
|  9>
| 10> *xyz 0 1
| 11> B        -0.444268    1.161482    0.724539
| 12> B         0.444268    1.161482   -0.724538
| 13> O         1.575857    0.384215   -0.906401
| 14> C         1.987249   -0.434118    0.004221
| 15> N         2.368065   -1.162565    0.803587
| 16> O        -1.575857    0.384213    0.906402
| 17> C        -1.987250   -0.434118   -0.004221
| 18> N        -2.368065   -1.162563   -0.803589
| 19> H         0.202491    1.861537   -1.652689
| 20> H        -0.202488    1.861532    1.652693
| 21> *
| 22>
| 23> $new_job
| 24> ! ri-mp2 aug-cc-pvtz aug-cc-pvtz/c tightscf
| 25> %pal nprocs 16 end
| 26> %maxcore 3800
| 27> %base "TZ_B-B_44_AB"
| 28>
| 29> *xyz 0 1
| 30> B        -0.444268    1.161482    0.724539
| 31> B         0.444268    1.161482   -0.724538
| 32> O         1.575857    0.384215   -0.906401
| 33> C         1.987249   -0.434118    0.004221
| 34> N         2.368065   -1.162565    0.803587
| 35> O        -1.575857    0.384213    0.906402
| 36> C        -1.987250   -0.434118   -0.004221
| 37> N        -2.368065   -1.162563   -0.803589
| 38> H         0.202491    1.861537   -1.652689
| 39> H        -0.202488    1.861532    1.652693
| 40> *
| 41>
| 42> $new_job
| 43> ! ri-mp2 aug-cc-pvqz aug-cc-pvqz/c tightscf
| 44> %pal nprocs 16 end
| 45> %maxcore 3800
| 46> %base "QZ_B-B_44_AB"
| 47>
| 48> *xyz 0 1
| 49> B        -0.444268    1.161482    0.724539
| 50> B         0.444268    1.161482   -0.724538
| 51> O         1.575857    0.384215   -0.906401
| 52> C         1.987249   -0.434118    0.004221
| 53> N         2.368065   -1.162565    0.803587
| 54> O        -1.575857    0.384213    0.906402
| 55> C        -1.987250   -0.434118   -0.004221
| 56> N        -2.368065   -1.162563   -0.803589
| 57> H         0.202491    1.861537   -1.652689
| 58> H        -0.202488    1.861532    1.652693
| 59> *
| 60>
| 61>
| 62>
| 63>
| 64>                          ****END OF INPUT****
 Total Charge           Charge          ....    0
 Multiplicity           Mult            ....    1
 Number of Electrons    NEL             ....   54
MP2 TOTAL ENERGY:     -386.035427907 Eh
FINAL SINGLE POINT ENERGY      -386.035427906873
MP2 TOTAL ENERGY:     -386.360262376 Eh
FINAL SINGLE POINT ENERGY      -386.360262375682

CARTESIAN COORDINATES (ANGSTROEM)
---------------------------------
  B     -0.444268    1.161482    0.724539
  B      0.444268    1.161482   -0.724538
  O      1.575857    0.384215   -0.906401
  C      1.987249   -0.434118    0.004221
  N      2.368065   -1.162565    0.803587
  O     -1.575857    0.384213    0.906402
  C     -1.987250   -0.434118   -0.004221
  N     -2.368065   -1.162563   -0.803589
  H      0.202491    1.861537   -1.652689
  H     -0.202488    1.861532    1.652693

 Multiplicity           Mult            ....    1
 Number of Electrons    NEL             ....   54
 Basis Dimension        Dim             ....  732

ORBITAL ENERGIES
----------------

  NO   OCC          E(Eh)            E(eV)
   0   2.0000     -20.690807      -563.0255
   1   2.0000     -20.690807      -563.0255
   2   2.0000     -15.591641      -424.2701
   3   2.0000     -15.591640      -424.2701
   4   2.0000     -11.359058      -309.0957
   5   2.0000     -11.359058      -309.0957
   6   2.0000      -7.692974      -209.3365
   7   2.0000      -7.692245      -209.3166
   8   2.0000      -1.517931       -41.3050
   9   2.0000      -1.515604       -41.2417
  10   2.0000      -1.247086       -33.9349
  11   2.0000      -1.247051       -33.9340
  12   2.0000      -0.924504       -25.1570
  13   2.0000      -0.914124       -24.8746
  14   2.0000      -0.779259       -21.2047
  15   2.0000      -0.734421       -19.9846
  16   2.0000      -0.701930       -19.1005
  17   2.0000      -0.696522       -18.9533
  18   2.0000      -0.670912       -18.2564
  19   2.0000      -0.611799       -16.6479
  20   2.0000      -0.588195       -16.0056
  21   2.0000      -0.584373       -15.9016
  22   2.0000      -0.504264       -13.7217
  23   2.0000      -0.490571       -13.3491
  24   2.0000      -0.480617       -13.0782
  25   2.0000      -0.479427       -13.0459
  26   2.0000      -0.477237       -12.9863
  27   0.0000       0.016087         0.4378
  28   0.0000       0.020317         0.5528
  29   0.0000       0.023349         0.6354
  30   0.0000       0.026156         0.7117
  31   0.0000       0.044764         1.2181

MULLIKEN ATOMIC CHARGES
-----------------------
   0 B :    0.916840
   1 B :    0.916842
   2 O :   -0.880081
   3 C :    0.872526
   4 N :   -0.644814
   5 O :   -0.880080
   6 C :    0.872526
   7 N :   -0.644814
   8 H :   -0.264473
   9 H :   -0.264472
Sum of atomic charges:    0.0000000

LOEWDIN ATOMIC CHARGES
----------------------
   0 B :   -0.320021
   1 B :   -0.320023
   2 O :    0.854880
   3 C :   -0.740821
   4 N :    0.389285
   5 O :    0.854879
   6 C :   -0.740822
   7 N :    0.389285
   8 H :   -0.183320
   9 H :   -0.183320

  Mayer bond orders larger than 0.100000
B(  0-B ,  1-B ) :   0.9446 B(  0-B ,  5-O ) :   0.5763 B(  0-B ,  9-H ) :   0.8945
B(  1-B ,  2-O ) :   0.5763 B(  1-B ,  8-H ) :   0.8945 B(  2-O ,  3-C ) :   1.1203
B(  3-C ,  4-N ) :   2.6428 B(  5-O ,  6-C ) :   1.1203 B(  6-C ,  7-N ) :   2.6428

MP2 TOTAL ENERGY:     -386.465329414 Eh
FINAL SINGLE POINT ENERGY      -386.465329414092

DIPOLE MOMENT
-------------
                                X             Y             Z
Electronic contribution:     -0.00000       0.16163      -0.00000
Nuclear contribution   :      0.00000       1.74225       0.00000
                        -----------------------------------------
Total Dipole Moment    :      0.00000       1.90387       0.00000
                        -----------------------------------------
Magnitude (a.u.)       :      1.90387
Magnitude (Debye)      :      4.83926

Rotational constants in cm-1:     0.116687     0.042462     0.040232
Rotational constants in MHz :  3498.186576  1272.970334  1206.135327

                             ****ORCA TERMINATED NORMALLY****
TOTAL RUN TIME: 0 days 0 hours 37 minutes 36 seconds 448 msec
