                         Program Version 5.0.4 -  RELEASE  -
|  1> ! ri-mp2 aug-cc-pvdz aug-cc-pvdz/c tightscf
|  2> %pal nprocs 16 end
|  3> %maxcore 3800
|  4> %base "DZ_P-S_3_AB"
|  5> %scf
|  6> STABPerform true
|  7> STABRestartUHFifUnstable true
|  8> end
|  9>
| 10> *xyz 0 1
| 11> S        -0.584122    1.327415   -0.313040
| 12> P        -1.873050   -0.332058   -0.089505
| 13> O        -1.564459   -1.402746   -1.022203
| 14> O        -3.263327    0.413693   -0.197041
| 15> O         0.821331    0.531868   -0.783674
| 16> C         1.663232    0.139607    0.203638
| 17> Cl         3.032450   -0.662319   -0.534465
| 18> F         1.054108   -0.713518    1.058769
| 19> F         2.081671    1.168273    0.945761
| 20> H        -3.589195    0.468966   -1.103704
| 21> O        -1.937196   -0.692642    1.444414
| 22> H        -1.172947   -1.199117    1.746251
| 23> *
| 24>
| 25> $new_job
| 26> ! ri-mp2 aug-cc-pvtz aug-cc-pvtz/c tightscf
| 27> %pal nprocs 16 end
| 28> %maxcore 3800
| 29> %base "TZ_P-S_3_AB"
| 30>
| 31> *xyz 0 1
| 32> S        -0.584122    1.327415   -0.313040
| 33> P        -1.873050   -0.332058   -0.089505
| 34> O        -1.564459   -1.402746   -1.022203
| 35> O        -3.263327    0.413693   -0.197041
| 36> O         0.821331    0.531868   -0.783674
| 37> C         1.663232    0.139607    0.203638
| 38> Cl         3.032450   -0.662319   -0.534465
| 39> F         1.054108   -0.713518    1.058769
| 40> F         2.081671    1.168273    0.945761
| 41> H        -3.589195    0.468966   -1.103704
| 42> O        -1.937196   -0.692642    1.444414
| 43> H        -1.172947   -1.199117    1.746251
| 44> *
| 45>
| 46> $new_job
| 47> ! ri-mp2 aug-cc-pvqz aug-cc-pvqz/c tightscf
| 48> %pal nprocs 16 end
| 49> %maxcore 3800
| 50> %base "QZ_P-S_3_AB"
| 51>
| 52> *xyz 0 1
| 53> S        -0.584122    1.327415   -0.313040
| 54> P        -1.873050   -0.332058   -0.089505
| 55> O        -1.564459   -1.402746   -1.022203
| 56> O        -3.263327    0.413693   -0.197041
| 57> O         0.821331    0.531868   -0.783674
| 58> C         1.663232    0.139607    0.203638
| 59> Cl         3.032450   -0.662319   -0.534465
| 60> F         1.054108   -0.713518    1.058769
| 61> F         2.081671    1.168273    0.945761
| 62> H        -3.589195    0.468966   -1.103704
| 63> O        -1.937196   -0.692642    1.444414
| 64> H        -1.172947   -1.199117    1.746251
| 65> *
| 66>
| 67>
| 68>
| 69>
| 70>                          ****END OF INPUT****
 Total Charge           Charge          ....    0
 Multiplicity           Mult            ....    1
 Number of Electrons    NEL             ....  106
MP2 TOTAL ENERGY:    -1736.998865261 Eh
FINAL SINGLE POINT ENERGY     -1736.998865260994
MP2 TOTAL ENERGY:    -1737.641717134 Eh
FINAL SINGLE POINT ENERGY     -1737.641717134117

CARTESIAN COORDINATES (ANGSTROEM)
---------------------------------
  S     -0.584122    1.327415   -0.313040
  P     -1.873050   -0.332058   -0.089505
  O     -1.564459   -1.402746   -1.022203
  O     -3.263327    0.413693   -0.197041
  O      0.821331    0.531868   -0.783674
  C      1.663232    0.139607    0.203638
  Cl     3.032450   -0.662319   -0.534465
  F      1.054108   -0.713518    1.058769
  F      2.081671    1.168273    0.945761
  H     -3.589195    0.468966   -1.103704
  O     -1.937196   -0.692642    1.444414
  H     -1.172947   -1.199117    1.746251

 Multiplicity           Mult            ....    1
 Number of Electrons    NEL             ....  106
 Basis Dimension        Dim             ....  904

ORBITAL ENERGIES
----------------

  NO   OCC          E(Eh)            E(eV)
   0   2.0000    -104.874807     -2853.7886
   1   2.0000     -92.045343     -2504.6811
   2   2.0000     -80.112504     -2179.9720
   3   2.0000     -26.364196      -717.4062
   4   2.0000     -26.358617      -717.2544
   5   2.0000     -20.658130      -562.1363
   6   2.0000     -20.633186      -561.4575
   7   2.0000     -20.624185      -561.2126
   8   2.0000     -20.535062      -558.7874
   9   2.0000     -11.556171      -314.4594
  10   2.0000     -10.601016      -288.4683
  11   2.0000      -9.043126      -246.0760
  12   2.0000      -8.068101      -219.5442
  13   2.0000      -8.066039      -219.4881
  14   2.0000      -8.066029      -219.4878
  15   2.0000      -7.633010      -207.7048
  16   2.0000      -6.724449      -182.9816
  17   2.0000      -6.722634      -182.9322
  18   2.0000      -6.721730      -182.9076
  19   2.0000      -5.531465      -150.5188
  20   2.0000      -5.530883      -150.5030
  21   2.0000      -5.529873      -150.4755
  22   2.0000      -1.734582       -47.2004
  23   2.0000      -1.658797       -45.1382
  24   2.0000      -1.475472       -40.1496
  25   2.0000      -1.468994       -39.9734
  26   2.0000      -1.414756       -38.4975
  27   2.0000      -1.330336       -36.2003
  28   2.0000      -1.178234       -32.0614
  29   2.0000      -1.027749       -27.9665
  30   2.0000      -0.941978       -25.6325
  31   2.0000      -0.883098       -24.0303
  32   2.0000      -0.839266       -22.8376
  33   2.0000      -0.819703       -22.3053
  34   2.0000      -0.799838       -21.7647
  35   2.0000      -0.747257       -20.3339
  36   2.0000      -0.737226       -20.0609
  37   2.0000      -0.721513       -19.6334
  38   2.0000      -0.698096       -18.9961
  39   2.0000      -0.684415       -18.6239
  40   2.0000      -0.663895       -18.0655
  41   2.0000      -0.657440       -17.8899
  42   2.0000      -0.633739       -17.2449
  43   2.0000      -0.618047       -16.8179
  44   2.0000      -0.595762       -16.2115
  45   2.0000      -0.588078       -16.0024
  46   2.0000      -0.572134       -15.5685
  47   2.0000      -0.519913       -14.1476
  48   2.0000      -0.498678       -13.5697
  49   2.0000      -0.497866       -13.5476
  50   2.0000      -0.495582       -13.4855
  51   2.0000      -0.459385       -12.5005
  52   2.0000      -0.419416       -11.4129
  53   0.0000       0.022542         0.6134
  54   0.0000       0.033141         0.9018
  55   0.0000       0.045861         1.2479
  56   0.0000       0.049181         1.3383
  57   0.0000       0.064256         1.7485

MULLIKEN ATOMIC CHARGES
-----------------------
   0 S :    0.210412
   1 P :    2.377794
   2 O :   -1.113130
   3 O :   -0.971755
   4 O :   -0.675580
   5 C :    1.519864
   6 Cl:   -0.127764
   7 F :   -0.583071
   8 F :   -0.563224
   9 H :    0.390081
  10 O :   -0.873303
  11 H :    0.409677
Sum of atomic charges:   -0.0000000

LOEWDIN ATOMIC CHARGES
----------------------
   0 S :    0.822554
   1 P :   -1.077829
   2 O :    0.258446
   3 O :    1.042659
   4 O :    0.127913
   5 C :   -2.915460
   6 Cl:    1.101530
   7 F :    0.682864
   8 F :    0.677488
   9 H :   -0.862034
  10 O :    1.055970
  11 H :   -0.914100

  Mayer bond orders larger than 0.100000
B(  0-S ,  1-P ) :   0.9192 B(  0-S ,  4-O ) :   0.7168 B(  1-P ,  2-O ) :   1.4062
B(  1-P ,  3-O ) :   0.5471 B(  1-P , 10-O ) :   0.6813 B(  3-O ,  9-H ) :   0.9002
B(  4-O ,  5-C ) :   0.9116 B(  5-C ,  6-Cl) :   0.9159 B(  5-C ,  7-F ) :   0.4835
B(  5-C ,  8-F ) :   0.5031 B( 10-O , 11-H ) :   0.8682

MP2 TOTAL ENERGY:    -1737.853483355 Eh
FINAL SINGLE POINT ENERGY     -1737.853483354816

DIPOLE MOMENT
-------------
                                X             Y             Z
Electronic contribution:      9.39818       0.54776       0.65556
Nuclear contribution   :     -9.73469       0.02362      -0.45139
                        -----------------------------------------
Total Dipole Moment    :     -0.33651       0.57138       0.20417
                        -----------------------------------------
Magnitude (a.u.)       :      0.69383
Magnitude (Debye)      :      1.76357

Rotational constants in cm-1:     0.060961     0.016970     0.016269
Rotational constants in MHz :  1827.557320   508.744400   487.730442

                             ****ORCA TERMINATED NORMALLY****
TOTAL RUN TIME: 0 days 1 hours 11 minutes 11 seconds 328 msec
