                         Program Version 5.0.4 -  RELEASE  -
|  1> ! ri-mp2 aug-cc-pvdz aug-cc-pvdz/c tightscf
|  2> %pal nprocs 16 end
|  3> %maxcore 3800
|  4> %base "DZ_Si-Cl_59_AB"
|  5> %scf
|  6> STABPerform true
|  7> STABRestartUHFifUnstable true
|  8> end
|  9>
| 10> *xyz 0 1
| 11> Si        -0.549424   -0.058354    0.000000
| 12> F        -0.549424   -0.989412    1.271429
| 13> F        -0.549424   -0.989412   -1.271429
| 14> Cl         1.136761    1.049941    0.000000
| 15> H        -1.743380    0.777387    0.000000
| 16> *
| 17>
| 18> $new_job
| 19> ! ri-mp2 aug-cc-pvtz aug-cc-pvtz/c tightscf
| 20> %pal nprocs 16 end
| 21> %maxcore 3800
| 22> %base "TZ_Si-Cl_59_AB"
| 23>
| 24> *xyz 0 1
| 25> Si        -0.549424   -0.058354    0.000000
| 26> F        -0.549424   -0.989412    1.271429
| 27> F        -0.549424   -0.989412   -1.271429
| 28> Cl         1.136761    1.049941    0.000000
| 29> H        -1.743380    0.777387    0.000000
| 30> *
| 31>
| 32> $new_job
| 33> ! ri-mp2 aug-cc-pvqz aug-cc-pvqz/c tightscf
| 34> %pal nprocs 16 end
| 35> %maxcore 3800
| 36> %base "QZ_Si-Cl_59_AB"
| 37>
| 38> *xyz 0 1
| 39> Si        -0.549424   -0.058354    0.000000
| 40> F        -0.549424   -0.989412    1.271429
| 41> F        -0.549424   -0.989412   -1.271429
| 42> Cl         1.136761    1.049941    0.000000
| 43> H        -1.743380    0.777387    0.000000
| 44> *
| 45>
| 46>
| 47>
| 48>
| 49>                          ****END OF INPUT****
 Total Charge           Charge          ....    0
 Multiplicity           Mult            ....    1
 Number of Electrons    NEL             ....   50
MP2 TOTAL ENERGY:     -948.750429766 Eh
FINAL SINGLE POINT ENERGY      -948.750429766468
MP2 TOTAL ENERGY:     -949.029333931 Eh
FINAL SINGLE POINT ENERGY      -949.029333931387

CARTESIAN COORDINATES (ANGSTROEM)
---------------------------------
  Si    -0.549424   -0.058354    0.000000
  F     -0.549424   -0.989412    1.271429
  F     -0.549424   -0.989412   -1.271429
  Cl     1.136761    1.049941    0.000000
  H     -1.743380    0.777387    0.000000

 Multiplicity           Mult            ....    1
 Number of Electrons    NEL             ....   50
 Basis Dimension        Dim             ....  374

ORBITAL ENERGIES
----------------

  NO   OCC          E(Eh)            E(eV)
   0   2.0000    -104.855595     -2853.2658
   1   2.0000     -68.896448     -1874.7677
   2   2.0000     -26.316343      -716.1041
   3   2.0000     -26.316335      -716.1039
   4   2.0000     -10.583368      -287.9881
   5   2.0000      -8.050167      -219.0562
   6   2.0000      -8.048998      -219.0244
   7   2.0000      -8.048994      -219.0243
   8   2.0000      -6.231839      -169.5770
   9   2.0000      -4.340154      -118.1016
  10   2.0000      -4.340104      -118.1002
  11   2.0000      -4.338766      -118.0638
  12   2.0000      -1.632816       -44.4312
  13   2.0000      -1.613354       -43.9016
  14   2.0000      -1.129289       -30.7295
  15   2.0000      -0.815766       -22.1981
  16   2.0000      -0.743422       -20.2296
  17   2.0000      -0.722924       -19.6718
  18   2.0000      -0.714843       -19.4519
  19   2.0000      -0.686103       -18.6698
  20   2.0000      -0.669143       -18.2083
  21   2.0000      -0.618516       -16.8307
  22   2.0000      -0.542635       -14.7659
  23   2.0000      -0.500242       -13.6123
  24   2.0000      -0.494130       -13.4460
  25   0.0000       0.031532         0.8580
  26   0.0000       0.041120         1.1189
  27   0.0000       0.041599         1.1320
  28   0.0000       0.042338         1.1521
  29   0.0000       0.073718         2.0060

MULLIKEN ATOMIC CHARGES
-----------------------
   0 Si:    2.024242
   1 F :   -0.675214
   2 F :   -0.675214
   3 Cl:   -0.490220
   4 H :   -0.183593
Sum of atomic charges:    0.0000000

LOEWDIN ATOMIC CHARGES
----------------------
   0 Si:   -1.319991
   1 F :    0.374981
   2 F :    0.374981
   3 Cl:    0.898698
   4 H :   -0.328670

  Mayer bond orders larger than 0.100000
B(  0-Si,  1-F ) :   0.5005 B(  0-Si,  2-F ) :   0.5005 B(  0-Si,  3-Cl) :   0.7037
B(  0-Si,  4-H ) :   0.9817

MP2 TOTAL ENERGY:     -949.123373423 Eh
FINAL SINGLE POINT ENERGY      -949.123373422668

DIPOLE MOMENT
-------------
                                X             Y             Z
Electronic contribution:      1.73531      -0.69957      -0.00000
Nuclear contribution   :     -2.06147       1.12920       0.00000
                        -----------------------------------------
Total Dipole Moment    :     -0.32616       0.42964      -0.00000
                        -----------------------------------------
Magnitude (a.u.)       :      0.53942
Magnitude (Debye)      :      1.37108

Rotational constants in cm-1:     0.235344     0.115666     0.085590
Rotational constants in MHz :  7055.445741  3467.572409  2565.922021

                             ****ORCA TERMINATED NORMALLY****
TOTAL RUN TIME: 0 days 0 hours 9 minutes 0 seconds 660 msec
