                         Program Version 5.0.4 -  RELEASE  -
|  1> ! ri-mp2 aug-cc-pvdz aug-cc-pvdz/c tightscf
|  2> %pal nprocs 16 end
|  3> %maxcore 3800
|  4> %base "DZ_B-F_37_A"
|  5> %scf
|  6> STABPerform true
|  7> STABRestartUHFifUnstable true
|  8> end
|  9>
| 10> *xyz 0 2
| 11> F        -2.225525   -0.570848   -0.237956
| 12> B        -1.286463   -0.172288    0.557713
| 13> C         0.070492    0.500937    0.102818
| 14> O         0.144376    1.686798   -0.079049
| 15> S         1.500602   -0.550957   -0.057773
| 16> H         0.874450   -1.685627    0.292888
| 17> *
| 18>
| 19> $new_job
| 20> ! ri-mp2 aug-cc-pvtz aug-cc-pvtz/c tightscf
| 21> %pal nprocs 16 end
| 22> %maxcore 3800
| 23> %base "TZ_B-F_37_A"
| 24>
| 25> *xyz 0 2
| 26> F        -2.225525   -0.570848   -0.237956
| 27> B        -1.286463   -0.172288    0.557713
| 28> C         0.070492    0.500937    0.102818
| 29> O         0.144376    1.686798   -0.079049
| 30> S         1.500602   -0.550957   -0.057773
| 31> H         0.874450   -1.685627    0.292888
| 32> *
| 33>
| 34> $new_job
| 35> ! ri-mp2 aug-cc-pvqz aug-cc-pvqz/c tightscf
| 36> %pal nprocs 16 end
| 37> %maxcore 3800
| 38> %base "QZ_B-F_37_A"
| 39>
| 40> *xyz 0 2
| 41> F        -2.225525   -0.570848   -0.237956
| 42> B        -1.286463   -0.172288    0.557713
| 43> C         0.070492    0.500937    0.102818
| 44> O         0.144376    1.686798   -0.079049
| 45> S         1.500602   -0.550957   -0.057773
| 46> H         0.874450   -1.685627    0.292888
| 47> *
| 48>
| 49>
| 50>
| 51>
| 52>                          ****END OF INPUT****
 Total Charge           Charge          ....    0
 Multiplicity           Mult            ....    2
 Number of Electrons    NEL             ....   45
MP2 TOTAL ENERGY:     -635.701468605 Eh
FINAL SINGLE POINT ENERGY      -635.701468604966
MP2 TOTAL ENERGY:     -635.950389043 Eh
FINAL SINGLE POINT ENERGY      -635.950389042629

CARTESIAN COORDINATES (ANGSTROEM)
---------------------------------
  F     -2.225525   -0.570848   -0.237956
  B     -1.286463   -0.172288    0.557713
  C      0.070492    0.500937    0.102818
  O      0.144376    1.686798   -0.079049
  S      1.500602   -0.550957   -0.057773
  H      0.874450   -1.685627    0.292888

 Multiplicity           Mult            ....    2
 Number of Electrons    NEL             ....   45
 Basis Dimension        Dim             ....  450

ORBITAL ENERGIES
----------------
                 SPIN UP ORBITALS
  NO   OCC          E(Eh)            E(eV)
   0   1.0000     -91.997914     -2503.3905
   1   1.0000     -26.357491      -717.2238
   2   1.0000     -20.586091      -560.1760
   3   1.0000     -11.372997      -309.4750
   4   1.0000      -9.001120      -244.9329
   5   1.0000      -7.727181      -210.2673
   6   1.0000      -6.682692      -181.8453
   7   1.0000      -6.681570      -181.8148
   8   1.0000      -6.680271      -181.7794
   9   1.0000      -1.677100       -45.6362
  10   1.0000      -1.433924       -39.0190
  11   1.0000      -1.050630       -28.5891
  12   1.0000      -0.869181       -23.6516
  13   1.0000      -0.808482       -21.9999
  14   1.0000      -0.750041       -20.4097
  15   1.0000      -0.725791       -19.7498
  16   1.0000      -0.702850       -19.1255
  17   1.0000      -0.648953       -17.6589
  18   1.0000      -0.594202       -16.1691
  19   1.0000      -0.543752       -14.7962
  20   1.0000      -0.457877       -12.4595
  21   1.0000      -0.414925       -11.2907
  22   1.0000      -0.375283       -10.2120
  23   0.0000       0.021094         0.5740
  24   0.0000       0.032419         0.8822
  25   0.0000       0.037242         1.0134
  26   0.0000       0.039325         1.0701
  27   0.0000       0.058153         1.5824

                 SPIN DOWN ORBITALS
  NO   OCC          E(Eh)            E(eV)
   0   1.0000     -91.997816     -2503.3878
   1   1.0000     -26.354210      -717.1345
   2   1.0000     -20.581004      -560.0376
   3   1.0000     -11.371744      -309.4409
   4   1.0000      -9.001018      -244.9302
   5   1.0000      -7.707736      -209.7382
   6   1.0000      -6.682127      -181.8299
   7   1.0000      -6.681557      -181.8144
   8   1.0000      -6.680293      -181.7800
   9   1.0000      -1.668200       -45.3940
  10   1.0000      -1.422764       -38.7154
  11   1.0000      -1.047472       -28.5032
  12   1.0000      -0.848695       -23.0942
  13   1.0000      -0.796291       -21.6682
  14   1.0000      -0.726361       -19.7653
  15   1.0000      -0.724404       -19.7120
  16   1.0000      -0.688566       -18.7368
  17   1.0000      -0.641693       -17.4614
  18   1.0000      -0.568381       -15.4664
  19   1.0000      -0.542557       -14.7637
  20   1.0000      -0.427751       -11.6397
  21   1.0000      -0.405445       -11.0327
  22   0.0000       0.015961         0.4343
  23   0.0000       0.030157         0.8206
  24   0.0000       0.036998         1.0068
  25   0.0000       0.040062         1.0902
  26   0.0000       0.047236         1.2854

MULLIKEN ATOMIC CHARGES AND SPIN POPULATIONS
--------------------------------------------
   0 F :   -0.668875   -0.020390
   1 B :    0.921571    0.958538
   2 C :    0.272572   -0.064159
   3 O :   -0.654272    0.112759
   4 S :    0.092579    0.015968
   5 H :    0.036424   -0.002717
Sum of atomic charges         :    0.0000000

LOEWDIN ATOMIC CHARGES AND SPIN POPULATIONS
-------------------------------------------
   0 F :    0.736160    0.150761
   1 B :   -0.877122    0.562524
   2 C :   -1.130221    0.164995
   3 O :    0.545748    0.089772
   4 S :    1.542457    0.019852
   5 H :   -0.817022    0.012097

  Mayer bond orders larger than 0.100000
B(  0-F ,  1-B ) :   0.4626 B(  1-B ,  2-C ) :   0.9108 B(  2-C ,  3-O ) :   1.5642
B(  2-C ,  4-S ) :   1.0514 B(  4-S ,  5-H ) :   1.0256

MP2 TOTAL ENERGY:     -636.032365137 Eh
FINAL SINGLE POINT ENERGY      -636.032365137204

DIPOLE MOMENT
-------------
                                X             Y             Z
Electronic contribution:     -3.90055      -0.19613       0.20311
Nuclear contribution   :      3.77994      -0.87357       0.07348
                        -----------------------------------------
Total Dipole Moment    :     -0.12061      -1.06970       0.27659
                        -----------------------------------------
Magnitude (a.u.)       :      1.11144
Magnitude (Debye)      :      2.82506

Rotational constants in cm-1:     0.232775     0.088683     0.066683
Rotational constants in MHz :  6978.428003  2658.644497  1999.100603

                             ****ORCA TERMINATED NORMALLY****
TOTAL RUN TIME: 0 days 0 hours 20 minutes 42 seconds 478 msec
