                         Program Version 5.0.4 -  RELEASE  -
|  1> ! ri-mp2 aug-cc-pvdz aug-cc-pvdz/c tightscf
|  2> %pal nprocs 16 end
|  3> %maxcore 3800
|  4> %base "DZ_Si-Cl_9_AB"
|  5> %scf
|  6> STABPerform true
|  7> STABRestartUHFifUnstable true
|  8> end
|  9>
| 10> *xyz 0 1
| 11> C         2.589669   -1.342935   -0.000006
| 12> C         1.212604   -1.191782   -0.000007
| 13> C         3.410981   -0.229210    0.000001
| 14> C         2.851213    1.037930    0.000008
| 15> C         1.475554    1.182996    0.000008
| 16> C         0.630224    0.072332    0.000000
| 17> H         0.582231   -2.071180   -0.000012
| 18> H         3.022099   -2.334931   -0.000011
| 19> H         4.486651   -0.347019    0.000002
| 20> H         3.487673    1.913094    0.000015
| 21> H         1.059107    2.184434    0.000014
| 22> Si        -1.213095    0.358511   -0.000004
| 23> C        -1.743346    1.260202   -1.535351
| 24> H        -1.253365    2.234048   -1.594634
| 25> H        -2.821661    1.421894   -1.541757
| 26> H        -1.475771    0.694318   -2.427496
| 27> C        -1.743348    1.260244    1.535317
| 28> Cl        -2.156125   -1.491934    0.000020
| 29> H        -1.253369    2.234093    1.594575
| 30> H        -1.475774    0.694384    2.427478
| 31> H        -2.821663    1.421934    1.541717
| 32> *
| 33>
| 34> $new_job
| 35> ! ri-mp2 aug-cc-pvtz aug-cc-pvtz/c tightscf
| 36> %pal nprocs 16 end
| 37> %maxcore 3800
| 38> %base "TZ_Si-Cl_9_AB"
| 39>
| 40> *xyz 0 1
| 41> C         2.589669   -1.342935   -0.000006
| 42> C         1.212604   -1.191782   -0.000007
| 43> C         3.410981   -0.229210    0.000001
| 44> C         2.851213    1.037930    0.000008
| 45> C         1.475554    1.182996    0.000008
| 46> C         0.630224    0.072332    0.000000
| 47> H         0.582231   -2.071180   -0.000012
| 48> H         3.022099   -2.334931   -0.000011
| 49> H         4.486651   -0.347019    0.000002
| 50> H         3.487673    1.913094    0.000015
| 51> H         1.059107    2.184434    0.000014
| 52> Si        -1.213095    0.358511   -0.000004
| 53> C        -1.743346    1.260202   -1.535351
| 54> H        -1.253365    2.234048   -1.594634
| 55> H        -2.821661    1.421894   -1.541757
| 56> H        -1.475771    0.694318   -2.427496
| 57> C        -1.743348    1.260244    1.535317
| 58> Cl        -2.156125   -1.491934    0.000020
| 59> H        -1.253369    2.234093    1.594575
| 60> H        -1.475774    0.694384    2.427478
| 61> H        -2.821663    1.421934    1.541717
| 62> *
| 63>
| 64> $new_job
| 65> ! ri-mp2 aug-cc-pvqz aug-cc-pvqz/c tightscf
| 66> %pal nprocs 16 end
| 67> %maxcore 3800
| 68> %base "QZ_Si-Cl_9_AB"
| 69>
| 70> *xyz 0 1
| 71> C         2.589669   -1.342935   -0.000006
| 72> C         1.212604   -1.191782   -0.000007
| 73> C         3.410981   -0.229210    0.000001
| 74> C         2.851213    1.037930    0.000008
| 75> C         1.475554    1.182996    0.000008
| 76> C         0.630224    0.072332    0.000000
| 77> H         0.582231   -2.071180   -0.000012
| 78> H         3.022099   -2.334931   -0.000011
| 79> H         4.486651   -0.347019    0.000002
| 80> H         3.487673    1.913094    0.000015
| 81> H         1.059107    2.184434    0.000014
| 82> Si        -1.213095    0.358511   -0.000004
| 83> C        -1.743346    1.260202   -1.535351
| 84> H        -1.253365    2.234048   -1.594634
| 85> H        -2.821661    1.421894   -1.541757
| 86> H        -1.475771    0.694318   -2.427496
| 87> C        -1.743348    1.260244    1.535317
| 88> Cl        -2.156125   -1.491934    0.000020
| 89> H        -1.253369    2.234093    1.594575
| 90> H        -1.475774    0.694384    2.427478
| 91> H        -2.821663    1.421934    1.541717
| 92> *
| 93>
| 94>
| 95>
| 96>
| 97>                          ****END OF INPUT****
 Total Charge           Charge          ....    0
 Multiplicity           Mult            ....    1
 Number of Electrons    NEL             ....   90
MP2 TOTAL ENERGY:    -1059.271999404 Eh
FINAL SINGLE POINT ENERGY     -1059.271999403927
MP2 TOTAL ENERGY:    -1059.654092883 Eh
FINAL SINGLE POINT ENERGY     -1059.654092883353

CARTESIAN COORDINATES (ANGSTROEM)
---------------------------------
  C      2.589669   -1.342935   -0.000006
  C      1.212604   -1.191782   -0.000007
  C      3.410981   -0.229210    0.000001
  C      2.851213    1.037930    0.000008
  C      1.475554    1.182996    0.000008
  C      0.630224    0.072332    0.000000
  H      0.582231   -2.071180   -0.000012
  H      3.022099   -2.334931   -0.000011
  H      4.486651   -0.347019    0.000002
  H      3.487673    1.913094    0.000015
  H      1.059107    2.184434    0.000014
  Si    -1.213095    0.358511   -0.000004
  C     -1.743346    1.260202   -1.535351
  H     -1.253365    2.234048   -1.594634
  H     -2.821661    1.421894   -1.541757
  H     -1.475771    0.694318   -2.427496
  C     -1.743348    1.260244    1.535317
  Cl    -2.156125   -1.491934    0.000020
  H     -1.253369    2.234093    1.594575
  H     -1.475774    0.694384    2.427478
  H     -2.821663    1.421934    1.541717

 Multiplicity           Mult            ....    1
 Number of Electrons    NEL             ....   90
 Basis Dimension        Dim             .... 1314

ORBITAL ENERGIES
----------------

  NO   OCC          E(Eh)            E(eV)
   0   2.0000    -104.810655     -2852.0429
   1   2.0000     -68.794380     -1871.9903
   2   2.0000     -11.241496      -305.8967
   3   2.0000     -11.238673      -305.8198
   4   2.0000     -11.236432      -305.7589
   5   2.0000     -11.235461      -305.7324
   6   2.0000     -11.233491      -305.6788
   7   2.0000     -11.221787      -305.3604
   8   2.0000     -11.206224      -304.9369
   9   2.0000     -11.206216      -304.9366
  10   2.0000     -10.538415      -286.7649
  11   2.0000      -8.005206      -217.8327
  12   2.0000      -8.004208      -217.8056
  13   2.0000      -8.004191      -217.8051
  14   2.0000      -6.140244      -167.0845
  15   2.0000      -4.247778      -115.5879
  16   2.0000      -4.246087      -115.5419
  17   2.0000      -4.245947      -115.5381
  18   2.0000      -1.158745       -31.5310
  19   2.0000      -1.084841       -29.5200
  20   2.0000      -1.022236       -27.8165
  21   2.0000      -1.019222       -27.7344
  22   2.0000      -0.962663       -26.1954
  23   2.0000      -0.937132       -25.5007
  24   2.0000      -0.829843       -22.5812
  25   2.0000      -0.826200       -22.4821
  26   2.0000      -0.717859       -19.5339
  27   2.0000      -0.659730       -17.9522
  28   2.0000      -0.630511       -17.1571
  29   2.0000      -0.622922       -16.9506
  30   2.0000      -0.592668       -16.1273
  31   2.0000      -0.583242       -15.8708
  32   2.0000      -0.573441       -15.6041
  33   2.0000      -0.559272       -15.2186
  34   2.0000      -0.555848       -15.1254
  35   2.0000      -0.544322       -14.8118
  36   2.0000      -0.512365       -13.9422
  37   2.0000      -0.499588       -13.5945
  38   2.0000      -0.489364       -13.3163
  39   2.0000      -0.479606       -13.0507
  40   2.0000      -0.467604       -12.7241
  41   2.0000      -0.429507       -11.6875
  42   2.0000      -0.429153       -11.6778
  43   2.0000      -0.342833        -9.3290
  44   2.0000      -0.342424        -9.3178
  45   0.0000       0.019274         0.5245
  46   0.0000       0.026423         0.7190
  47   0.0000       0.029893         0.8134
  48   0.0000       0.037129         1.0103
  49   0.0000       0.039174         1.0660

MULLIKEN ATOMIC CHARGES
-----------------------
   0 C :   -0.199106
   1 C :   -0.770004
   2 C :   -0.396851
   3 C :   -0.059307
   4 C :   -0.606579
   5 C :   -0.002341
   6 H :    0.331521
   7 H :    0.263923
   8 H :    0.358938
   9 H :    0.242249
  10 H :    0.242387
  11 Si:    2.171874
  12 C :   -1.252111
  13 H :    0.289775
  14 H :    0.324501
  15 H :    0.261649
  16 C :   -1.252120
  17 Cl:   -0.824321
  18 H :    0.289770
  19 H :    0.261647
  20 H :    0.324508
Sum of atomic charges:   -0.0000000

LOEWDIN ATOMIC CHARGES
----------------------
   0 C :    0.342932
   1 C :    0.248344
   2 C :    0.337296
   3 C :    0.345322
   4 C :    0.263509
   5 C :   -0.075178
   6 H :   -0.385882
   7 H :   -0.319438
   8 H :   -0.318759
   9 H :   -0.318971
  10 H :   -0.330620
  11 Si:   -0.620968
  12 C :    0.932690
  13 H :   -0.342258
  14 H :   -0.348951
  15 H :   -0.348024
  16 C :    0.932690
  17 Cl:    1.045501
  18 H :   -0.342258
  19 H :   -0.348024
  20 H :   -0.348951

  Mayer bond orders larger than 0.100000
B(  0-C ,  1-C ) :   1.4354 B(  0-C ,  2-C ) :   1.1150 B(  0-C ,  4-C ) :   0.1465
B(  0-C ,  5-C ) :  -0.3658 B(  0-C ,  7-H ) :   1.0984 B(  1-C ,  2-C ) :   0.1622
B(  1-C ,  3-C ) :   0.1668 B(  1-C ,  4-C ) :   0.1145 B(  1-C ,  5-C ) :   0.7378
B(  1-C ,  6-H ) :   0.9918 B(  1-C ,  7-H ) :  -0.1413 B(  1-C ,  8-H ) :  -0.1047
B(  2-C ,  3-C ) :   1.0995 B(  2-C ,  4-C ) :   0.1582 B(  2-C ,  5-C ) :  -0.1234
B(  2-C ,  7-H ) :  -0.1053 B(  2-C ,  8-H ) :   0.9782 B(  3-C ,  4-C ) :   1.2415
B(  3-C ,  5-C ) :  -0.3742 B(  3-C ,  9-H ) :   1.1181 B(  4-C ,  5-C ) :   0.8887
B(  4-C ,  9-H ) :  -0.1448 B(  4-C , 10-H ) :   1.0186 B(  4-C , 11-Si) :  -0.1274
B(  5-C ,  6-H ) :  -0.1341 B(  5-C , 10-H ) :  -0.1110 B(  5-C , 11-Si) :   0.9574
B( 11-Si, 12-C ) :   0.7279 B( 11-Si, 16-C ) :   0.7278 B( 11-Si, 17-Cl) :  -0.1337
B( 12-C , 13-H ) :   0.9200 B( 12-C , 14-H ) :   0.9297 B( 12-C , 15-H ) :   0.9573
B( 16-C , 18-H ) :   0.9200 B( 16-C , 19-H ) :   0.9574 B( 16-C , 20-H ) :   0.9297

MP2 TOTAL ENERGY:    -1059.774945079 Eh
FINAL SINGLE POINT ENERGY     -1059.774945079357

DIPOLE MOMENT
-------------
                                X             Y             Z
Electronic contribution:     -4.16617      -9.33687       0.00013
Nuclear contribution   :      4.64804      10.05728      -0.00014
                        -----------------------------------------
Total Dipole Moment    :      0.48187       0.72042      -0.00001
                        -----------------------------------------
Magnitude (a.u.)       :      0.86672
Magnitude (Debye)      :      2.20302

Rotational constants in cm-1:     0.056128     0.021293     0.018026
Rotational constants in MHz :  1682.672874   638.359110   540.408126

                             ****ORCA TERMINATED NORMALLY****
TOTAL RUN TIME: 0 days 4 hours 11 minutes 35 seconds 747 msec
