                         Program Version 5.0.4 -  RELEASE  -
|  1> ! ri-mp2 aug-cc-pvdz aug-cc-pvdz/c tightscf
|  2> %pal nprocs 16 end
|  3> %maxcore 3800
|  4> %base "DZ_B-F_67_AB"
|  5>
|  6> *xyz 0 1
|  7> F        -3.369085    0.038468   -0.000001
|  8> F        -2.218183   -1.892433    0.000001
|  9> B        -2.193571   -0.568097    0.000000
| 10> C        -0.868379    0.218058   -0.000001
| 11> C         0.348784   -0.470377   -0.000000
| 12> C         1.543519    0.229152   -0.000000
| 13> C         1.525700    1.622018   -0.000001
| 14> C        -0.872584    1.607394   -0.000001
| 15> H        -1.812326    2.142666   -0.000001
| 16> C         0.327304    2.302668   -0.000001
| 17> H         0.328790    3.384493   -0.000002
| 18> H         2.471402    2.146989   -0.000001
| 19> H         0.338436   -1.550023   -0.000000
| 20> O         2.769102   -0.345925   -0.000000
| 21> C         2.847472   -1.754512    0.000003
| 22> H         2.378627   -2.179298   -0.891066
| 23> H         2.378625   -2.179294    0.891074
| 24> H         3.906014   -1.998353    0.000005
| 25> *
| 26>
| 27> $new_job
| 28> ! ri-mp2 aug-cc-pvtz aug-cc-pvtz/c tightscf
| 29> %pal nprocs 16 end
| 30> %maxcore 3800
| 31> %base "TZ_B-F_67_AB"
| 32>
| 33> *xyz 0 1
| 34> F        -3.369085    0.038468   -0.000001
| 35> F        -2.218183   -1.892433    0.000001
| 36> B        -2.193571   -0.568097    0.000000
| 37> C        -0.868379    0.218058   -0.000001
| 38> C         0.348784   -0.470377   -0.000000
| 39> C         1.543519    0.229152   -0.000000
| 40> C         1.525700    1.622018   -0.000001
| 41> C        -0.872584    1.607394   -0.000001
| 42> H        -1.812326    2.142666   -0.000001
| 43> C         0.327304    2.302668   -0.000001
| 44> H         0.328790    3.384493   -0.000002
| 45> H         2.471402    2.146989   -0.000001
| 46> H         0.338436   -1.550023   -0.000000
| 47> O         2.769102   -0.345925   -0.000000
| 48> C         2.847472   -1.754512    0.000003
| 49> H         2.378627   -2.179298   -0.891066
| 50> H         2.378625   -2.179294    0.891074
| 51> H         3.906014   -1.998353    0.000005
| 52> *
| 53>
| 54> $new_job
| 55> ! ri-mp2 aug-cc-pvqz aug-cc-pvqz/c tightscf
| 56> %pal nprocs 16 end
| 57> %maxcore 3800
| 58> %base "QZ_B-F_67_AB"
| 59>
| 60> *xyz 0 1
| 61> F        -3.369085    0.038468   -0.000001
| 62> F        -2.218183   -1.892433    0.000001
| 63> B        -2.193571   -0.568097    0.000000
| 64> C        -0.868379    0.218058   -0.000001
| 65> C         0.348784   -0.470377   -0.000000
| 66> C         1.543519    0.229152   -0.000000
| 67> C         1.525700    1.622018   -0.000001
| 68> C        -0.872584    1.607394   -0.000001
| 69> H        -1.812326    2.142666   -0.000001
| 70> C         0.327304    2.302668   -0.000001
| 71> H         0.328790    3.384493   -0.000002
| 72> H         2.471402    2.146989   -0.000001
| 73> H         0.338436   -1.550023   -0.000000
| 74> O         2.769102   -0.345925   -0.000000
| 75> C         2.847472   -1.754512    0.000003
| 76> H         2.378627   -2.179298   -0.891066
| 77> H         2.378625   -2.179294    0.891074
| 78> H         3.906014   -1.998353    0.000005
| 79> *
| 80>
| 81>
| 82>
| 83>
| 84>                          ****END OF INPUT****
 Total Charge           Charge          ....    0
 Multiplicity           Mult            ....    1
 Number of Electrons    NEL             ....   80
MP2 TOTAL ENERGY:     -569.396483092 Eh
FINAL SINGLE POINT ENERGY      -569.396483091956
MP2 TOTAL ENERGY:     -569.893051485 Eh
FINAL SINGLE POINT ENERGY      -569.893051485248

CARTESIAN COORDINATES (ANGSTROEM)
---------------------------------
  F     -3.369085    0.038468   -0.000001
  F     -2.218183   -1.892433    0.000001
  B     -2.193571   -0.568097    0.000000
  C     -0.868379    0.218058   -0.000001
  C      0.348784   -0.470377   -0.000000
  C      1.543519    0.229152   -0.000000
  C      1.525700    1.622018   -0.000001
  C     -0.872584    1.607394   -0.000001
  H     -1.812326    2.142666   -0.000001
  C      0.327304    2.302668   -0.000001
  H      0.328790    3.384493   -0.000002
  H      2.471402    2.146989   -0.000001
  H      0.338436   -1.550023   -0.000000
  O      2.769102   -0.345925   -0.000000
  C      2.847472   -1.754512    0.000003
  H      2.378627   -2.179298   -0.891066
  H      2.378625   -2.179294    0.891074
  H      3.906014   -1.998353    0.000005

 Multiplicity           Mult            ....    1
 Number of Electrons    NEL             ....   80
 Basis Dimension        Dim             .... 1202

ORBITAL ENERGIES
----------------

  NO   OCC          E(Eh)            E(eV)
   0   2.0000     -26.305088      -715.7978
   1   2.0000     -26.304153      -715.7724
   2   2.0000     -20.590045      -560.2836
   3   2.0000     -11.306202      -307.6574
   4   2.0000     -11.288805      -307.1840
   5   2.0000     -11.244802      -305.9866
   6   2.0000     -11.243876      -305.9614
   7   2.0000     -11.242879      -305.9343
   8   2.0000     -11.241586      -305.8991
   9   2.0000     -11.230140      -305.5876
  10   2.0000      -7.700536      -209.5422
  11   2.0000      -1.638607       -44.5888
  12   2.0000      -1.605905       -43.6989
  13   2.0000      -1.423430       -38.7335
  14   2.0000      -1.164533       -31.6885
  15   2.0000      -1.039519       -28.2868
  16   2.0000      -1.030010       -28.0280
  17   2.0000      -0.952918       -25.9302
  18   2.0000      -0.858541       -23.3621
  19   2.0000      -0.825830       -22.4720
  20   2.0000      -0.807268       -21.9669
  21   2.0000      -0.753276       -20.4977
  22   2.0000      -0.750286       -20.4163
  23   2.0000      -0.708133       -19.2693
  24   2.0000      -0.699105       -19.0236
  25   2.0000      -0.677316       -18.4307
  26   2.0000      -0.676071       -18.3968
  27   2.0000      -0.666053       -18.1242
  28   2.0000      -0.654272       -17.8036
  29   2.0000      -0.645387       -17.5619
  30   2.0000      -0.622220       -16.9315
  31   2.0000      -0.588792       -16.0219
  32   2.0000      -0.576972       -15.7002
  33   2.0000      -0.538666       -14.6579
  34   2.0000      -0.531281       -14.4569
  35   2.0000      -0.523035       -14.2325
  36   2.0000      -0.484637       -13.1877
  37   2.0000      -0.481413       -13.0999
  38   2.0000      -0.358943        -9.7673
  39   2.0000      -0.326073        -8.8729
  40   0.0000       0.020925         0.5694
  41   0.0000       0.026427         0.7191
  42   0.0000       0.030812         0.8384
  43   0.0000       0.035836         0.9751
  44   0.0000       0.040690         1.1072

MULLIKEN ATOMIC CHARGES
-----------------------
   0 F :   -0.899819
   1 F :   -0.897407
   2 B :    1.872388
   3 C :    0.171733
   4 C :   -0.699299
   5 C :    1.290236
   6 C :   -0.553472
   7 C :   -0.478229
   8 H :    0.252566
   9 C :   -0.342167
  10 H :    0.164909
  11 H :    0.342328
  12 H :    0.285330
  13 O :   -0.849114
  14 C :   -0.652959
  15 H :    0.240524
  16 H :    0.240524
  17 H :    0.511928
Sum of atomic charges:    0.0000000

LOEWDIN ATOMIC CHARGES
----------------------
   0 F :    0.834428
   1 F :    0.834922
   2 B :   -1.733184
   3 C :    0.004968
   4 C :    0.297659
   5 C :   -0.447859
   6 C :    0.331503
   7 C :    0.312579
   8 H :   -0.325871
   9 C :    0.353820
  10 H :   -0.316120
  11 H :   -0.318555
  12 H :   -0.366989
  13 O :    0.883046
  14 C :    0.578569
  15 H :   -0.303661
  16 H :   -0.303660
  17 H :   -0.315596

  Mayer bond orders larger than 0.100000
B(  1-F ,  2-B ) :   0.1781 B(  1-F ,  3-C ) :  -0.1242 B(  2-B ,  3-C ) :   1.0358
B(  3-C ,  4-C ) :   0.7740 B(  3-C ,  5-C ) :  -0.4646 B(  3-C ,  7-C ) :   0.9755
B(  3-C ,  8-H ) :  -0.1431 B(  3-C ,  9-C ) :  -0.2814 B(  3-C , 12-H ) :  -0.1266
B(  4-C ,  5-C ) :   1.5505 B(  4-C ,  6-C ) :   0.1061 B(  4-C ,  9-C ) :   0.1324
B(  4-C , 12-H ) :   0.9130 B(  4-C , 13-O ) :   0.2659 B(  4-C , 14-C ) :   0.1347
B(  5-C ,  6-C ) :   0.9901 B(  5-C ,  9-C ) :  -0.3954 B(  5-C , 11-H ) :  -0.1072
B(  5-C , 14-C ) :  -0.1304 B(  6-C ,  7-C ) :   0.2276 B(  6-C ,  9-C ) :   1.3381
B(  6-C , 10-H ) :  -0.1784 B(  6-C , 11-H ) :   0.8872 B(  6-C , 13-O ) :   0.2280
B(  7-C ,  8-H ) :   0.9845 B(  7-C ,  9-C ) :   1.2580 B(  7-C , 10-H ) :  -0.1827
B(  9-C , 10-H ) :   1.3029 B( 13-O , 14-C ) :   0.9113 B( 14-C , 15-H ) :   0.9232
B( 14-C , 16-H ) :   0.9232 B( 14-C , 17-H ) :   0.7325

MP2 TOTAL ENERGY:     -570.051267755 Eh
FINAL SINGLE POINT ENERGY      -570.051267754713

DIPOLE MOMENT
-------------
                                X             Y             Z
Electronic contribution:    -15.89912      -1.96643      -0.00001
Nuclear contribution   :     16.68655       1.97561       0.00001
                        -----------------------------------------
Total Dipole Moment    :      0.78743       0.00918       0.00000
                        -----------------------------------------
Magnitude (a.u.)       :      0.78748
Magnitude (Debye)      :      2.00162

Rotational constants in cm-1:     0.060640     0.024223     0.017366
Rotational constants in MHz :  1817.942768   726.179227   520.614207

                             ****ORCA TERMINATED NORMALLY****
TOTAL RUN TIME: 0 days 0 hours 32 minutes 12 seconds 309 msec
