                         Program Version 5.0.4 -  RELEASE  -
|  1> ! ri-mp2 aug-cc-pvdz aug-cc-pvdz/c tightscf
|  2> %pal nprocs 16 end
|  3> %maxcore 3800
|  4> %base "DZ_Si-S_23_AB"
|  5> %scf
|  6> STABPerform true
|  7> STABRestartUHFifUnstable true
|  8> end
|  9>
| 10> *xyz 0 1
| 11> S         0.441549   -0.192381    0.000002
| 12> O         0.774511   -0.834217   -1.249860
| 13> O         0.774506   -0.834200    1.249874
| 14> C         1.224411    1.403008   -0.000007
| 15> H         0.944444    1.944412   -0.900714
| 16> H         2.295274    1.201960   -0.000004
| 17> H         0.944440    1.944425    0.900691
| 18> Si        -1.750000    0.161975   -0.000004
| 19> H        -2.318436   -1.193442    0.000004
| 20> H        -2.084548    0.921182   -1.217825
| 21> H        -2.084552    0.921199    1.217805
| 22> *
| 23>
| 24> $new_job
| 25> ! ri-mp2 aug-cc-pvtz aug-cc-pvtz/c tightscf
| 26> %pal nprocs 16 end
| 27> %maxcore 3800
| 28> %base "TZ_Si-S_23_AB"
| 29>
| 30> *xyz 0 1
| 31> S         0.441549   -0.192381    0.000002
| 32> O         0.774511   -0.834217   -1.249860
| 33> O         0.774506   -0.834200    1.249874
| 34> C         1.224411    1.403008   -0.000007
| 35> H         0.944444    1.944412   -0.900714
| 36> H         2.295274    1.201960   -0.000004
| 37> H         0.944440    1.944425    0.900691
| 38> Si        -1.750000    0.161975   -0.000004
| 39> H        -2.318436   -1.193442    0.000004
| 40> H        -2.084548    0.921182   -1.217825
| 41> H        -2.084552    0.921199    1.217805
| 42> *
| 43>
| 44> $new_job
| 45> ! ri-mp2 aug-cc-pvqz aug-cc-pvqz/c tightscf
| 46> %pal nprocs 16 end
| 47> %maxcore 3800
| 48> %base "QZ_Si-S_23_AB"
| 49>
| 50> *xyz 0 1
| 51> S         0.441549   -0.192381    0.000002
| 52> O         0.774511   -0.834217   -1.249860
| 53> O         0.774506   -0.834200    1.249874
| 54> C         1.224411    1.403008   -0.000007
| 55> H         0.944444    1.944412   -0.900714
| 56> H         2.295274    1.201960   -0.000004
| 57> H         0.944440    1.944425    0.900691
| 58> Si        -1.750000    0.161975   -0.000004
| 59> H        -2.318436   -1.193442    0.000004
| 60> H        -2.084548    0.921182   -1.217825
| 61> H        -2.084552    0.921199    1.217805
| 62> *
| 63>
| 64>
| 65>
| 66>
| 67>                          ****END OF INPUT****
 Total Charge           Charge          ....    0
 Multiplicity           Mult            ....    1
 Number of Electrons    NEL             ....   58
MP2 TOTAL ENERGY:     -878.293597990 Eh
FINAL SINGLE POINT ENERGY      -878.293597990142
MP2 TOTAL ENERGY:     -878.589609799 Eh
FINAL SINGLE POINT ENERGY      -878.589609798984

CARTESIAN COORDINATES (ANGSTROEM)
---------------------------------
  S      0.441549   -0.192381    0.000002
  O      0.774511   -0.834217   -1.249860
  O      0.774506   -0.834200    1.249874
  C      1.224411    1.403008   -0.000007
  H      0.944444    1.944412   -0.900714
  H      2.295274    1.201960   -0.000004
  H      0.944440    1.944425    0.900691
  Si    -1.750000    0.161975   -0.000004
  H     -2.318436   -1.193442    0.000004
  H     -2.084548    0.921182   -1.217825
  H     -2.084552    0.921199    1.217805

 Multiplicity           Mult            ....    1
 Number of Electrons    NEL             ....   58
 Basis Dimension        Dim             ....  684

ORBITAL ENERGIES
----------------

  NO   OCC          E(Eh)            E(eV)
   0   2.0000     -92.154188     -2507.6429
   1   2.0000     -68.821756     -1872.7352
   2   2.0000     -20.538483      -558.8805
   3   2.0000     -20.538463      -558.8800
   4   2.0000     -11.273509      -306.7678
   5   2.0000      -9.127659      -248.3762
   6   2.0000      -6.812643      -185.3814
   7   2.0000      -6.811971      -185.3632
   8   2.0000      -6.811902      -185.3613
   9   2.0000      -6.171478      -167.9345
  10   2.0000      -4.277887      -116.4072
  11   2.0000      -4.277163      -116.3875
  12   2.0000      -4.277112      -116.3861
  13   2.0000      -1.446695       -39.3666
  14   2.0000      -1.336150       -36.3585
  15   2.0000      -1.045540       -28.4506
  16   2.0000      -0.862659       -23.4741
  17   2.0000      -0.755284       -20.5523
  18   2.0000      -0.666185       -18.1278
  19   2.0000      -0.659045       -17.9335
  20   2.0000      -0.653247       -17.7757
  21   2.0000      -0.603387       -16.4190
  22   2.0000      -0.593173       -16.1410
  23   2.0000      -0.535043       -14.5593
  24   2.0000      -0.526805       -14.3351
  25   2.0000      -0.497535       -13.5386
  26   2.0000      -0.490283       -13.3413
  27   2.0000      -0.469341       -12.7714
  28   2.0000      -0.409735       -11.1495
  29   0.0000       0.016600         0.4517
  30   0.0000       0.028852         0.7851
  31   0.0000       0.036835         1.0023
  32   0.0000       0.037307         1.0152
  33   0.0000       0.046441         1.2637

MULLIKEN ATOMIC CHARGES
-----------------------
   0 S :    2.124385
   1 O :   -1.246464
   2 O :   -1.246464
   3 C :   -1.071988
   4 H :    0.356048
   5 H :    0.366255
   6 H :    0.356049
   7 Si:    0.786240
   8 H :   -0.143979
   9 H :   -0.140042
  10 H :   -0.140041
Sum of atomic charges:    0.0000000

LOEWDIN ATOMIC CHARGES
----------------------
   0 S :   -0.333132
   1 O :    0.224433
   2 O :    0.224433
   3 C :    0.747941
   4 H :   -0.339749
   5 H :   -0.338000
   6 H :   -0.339748
   7 Si:    0.999845
   8 H :   -0.280786
   9 H :   -0.282619
  10 H :   -0.282619

  Mayer bond orders larger than 0.100000
B(  0-S ,  1-O ) :   1.0365 B(  0-S ,  2-O ) :   1.0365 B(  0-S ,  3-C ) :   0.8660
B(  0-S ,  7-Si) :   0.5823 B(  3-C ,  4-H ) :   0.8799 B(  3-C ,  5-H ) :   0.8359
B(  3-C ,  6-H ) :   0.8799 B(  7-Si,  8-H ) :   0.7830 B(  7-Si,  9-H ) :   0.7831
B(  7-Si, 10-H ) :   0.7831

MP2 TOTAL ENERGY:     -878.686196992 Eh
FINAL SINGLE POINT ENERGY      -878.686196992086

DIPOLE MOMENT
-------------
                                X             Y             Z
Electronic contribution:      1.13498      -3.89248       0.00003
Nuclear contribution   :     -2.16106       5.64349      -0.00004
                        -----------------------------------------
Total Dipole Moment    :     -1.02608       1.75101      -0.00001
                        -----------------------------------------
Magnitude (a.u.)       :      2.02950
Magnitude (Debye)      :      5.15859

Rotational constants in cm-1:     0.147770     0.081985     0.080093
Rotational constants in MHz :  4430.037364  2457.848350  2401.130986

                             ****ORCA TERMINATED NORMALLY****
TOTAL RUN TIME: 0 days 0 hours 29 minutes 39 seconds 401 msec
