                         Program Version 5.0.4 -  RELEASE  -
|  1> ! ri-mp2 aug-cc-pvdz aug-cc-pvdz/c tightscf
|  2> %pal nprocs 16 end
|  3> %maxcore 3800
|  4> %base "DZ_P-O_12_AB"
|  5> %scf
|  6> STABPerform true
|  7> STABRestartUHFifUnstable true
|  8> end
|  9>
| 10> *xyz 0 1
| 11> C         1.593348   -0.204680   -0.021119
| 12> O         0.416761    0.577843    0.078740
| 13> H         1.786606   -0.744495    0.909674
| 14> H         2.420552    0.476452   -0.210785
| 15> H         1.525045   -0.925290   -0.840456
| 16> P        -1.024695   -0.196344   -0.083083
| 17> H        -1.790385    0.953256   -0.386478
| 18> H        -1.465574   -0.209425    1.271091
| 19> *
| 20>
| 21> $new_job
| 22> ! ri-mp2 aug-cc-pvtz aug-cc-pvtz/c tightscf
| 23> %pal nprocs 16 end
| 24> %maxcore 3800
| 25> %base "TZ_P-O_12_AB"
| 26>
| 27> *xyz 0 1
| 28> C         1.593348   -0.204680   -0.021119
| 29> O         0.416761    0.577843    0.078740
| 30> H         1.786606   -0.744495    0.909674
| 31> H         2.420552    0.476452   -0.210785
| 32> H         1.525045   -0.925290   -0.840456
| 33> P        -1.024695   -0.196344   -0.083083
| 34> H        -1.790385    0.953256   -0.386478
| 35> H        -1.465574   -0.209425    1.271091
| 36> *
| 37>
| 38> $new_job
| 39> ! ri-mp2 aug-cc-pvqz aug-cc-pvqz/c tightscf
| 40> %pal nprocs 16 end
| 41> %maxcore 3800
| 42> %base "QZ_P-O_12_AB"
| 43>
| 44> *xyz 0 1
| 45> C         1.593348   -0.204680   -0.021119
| 46> O         0.416761    0.577843    0.078740
| 47> H         1.786606   -0.744495    0.909674
| 48> H         2.420552    0.476452   -0.210785
| 49> H         1.525045   -0.925290   -0.840456
| 50> P        -1.024695   -0.196344   -0.083083
| 51> H        -1.790385    0.953256   -0.386478
| 52> H        -1.465574   -0.209425    1.271091
| 53> *
| 54>
| 55>
| 56>
| 57>
| 58>                          ****END OF INPUT****
 Total Charge           Charge          ....    0
 Multiplicity           Mult            ....    1
 Number of Electrons    NEL             ....   34
MP2 TOTAL ENERGY:     -456.855558134 Eh
FINAL SINGLE POINT ENERGY      -456.855558134028
MP2 TOTAL ENERGY:     -457.011750839 Eh
FINAL SINGLE POINT ENERGY      -457.011750839153

CARTESIAN COORDINATES (ANGSTROEM)
---------------------------------
  C      1.593348   -0.204680   -0.021119
  O      0.416761    0.577843    0.078740
  H      1.786606   -0.744495    0.909674
  H      2.420552    0.476452   -0.210785
  H      1.525045   -0.925290   -0.840456
  P     -1.024695   -0.196344   -0.083083
  H     -1.790385    0.953256   -0.386478
  H     -1.465574   -0.209425    1.271091

 Multiplicity           Mult            ....    1
 Number of Electrons    NEL             ....   34
 Basis Dimension        Dim             ....  474

ORBITAL ENERGIES
----------------

  NO   OCC          E(Eh)            E(eV)
   0   2.0000     -79.974148     -2176.2072
   1   2.0000     -20.566290      -559.6372
   2   2.0000     -11.281566      -306.9870
   3   2.0000      -7.511303      -204.3929
   4   2.0000      -5.405418      -147.0889
   5   2.0000      -5.404941      -147.0759
   6   2.0000      -5.404080      -147.0525
   7   2.0000      -1.373500       -37.3748
   8   2.0000      -0.952090       -25.9077
   9   2.0000      -0.815777       -22.1984
  10   2.0000      -0.654162       -17.8007
  11   2.0000      -0.646401       -17.5895
  12   2.0000      -0.616101       -16.7650
  13   2.0000      -0.532530       -14.4909
  14   2.0000      -0.508952       -13.8493
  15   2.0000      -0.448582       -12.2065
  16   2.0000      -0.366891        -9.9836
  17   0.0000       0.026410         0.7187
  18   0.0000       0.036129         0.9831
  19   0.0000       0.041301         1.1239
  20   0.0000       0.044778         1.2185
  21   0.0000       0.057562         1.5663

MULLIKEN ATOMIC CHARGES
-----------------------
   0 C :   -0.540393
   1 O :   -0.792567
   2 H :    0.262194
   3 H :    0.360015
   4 H :    0.270452
   5 P :    0.622755
   6 H :   -0.089170
   7 H :   -0.093286
Sum of atomic charges:   -0.0000000

LOEWDIN ATOMIC CHARGES
----------------------
   0 C :    0.417015
   1 O :    0.464915
   2 H :   -0.327666
   3 H :   -0.339836
   4 H :   -0.359883
   5 P :    1.138008
   6 H :   -0.504906
   7 H :   -0.487646

  Mayer bond orders larger than 0.100000
B(  0-C ,  1-O ) :   0.8627 B(  0-C ,  2-H ) :   0.9186 B(  0-C ,  3-H ) :   0.8723
B(  0-C ,  4-H ) :   0.9100 B(  1-O ,  5-P ) :   0.6786 B(  5-P ,  6-H ) :   0.9450
B(  5-P ,  7-H ) :   0.9046

MP2 TOTAL ENERGY:     -457.060509078 Eh
FINAL SINGLE POINT ENERGY      -457.060509078450

DIPOLE MOMENT
-------------
                                X             Y             Z
Electronic contribution:     -3.20672       0.05513      -0.73418
Nuclear contribution   :      3.44955      -0.25273       0.82123
                        -----------------------------------------
Total Dipole Moment    :      0.24283      -0.19760       0.08706
                        -----------------------------------------
Magnitude (a.u.)       :      0.32495
Magnitude (Debye)      :      0.82595

Rotational constants in cm-1:     1.280504     0.195494     0.182825
Rotational constants in MHz : 38388.551598  5860.753630  5480.966143

                             ****ORCA TERMINATED NORMALLY****
TOTAL RUN TIME: 0 days 0 hours 8 minutes 32 seconds 939 msec
