                         Program Version 5.0.4 -  RELEASE  -
|  1> ! ri-mp2 aug-cc-pvdz aug-cc-pvdz/c tightscf
|  2> %pal nprocs 16 end
|  3> %maxcore 3800
|  4> %base "DZ_Si-Si_149_AB"
|  5> %scf
|  6> STABPerform true
|  7> STABRestartUHFifUnstable true
|  8> end
|  9>
| 10> *xyz 0 1
| 11> Si         1.054138   -1.252309    0.523057
| 12> Si        -1.049496   -1.251151   -0.498095
| 13> B        -2.060917    0.441843    0.003038
| 14> H        -1.796282   -2.480770   -0.146970
| 15> H        -0.801858   -1.277306   -1.963360
| 16> B         2.043903    0.440484   -0.000390
| 17> H         1.879129   -2.430775    0.150316
| 18> H         0.911165   -1.269120    2.000735
| 19> O        -1.477120    1.652593    0.172562
| 20> H        -0.512313    1.687762    0.072034
| 21> O        -3.407369    0.345748    0.170045
| 22> H        -3.806049    1.194679    0.399287
| 23> O         3.363729    0.536223   -0.311530
| 24> H         3.851953   -0.288994   -0.266635
| 25> O         1.325049    1.606701   -0.067442
| 26> H         1.860026    2.371199   -0.317191
| 27> *
| 28>
| 29> $new_job
| 30> ! ri-mp2 aug-cc-pvtz aug-cc-pvtz/c tightscf
| 31> %pal nprocs 16 end
| 32> %maxcore 3800
| 33> %base "TZ_Si-Si_149_AB"
| 34>
| 35> *xyz 0 1
| 36> Si         1.054138   -1.252309    0.523057
| 37> Si        -1.049496   -1.251151   -0.498095
| 38> B        -2.060917    0.441843    0.003038
| 39> H        -1.796282   -2.480770   -0.146970
| 40> H        -0.801858   -1.277306   -1.963360
| 41> B         2.043903    0.440484   -0.000390
| 42> H         1.879129   -2.430775    0.150316
| 43> H         0.911165   -1.269120    2.000735
| 44> O        -1.477120    1.652593    0.172562
| 45> H        -0.512313    1.687762    0.072034
| 46> O        -3.407369    0.345748    0.170045
| 47> H        -3.806049    1.194679    0.399287
| 48> O         3.363729    0.536223   -0.311530
| 49> H         3.851953   -0.288994   -0.266635
| 50> O         1.325049    1.606701   -0.067442
| 51> H         1.860026    2.371199   -0.317191
| 52> *
| 53>
| 54> $new_job
| 55> ! ri-mp2 aug-cc-pvqz aug-cc-pvqz/c tightscf
| 56> %pal nprocs 16 end
| 57> %maxcore 3800
| 58> %base "QZ_Si-Si_149_AB"
| 59>
| 60> *xyz 0 1
| 61> Si         1.054138   -1.252309    0.523057
| 62> Si        -1.049496   -1.251151   -0.498095
| 63> B        -2.060917    0.441843    0.003038
| 64> H        -1.796282   -2.480770   -0.146970
| 65> H        -0.801858   -1.277306   -1.963360
| 66> B         2.043903    0.440484   -0.000390
| 67> H         1.879129   -2.430775    0.150316
| 68> H         0.911165   -1.269120    2.000735
| 69> O        -1.477120    1.652593    0.172562
| 70> H        -0.512313    1.687762    0.072034
| 71> O        -3.407369    0.345748    0.170045
| 72> H        -3.806049    1.194679    0.399287
| 73> O         3.363729    0.536223   -0.311530
| 74> H         3.851953   -0.288994   -0.266635
| 75> O         1.325049    1.606701   -0.067442
| 76> H         1.860026    2.371199   -0.317191
| 77> *
| 78>
| 79>
| 80>
| 81>
| 82>                          ****END OF INPUT****
 Total Charge           Charge          ....    0
 Multiplicity           Mult            ....    1
 Number of Electrons    NEL             ....   78
MP2 TOTAL ENERGY:     -932.788290147 Eh
FINAL SINGLE POINT ENERGY      -932.788290146764
MP2 TOTAL ENERGY:     -933.165285984 Eh
FINAL SINGLE POINT ENERGY      -933.165285984098

CARTESIAN COORDINATES (ANGSTROEM)
---------------------------------
  Si     1.054138   -1.252309    0.523057
  Si    -1.049496   -1.251151   -0.498095
  B     -2.060917    0.441843    0.003038
  H     -1.796282   -2.480770   -0.146970
  H     -0.801858   -1.277306   -1.963360
  B      2.043903    0.440484   -0.000390
  H      1.879129   -2.430775    0.150316
  H      0.911165   -1.269120    2.000735
  O     -1.477120    1.652593    0.172562
  H     -0.512313    1.687762    0.072034
  O     -3.407369    0.345748    0.170045
  H     -3.806049    1.194679    0.399287
  O      3.363729    0.536223   -0.311530
  H      3.851953   -0.288994   -0.266635
  O      1.325049    1.606701   -0.067442
  H      1.860026    2.371199   -0.317191

 Multiplicity           Mult            ....    1
 Number of Electrons    NEL             ....   78
 Basis Dimension        Dim             .... 1016

ORBITAL ENERGIES
----------------

  NO   OCC          E(Eh)            E(eV)
   0   2.0000     -68.754891     -1870.9157
   1   2.0000     -68.748108     -1870.7311
   2   2.0000     -20.594240      -560.3978
   3   2.0000     -20.589732      -560.2751
   4   2.0000     -20.558938      -559.4371
   5   2.0000     -20.553452      -559.2879
   6   2.0000      -7.658367      -208.3948
   7   2.0000      -7.632118      -207.6805
   8   2.0000      -6.107522      -166.1941
   9   2.0000      -6.100494      -166.0029
  10   2.0000      -4.213610      -114.6582
  11   2.0000      -4.213518      -114.6557
  12   2.0000      -4.213386      -114.6521
  13   2.0000      -4.206708      -114.4703
  14   2.0000      -4.206538      -114.4657
  15   2.0000      -4.206098      -114.4537
  16   2.0000      -1.412080       -38.4247
  17   2.0000      -1.376989       -37.4698
  18   2.0000      -1.368833       -37.2478
  19   2.0000      -1.334588       -36.3160
  20   2.0000      -0.803510       -21.8646
  21   2.0000      -0.774311       -21.0701
  22   2.0000      -0.770409       -20.9639
  23   2.0000      -0.736431       -20.0393
  24   2.0000      -0.720048       -19.5935
  25   2.0000      -0.667872       -18.1737
  26   2.0000      -0.621811       -16.9203
  27   2.0000      -0.603069       -16.4103
  28   2.0000      -0.598943       -16.2981
  29   2.0000      -0.588775       -16.0214
  30   2.0000      -0.565428       -15.3861
  31   2.0000      -0.549532       -14.9535
  32   2.0000      -0.528111       -14.3706
  33   2.0000      -0.491748       -13.3811
  34   2.0000      -0.487513       -13.2659
  35   2.0000      -0.474902       -12.9228
  36   2.0000      -0.438628       -11.9357
  37   2.0000      -0.413898       -11.2627
  38   2.0000      -0.378657       -10.3038
  39   0.0000       0.018639         0.5072
  40   0.0000       0.026539         0.7222
  41   0.0000       0.030554         0.8314
  42   0.0000       0.033133         0.9016
  43   0.0000       0.040077         1.0905

MULLIKEN ATOMIC CHARGES
-----------------------
   0 Si:    0.503086
   1 Si:    0.543387
   2 B :    1.384437
   3 H :   -0.270556
   4 H :   -0.190564
   5 B :    1.330200
   6 H :   -0.280153
   7 H :   -0.204085
   8 O :   -1.186539
   9 H :    0.372796
  10 O :   -1.038204
  11 H :    0.327454
  12 O :   -1.156769
  13 H :    0.366393
  14 O :   -0.829917
  15 H :    0.329033
Sum of atomic charges:    0.0000000

LOEWDIN ATOMIC CHARGES
----------------------
   0 Si:    0.868292
   1 Si:    0.873066
   2 B :   -1.260212
   3 H :   -0.281541
   4 H :   -0.277600
   5 B :   -1.214125
   6 H :   -0.280840
   7 H :   -0.276145
   8 O :    1.320394
   9 H :   -1.042091
  10 O :    1.271859
  11 H :   -0.810454
  12 O :    1.315363
  13 H :   -0.811108
  14 O :    1.339774
  15 H :   -0.734634

  Mayer bond orders larger than 0.100000
B(  0-Si,  1-Si) :   0.7562 B(  0-Si,  5-B ) :   0.7957 B(  0-Si,  6-H ) :   0.7322
B(  0-Si,  7-H ) :   0.7881 B(  1-Si,  2-B ) :   0.8042 B(  1-Si,  3-H ) :   0.7338
B(  1-Si,  4-H ) :   0.7912 B(  1-Si, 10-O ) :  -0.1204 B(  2-B ,  8-O ) :   0.4133
B(  2-B , 10-O ) :   0.4562 B(  5-B , 12-O ) :   0.4567 B(  5-B , 14-O ) :   0.3801
B(  8-O ,  9-H ) :   0.9310 B(  8-O , 10-O ) :  -0.1848 B(  9-H , 14-O ) :   0.1135
B( 10-O , 11-H ) :   0.9314 B( 12-O , 13-H ) :   0.9203 B( 12-O , 14-O ) :  -0.1972
B( 14-O , 15-H ) :   0.9832

MP2 TOTAL ENERGY:     -933.289548548 Eh
FINAL SINGLE POINT ENERGY      -933.289548548440

DIPOLE MOMENT
-------------
                                X             Y             Z
Electronic contribution:     -0.41069       3.24586       0.02641
Nuclear contribution   :      1.56030      -2.92002      -0.07430
                        -----------------------------------------
Total Dipole Moment    :      1.14961       0.32584      -0.04789
                        -----------------------------------------
Magnitude (a.u.)       :      1.19585
Magnitude (Debye)      :      3.03961

Rotational constants in cm-1:     0.071837     0.025930     0.020219
Rotational constants in MHz :  2153.619833   777.369556   606.159616

                             ****ORCA TERMINATED NORMALLY****
TOTAL RUN TIME: 0 days 1 hours 42 minutes 55 seconds 852 msec
