                         Program Version 5.0.4 -  RELEASE  -
|  1> ! ri-mp2 aug-cc-pvdz aug-cc-pvdz/c tightscf
|  2> %pal nprocs 16 end
|  3> %maxcore 3800
|  4> %base "DZ_B-B_52_A"
|  5> %scf
|  6> STABPerform true
|  7> STABRestartUHFifUnstable true
|  8> end
|  9>
| 10> *xyz 0 2
| 11> B         2.260921    0.038785   -0.187876
| 12> S        -0.370371    0.152519   -0.411401
| 13> O         1.078109   -0.290639    0.336543
| 14> O        -1.167308   -1.142968    0.068952
| 15> O        -0.827967    1.271326    0.361233
| 16> H        -1.326879   -1.107631    1.027728
| 17> H         3.285531   -0.228347    0.360242
| 18> *
| 19>
| 20> $new_job
| 21> ! ri-mp2 aug-cc-pvtz aug-cc-pvtz/c tightscf
| 22> %pal nprocs 16 end
| 23> %maxcore 3800
| 24> %base "TZ_B-B_52_A"
| 25>
| 26> *xyz 0 2
| 27> B         2.260921    0.038785   -0.187876
| 28> S        -0.370371    0.152519   -0.411401
| 29> O         1.078109   -0.290639    0.336543
| 30> O        -1.167308   -1.142968    0.068952
| 31> O        -0.827967    1.271326    0.361233
| 32> H        -1.326879   -1.107631    1.027728
| 33> H         3.285531   -0.228347    0.360242
| 34> *
| 35>
| 36> $new_job
| 37> ! ri-mp2 aug-cc-pvqz aug-cc-pvqz/c tightscf
| 38> %pal nprocs 16 end
| 39> %maxcore 3800
| 40> %base "QZ_B-B_52_A"
| 41>
| 42> *xyz 0 2
| 43> B         2.260921    0.038785   -0.187876
| 44> S        -0.370371    0.152519   -0.411401
| 45> O         1.078109   -0.290639    0.336543
| 46> O        -1.167308   -1.142968    0.068952
| 47> O        -0.827967    1.271326    0.361233
| 48> H        -1.326879   -1.107631    1.027728
| 49> H         3.285531   -0.228347    0.360242
| 50> *
| 51>
| 52>
| 53>
| 54>
| 55>                          ****END OF INPUT****
 Total Charge           Charge          ....    0
 Multiplicity           Mult            ....    2
 Number of Electrons    NEL             ....   47
MP2 TOTAL ENERGY:     -648.717687677 Eh
FINAL SINGLE POINT ENERGY      -648.717687677268
MP2 TOTAL ENERGY:     -649.010494106 Eh
FINAL SINGLE POINT ENERGY      -649.010494106050

CARTESIAN COORDINATES (ANGSTROEM)
---------------------------------
  B      2.260921    0.038785   -0.187876
  S     -0.370371    0.152519   -0.411401
  O      1.078109   -0.290639    0.336543
  O     -1.167308   -1.142968    0.068952
  O     -0.827967    1.271326    0.361233
  H     -1.326879   -1.107631    1.027728
  H      3.285531   -0.228347    0.360242

 Multiplicity           Mult            ....    2
 Number of Electrons    NEL             ....   47
 Basis Dimension        Dim             ....  496

ORBITAL ENERGIES
----------------
                 SPIN UP ORBITALS
  NO   OCC          E(Eh)            E(eV)
   0   1.0000     -92.185710     -2508.5007
   1   1.0000     -20.638108      -561.5915
   2   1.0000     -20.626027      -561.2627
   3   1.0000     -20.568187      -559.6888
   4   1.0000      -9.160282      -249.2640
   5   1.0000      -7.669683      -208.7027
   6   1.0000      -6.842334      -186.1894
   7   1.0000      -6.841805      -186.1750
   8   1.0000      -6.839354      -186.1083
   9   1.0000      -1.506503       -40.9940
  10   1.0000      -1.409345       -38.3502
  11   1.0000      -1.383097       -37.6360
  12   1.0000      -0.951639       -25.8954
  13   1.0000      -0.808109       -21.9898
  14   1.0000      -0.735928       -20.0256
  15   1.0000      -0.706754       -19.2317
  16   1.0000      -0.648011       -17.6333
  17   1.0000      -0.627547       -17.0764
  18   1.0000      -0.624564       -16.9952
  19   1.0000      -0.576173       -15.6785
  20   1.0000      -0.556553       -15.1446
  21   1.0000      -0.507682       -13.8147
  22   1.0000      -0.454826       -12.3764
  23   1.0000      -0.353559        -9.6208
  24   0.0000       0.026236         0.7139
  25   0.0000       0.034076         0.9273
  26   0.0000       0.036474         0.9925
  27   0.0000       0.039588         1.0772
  28   0.0000       0.053816         1.4644

                 SPIN DOWN ORBITALS
  NO   OCC          E(Eh)            E(eV)
   0   1.0000     -92.185446     -2508.4935
   1   1.0000     -20.638182      -561.5935
   2   1.0000     -20.624674      -561.2259
   3   1.0000     -20.568312      -559.6922
   4   1.0000      -9.159885      -249.2531
   5   1.0000      -7.651364      -208.2042
   6   1.0000      -6.841817      -186.1753
   7   1.0000      -6.841366      -186.1630
   8   1.0000      -6.839218      -186.1046
   9   1.0000      -1.505039       -40.9542
  10   1.0000      -1.405796       -38.2537
  11   1.0000      -1.381862       -37.6024
  12   1.0000      -0.948541       -25.8111
  13   1.0000      -0.800965       -21.7954
  14   1.0000      -0.725714       -19.7477
  15   1.0000      -0.702797       -19.1241
  16   1.0000      -0.637249       -17.3404
  17   1.0000      -0.620662       -16.8891
  18   1.0000      -0.603566       -16.4239
  19   1.0000      -0.564379       -15.3575
  20   1.0000      -0.553506       -15.0617
  21   1.0000      -0.506532       -13.7834
  22   1.0000      -0.450412       -12.2563
  23   0.0000       0.026131         0.7111
  24   0.0000       0.031053         0.8450
  25   0.0000       0.037251         1.0136
  26   0.0000       0.039417         1.0726
  27   0.0000       0.054151         1.4735

MULLIKEN ATOMIC CHARGES AND SPIN POPULATIONS
--------------------------------------------
   0 B :    0.554056    0.974072
   1 S :    1.859565    0.008657
   2 O :   -0.856115   -0.016671
   3 O :   -0.759882    0.000219
   4 O :   -1.031524   -0.001781
   5 H :    0.370263   -0.000016
   6 H :   -0.136364    0.035520
Sum of atomic charges         :    0.0000000

LOEWDIN ATOMIC CHARGES AND SPIN POPULATIONS
-------------------------------------------
   0 B :   -0.229518    0.577019
   1 S :    0.015227    0.061198
   2 O :    0.456598    0.178637
   3 O :    0.890413    0.002009
   4 O :    0.102551    0.004240
   5 H :   -0.904692    0.001520
   6 H :   -0.330578    0.175377

  Mayer bond orders larger than 0.100000
B(  0-B ,  2-O ) :   0.7731 B(  0-B ,  6-H ) :   0.9673 B(  1-S ,  2-O ) :   0.7548
B(  1-S ,  3-O ) :   0.7954 B(  1-S ,  4-O ) :   1.4810 B(  3-O ,  5-H ) :   0.8585

MP2 TOTAL ENERGY:     -649.105747295 Eh
FINAL SINGLE POINT ENERGY      -649.105747294999

DIPOLE MOMENT
-------------
                                X             Y             Z
Electronic contribution:     -0.03025       0.60375      -1.42434
Nuclear contribution   :      0.12712      -1.30622       1.48645
                        -----------------------------------------
Total Dipole Moment    :      0.09687      -0.70247       0.06211
                        -----------------------------------------
Magnitude (a.u.)       :      0.71183
Magnitude (Debye)      :      1.80934

Rotational constants in cm-1:     0.275951     0.125246     0.096963
Rotational constants in MHz :  8272.814568  3754.781418  2906.884957

                             ****ORCA TERMINATED NORMALLY****
TOTAL RUN TIME: 0 days 0 hours 29 minutes 58 seconds 628 msec
