                         Program Version 5.0.4 -  RELEASE  -
|  1> ! ri-mp2 aug-cc-pvdz aug-cc-pvdz/c tightscf
|  2> %pal nprocs 16 end
|  3> %maxcore 3800
|  4> %base "DZ_B-Si_45_A"
|  5> %scf
|  6> STABPerform true
|  7> STABRestartUHFifUnstable true
|  8> end
|  9>
| 10> *xyz 0 2
| 11> Si         1.421266    0.000000   -0.135748
| 12> C        -0.398531    0.000000    0.366409
| 13> C        -1.122313    1.262242   -0.097584
| 14> H        -1.164553    1.312388   -1.187593
| 15> H        -0.631177    2.169501    0.256701
| 16> C        -1.122313   -1.262242   -0.097584
| 17> H        -2.150604    1.275840    0.270913
| 18> H        -0.381297    0.000000    1.463692
| 19> H        -2.150604   -1.275840    0.270913
| 20> H        -1.164553   -1.312388   -1.187593
| 21> H        -0.631177   -2.169501    0.256701
| 22> H         2.117591    1.213212    0.364648
| 23> H         2.117591   -1.213212    0.364648
| 24> *
| 25>
| 26> $new_job
| 27> ! ri-mp2 aug-cc-pvtz aug-cc-pvtz/c tightscf
| 28> %pal nprocs 16 end
| 29> %maxcore 3800
| 30> %base "TZ_B-Si_45_A"
| 31>
| 32> *xyz 0 2
| 33> Si         1.421266    0.000000   -0.135748
| 34> C        -0.398531    0.000000    0.366409
| 35> C        -1.122313    1.262242   -0.097584
| 36> H        -1.164553    1.312388   -1.187593
| 37> H        -0.631177    2.169501    0.256701
| 38> C        -1.122313   -1.262242   -0.097584
| 39> H        -2.150604    1.275840    0.270913
| 40> H        -0.381297    0.000000    1.463692
| 41> H        -2.150604   -1.275840    0.270913
| 42> H        -1.164553   -1.312388   -1.187593
| 43> H        -0.631177   -2.169501    0.256701
| 44> H         2.117591    1.213212    0.364648
| 45> H         2.117591   -1.213212    0.364648
| 46> *
| 47>
| 48> $new_job
| 49> ! ri-mp2 aug-cc-pvqz aug-cc-pvqz/c tightscf
| 50> %pal nprocs 16 end
| 51> %maxcore 3800
| 52> %base "QZ_B-Si_45_A"
| 53>
| 54> *xyz 0 2
| 55> Si         1.421266    0.000000   -0.135748
| 56> C        -0.398531    0.000000    0.366409
| 57> C        -1.122313    1.262242   -0.097584
| 58> H        -1.164553    1.312388   -1.187593
| 59> H        -0.631177    2.169501    0.256701
| 60> C        -1.122313   -1.262242   -0.097584
| 61> H        -2.150604    1.275840    0.270913
| 62> H        -0.381297    0.000000    1.463692
| 63> H        -2.150604   -1.275840    0.270913
| 64> H        -1.164553   -1.312388   -1.187593
| 65> H        -0.631177   -2.169501    0.256701
| 66> H         2.117591    1.213212    0.364648
| 67> H         2.117591   -1.213212    0.364648
| 68> *
| 69>
| 70>
| 71>
| 72>
| 73>                          ****END OF INPUT****
 Total Charge           Charge          ....    0
 Multiplicity           Mult            ....    2
 Number of Electrons    NEL             ....   41
MP2 TOTAL ENERGY:     -408.291870767 Eh
FINAL SINGLE POINT ENERGY      -408.291870766540
MP2 TOTAL ENERGY:     -408.443301999 Eh
FINAL SINGLE POINT ENERGY      -408.443301998836

CARTESIAN COORDINATES (ANGSTROEM)
---------------------------------
  Si     1.421266    0.000000   -0.135748
  C     -0.398531    0.000000    0.366409
  C     -1.122313    1.262242   -0.097584
  H     -1.164553    1.312388   -1.187593
  H     -0.631177    2.169501    0.256701
  C     -1.122313   -1.262242   -0.097584
  H     -2.150604    1.275840    0.270913
  H     -0.381297    0.000000    1.463692
  H     -2.150604   -1.275840    0.270913
  H     -1.164553   -1.312388   -1.187593
  H     -0.631177   -2.169501    0.256701
  H      2.117591    1.213212    0.364648
  H      2.117591   -1.213212    0.364648

 Multiplicity           Mult            ....    2
 Number of Electrons    NEL             ....   41
 Basis Dimension        Dim             ....  738

ORBITAL ENERGIES
----------------
                 SPIN UP ORBITALS
  NO   OCC          E(Eh)            E(eV)
   0   1.0000     -68.767968     -1871.2715
   1   1.0000     -11.221357      -305.3486
   2   1.0000     -11.218417      -305.2686
   3   1.0000     -11.218343      -305.2666
   4   1.0000      -6.118859      -166.5026
   5   1.0000      -4.231514      -115.1453
   6   1.0000      -4.221810      -114.8813
   7   1.0000      -4.221272      -114.8667
   8   1.0000      -1.062849       -28.9216
   9   1.0000      -0.934846       -25.4384
  10   1.0000      -0.812003       -22.0957
  11   1.0000      -0.693852       -18.8807
  12   1.0000      -0.621280       -16.9059
  13   1.0000      -0.586672       -15.9642
  14   1.0000      -0.566045       -15.4029
  15   1.0000      -0.540105       -14.6970
  16   1.0000      -0.489536       -13.3210
  17   1.0000      -0.485963       -13.2237
  18   1.0000      -0.471299       -12.8247
  19   1.0000      -0.420362       -11.4386
  20   1.0000      -0.318350        -8.6628
  21   0.0000       0.024467         0.6658
  22   0.0000       0.034211         0.9309
  23   0.0000       0.034303         0.9334
  24   0.0000       0.035385         0.9629
  25   0.0000       0.049083         1.3356

                 SPIN DOWN ORBITALS
  NO   OCC          E(Eh)            E(eV)
   0   1.0000     -68.762410     -1871.1203
   1   1.0000     -11.220724      -305.3314
   2   1.0000     -11.218426      -305.2689
   3   1.0000     -11.218335      -305.2664
   4   1.0000      -6.110372      -166.2717
   5   1.0000      -4.218102      -114.7804
   6   1.0000      -4.217597      -114.7666
   7   1.0000      -4.209415      -114.5440
   8   1.0000      -1.060542       -28.8588
   9   1.0000      -0.934779       -25.4366
  10   1.0000      -0.805092       -21.9077
  11   1.0000      -0.660066       -17.9613
  12   1.0000      -0.618240       -16.8232
  13   1.0000      -0.579614       -15.7721
  14   1.0000      -0.565224       -15.3805
  15   1.0000      -0.540098       -14.6968
  16   1.0000      -0.487806       -13.2739
  17   1.0000      -0.482450       -13.1281
  18   1.0000      -0.464898       -12.6505
  19   1.0000      -0.411501       -11.1975
  20   0.0000       0.023734         0.6458
  21   0.0000       0.029365         0.7991
  22   0.0000       0.034385         0.9357
  23   0.0000       0.035547         0.9673
  24   0.0000       0.047529         1.2933

MULLIKEN ATOMIC CHARGES AND SPIN POPULATIONS
--------------------------------------------
   0 Si:    0.676651    0.972125
   1 C :   -0.076892   -0.022366
   2 C :   -0.904302    0.013631
   3 H :    0.223248    0.002300
   4 H :    0.270841   -0.000365
   5 C :   -0.904303    0.013632
   6 H :    0.268465   -0.003098
   7 H :    0.258325    0.013397
   8 H :    0.268464   -0.003098
   9 H :    0.223248    0.002300
  10 H :    0.270844   -0.000365
  11 H :   -0.287295    0.005954
  12 H :   -0.287295    0.005954
Sum of atomic charges         :   -0.0000000

LOEWDIN ATOMIC CHARGES AND SPIN POPULATIONS
-------------------------------------------
   0 Si:    1.087984    0.523326
   1 C :   -0.005494    0.136654
   2 C :    0.823515    0.025003
   3 H :   -0.293651    0.008373
   4 H :   -0.296930    0.001418
   5 C :    0.823515    0.025003
   6 H :   -0.280978    0.000427
   7 H :   -0.347820    0.019102
   8 H :   -0.280978    0.000427
   9 H :   -0.293651    0.008373
  10 H :   -0.296930    0.001418
  11 H :   -0.319291    0.125238
  12 H :   -0.319291    0.125238

  Mayer bond orders larger than 0.100000
B(  0-Si,  1-C ) :   0.5959 B(  0-Si, 11-H ) :   0.8734 B(  0-Si, 12-H ) :   0.8734
B(  1-C ,  2-C ) :   0.8251 B(  1-C ,  5-C ) :   0.8251 B(  1-C ,  7-H ) :   0.8848
B(  2-C ,  3-H ) :   0.9538 B(  2-C ,  4-H ) :   0.9575 B(  2-C ,  6-H ) :   0.9692
B(  5-C ,  8-H ) :   0.9692 B(  5-C ,  9-H ) :   0.9538 B(  5-C , 10-H ) :   0.9575

MP2 TOTAL ENERGY:     -408.488732227 Eh
FINAL SINGLE POINT ENERGY      -408.488732226818

DIPOLE MOMENT
-------------
                                X             Y             Z
Electronic contribution:      4.00062       0.00000      -0.79040
Nuclear contribution   :     -4.33980      -0.00000       0.92714
                        -----------------------------------------
Total Dipole Moment    :     -0.33918       0.00000       0.13674
                        -----------------------------------------
Magnitude (a.u.)       :      0.36571
Magnitude (Debye)      :      0.92955

Rotational constants in cm-1:     0.258016     0.142118     0.100195
Rotational constants in MHz :  7735.123643  4260.575889  3003.773034

                             ****ORCA TERMINATED NORMALLY****
TOTAL RUN TIME: 0 days 1 hours 50 minutes 40 seconds 674 msec
