                         Program Version 5.0.4 -  RELEASE  -
|  1> ! ri-mp2 aug-cc-pvdz aug-cc-pvdz/c tightscf
|  2> %pal nprocs 16 end
|  3> %maxcore 3800
|  4> %base "DZ_B-F_65_AB"
|  5>
|  6> *xyz 0 1
|  7> F        -2.423900   -1.124136   -0.000004
|  8> F        -2.423900    1.124136   -0.000004
|  9> B        -1.725559   -0.000000    0.000003
| 10> C        -0.184963   -0.000000    0.000003
| 11> C         0.526298    1.200051    0.000003
| 12> H        -0.014081    2.137920    0.000003
| 13> C         1.908713    1.201784    0.000001
| 14> H         2.450775    2.137939   -0.000000
| 15> C         2.598853    0.000000   -0.000001
| 16> C         0.526298   -1.200051    0.000002
| 17> H        -0.014081   -2.137920    0.000003
| 18> C         1.908714   -1.201784    0.000000
| 19> H         2.450775   -2.137939   -0.000001
| 20> H         3.681121    0.000000   -0.000002
| 21> *
| 22>
| 23> $new_job
| 24> ! ri-mp2 aug-cc-pvtz aug-cc-pvtz/c tightscf
| 25> %pal nprocs 16 end
| 26> %maxcore 3800
| 27> %base "TZ_B-F_65_AB"
| 28>
| 29> *xyz 0 1
| 30> F        -2.423900   -1.124136   -0.000004
| 31> F        -2.423900    1.124136   -0.000004
| 32> B        -1.725559   -0.000000    0.000003
| 33> C        -0.184963   -0.000000    0.000003
| 34> C         0.526298    1.200051    0.000003
| 35> H        -0.014081    2.137920    0.000003
| 36> C         1.908713    1.201784    0.000001
| 37> H         2.450775    2.137939   -0.000000
| 38> C         2.598853    0.000000   -0.000001
| 39> C         0.526298   -1.200051    0.000002
| 40> H        -0.014081   -2.137920    0.000003
| 41> C         1.908714   -1.201784    0.000000
| 42> H         2.450775   -2.137939   -0.000001
| 43> H         3.681121    0.000000   -0.000002
| 44> *
| 45>
| 46> $new_job
| 47> ! ri-mp2 aug-cc-pvqz aug-cc-pvqz/c tightscf
| 48> %pal nprocs 16 end
| 49> %maxcore 3800
| 50> %base "QZ_B-F_65_AB"
| 51>
| 52> *xyz 0 1
| 53> F        -2.423900   -1.124136   -0.000004
| 54> F        -2.423900    1.124136   -0.000004
| 55> B        -1.725559   -0.000000    0.000003
| 56> C        -0.184963   -0.000000    0.000003
| 57> C         0.526298    1.200051    0.000003
| 58> H        -0.014081    2.137920    0.000003
| 59> C         1.908713    1.201784    0.000001
| 60> H         2.450775    2.137939   -0.000000
| 61> C         2.598853    0.000000   -0.000001
| 62> C         0.526298   -1.200051    0.000002
| 63> H        -0.014081   -2.137920    0.000003
| 64> C         1.908714   -1.201784    0.000000
| 65> H         2.450775   -2.137939   -0.000001
| 66> H         3.681121    0.000000   -0.000002
| 67> *
| 68>
| 69>
| 70>
| 71>
| 72>                          ****END OF INPUT****
 Total Charge           Charge          ....    0
 Multiplicity           Mult            ....    1
 Number of Electrons    NEL             ....   64
MP2 TOTAL ENERGY:     -455.156197964 Eh
FINAL SINGLE POINT ENERGY      -455.156197964092
MP2 TOTAL ENERGY:     -455.552252867 Eh
FINAL SINGLE POINT ENERGY      -455.552252866993

CARTESIAN COORDINATES (ANGSTROEM)
---------------------------------
  F     -2.423900   -1.124136   -0.000004
  F     -2.423900    1.124136   -0.000004
  B     -1.725559   -0.000000    0.000003
  C     -0.184963   -0.000000    0.000003
  C      0.526298    1.200051    0.000003
  H     -0.014081    2.137920    0.000003
  C      1.908713    1.201784    0.000001
  H      2.450775    2.137939   -0.000000
  C      2.598853    0.000000   -0.000001
  C      0.526298   -1.200051    0.000002
  H     -0.014081   -2.137920    0.000003
  C      1.908714   -1.201784    0.000000
  H      2.450775   -2.137939   -0.000001
  H      3.681121    0.000000   -0.000002

 Multiplicity           Mult            ....    1
 Number of Electrons    NEL             ....   64
 Basis Dimension        Dim             ....  950

ORBITAL ENERGIES
----------------

  NO   OCC          E(Eh)            E(eV)
   0   2.0000     -26.304033      -715.7691
   1   2.0000     -26.304017      -715.7687
   2   2.0000     -11.252799      -306.2042
   3   2.0000     -11.251369      -306.1653
   4   2.0000     -11.251355      -306.1649
   5   2.0000     -11.242396      -305.9211
   6   2.0000     -11.242310      -305.9188
   7   2.0000     -11.227444      -305.5143
   8   2.0000      -7.699697      -209.5194
   9   2.0000      -1.638063       -44.5740
  10   2.0000      -1.605430       -43.6860
  11   2.0000      -1.169636       -31.8274
  12   2.0000      -1.034152       -28.1407
  13   2.0000      -1.032193       -28.0874
  14   2.0000      -0.852707       -23.2033
  15   2.0000      -0.841598       -22.9011
  16   2.0000      -0.806927       -21.9576
  17   2.0000      -0.752317       -20.4716
  18   2.0000      -0.745837       -20.2953
  19   2.0000      -0.707620       -19.2553
  20   2.0000      -0.694172       -18.8894
  21   2.0000      -0.653774       -17.7901
  22   2.0000      -0.651564       -17.7300
  23   2.0000      -0.644800       -17.5459
  24   2.0000      -0.629698       -17.1350
  25   2.0000      -0.600946       -16.3526
  26   2.0000      -0.578255       -15.7351
  27   2.0000      -0.520342       -14.1592
  28   2.0000      -0.505867       -13.7653
  29   2.0000      -0.495459       -13.4821
  30   2.0000      -0.359060        -9.7705
  31   2.0000      -0.352018        -9.5789
  32   0.0000       0.020128         0.5477
  33   0.0000       0.028180         0.7668
  34   0.0000       0.030291         0.8243
  35   0.0000       0.039337         1.0704
  36   0.0000       0.042831         1.1655

MULLIKEN ATOMIC CHARGES
-----------------------
   0 F :   -0.876920
   1 F :   -0.876920
   2 B :    1.885634
   3 C :    0.134292
   4 C :   -0.407596
   5 H :    0.291505
   6 C :   -0.313564
   7 H :    0.255249
   8 C :   -0.277794
   9 C :   -0.407594
  10 H :    0.291505
  11 C :   -0.313563
  12 H :    0.255250
  13 H :    0.360515
Sum of atomic charges:    0.0000000

LOEWDIN ATOMIC CHARGES
----------------------
   0 F :    0.832291
   1 F :    0.832291
   2 B :   -1.737956
   3 C :    0.000129
   4 C :    0.309056
   5 H :   -0.321674
   6 C :    0.353989
   7 H :   -0.319298
   8 C :    0.343479
   9 C :    0.309057
  10 H :   -0.321674
  11 C :    0.353989
  12 H :   -0.319299
  13 H :   -0.314381

  Mayer bond orders larger than 0.100000
B(  0-F ,  2-B ) :   0.1479 B(  1-F ,  2-B ) :   0.1479 B(  2-B ,  3-C ) :   1.0200
B(  3-C ,  4-C ) :   0.9550 B(  3-C ,  5-H ) :  -0.1208 B(  3-C ,  6-C ) :  -0.2806
B(  3-C ,  9-C ) :   0.9550 B(  3-C , 10-H ) :  -0.1208 B(  3-C , 11-C ) :  -0.2806
B(  4-C ,  5-H ) :   0.9340 B(  4-C ,  6-C ) :   1.3495 B(  4-C ,  7-H ) :  -0.1232
B(  4-C , 11-C ) :   0.1446 B(  6-C ,  7-H ) :   1.1026 B(  6-C ,  8-C ) :   1.1545
B(  6-C ,  9-C ) :   0.1446 B(  8-C , 11-C ) :   1.1545 B(  8-C , 13-H ) :   0.9739
B(  9-C , 10-H ) :   0.9340 B(  9-C , 11-C ) :   1.3495 B(  9-C , 12-H ) :  -0.1232
B( 11-C , 12-H ) :   1.1026

MP2 TOTAL ENERGY:     -455.678697795 Eh
FINAL SINGLE POINT ENERGY      -455.678697795498

DIPOLE MOMENT
-------------
                                X             Y             Z
Electronic contribution:    -13.02971      -0.00000      -0.00000
Nuclear contribution   :     14.06387       0.00000       0.00001
                        -----------------------------------------
Total Dipole Moment    :      1.03416      -0.00000       0.00001
                        -----------------------------------------
Magnitude (a.u.)       :      1.03416
Magnitude (Debye)      :      2.62863

Rotational constants in cm-1:     0.124197     0.037034     0.028527
Rotational constants in MHz :  3723.326729  1110.249328   855.230362

                             ****ORCA TERMINATED NORMALLY****
TOTAL RUN TIME: 0 days 0 hours 21 minutes 52 seconds 850 msec
