                         Program Version 5.0.4 -  RELEASE  -
|  1> ! ri-mp2 aug-cc-pvdz aug-cc-pvdz/c tightscf
|  2> %pal nprocs 16 end
|  3> %maxcore 3800
|  4> %base "DZ_Si-F_28_A"
|  5> %scf
|  6> STABPerform true
|  7> STABRestartUHFifUnstable true
|  8> end
|  9>
| 10> *xyz 0 2
| 11> Si        -1.004007   -0.758074   -0.000024
| 12> C         0.720956   -0.002321   -0.000011
| 13> F        -1.782345    0.656704    0.000029
| 14> F         1.811807   -0.741363    0.000028
| 15> F         1.051690    1.265433   -0.000013
| 16> *
| 17>
| 18> $new_job
| 19> ! ri-mp2 aug-cc-pvtz aug-cc-pvtz/c tightscf
| 20> %pal nprocs 16 end
| 21> %maxcore 3800
| 22> %base "TZ_Si-F_28_A"
| 23>
| 24> *xyz 0 2
| 25> Si        -1.004007   -0.758074   -0.000024
| 26> C         0.720956   -0.002321   -0.000011
| 27> F        -1.782345    0.656704    0.000029
| 28> F         1.811807   -0.741363    0.000028
| 29> F         1.051690    1.265433   -0.000013
| 30> *
| 31>
| 32> $new_job
| 33> ! ri-mp2 aug-cc-pvqz aug-cc-pvqz/c tightscf
| 34> %pal nprocs 16 end
| 35> %maxcore 3800
| 36> %base "QZ_Si-F_28_A"
| 37>
| 38> *xyz 0 2
| 39> Si        -1.004007   -0.758074   -0.000024
| 40> C         0.720956   -0.002321   -0.000011
| 41> F        -1.782345    0.656704    0.000029
| 42> F         1.811807   -0.741363    0.000028
| 43> F         1.051690    1.265433   -0.000013
| 44> *
| 45>
| 46>
| 47>
| 48>
| 49>                          ****END OF INPUT****
 Total Charge           Charge          ....    0
 Multiplicity           Mult            ....    2
 Number of Electrons    NEL             ....   47
MP2 TOTAL ENERGY:     -625.929266318 Eh
FINAL SINGLE POINT ENERGY      -625.929266318472
MP2 TOTAL ENERGY:     -626.240513257 Eh
FINAL SINGLE POINT ENERGY      -626.240513256906

CARTESIAN COORDINATES (ANGSTROEM)
---------------------------------
  Si    -1.004007   -0.758074   -0.000024
  C      0.720956   -0.002321   -0.000011
  F     -1.782345    0.656704    0.000029
  F      1.811807   -0.741363    0.000028
  F      1.051690    1.265433   -0.000013

 Multiplicity           Mult            ....    2
 Number of Electrons    NEL             ....   47
 Basis Dimension        Dim             ....  404

ORBITAL ENERGIES
----------------
                 SPIN UP ORBITALS
  NO   OCC          E(Eh)            E(eV)
   0   1.0000     -68.851497     -1873.5445
   1   1.0000     -26.353653      -717.1193
   2   1.0000     -26.352771      -717.0954
   3   1.0000     -26.299721      -715.6518
   4   1.0000     -11.421438      -310.7931
   5   1.0000      -6.191937      -168.4912
   6   1.0000      -4.296300      -116.9083
   7   1.0000      -4.294126      -116.8491
   8   1.0000      -4.291720      -116.7836
   9   1.0000      -1.718425       -46.7607
  10   1.0000      -1.650743       -44.9190
  11   1.0000      -1.600321       -43.5470
  12   1.0000      -0.978077       -26.6148
  13   1.0000      -0.825914       -22.4743
  14   1.0000      -0.804900       -21.9024
  15   1.0000      -0.797041       -21.6886
  16   1.0000      -0.751650       -20.4534
  17   1.0000      -0.716274       -19.4908
  18   1.0000      -0.683492       -18.5988
  19   1.0000      -0.676287       -18.4027
  20   1.0000      -0.669196       -18.2097
  21   1.0000      -0.620350       -16.8806
  22   1.0000      -0.392930       -10.6922
  23   1.0000      -0.384372       -10.4593
  24   0.0000       0.020347         0.5537
  25   0.0000       0.036359         0.9894
  26   0.0000       0.038689         1.0528
  27   0.0000       0.042079         1.1450
  28   0.0000       0.063647         1.7319

                 SPIN DOWN ORBITALS
  NO   OCC          E(Eh)            E(eV)
   0   1.0000     -68.851163     -1873.5354
   1   1.0000     -26.349375      -717.0029
   2   1.0000     -26.348447      -716.9777
   3   1.0000     -26.299044      -715.6334
   4   1.0000     -11.402634      -310.2814
   5   1.0000      -6.191397      -168.4765
   6   1.0000      -4.294482      -116.8588
   7   1.0000      -4.293112      -116.8215
   8   1.0000      -4.292260      -116.7983
   9   1.0000      -1.704582       -46.3840
  10   1.0000      -1.640385       -44.6371
  11   1.0000      -1.598571       -43.4993
  12   1.0000      -0.932236       -25.3674
  13   1.0000      -0.813672       -22.1411
  14   1.0000      -0.800371       -21.7792
  15   1.0000      -0.750052       -20.4100
  16   1.0000      -0.737345       -20.0642
  17   1.0000      -0.683759       -18.6060
  18   1.0000      -0.672406       -18.2971
  19   1.0000      -0.667520       -18.1641
  20   1.0000      -0.666111       -18.1258
  21   1.0000      -0.597183       -16.2502
  22   1.0000      -0.384466       -10.4618
  23   0.0000      -0.003623        -0.0986
  24   0.0000       0.036817         1.0018
  25   0.0000       0.039543         1.0760
  26   0.0000       0.042566         1.1583
  27   0.0000       0.052419         1.4264

MULLIKEN ATOMIC CHARGES AND SPIN POPULATIONS
--------------------------------------------
   0 Si:    1.085019    0.127851
   1 C :    0.640458    0.820300
   2 F :   -0.686329    0.003371
   3 F :   -0.524728    0.021692
   4 F :   -0.514419    0.026785
Sum of atomic charges         :    0.0000000

LOEWDIN ATOMIC CHARGES AND SPIN POPULATIONS
-------------------------------------------
   0 Si:    0.125534    0.189313
   1 C :   -1.507803    0.519835
   2 F :    0.179663    0.019621
   3 F :    0.587119    0.136558
   4 F :    0.615487    0.134673

  Mayer bond orders larger than 0.100000
B(  0-Si,  1-C ) :   0.8948 B(  0-Si,  2-F ) :   0.3786 B(  1-C ,  3-F ) :   0.7257
B(  1-C ,  4-F ) :   0.7041

MP2 TOTAL ENERGY:     -626.344296245 Eh
FINAL SINGLE POINT ENERGY      -626.344296245338

DIPOLE MOMENT
-------------
                                X             Y             Z
Electronic contribution:      0.83237       0.61558       0.00002
Nuclear contribution   :     -0.91531      -1.01833      -0.00004
                        -----------------------------------------
Total Dipole Moment    :     -0.08294      -0.40275      -0.00002
                        -----------------------------------------
Magnitude (a.u.)       :      0.41120
Magnitude (Debye)      :      1.04518

Rotational constants in cm-1:     0.258660     0.094555     0.069243
Rotational constants in MHz :  7754.421847  2834.689208  2075.847143

                             ****ORCA TERMINATED NORMALLY****
TOTAL RUN TIME: 0 days 0 hours 12 minutes 53 seconds 22 msec
