                         Program Version 5.0.4 -  RELEASE  -
|  1> ! ri-mp2 aug-cc-pvdz aug-cc-pvdz/c tightscf
|  2> %pal nprocs 16 end
|  3> %maxcore 3800
|  4> %base "DZ_P-N_77_AB"
|  5> %scf
|  6> STABPerform true
|  7> STABRestartUHFifUnstable true
|  8> end
|  9>
| 10> *xyz 0 1
| 11> C         2.232442    1.482366   -0.140628
| 12> C         0.878183    1.000630   -0.648531
| 13> C         3.266578    0.363736   -0.165683
| 14> H         2.122266    1.848444    0.885306
| 15> H         2.574764    2.329101   -0.738898
| 16> C         2.781656   -0.853982    0.611224
| 17> H         4.217054    0.716266    0.239402
| 18> H         3.457259    0.074593   -1.204408
| 19> C         1.426695   -1.337336    0.105260
| 20> H         2.695618   -0.595257    1.671274
| 21> H         3.512419   -1.662367    0.545105
| 22> C         0.387307   -0.214145    0.138852
| 23> H         1.086207   -2.185477    0.703376
| 24> H         1.536659   -1.700983   -0.922196
| 25> H         0.963071    0.730437   -1.706624
| 26> H         0.143018    1.804917   -0.592735
| 27> N        -2.269696    0.443579   -0.030626
| 28> O        -3.573296    0.049379   -0.408338
| 29> O        -2.265609    0.574880    1.372863
| 30> H        -2.346179    1.523923    1.524367
| 31> H        -3.947233    0.834580   -0.823369
| 32> P        -1.199597   -0.851584   -0.544412
| 33> H         0.221913    0.078172    1.177894
| 34> H        -1.480931   -1.769331    0.502914
| 35> *
| 36>
| 37> $new_job
| 38> ! ri-mp2 aug-cc-pvtz aug-cc-pvtz/c tightscf
| 39> %pal nprocs 16 end
| 40> %maxcore 3800
| 41> %base "TZ_P-N_77_AB"
| 42>
| 43> *xyz 0 1
| 44> C         2.232442    1.482366   -0.140628
| 45> C         0.878183    1.000630   -0.648531
| 46> C         3.266578    0.363736   -0.165683
| 47> H         2.122266    1.848444    0.885306
| 48> H         2.574764    2.329101   -0.738898
| 49> C         2.781656   -0.853982    0.611224
| 50> H         4.217054    0.716266    0.239402
| 51> H         3.457259    0.074593   -1.204408
| 52> C         1.426695   -1.337336    0.105260
| 53> H         2.695618   -0.595257    1.671274
| 54> H         3.512419   -1.662367    0.545105
| 55> C         0.387307   -0.214145    0.138852
| 56> H         1.086207   -2.185477    0.703376
| 57> H         1.536659   -1.700983   -0.922196
| 58> H         0.963071    0.730437   -1.706624
| 59> H         0.143018    1.804917   -0.592735
| 60> N        -2.269696    0.443579   -0.030626
| 61> O        -3.573296    0.049379   -0.408338
| 62> O        -2.265609    0.574880    1.372863
| 63> H        -2.346179    1.523923    1.524367
| 64> H        -3.947233    0.834580   -0.823369
| 65> P        -1.199597   -0.851584   -0.544412
| 66> H         0.221913    0.078172    1.177894
| 67> H        -1.480931   -1.769331    0.502914
| 68> *
| 69>
| 70> $new_job
| 71> ! ri-mp2 aug-cc-pvqz aug-cc-pvqz/c tightscf
| 72> %pal nprocs 16 end
| 73> %maxcore 3800
| 74> %base "QZ_P-N_77_AB"
| 75>
| 76> *xyz 0 1
| 77> C         2.232442    1.482366   -0.140628
| 78> C         0.878183    1.000630   -0.648531
| 79> C         3.266578    0.363736   -0.165683
| 80> H         2.122266    1.848444    0.885306
| 81> H         2.574764    2.329101   -0.738898
| 82> C         2.781656   -0.853982    0.611224
| 83> H         4.217054    0.716266    0.239402
| 84> H         3.457259    0.074593   -1.204408
| 85> C         1.426695   -1.337336    0.105260
| 86> H         2.695618   -0.595257    1.671274
| 87> H         3.512419   -1.662367    0.545105
| 88> C         0.387307   -0.214145    0.138852
| 89> H         1.086207   -2.185477    0.703376
| 90> H         1.536659   -1.700983   -0.922196
| 91> H         0.963071    0.730437   -1.706624
| 92> H         0.143018    1.804917   -0.592735
| 93> N        -2.269696    0.443579   -0.030626
| 94> O        -3.573296    0.049379   -0.408338
| 95> O        -2.265609    0.574880    1.372863
| 96> H        -2.346179    1.523923    1.524367
| 97> H        -3.947233    0.834580   -0.823369
| 98> P        -1.199597   -0.851584   -0.544412
| 99> H         0.221913    0.078172    1.177894
|100> H        -1.480931   -1.769331    0.502914
|101> *
|102>
|103>
|104>
|105>
|106>                          ****END OF INPUT****
 Total Charge           Charge          ....    0
 Multiplicity           Mult            ....    1
 Number of Electrons    NEL             ....   88
MP2 TOTAL ENERGY:     -781.815437261 Eh
FINAL SINGLE POINT ENERGY      -781.815437260722
MP2 TOTAL ENERGY:     -782.254442924 Eh
FINAL SINGLE POINT ENERGY      -782.254442923963

CARTESIAN COORDINATES (ANGSTROEM)
---------------------------------
  C      2.232442    1.482366   -0.140628
  C      0.878183    1.000630   -0.648531
  C      3.266578    0.363736   -0.165683
  H      2.122266    1.848444    0.885306
  H      2.574764    2.329101   -0.738898
  C      2.781656   -0.853982    0.611224
  H      4.217054    0.716266    0.239402
  H      3.457259    0.074593   -1.204408
  C      1.426695   -1.337336    0.105260
  H      2.695618   -0.595257    1.671274
  H      3.512419   -1.662367    0.545105
  C      0.387307   -0.214145    0.138852
  H      1.086207   -2.185477    0.703376
  H      1.536659   -1.700983   -0.922196
  H      0.963071    0.730437   -1.706624
  H      0.143018    1.804917   -0.592735
  N     -2.269696    0.443579   -0.030626
  O     -3.573296    0.049379   -0.408338
  O     -2.265609    0.574880    1.372863
  H     -2.346179    1.523923    1.524367
  H     -3.947233    0.834580   -0.823369
  P     -1.199597   -0.851584   -0.544412
  H      0.221913    0.078172    1.177894
  H     -1.480931   -1.769331    0.502914

 Multiplicity           Mult            ....    1
 Number of Electrons    NEL             ....   88
 Basis Dimension        Dim             .... 1448

ORBITAL ENERGIES
----------------

  NO   OCC          E(Eh)            E(eV)
   0   2.0000     -79.949990     -2175.5498
   1   2.0000     -20.598946      -560.5258
   2   2.0000     -20.597587      -560.4888
   3   2.0000     -15.663277      -426.2194
   4   2.0000     -11.225309      -305.4562
   5   2.0000     -11.222354      -305.3758
   6   2.0000     -11.218929      -305.2826
   7   2.0000     -11.217127      -305.2336
   8   2.0000     -11.216308      -305.2112
   9   2.0000     -11.215113      -305.1787
  10   2.0000      -7.490733      -203.8332
  11   2.0000      -5.384695      -146.5250
  12   2.0000      -5.383989      -146.5058
  13   2.0000      -5.383095      -146.4815
  14   2.0000      -1.466475       -39.9048
  15   2.0000      -1.351269       -36.7699
  16   2.0000      -1.126534       -30.6546
  17   2.0000      -1.049411       -28.5559
  18   2.0000      -1.010350       -27.4930
  19   2.0000      -1.005187       -27.3525
  20   2.0000      -0.853672       -23.2296
  21   2.0000      -0.837359       -22.7857
  22   2.0000      -0.776967       -21.1424
  23   2.0000      -0.751432       -20.4475
  24   2.0000      -0.721286       -19.6272
  25   2.0000      -0.712013       -19.3749
  26   2.0000      -0.651953       -17.7405
  27   2.0000      -0.639197       -17.3934
  28   2.0000      -0.608452       -16.5568
  29   2.0000      -0.607057       -16.5189
  30   2.0000      -0.602439       -16.3932
  31   2.0000      -0.590657       -16.0726
  32   2.0000      -0.534500       -14.5445
  33   2.0000      -0.531274       -14.4567
  34   2.0000      -0.510273       -13.8852
  35   2.0000      -0.504307       -13.7229
  36   2.0000      -0.493400       -13.4261
  37   2.0000      -0.487599       -13.2682
  38   2.0000      -0.485428       -13.2092
  39   2.0000      -0.457024       -12.4363
  40   2.0000      -0.434987       -11.8366
  41   2.0000      -0.421003       -11.4561
  42   2.0000      -0.405658       -11.0385
  43   2.0000      -0.357321        -9.7232
  44   0.0000       0.021715         0.5909
  45   0.0000       0.026544         0.7223
  46   0.0000       0.030990         0.8433
  47   0.0000       0.032507         0.8846
  48   0.0000       0.041176         1.1204

MULLIKEN ATOMIC CHARGES
-----------------------
   0 C :   -0.490786
   1 C :   -0.389043
   2 C :   -0.433524
   3 H :    0.130636
   4 H :    0.231708
   5 C :   -0.495631
   6 H :    0.254188
   7 H :    0.109922
   8 C :   -0.496623
   9 H :    0.133084
  10 H :    0.232122
  11 C :    0.258864
  12 H :    0.248872
  13 H :    0.173046
  14 H :    0.236564
  15 H :    0.299238
  16 N :    0.123311
  17 O :   -0.761293
  18 O :   -0.689453
  19 H :    0.366471
  20 H :    0.355731
  21 P :    0.592586
  22 H :    0.168308
  23 H :   -0.158298
Sum of atomic charges:    0.0000000

LOEWDIN ATOMIC CHARGES
----------------------
   0 C :    0.536554
   1 C :    0.451061
   2 C :    0.532832
   3 H :   -0.261494
   4 H :   -0.257410
   5 C :    0.537731
   6 H :   -0.258436
   7 H :   -0.262584
   8 C :    0.443489
   9 H :   -0.261234
  10 H :   -0.256893
  11 C :   -0.067679
  12 H :   -0.273744
  13 H :   -0.275300
  14 H :   -0.276853
  15 H :   -0.279613
  16 N :   -0.397967
  17 O :    0.981656
  18 O :    1.012182
  19 H :   -0.839873
  20 H :   -0.855271
  21 P :    1.064627
  22 H :   -0.349476
  23 H :   -0.386305

  Mayer bond orders larger than 0.100000
B(  0-C ,  1-C ) :   0.8439 B(  0-C ,  2-C ) :   0.8669 B(  0-C ,  3-H ) :   1.0460
B(  0-C ,  4-H ) :   0.9976 B(  1-C , 11-C ) :   0.6940 B(  1-C , 14-H ) :   0.9345
B(  1-C , 15-H ) :   0.9310 B(  2-C ,  5-C ) :   0.8826 B(  2-C ,  6-H ) :   0.9558
B(  2-C ,  7-H ) :   1.0616 B(  5-C ,  8-C ) :   0.8988 B(  5-C ,  9-H ) :   1.0425
B(  5-C , 10-H ) :   0.9982 B(  5-C , 11-C ) :  -0.1014 B(  8-C , 11-C ) :   0.6267
B(  8-C , 12-H ) :   0.9696 B(  8-C , 13-H ) :   1.0047 B( 11-C , 16-N ) :  -0.2310
B( 11-C , 21-P ) :   0.7189 B( 11-C , 22-H ) :   0.9300 B( 11-C , 23-H ) :  -0.1248
B( 16-N , 17-O ) :   0.5125 B( 16-N , 18-O ) :   0.6558 B( 16-N , 21-P ) :   0.8082
B( 17-O , 18-O ) :   0.1012 B( 17-O , 20-H ) :   0.9150 B( 18-O , 19-H ) :   0.8925
B( 21-P , 23-H ) :   1.0213

MP2 TOTAL ENERGY:     -782.393260509 Eh
FINAL SINGLE POINT ENERGY      -782.393260508763

DIPOLE MOMENT
-------------
                                X             Y             Z
Electronic contribution:    -15.52519      -1.98919      -1.70281
Nuclear contribution   :     15.99757       2.88741       1.81816
                        -----------------------------------------
Total Dipole Moment    :      0.47238       0.89822       0.11536
                        -----------------------------------------
Magnitude (a.u.)       :      1.02139
Magnitude (Debye)      :      2.59617

Rotational constants in cm-1:     0.084550     0.019273     0.017954
Rotational constants in MHz :  2534.731135   577.801028   538.243906

                             ****ORCA TERMINATED NORMALLY****
TOTAL RUN TIME: 0 days 6 hours 6 minutes 9 seconds 360 msec
