                         Program Version 5.0.4 -  RELEASE  -
|  1> ! ri-mp2 aug-cc-pvdz aug-cc-pvdz/c tightscf
|  2> %pal nprocs 16 end
|  3> %maxcore 3800
|  4> %base "DZ_P-N_50_AB"
|  5> %scf
|  6> STABPerform true
|  7> STABRestartUHFifUnstable true
|  8> end
|  9>
| 10> *xyz 0 1
| 11> C        -1.146009   -0.403196    0.026863
| 12> N         1.259383    0.913272    0.118866
| 13> O        -1.688438    0.666057   -0.046386
| 14> P         0.677981   -0.644056   -0.124036
| 15> H        -1.736201   -1.333393    0.172317
| 16> H         0.746871   -1.204170    1.177916
| 17> H         1.749121    1.313172   -0.663958
| 18> H         0.638366    1.583041    0.552121
| 19> *
| 20>
| 21> $new_job
| 22> ! ri-mp2 aug-cc-pvtz aug-cc-pvtz/c tightscf
| 23> %pal nprocs 16 end
| 24> %maxcore 3800
| 25> %base "TZ_P-N_50_AB"
| 26>
| 27> *xyz 0 1
| 28> C        -1.146009   -0.403196    0.026863
| 29> N         1.259383    0.913272    0.118866
| 30> O        -1.688438    0.666057   -0.046386
| 31> P         0.677981   -0.644056   -0.124036
| 32> H        -1.736201   -1.333393    0.172317
| 33> H         0.746871   -1.204170    1.177916
| 34> H         1.749121    1.313172   -0.663958
| 35> H         0.638366    1.583041    0.552121
| 36> *
| 37>
| 38> $new_job
| 39> ! ri-mp2 aug-cc-pvqz aug-cc-pvqz/c tightscf
| 40> %pal nprocs 16 end
| 41> %maxcore 3800
| 42> %base "QZ_P-N_50_AB"
| 43>
| 44> *xyz 0 1
| 45> C        -1.146009   -0.403196    0.026863
| 46> N         1.259383    0.913272    0.118866
| 47> O        -1.688438    0.666057   -0.046386
| 48> P         0.677981   -0.644056   -0.124036
| 49> H        -1.736201   -1.333393    0.172317
| 50> H         0.746871   -1.204170    1.177916
| 51> H         1.749121    1.313172   -0.663958
| 52> H         0.638366    1.583041    0.552121
| 53> *
| 54>
| 55>
| 56>
| 57>
| 58>                          ****END OF INPUT****
 Total Charge           Charge          ....    0
 Multiplicity           Mult            ....    1
 Number of Electrons    NEL             ....   40
MP2 TOTAL ENERGY:     -510.890288658 Eh
FINAL SINGLE POINT ENERGY      -510.890288658363
MP2 TOTAL ENERGY:     -511.084665402 Eh
FINAL SINGLE POINT ENERGY      -511.084665402335

CARTESIAN COORDINATES (ANGSTROEM)
---------------------------------
  C     -1.146009   -0.403196    0.026863
  N      1.259383    0.913272    0.118866
  O     -1.688438    0.666057   -0.046386
  P      0.677981   -0.644056   -0.124036
  H     -1.736201   -1.333393    0.172317
  H      0.746871   -1.204170    1.177916
  H      1.749121    1.313172   -0.663958
  H      0.638366    1.583041    0.552121

 Multiplicity           Mult            ....    1
 Number of Electrons    NEL             ....   40
 Basis Dimension        Dim             ....  508

ORBITAL ENERGIES
----------------

  NO   OCC          E(Eh)            E(eV)
   0   2.0000     -79.974430     -2176.2149
   1   2.0000     -20.570957      -559.7642
   2   2.0000     -15.563439      -423.5027
   3   2.0000     -11.336932      -308.4936
   4   2.0000      -7.514237      -204.4728
   5   2.0000      -5.408457      -147.1716
   6   2.0000      -5.408004      -147.1593
   7   2.0000      -5.407659      -147.1499
   8   2.0000      -1.409254       -38.3478
   9   2.0000      -1.180719       -32.1290
  10   2.0000      -0.911102       -24.7924
  11   2.0000      -0.777969       -21.1696
  12   2.0000      -0.692450       -18.8425
  13   2.0000      -0.666767       -18.1437
  14   2.0000      -0.633734       -17.2448
  15   2.0000      -0.576922       -15.6989
  16   2.0000      -0.543578       -14.7915
  17   2.0000      -0.471882       -12.8406
  18   2.0000      -0.403902       -10.9907
  19   2.0000      -0.373920       -10.1749
  20   0.0000       0.025654         0.6981
  21   0.0000       0.031409         0.8547
  22   0.0000       0.043504         1.1838
  23   0.0000       0.044662         1.2153
  24   0.0000       0.062888         1.7113

MULLIKEN ATOMIC CHARGES
-----------------------
   0 C :   -0.125692
   1 N :   -0.854568
   2 O :   -0.691188
   3 P :    0.700955
   4 H :    0.501050
   5 H :   -0.084047
   6 H :    0.259328
   7 H :    0.294162
Sum of atomic charges:   -0.0000000

LOEWDIN ATOMIC CHARGES
----------------------
   0 C :   -0.485339
   1 N :    0.979347
   2 O :    0.606127
   3 P :    1.037439
   4 H :   -0.442800
   5 H :   -0.455004
   6 H :   -0.617659
   7 H :   -0.622112

  Mayer bond orders larger than 0.100000
B(  0-C ,  2-O ) :   1.6980 B(  0-C ,  3-P ) :   0.8646 B(  0-C ,  4-H ) :   0.6944
B(  1-N ,  3-P ) :   0.9385 B(  1-N ,  6-H ) :   0.9533 B(  1-N ,  7-H ) :   0.9123
B(  3-P ,  5-H ) :   0.9006

MP2 TOTAL ENERGY:     -511.148151329 Eh
FINAL SINGLE POINT ENERGY      -511.148151329435

DIPOLE MOMENT
-------------
                                X             Y             Z
Electronic contribution:     -0.32432      -1.28316      -1.24512
Nuclear contribution   :      0.71515       0.96352       1.32303
                        -----------------------------------------
Total Dipole Moment    :      0.39084      -0.31964       0.07790
                        -----------------------------------------
Magnitude (a.u.)       :      0.51087
Magnitude (Debye)      :      1.29853

Rotational constants in cm-1:     0.387041     0.155901     0.115392
Rotational constants in MHz : 11603.199610  4673.805958  3459.379634

                             ****ORCA TERMINATED NORMALLY****
TOTAL RUN TIME: 0 days 0 hours 11 minutes 21 seconds 420 msec
