                         Program Version 5.0.4 -  RELEASE  -
|  1> ! ri-mp2 aug-cc-pvdz aug-cc-pvdz/c tightscf
|  2> %pal nprocs 16 end
|  3> %maxcore 3800
|  4> %base "DZ_B-S_40_AB"
|  5> %scf
|  6> STABPerform true
|  7> STABRestartUHFifUnstable true
|  8> end
|  9>
| 10> *xyz 0 1
| 11> O         0.910497    1.383621   -0.011978
| 12> S         2.733934   -0.687198    0.005060
| 13> O         0.023545   -0.841881   -0.015638
| 14> C        -0.395283    1.948436   -0.023660
| 15> C        -1.399477    0.998928   -0.640965
| 16> C        -1.341749   -0.388402   -0.003866
| 17> C        -1.817284   -0.383194    1.440884
| 18> C        -2.129881   -1.390257   -0.824641
| 19> B         1.059580    0.032528   -0.006790
| 20> H        -0.339004    2.875077   -0.593750
| 21> H        -0.668729    2.206764    1.001594
| 22> H        -1.186556    0.898829   -1.707857
| 23> H        -2.404841    1.411974   -0.545078
| 24> H        -2.866561   -0.091958    1.499655
| 25> H        -1.233097    0.304083    2.051856
| 26> H        -1.709527   -1.380388    1.865178
| 27> H        -1.749578   -1.426588   -1.844931
| 28> H        -2.038026   -2.384594   -0.389328
| 29> H        -3.185433   -1.117968   -0.854236
| 30> H         3.370218    0.490321    0.004301
| 31> *
| 32>
| 33> $new_job
| 34> ! ri-mp2 aug-cc-pvtz aug-cc-pvtz/c tightscf
| 35> %pal nprocs 16 end
| 36> %maxcore 3800
| 37> %base "TZ_B-S_40_AB"
| 38>
| 39> *xyz 0 1
| 40> O         0.910497    1.383621   -0.011978
| 41> S         2.733934   -0.687198    0.005060
| 42> O         0.023545   -0.841881   -0.015638
| 43> C        -0.395283    1.948436   -0.023660
| 44> C        -1.399477    0.998928   -0.640965
| 45> C        -1.341749   -0.388402   -0.003866
| 46> C        -1.817284   -0.383194    1.440884
| 47> C        -2.129881   -1.390257   -0.824641
| 48> B         1.059580    0.032528   -0.006790
| 49> H        -0.339004    2.875077   -0.593750
| 50> H        -0.668729    2.206764    1.001594
| 51> H        -1.186556    0.898829   -1.707857
| 52> H        -2.404841    1.411974   -0.545078
| 53> H        -2.866561   -0.091958    1.499655
| 54> H        -1.233097    0.304083    2.051856
| 55> H        -1.709527   -1.380388    1.865178
| 56> H        -1.749578   -1.426588   -1.844931
| 57> H        -2.038026   -2.384594   -0.389328
| 58> H        -3.185433   -1.117968   -0.854236
| 59> H         3.370218    0.490321    0.004301
| 60> *
| 61>
| 62> $new_job
| 63> ! ri-mp2 aug-cc-pvqz aug-cc-pvqz/c tightscf
| 64> %pal nprocs 16 end
| 65> %maxcore 3800
| 66> %base "QZ_B-S_40_AB"
| 67>
| 68> *xyz 0 1
| 69> O         0.910497    1.383621   -0.011978
| 70> S         2.733934   -0.687198    0.005060
| 71> O         0.023545   -0.841881   -0.015638
| 72> C        -0.395283    1.948436   -0.023660
| 73> C        -1.399477    0.998928   -0.640965
| 74> C        -1.341749   -0.388402   -0.003866
| 75> C        -1.817284   -0.383194    1.440884
| 76> C        -2.129881   -1.390257   -0.824641
| 77> B         1.059580    0.032528   -0.006790
| 78> H        -0.339004    2.875077   -0.593750
| 79> H        -0.668729    2.206764    1.001594
| 80> H        -1.186556    0.898829   -1.707857
| 81> H        -2.404841    1.411974   -0.545078
| 82> H        -2.866561   -0.091958    1.499655
| 83> H        -1.233097    0.304083    2.051856
| 84> H        -1.709527   -1.380388    1.865178
| 85> H        -1.749578   -1.426588   -1.844931
| 86> H        -2.038026   -2.384594   -0.389328
| 87> H        -3.185433   -1.117968   -0.854236
| 88> H         3.370218    0.490321    0.004301
| 89> *
| 90>
| 91>
| 92>
| 93>
| 94>                          ****END OF INPUT****
 Total Charge           Charge          ....    0
 Multiplicity           Mult            ....    1
 Number of Electrons    NEL             ....   78
MP2 TOTAL ENERGY:     -769.221666351 Eh
FINAL SINGLE POINT ENERGY      -769.221666350629
MP2 TOTAL ENERGY:     -769.608579684 Eh
FINAL SINGLE POINT ENERGY      -769.608579683634

CARTESIAN COORDINATES (ANGSTROEM)
---------------------------------
  O      0.910497    1.383621   -0.011978
  S      2.733934   -0.687198    0.005060
  O      0.023545   -0.841881   -0.015638
  C     -0.395283    1.948436   -0.023660
  C     -1.399477    0.998928   -0.640965
  C     -1.341749   -0.388402   -0.003866
  C     -1.817284   -0.383194    1.440884
  C     -2.129881   -1.390257   -0.824641
  B      1.059580    0.032528   -0.006790
  H     -0.339004    2.875077   -0.593750
  H     -0.668729    2.206764    1.001594
  H     -1.186556    0.898829   -1.707857
  H     -2.404841    1.411974   -0.545078
  H     -2.866561   -0.091958    1.499655
  H     -1.233097    0.304083    2.051856
  H     -1.709527   -1.380388    1.865178
  H     -1.749578   -1.426588   -1.844931
  H     -2.038026   -2.384594   -0.389328
  H     -3.185433   -1.117968   -0.854236
  H      3.370218    0.490321    0.004301

 Multiplicity           Mult            ....    1
 Number of Electrons    NEL             ....   78
 Basis Dimension        Dim             .... 1230

ORBITAL ENERGIES
----------------

  NO   OCC          E(Eh)            E(eV)
   0   2.0000     -91.929965     -2501.5415
   1   2.0000     -20.565379      -559.6124
   2   2.0000     -20.559289      -559.4467
   3   2.0000     -11.302044      -307.5443
   4   2.0000     -11.291572      -307.2593
   5   2.0000     -11.236656      -305.7650
   6   2.0000     -11.223310      -305.4018
   7   2.0000     -11.219729      -305.3044
   8   2.0000      -8.935296      -243.1418
   9   2.0000      -7.658612      -208.4014
  10   2.0000      -6.616973      -180.0570
  11   2.0000      -6.616023      -180.0311
  12   2.0000      -6.615430      -180.0150
  13   2.0000      -1.405096       -38.2346
  14   2.0000      -1.360209       -37.0132
  15   2.0000      -1.100996       -29.9596
  16   2.0000      -1.011643       -27.5282
  17   2.0000      -0.961547       -26.1650
  18   2.0000      -0.953543       -25.9472
  19   2.0000      -0.884237       -24.0613
  20   2.0000      -0.802840       -21.8464
  21   2.0000      -0.709898       -19.3173
  22   2.0000      -0.688172       -18.7261
  23   2.0000      -0.676205       -18.4005
  24   2.0000      -0.640759       -17.4359
  25   2.0000      -0.627466       -17.0742
  26   2.0000      -0.600451       -16.3391
  27   2.0000      -0.583146       -15.8682
  28   2.0000      -0.569888       -15.5074
  29   2.0000      -0.546244       -14.8640
  30   2.0000      -0.537192       -14.6177
  31   2.0000      -0.533004       -14.5038
  32   2.0000      -0.520432       -14.1617
  33   2.0000      -0.511801       -13.9268
  34   2.0000      -0.472585       -12.8597
  35   2.0000      -0.455965       -12.4074
  36   2.0000      -0.450305       -12.2534
  37   2.0000      -0.444979       -12.1085
  38   2.0000      -0.365455        -9.9445
  39   0.0000       0.019202         0.5225
  40   0.0000       0.028362         0.7718
  41   0.0000       0.029264         0.7963
  42   0.0000       0.033065         0.8997
  43   0.0000       0.045349         1.2340

MULLIKEN ATOMIC CHARGES
-----------------------
   0 O :   -1.246966
   1 S :   -0.230675
   2 O :   -1.252147
   3 C :   -0.113391
   4 C :   -0.927923
   5 C :    1.763724
   6 C :   -1.107379
   7 C :   -1.023099
   8 B :    1.417560
   9 H :    0.400645
  10 H :    0.216128
  11 H :    0.211128
  12 H :    0.335335
  13 H :    0.283495
  14 H :    0.221856
  15 H :    0.290571
  16 H :    0.246107
  17 H :    0.243072
  18 H :    0.254484
  19 H :    0.017475
Sum of atomic charges:    0.0000000

LOEWDIN ATOMIC CHARGES
----------------------
   0 O :    0.938699
   1 S :    1.695963
   2 O :    0.921853
   3 C :    0.213332
   4 C :    0.496489
   5 C :   -0.628930
   6 C :    0.919633
   7 C :    0.910560
   8 B :   -1.919540
   9 H :   -0.283425
  10 H :   -0.295095
  11 H :   -0.266799
  12 H :   -0.250840
  13 H :   -0.261831
  14 H :   -0.285543
  15 H :   -0.268635
  16 H :   -0.273581
  17 H :   -0.272852
  18 H :   -0.267225
  19 H :   -0.822232

  Mayer bond orders larger than 0.100000
B(  0-O ,  3-C ) :   0.7393 B(  0-O ,  4-C ) :   0.1208 B(  0-O ,  5-C ) :  -0.1493
B(  0-O ,  8-B ) :   0.2891 B(  1-S ,  8-B ) :   0.9437 B(  1-S , 19-H ) :   1.1140
B(  2-O ,  4-C ) :   0.1588 B(  2-O ,  6-C ) :   0.1060 B(  2-O ,  8-B ) :   0.3733
B(  3-C ,  4-C ) :   1.0440 B(  3-C ,  5-C ) :  -0.1172 B(  3-C ,  9-H ) :   0.8197
B(  3-C , 10-H ) :   0.9546 B(  4-C ,  5-C ) :   0.5082 B(  4-C , 11-H ) :   0.9812
B(  4-C , 12-H ) :   0.8672 B(  5-C ,  6-C ) :   0.5673 B(  5-C ,  7-C ) :   0.2610
B(  5-C , 16-H ) :  -0.1205 B(  5-C , 17-H ) :  -0.1470 B(  5-C , 18-H ) :  -0.1150
B(  6-C ,  7-C ) :   0.1382 B(  6-C , 13-H ) :   0.9592 B(  6-C , 14-H ) :   1.0390
B(  6-C , 15-H ) :   0.9866 B(  7-C , 16-H ) :   1.0377 B(  7-C , 17-H ) :   1.0713
B(  7-C , 18-H ) :   1.0312 B(  8-B , 19-H ) :  -0.1123

MP2 TOTAL ENERGY:     -769.730346281 Eh
FINAL SINGLE POINT ENERGY      -769.730346281064

DIPOLE MOMENT
-------------
                                X             Y             Z
Electronic contribution:     13.58253      -1.02926      -0.50943
Nuclear contribution   :    -14.98354       1.79495       0.49390
                        -----------------------------------------
Total Dipole Moment    :     -1.40102       0.76569      -0.01553
                        -----------------------------------------
Magnitude (a.u.)       :      1.59668
Magnitude (Debye)      :      4.05843

Rotational constants in cm-1:     0.074713     0.032962     0.027055
Rotational constants in MHz :  2239.853843   988.163716   811.096629

                             ****ORCA TERMINATED NORMALLY****
TOTAL RUN TIME: 0 days 4 hours 51 minutes 40 seconds 435 msec
