                         Program Version 5.0.4 -  RELEASE  -
|  1> ! ri-mp2 aug-cc-pvdz aug-cc-pvdz/c tightscf
|  2> %pal nprocs 16 end
|  3> %maxcore 3800
|  4> %base "DZ_B-F_12_A"
|  5> %scf
|  6> STABPerform true
|  7> STABRestartUHFifUnstable true
|  8> end
|  9>
| 10> *xyz 0 2
| 11> F         1.751968   -0.177775   -0.001370
| 12> B         0.689760    0.577010    0.045797
| 13> P        -1.101272   -0.067150   -0.118765
| 14> H        -1.684001    0.861501    0.764131
| 15> H        -1.013427   -1.139324    0.800689
| 16> *
| 17>
| 18> $new_job
| 19> ! ri-mp2 aug-cc-pvtz aug-cc-pvtz/c tightscf
| 20> %pal nprocs 16 end
| 21> %maxcore 3800
| 22> %base "TZ_B-F_12_A"
| 23>
| 24> *xyz 0 2
| 25> F         1.751968   -0.177775   -0.001370
| 26> B         0.689760    0.577010    0.045797
| 27> P        -1.101272   -0.067150   -0.118765
| 28> H        -1.684001    0.861501    0.764131
| 29> H        -1.013427   -1.139324    0.800689
| 30> *
| 31>
| 32> $new_job
| 33> ! ri-mp2 aug-cc-pvqz aug-cc-pvqz/c tightscf
| 34> %pal nprocs 16 end
| 35> %maxcore 3800
| 36> %base "QZ_B-F_12_A"
| 37>
| 38> *xyz 0 2
| 39> F         1.751968   -0.177775   -0.001370
| 40> B         0.689760    0.577010    0.045797
| 41> P        -1.101272   -0.067150   -0.118765
| 42> H        -1.684001    0.861501    0.764131
| 43> H        -1.013427   -1.139324    0.800689
| 44> *
| 45>
| 46>
| 47>
| 48>
| 49>                          ****END OF INPUT****
 Total Charge           Charge          ....    0
 Multiplicity           Mult            ....    2
 Number of Electrons    NEL             ....   31
MP2 TOTAL ENERGY:     -466.418838264 Eh
FINAL SINGLE POINT ENERGY      -466.418838264144
MP2 TOTAL ENERGY:     -466.568048716 Eh
FINAL SINGLE POINT ENERGY      -466.568048716229

CARTESIAN COORDINATES (ANGSTROEM)
---------------------------------
  F      1.751968   -0.177775   -0.001370
  B      0.689760    0.577010    0.045797
  P     -1.101272   -0.067150   -0.118765
  H     -1.684001    0.861501    0.764131
  H     -1.013427   -1.139324    0.800689

 Multiplicity           Mult            ....    2
 Number of Electrons    NEL             ....   31
 Basis Dimension        Dim             ....  336

ORBITAL ENERGIES
----------------
                 SPIN UP ORBITALS
  NO   OCC          E(Eh)            E(eV)
   0   1.0000     -79.946408     -2175.4524
   1   1.0000     -26.328792      -716.4429
   2   1.0000      -7.698510      -209.4871
   3   1.0000      -7.492088      -203.8701
   4   1.0000      -5.387418      -146.5991
   5   1.0000      -5.385583      -146.5492
   6   1.0000      -5.384935      -146.5315
   7   1.0000      -1.647233       -44.8235
   8   1.0000      -0.885347       -24.0915
   9   1.0000      -0.800606       -21.7856
  10   1.0000      -0.725160       -19.7326
  11   1.0000      -0.698772       -19.0146
  12   1.0000      -0.562850       -15.3159
  13   1.0000      -0.535552       -14.5731
  14   1.0000      -0.408869       -11.1259
  15   1.0000      -0.334582        -9.1044
  16   0.0000       0.026382         0.7179
  17   0.0000       0.035788         0.9738
  18   0.0000       0.039429         1.0729
  19   0.0000       0.039934         1.0867
  20   0.0000       0.058421         1.5897

                 SPIN DOWN ORBITALS
  NO   OCC          E(Eh)            E(eV)
   0   1.0000     -79.945372     -2175.4242
   1   1.0000     -26.325388      -716.3502
   2   1.0000      -7.680170      -208.9880
   3   1.0000      -7.490685      -203.8319
   4   1.0000      -5.385099      -146.5360
   5   1.0000      -5.384549      -146.5210
   6   1.0000      -5.382681      -146.4702
   7   1.0000      -1.638162       -44.5766
   8   1.0000      -0.869365       -23.6566
   9   1.0000      -0.789885       -21.4939
  10   1.0000      -0.698540       -19.0082
  11   1.0000      -0.693205       -18.8631
  12   1.0000      -0.540567       -14.7096
  13   1.0000      -0.513247       -13.9662
  14   1.0000      -0.391127       -10.6431
  15   0.0000       0.020781         0.5655
  16   0.0000       0.036209         0.9853
  17   0.0000       0.039221         1.0673
  18   0.0000       0.041735         1.1357
  19   0.0000       0.057642         1.5685

MULLIKEN ATOMIC CHARGES AND SPIN POPULATIONS
--------------------------------------------
   0 F :   -0.658009   -0.005454
   1 B :    0.581049    0.924871
   2 P :    0.157420    0.070908
   3 H :   -0.040269   -0.010663
   4 H :   -0.040191    0.020339
Sum of atomic charges         :   -0.0000000

LOEWDIN ATOMIC CHARGES AND SPIN POPULATIONS
-------------------------------------------
   0 F :    0.640872    0.158519
   1 B :   -0.999001    0.603791
   2 P :    1.465242    0.179256
   3 H :   -0.569602    0.022133
   4 H :   -0.537511    0.036300

  Mayer bond orders larger than 0.100000
B(  0-F ,  1-B ) :   0.4425 B(  1-B ,  2-P ) :   1.0916 B(  2-P ,  3-H ) :   0.8943
B(  2-P ,  4-H ) :   0.8945

MP2 TOTAL ENERGY:     -466.615826438 Eh
FINAL SINGLE POINT ENERGY      -466.615826437892

DIPOLE MOMENT
-------------
                                X             Y             Z
Electronic contribution:      3.36321       0.45582      -1.25301
Nuclear contribution   :     -3.64782      -0.46657       1.52265
                        -----------------------------------------
Total Dipole Moment    :     -0.28461      -0.01075       0.26965
                        -----------------------------------------
Magnitude (a.u.)       :      0.39221
Magnitude (Debye)      :      0.99691

Rotational constants in cm-1:     2.109944     0.158575     0.151689
Rotational constants in MHz : 63254.526306  4753.957265  4547.536680

                             ****ORCA TERMINATED NORMALLY****
TOTAL RUN TIME: 0 days 0 hours 5 minutes 31 seconds 434 msec
