                         Program Version 5.0.4 -  RELEASE  -
|  1> ! ri-mp2 aug-cc-pvdz aug-cc-pvdz/c tightscf
|  2> %pal nprocs 16 end
|  3> %maxcore 3800
|  4> %base "DZ_B-Cl_17_AB"
|  5> %scf
|  6> STABPerform true
|  7> STABRestartUHFifUnstable true
|  8> end
|  9>
| 10> *xyz 0 1
| 11> Cl         0.125204    1.614862    0.000002
| 12> Cl        -1.847301   -0.641911   -0.000003
| 13> B        -0.175907   -0.108668    0.000008
| 14> C         0.969564   -1.159888   -0.000001
| 15> C         2.404017   -0.645859   -0.000002
| 16> H         0.793785   -1.813994    0.861872
| 17> H         2.605360   -0.031437   -0.877310
| 18> H         3.115416   -1.471486   -0.000008
| 19> H         2.605364   -0.031447    0.877313
| 20> H         0.793781   -1.813985   -0.861881
| 21> *
| 22>
| 23> $new_job
| 24> ! ri-mp2 aug-cc-pvtz aug-cc-pvtz/c tightscf
| 25> %pal nprocs 16 end
| 26> %maxcore 3800
| 27> %base "TZ_B-Cl_17_AB"
| 28>
| 29> *xyz 0 1
| 30> Cl         0.125204    1.614862    0.000002
| 31> Cl        -1.847301   -0.641911   -0.000003
| 32> B        -0.175907   -0.108668    0.000008
| 33> C         0.969564   -1.159888   -0.000001
| 34> C         2.404017   -0.645859   -0.000002
| 35> H         0.793785   -1.813994    0.861872
| 36> H         2.605360   -0.031437   -0.877310
| 37> H         3.115416   -1.471486   -0.000008
| 38> H         2.605364   -0.031447    0.877313
| 39> H         0.793781   -1.813985   -0.861881
| 40> *
| 41>
| 42> $new_job
| 43> ! ri-mp2 aug-cc-pvqz aug-cc-pvqz/c tightscf
| 44> %pal nprocs 16 end
| 45> %maxcore 3800
| 46> %base "QZ_B-Cl_17_AB"
| 47>
| 48> *xyz 0 1
| 49> Cl         0.125204    1.614862    0.000002
| 50> Cl        -1.847301   -0.641911   -0.000003
| 51> B        -0.175907   -0.108668    0.000008
| 52> C         0.969564   -1.159888   -0.000001
| 53> C         2.404017   -0.645859   -0.000002
| 54> H         0.793785   -1.813994    0.861872
| 55> H         2.605360   -0.031437   -0.877310
| 56> H         3.115416   -1.471486   -0.000008
| 57> H         2.605364   -0.031447    0.877313
| 58> H         0.793781   -1.813985   -0.861881
| 59> *
| 60>
| 61>
| 62>
| 63>
| 64>                          ****END OF INPUT****
 Total Charge           Charge          ....    0
 Multiplicity           Mult            ....    1
 Number of Electrons    NEL             ....   56
MP2 TOTAL ENERGY:    -1023.126603007 Eh
FINAL SINGLE POINT ENERGY     -1023.126603007017
MP2 TOTAL ENERGY:    -1023.345016664 Eh
FINAL SINGLE POINT ENERGY     -1023.345016663895

CARTESIAN COORDINATES (ANGSTROEM)
---------------------------------
  Cl     0.125204    1.614862    0.000002
  Cl    -1.847301   -0.641911   -0.000003
  B     -0.175907   -0.108668    0.000008
  C      0.969564   -1.159888   -0.000001
  C      2.404017   -0.645859   -0.000002
  H      0.793785   -1.813994    0.861872
  H      2.605360   -0.031437   -0.877310
  H      3.115416   -1.471486   -0.000008
  H      2.605364   -0.031447    0.877313
  H      0.793781   -1.813985   -0.861881

 Multiplicity           Mult            ....    1
 Number of Electrons    NEL             ....   56
 Basis Dimension        Dim             ....  638

ORBITAL ENERGIES
----------------

  NO   OCC          E(Eh)            E(eV)
   0   2.0000    -104.839721     -2852.8338
   1   2.0000    -104.837585     -2852.7757
   2   2.0000     -11.223550      -305.4083
   3   2.0000     -11.222718      -305.3857
   4   2.0000     -10.567676      -287.5611
   5   2.0000     -10.565479      -287.5013
   6   2.0000      -8.034484      -218.6294
   7   2.0000      -8.033468      -218.6018
   8   2.0000      -8.033181      -218.5940
   9   2.0000      -8.032304      -218.5701
  10   2.0000      -8.031259      -218.5417
  11   2.0000      -8.031008      -218.5348
  12   2.0000      -7.705338      -209.6729
  13   2.0000      -1.145013       -31.1574
  14   2.0000      -1.097801       -29.8727
  15   2.0000      -1.037422       -28.2297
  16   2.0000      -0.868755       -23.6400
  17   2.0000      -0.675955       -18.3937
  18   2.0000      -0.620381       -16.8814
  19   2.0000      -0.610430       -16.6107
  20   2.0000      -0.579123       -15.7587
  21   2.0000      -0.527143       -14.3443
  22   2.0000      -0.521582       -14.1930
  23   2.0000      -0.506269       -13.7763
  24   2.0000      -0.493832       -13.4378
  25   2.0000      -0.464707       -12.6453
  26   2.0000      -0.452526       -12.3138
  27   2.0000      -0.449263       -12.2251
  28   0.0000       0.023584         0.6418
  29   0.0000       0.034244         0.9318
  30   0.0000       0.034450         0.9374
  31   0.0000       0.035080         0.9546
  32   0.0000       0.052119         1.4182

MULLIKEN ATOMIC CHARGES
-----------------------
   0 Cl:   -0.265159
   1 Cl:   -0.228116
   2 B :    0.630116
   3 C :   -0.613031
   4 C :   -0.804271
   5 H :    0.271689
   6 H :    0.239375
   7 H :    0.258334
   8 H :    0.239373
   9 H :    0.271690
Sum of atomic charges:    0.0000000

LOEWDIN ATOMIC CHARGES
----------------------
   0 Cl:    1.298061
   1 Cl:    1.268857
   2 B :   -2.291888
   3 C :    0.414053
   4 C :    0.849607
   5 H :   -0.326418
   6 H :   -0.302022
   7 H :   -0.281811
   8 H :   -0.302021
   9 H :   -0.326417

  Mayer bond orders larger than 0.100000
B(  0-Cl,  2-B ) :   1.0101 B(  1-Cl,  2-B ) :   0.9710 B(  2-B ,  3-C ) :   1.0230
B(  3-C ,  4-C ) :   0.9659 B(  3-C ,  5-H ) :   0.8658 B(  3-C ,  9-H ) :   0.8658
B(  4-C ,  6-H ) :   0.9488 B(  4-C ,  7-H ) :   0.9686 B(  4-C ,  8-H ) :   0.9488

MP2 TOTAL ENERGY:    -1023.416185156 Eh
FINAL SINGLE POINT ENERGY     -1023.416185155586

DIPOLE MOMENT
-------------
                                X             Y             Z
Electronic contribution:    -11.37017       5.73025       0.00002
Nuclear contribution   :     11.88565      -6.13949      -0.00002
                        -----------------------------------------
Total Dipole Moment    :      0.51547      -0.40925       0.00000
                        -----------------------------------------
Magnitude (a.u.)       :      0.65818
Magnitude (Debye)      :      1.67295

Rotational constants in cm-1:     0.121558     0.073248     0.046475
Rotational constants in MHz :  3644.203457  2195.931772  1393.283694

                             ****ORCA TERMINATED NORMALLY****
TOTAL RUN TIME: 0 days 0 hours 34 minutes 14 seconds 400 msec
