                         Program Version 5.0.4 -  RELEASE  -
|  1> ! ri-mp2 aug-cc-pvdz aug-cc-pvdz/c tightscf
|  2> %pal nprocs 16 end
|  3> %maxcore 3800
|  4> %base "DZ_Si-Cl_30_AB"
|  5> %scf
|  6> STABPerform true
|  7> STABRestartUHFifUnstable true
|  8> end
|  9>
| 10> *xyz 0 1
| 11> Si         0.477686    0.611540    0.000000
| 12> C        -0.794693   -0.758397    0.000001
| 13> Cl         2.346310   -0.254245    0.000000
| 14> H        -0.724972   -1.387854    0.883601
| 15> H        -0.724972   -1.387855   -0.883599
| 16> Cl        -2.414089    0.013465    0.000000
| 17> H         0.341368    1.428898    1.215233
| 18> H         0.341368    1.428897   -1.215234
| 19> *
| 20>
| 21> $new_job
| 22> ! ri-mp2 aug-cc-pvtz aug-cc-pvtz/c tightscf
| 23> %pal nprocs 16 end
| 24> %maxcore 3800
| 25> %base "TZ_Si-Cl_30_AB"
| 26>
| 27> *xyz 0 1
| 28> Si         0.477686    0.611540    0.000000
| 29> C        -0.794693   -0.758397    0.000001
| 30> Cl         2.346310   -0.254245    0.000000
| 31> H        -0.724972   -1.387854    0.883601
| 32> H        -0.724972   -1.387855   -0.883599
| 33> Cl        -2.414089    0.013465    0.000000
| 34> H         0.341368    1.428898    1.215233
| 35> H         0.341368    1.428897   -1.215234
| 36> *
| 37>
| 38> $new_job
| 39> ! ri-mp2 aug-cc-pvqz aug-cc-pvqz/c tightscf
| 40> %pal nprocs 16 end
| 41> %maxcore 3800
| 42> %base "QZ_Si-Cl_30_AB"
| 43>
| 44> *xyz 0 1
| 45> Si         0.477686    0.611540    0.000000
| 46> C        -0.794693   -0.758397    0.000001
| 47> Cl         2.346310   -0.254245    0.000000
| 48> H        -0.724972   -1.387854    0.883601
| 49> H        -0.724972   -1.387855   -0.883599
| 50> Cl        -2.414089    0.013465    0.000000
| 51> H         0.341368    1.428898    1.215233
| 52> H         0.341368    1.428897   -1.215234
| 53> *
| 54>
| 55>
| 56>
| 57>
| 58>                          ****END OF INPUT****
 Total Charge           Charge          ....    0
 Multiplicity           Mult            ....    1
 Number of Electrons    NEL             ....   58
MP2 TOTAL ENERGY:    -1248.742193669 Eh
FINAL SINGLE POINT ENERGY     -1248.742193669367
MP2 TOTAL ENERGY:    -1248.942973497 Eh
FINAL SINGLE POINT ENERGY     -1248.942973496852

CARTESIAN COORDINATES (ANGSTROEM)
---------------------------------
  Si     0.477686    0.611540    0.000000
  C     -0.794693   -0.758397    0.000001
  Cl     2.346310   -0.254245    0.000000
  H     -0.724972   -1.387854    0.883601
  H     -0.724972   -1.387855   -0.883599
  Cl    -2.414089    0.013465    0.000000
  H      0.341368    1.428898    1.215233
  H      0.341368    1.428897   -1.215234

 Multiplicity           Mult            ....    1
 Number of Electrons    NEL             ....   58
 Basis Dimension        Dim             ....  516

ORBITAL ENERGIES
----------------

  NO   OCC          E(Eh)            E(eV)
   0   2.0000    -104.839848     -2852.8373
   1   2.0000    -104.834285     -2852.6859
   2   2.0000     -68.824222     -1872.8023
   3   2.0000     -11.290794      -307.2381
   4   2.0000     -10.565123      -287.4916
   5   2.0000     -10.561752      -287.3999
   6   2.0000      -8.032210      -218.5675
   7   2.0000      -8.030475      -218.5203
   8   2.0000      -8.030465      -218.5201
   9   2.0000      -8.028549      -218.4679
  10   2.0000      -8.027458      -218.4382
  11   2.0000      -8.027436      -218.4376
  12   2.0000      -6.169955      -167.8930
  13   2.0000      -4.277049      -116.3844
  14   2.0000      -4.275724      -116.3484
  15   2.0000      -4.275690      -116.3474
  16   2.0000      -1.140856       -31.0443
  17   2.0000      -1.103934       -30.0396
  18   2.0000      -0.922015       -25.0893
  19   2.0000      -0.722766       -19.6675
  20   2.0000      -0.637186       -17.3387
  21   2.0000      -0.582391       -15.8477
  22   2.0000      -0.543266       -14.7830
  23   2.0000      -0.529888       -14.4190
  24   2.0000      -0.526876       -14.3370
  25   2.0000      -0.474592       -12.9143
  26   2.0000      -0.458716       -12.4823
  27   2.0000      -0.449788       -12.2394
  28   2.0000      -0.425958       -11.5909
  29   0.0000       0.025792         0.7018
  30   0.0000       0.035235         0.9588
  31   0.0000       0.035593         0.9685
  32   0.0000       0.040690         1.1072
  33   0.0000       0.055130         1.5002

MULLIKEN ATOMIC CHARGES
-----------------------
   0 Si:    1.271139
   1 C :   -0.579233
   2 Cl:   -0.597987
   3 H :    0.295742
   4 H :    0.295741
   5 Cl:   -0.270933
   6 H :   -0.207235
   7 H :   -0.207235
Sum of atomic charges:    0.0000000

LOEWDIN ATOMIC CHARGES
----------------------
   0 Si:   -0.187553
   1 C :   -0.241701
   2 Cl:    0.882142
   3 H :   -0.476655
   4 H :   -0.476655
   5 Cl:    1.085213
   6 H :   -0.292396
   7 H :   -0.292395

  Mayer bond orders larger than 0.100000
B(  0-Si,  1-C ) :   0.8086 B(  0-Si,  2-Cl) :   0.4887 B(  0-Si,  6-H ) :   0.8805
B(  0-Si,  7-H ) :   0.8805 B(  1-C ,  3-H ) :   0.8893 B(  1-C ,  4-H ) :   0.8893
B(  1-C ,  5-Cl) :   0.8982

MP2 TOTAL ENERGY:    -1249.009083753 Eh
FINAL SINGLE POINT ENERGY     -1249.009083753388

DIPOLE MOMENT
-------------
                                X             Y             Z
Electronic contribution:      0.71757      -0.55463      -0.00000
Nuclear contribution   :     -0.66212       0.36876       0.00000
                        -----------------------------------------
Total Dipole Moment    :      0.05546      -0.18587       0.00000
                        -----------------------------------------
Magnitude (a.u.)       :      0.19396
Magnitude (Debye)      :      0.49302

Rotational constants in cm-1:     0.523183     0.039979     0.037901
Rotational constants in MHz : 15684.637833  1198.540716  1136.242811

                             ****ORCA TERMINATED NORMALLY****
TOTAL RUN TIME: 0 days 0 hours 14 minutes 45 seconds 501 msec
