                         Program Version 5.0.4 -  RELEASE  -
|  1> ! ri-mp2 aug-cc-pvdz aug-cc-pvdz/c tightscf
|  2> %pal nprocs 16 end
|  3> %maxcore 3800
|  4> %base "DZ_P-Si_35_AB"
|  5> %scf
|  6> STABPerform true
|  7> STABRestartUHFifUnstable true
|  8> end
|  9>
| 10> *xyz 0 1
| 11> Si         0.849135    0.612536   -0.031901
| 12> P        -0.931137   -0.757735   -0.142185
| 13> C        -2.294274    0.480272    0.088683
| 14> H        -3.232002   -0.047841    0.255166
| 15> H        -2.399623    1.056106   -0.830394
| 16> H        -2.125655    1.168880    0.914419
| 17> C         2.427953   -0.381424    0.064673
| 18> H         2.449152   -0.993451    0.966962
| 19> H         3.298473    0.275037    0.083383
| 20> H         2.521753   -1.044787   -0.795327
| 21> H        -0.816775   -1.194924    1.199894
| 22> H         0.747656    1.535971    1.126177
| 23> H         0.834111    1.442436   -1.261030
| 24> *
| 25>
| 26> $new_job
| 27> ! ri-mp2 aug-cc-pvtz aug-cc-pvtz/c tightscf
| 28> %pal nprocs 16 end
| 29> %maxcore 3800
| 30> %base "TZ_P-Si_35_AB"
| 31>
| 32> *xyz 0 1
| 33> Si         0.849135    0.612536   -0.031901
| 34> P        -0.931137   -0.757735   -0.142185
| 35> C        -2.294274    0.480272    0.088683
| 36> H        -3.232002   -0.047841    0.255166
| 37> H        -2.399623    1.056106   -0.830394
| 38> H        -2.125655    1.168880    0.914419
| 39> C         2.427953   -0.381424    0.064673
| 40> H         2.449152   -0.993451    0.966962
| 41> H         3.298473    0.275037    0.083383
| 42> H         2.521753   -1.044787   -0.795327
| 43> H        -0.816775   -1.194924    1.199894
| 44> H         0.747656    1.535971    1.126177
| 45> H         0.834111    1.442436   -1.261030
| 46> *
| 47>
| 48> $new_job
| 49> ! ri-mp2 aug-cc-pvqz aug-cc-pvqz/c tightscf
| 50> %pal nprocs 16 end
| 51> %maxcore 3800
| 52> %base "QZ_P-Si_35_AB"
| 53>
| 54> *xyz 0 1
| 55> Si         0.849135    0.612536   -0.031901
| 56> P        -0.931137   -0.757735   -0.142185
| 57> C        -2.294274    0.480272    0.088683
| 58> H        -3.232002   -0.047841    0.255166
| 59> H        -2.399623    1.056106   -0.830394
| 60> H        -2.125655    1.168880    0.914419
| 61> C         2.427953   -0.381424    0.064673
| 62> H         2.449152   -0.993451    0.966962
| 63> H         3.298473    0.275037    0.083383
| 64> H         2.521753   -1.044787   -0.795327
| 65> H        -0.816775   -1.194924    1.199894
| 66> H         0.747656    1.535971    1.126177
| 67> H         0.834111    1.442436   -1.261030
| 68> *
| 69>
| 70>
| 71>
| 72>
| 73>                          ****END OF INPUT****
 Total Charge           Charge          ....    0
 Multiplicity           Mult            ....    1
 Number of Electrons    NEL             ....   50
MP2 TOTAL ENERGY:     -711.208705067 Eh
FINAL SINGLE POINT ENERGY      -711.208705066789
MP2 TOTAL ENERGY:     -711.373749738 Eh
FINAL SINGLE POINT ENERGY      -711.373749738056

CARTESIAN COORDINATES (ANGSTROEM)
---------------------------------
  Si     0.849135    0.612536   -0.031901
  P     -0.931137   -0.757735   -0.142185
  C     -2.294274    0.480272    0.088683
  H     -3.232002   -0.047841    0.255166
  H     -2.399623    1.056106   -0.830394
  H     -2.125655    1.168880    0.914419
  C      2.427953   -0.381424    0.064673
  H      2.449152   -0.993451    0.966962
  H      3.298473    0.275037    0.083383
  H      2.521753   -1.044787   -0.795327
  H     -0.816775   -1.194924    1.199894
  H      0.747656    1.535971    1.126177
  H      0.834111    1.442436   -1.261030

 Multiplicity           Mult            ....    1
 Number of Electrons    NEL             ....   50
 Basis Dimension        Dim             ....  742

ORBITAL ENERGIES
----------------

  NO   OCC          E(Eh)            E(eV)
   0   2.0000     -79.922389     -2174.7988
   1   2.0000     -68.766431     -1871.2297
   2   2.0000     -11.228207      -305.5350
   3   2.0000     -11.208077      -304.9873
   4   2.0000      -7.466416      -203.1715
   5   2.0000      -6.115878      -166.4215
   6   2.0000      -5.360491      -145.8664
   7   2.0000      -5.360181      -145.8579
   8   2.0000      -5.359427      -145.8374
   9   2.0000      -4.222206      -114.8921
  10   2.0000      -4.222001      -114.8865
  11   2.0000      -4.221760      -114.8799
  12   2.0000      -0.979575       -26.6556
  13   2.0000      -0.950853       -25.8740
  14   2.0000      -0.792092       -21.5539
  15   2.0000      -0.669107       -18.2073
  16   2.0000      -0.581652       -15.8276
  17   2.0000      -0.572859       -15.5883
  18   2.0000      -0.565454       -15.3868
  19   2.0000      -0.561497       -15.2791
  20   2.0000      -0.492104       -13.3908
  21   2.0000      -0.472277       -12.8513
  22   2.0000      -0.456300       -12.4166
  23   2.0000      -0.418345       -11.3838
  24   2.0000      -0.341101        -9.2818
  25   0.0000       0.024500         0.6667
  26   0.0000       0.030636         0.8336
  27   0.0000       0.035060         0.9540
  28   0.0000       0.037943         1.0325
  29   0.0000       0.047163         1.2834

MULLIKEN ATOMIC CHARGES
-----------------------
   0 Si:    0.799760
   1 P :    0.190944
   2 C :   -1.113175
   3 H :    0.375618
   4 H :    0.267304
   5 H :    0.290756
   6 C :   -1.023327
   7 H :    0.233760
   8 H :    0.284720
   9 H :    0.250002
  10 H :   -0.088685
  11 H :   -0.220422
  12 H :   -0.247256
Sum of atomic charges:    0.0000000

LOEWDIN ATOMIC CHARGES
----------------------
   0 Si:    0.550745
   1 P :    1.147587
   2 C :    0.655202
   3 H :   -0.374600
   4 H :   -0.377872
   5 H :   -0.369671
   6 C :    0.858386
   7 H :   -0.363650
   8 H :   -0.362614
   9 H :   -0.365394
  10 H :   -0.497376
  11 H :   -0.244020
  12 H :   -0.256723

  Mayer bond orders larger than 0.100000
B(  0-Si,  1-P ) :   0.8733 B(  0-Si,  6-C ) :   0.8864 B(  0-Si, 11-H ) :   0.8029
B(  0-Si, 12-H ) :   0.7836 B(  1-P ,  2-C ) :   0.9104 B(  1-P , 10-H ) :   0.9174
B(  2-C ,  3-H ) :   0.8529 B(  2-C ,  4-H ) :   0.9218 B(  2-C ,  5-H ) :   0.9041
B(  6-C ,  7-H ) :   0.9559 B(  6-C ,  8-H ) :   0.9379 B(  6-C ,  9-H ) :   0.9481

MP2 TOTAL ENERGY:     -711.423940932 Eh
FINAL SINGLE POINT ENERGY      -711.423940932310

DIPOLE MOMENT
-------------
                                X             Y             Z
Electronic contribution:     -2.08110      -2.71377      -1.56380
Nuclear contribution   :      2.15244       2.93660       1.83071
                        -----------------------------------------
Total Dipole Moment    :      0.07134       0.22283       0.26691
                        -----------------------------------------
Magnitude (a.u.)       :      0.35495
Magnitude (Debye)      :      0.90220

Rotational constants in cm-1:     0.327944     0.071498     0.062264
Rotational constants in MHz :  9831.524721  2143.459257  1866.640030

                             ****ORCA TERMINATED NORMALLY****
TOTAL RUN TIME: 0 days 0 hours 40 minutes 17 seconds 430 msec
