                         Program Version 5.0.4 -  RELEASE  -
|  1> ! ri-mp2 aug-cc-pvdz aug-cc-pvdz/c tightscf
|  2> %pal nprocs 16 end
|  3> %maxcore 3800
|  4> %base "DZ_P-Si_45_AB"
|  5> %scf
|  6> STABPerform true
|  7> STABRestartUHFifUnstable true
|  8> end
|  9>
| 10> *xyz 0 1
| 11> Si        -0.918381    0.000000   -0.044400
| 12> P         1.237710    0.000000   -0.662722
| 13> C         1.870393   -1.427907    0.326156
| 14> H         1.678684   -1.323529    1.394503
| 15> H         2.945318   -1.525081    0.175252
| 16> H         1.401028   -2.346912   -0.023249
| 17> O        -1.595874    1.374823   -0.647227
| 18> C        -1.287672   -0.000002    1.765891
| 19> H        -0.878138   -0.885320    2.251998
| 20> H        -2.367813   -0.000004    1.919099
| 21> H        -0.878141    0.885318    2.251999
| 22> C         1.870393    1.427907    0.326156
| 23> H         1.401027    2.346912   -0.023250
| 24> H         2.945318    1.525081    0.175252
| 25> H         1.678684    1.323529    1.394503
| 26> H        -1.409497    1.625850   -1.553626
| 27> O        -1.595875   -1.374821   -0.647230
| 28> H        -1.409492   -1.625850   -1.553628
| 29> *
| 30>
| 31> $new_job
| 32> ! ri-mp2 aug-cc-pvtz aug-cc-pvtz/c tightscf
| 33> %pal nprocs 16 end
| 34> %maxcore 3800
| 35> %base "TZ_P-Si_45_AB"
| 36>
| 37> *xyz 0 1
| 38> Si        -0.918381    0.000000   -0.044400
| 39> P         1.237710    0.000000   -0.662722
| 40> C         1.870393   -1.427907    0.326156
| 41> H         1.678684   -1.323529    1.394503
| 42> H         2.945318   -1.525081    0.175252
| 43> H         1.401028   -2.346912   -0.023249
| 44> O        -1.595874    1.374823   -0.647227
| 45> C        -1.287672   -0.000002    1.765891
| 46> H        -0.878138   -0.885320    2.251998
| 47> H        -2.367813   -0.000004    1.919099
| 48> H        -0.878141    0.885318    2.251999
| 49> C         1.870393    1.427907    0.326156
| 50> H         1.401027    2.346912   -0.023250
| 51> H         2.945318    1.525081    0.175252
| 52> H         1.678684    1.323529    1.394503
| 53> H        -1.409497    1.625850   -1.553626
| 54> O        -1.595875   -1.374821   -0.647230
| 55> H        -1.409492   -1.625850   -1.553628
| 56> *
| 57>
| 58> $new_job
| 59> ! ri-mp2 aug-cc-pvqz aug-cc-pvqz/c tightscf
| 60> %pal nprocs 16 end
| 61> %maxcore 3800
| 62> %base "QZ_P-Si_45_AB"
| 63>
| 64> *xyz 0 1
| 65> Si        -0.918381    0.000000   -0.044400
| 66> P         1.237710    0.000000   -0.662722
| 67> C         1.870393   -1.427907    0.326156
| 68> H         1.678684   -1.323529    1.394503
| 69> H         2.945318   -1.525081    0.175252
| 70> H         1.401028   -2.346912   -0.023249
| 71> O        -1.595874    1.374823   -0.647227
| 72> C        -1.287672   -0.000002    1.765891
| 73> H        -0.878138   -0.885320    2.251998
| 74> H        -2.367813   -0.000004    1.919099
| 75> H        -0.878141    0.885318    2.251999
| 76> C         1.870393    1.427907    0.326156
| 77> H         1.401027    2.346912   -0.023250
| 78> H         2.945318    1.525081    0.175252
| 79> H         1.678684    1.323529    1.394503
| 80> H        -1.409497    1.625850   -1.553626
| 81> O        -1.595875   -1.374821   -0.647230
| 82> H        -1.409492   -1.625850   -1.553628
| 83> *
| 84>
| 85>
| 86>
| 87>
| 88>                          ****END OF INPUT****
 Total Charge           Charge          ....    0
 Multiplicity           Mult            ....    1
 Number of Electrons    NEL             ....   74
MP2 TOTAL ENERGY:     -900.652695333 Eh
FINAL SINGLE POINT ENERGY      -900.652695333422
MP2 TOTAL ENERGY:     -900.996205626 Eh
FINAL SINGLE POINT ENERGY      -900.996205625832

CARTESIAN COORDINATES (ANGSTROEM)
---------------------------------
  Si    -0.918381    0.000000   -0.044400
  P      1.237710    0.000000   -0.662722
  C      1.870393   -1.427907    0.326156
  H      1.678684   -1.323529    1.394503
  H      2.945318   -1.525081    0.175252
  H      1.401028   -2.346912   -0.023249
  O     -1.595874    1.374823   -0.647227
  C     -1.287672   -0.000002    1.765891
  H     -0.878138   -0.885320    2.251998
  H     -2.367813   -0.000004    1.919099
  H     -0.878141    0.885318    2.251999
  C      1.870393    1.427907    0.326156
  H      1.401027    2.346912   -0.023250
  H      2.945318    1.525081    0.175252
  H      1.678684    1.323529    1.394503
  H     -1.409497    1.625850   -1.553626
  O     -1.595875   -1.374821   -0.647230
  H     -1.409492   -1.625850   -1.553628

 Multiplicity           Mult            ....    1
 Number of Electrons    NEL             ....   74
 Basis Dimension        Dim             .... 1074

ORBITAL ENERGIES
----------------

  NO   OCC          E(Eh)            E(eV)
   0   2.0000     -79.916525     -2174.6392
   1   2.0000     -68.794618     -1871.9967
   2   2.0000     -20.551754      -559.2417
   3   2.0000     -20.551745      -559.2414
   4   2.0000     -11.224975      -305.4471
   5   2.0000     -11.224966      -305.4468
   6   2.0000     -11.198469      -304.7258
   7   2.0000      -7.460538      -203.0116
   8   2.0000      -6.136638      -166.9864
   9   2.0000      -5.354855      -145.7130
  10   2.0000      -5.354678      -145.7082
  11   2.0000      -5.353886      -145.6866
  12   2.0000      -4.244148      -115.4891
  13   2.0000      -4.243855      -115.4812
  14   2.0000      -4.243316      -115.4665
  15   2.0000      -1.349258       -36.7152
  16   2.0000      -1.328526       -36.1510
  17   2.0000      -1.002906       -27.2905
  18   2.0000      -0.946432       -25.7537
  19   2.0000      -0.939874       -25.5753
  20   2.0000      -0.766823       -20.8663
  21   2.0000      -0.727403       -19.7937
  22   2.0000      -0.701530       -19.0896
  23   2.0000      -0.609436       -16.5836
  24   2.0000      -0.590793       -16.0763
  25   2.0000      -0.583192       -15.8694
  26   2.0000      -0.565572       -15.3900
  27   2.0000      -0.561395       -15.2763
  28   2.0000      -0.554599       -15.0914
  29   2.0000      -0.547194       -14.8899
  30   2.0000      -0.542800       -14.7703
  31   2.0000      -0.537954       -14.6385
  32   2.0000      -0.496947       -13.5226
  33   2.0000      -0.486560       -13.2400
  34   2.0000      -0.463841       -12.6218
  35   2.0000      -0.410333       -11.1657
  36   2.0000      -0.323290        -8.7972
  37   0.0000       0.022902         0.6232
  38   0.0000       0.030067         0.8182
  39   0.0000       0.032334         0.8799
  40   0.0000       0.036245         0.9863
  41   0.0000       0.047726         1.2987

MULLIKEN ATOMIC CHARGES
-----------------------
   0 Si:    1.839166
   1 P :    0.266998
   2 C :   -1.208354
   3 H :    0.313946
   4 H :    0.379539
   5 H :    0.338774
   6 O :   -1.131559
   7 C :   -1.102117
   8 H :    0.286177
   9 H :    0.315750
  10 H :    0.286176
  11 C :   -1.208354
  12 H :    0.338774
  13 H :    0.379539
  14 H :    0.313946
  15 H :    0.361578
  16 O :   -1.131560
  17 H :    0.361579
Sum of atomic charges:   -0.0000000

LOEWDIN ATOMIC CHARGES
----------------------
   0 Si:   -0.612173
   1 P :    0.948051
   2 C :    0.721145
   3 H :   -0.357185
   4 H :   -0.358493
   5 H :   -0.364964
   6 O :    1.121439
   7 C :    0.954886
   8 H :   -0.349745
   9 H :   -0.341581
  10 H :   -0.349744
  11 C :    0.721145
  12 H :   -0.364963
  13 H :   -0.358493
  14 H :   -0.357185
  15 H :   -0.886790
  16 O :    1.121438
  17 H :   -0.886788

  Mayer bond orders larger than 0.100000
B(  0-Si,  1-P ) :   0.9404 B(  0-Si,  6-O ) :   0.4521 B(  0-Si,  7-C ) :   0.7579
B(  0-Si, 16-O ) :   0.4521 B(  1-P ,  2-C ) :   0.8457 B(  1-P , 11-C ) :   0.8457
B(  2-C ,  3-H ) :   0.8806 B(  2-C ,  4-H ) :   0.8631 B(  2-C ,  5-H ) :   0.8854
B(  6-O , 15-H ) :   0.9107 B(  7-C ,  8-H ) :   0.9495 B(  7-C ,  9-H ) :   0.9293
B(  7-C , 10-H ) :   0.9495 B( 11-C , 12-H ) :   0.8854 B( 11-C , 13-H ) :   0.8631
B( 11-C , 14-H ) :   0.8806 B( 16-O , 17-H ) :   0.9107

MP2 TOTAL ENERGY:     -901.103426097 Eh
FINAL SINGLE POINT ENERGY      -901.103426096911

DIPOLE MOMENT
-------------
                                X             Y             Z
Electronic contribution:     -3.44617       0.00000      -7.16722
Nuclear contribution   :      3.95639      -0.00001       7.06288
                        -----------------------------------------
Total Dipole Moment    :      0.51022      -0.00000      -0.10434
                        -----------------------------------------
Magnitude (a.u.)       :      0.52078
Magnitude (Debye)      :      1.32371

Rotational constants in cm-1:     0.074867     0.043864     0.039155
Rotational constants in MHz :  2244.443108  1315.000368  1173.837649

                             ****ORCA TERMINATED NORMALLY****
TOTAL RUN TIME: 0 days 1 hours 47 minutes 51 seconds 774 msec
