                         Program Version 5.0.4 -  RELEASE  -
|  1> ! ri-mp2 aug-cc-pvdz aug-cc-pvdz/c tightscf
|  2> %pal nprocs 16 end
|  3> %maxcore 3800
|  4> %base "DZ_B-P_59_AB"
|  5>
|  6> *xyz 0 1
|  7> C         2.372141    1.076681    0.608800
|  8> C         1.100946    0.657148    0.967108
|  9> C         3.083791    0.387020   -0.356834
| 10> C         2.514286   -0.720485   -0.964204
| 11> C         1.237523   -1.127559   -0.620116
| 12> C         0.509187   -0.443254    0.349236
| 13> H         0.799821   -1.985096   -1.114226
| 14> H         4.079833    0.706777   -0.631767
| 15> H         3.065388   -1.267649   -1.717808
| 16> H         2.811508    1.935970    1.098117
| 17> H         0.567552    1.183729    1.750215
| 18> B        -2.196894    0.328532   -0.234895
| 19> O        -3.501905    0.041561   -0.465892
| 20> O        -1.678402    1.489164   -0.715672
| 21> H        -0.731741    1.590347   -0.568524
| 22> H        -3.946296    0.717357   -0.990197
| 23> P        -1.184464   -0.914285    0.858638
| 24> H        -1.359417   -2.032915    0.017661
| 25> *
| 26>
| 27> $new_job
| 28> ! ri-mp2 aug-cc-pvtz aug-cc-pvtz/c tightscf
| 29> %pal nprocs 16 end
| 30> %maxcore 3800
| 31> %base "TZ_B-P_59_AB"
| 32>
| 33> *xyz 0 1
| 34> C         2.372141    1.076681    0.608800
| 35> C         1.100946    0.657148    0.967108
| 36> C         3.083791    0.387020   -0.356834
| 37> C         2.514286   -0.720485   -0.964204
| 38> C         1.237523   -1.127559   -0.620116
| 39> C         0.509187   -0.443254    0.349236
| 40> H         0.799821   -1.985096   -1.114226
| 41> H         4.079833    0.706777   -0.631767
| 42> H         3.065388   -1.267649   -1.717808
| 43> H         2.811508    1.935970    1.098117
| 44> H         0.567552    1.183729    1.750215
| 45> B        -2.196894    0.328532   -0.234895
| 46> O        -3.501905    0.041561   -0.465892
| 47> O        -1.678402    1.489164   -0.715672
| 48> H        -0.731741    1.590347   -0.568524
| 49> H        -3.946296    0.717357   -0.990197
| 50> P        -1.184464   -0.914285    0.858638
| 51> H        -1.359417   -2.032915    0.017661
| 52> *
| 53>
| 54> $new_job
| 55> ! ri-mp2 aug-cc-pvqz aug-cc-pvqz/c tightscf
| 56> %pal nprocs 16 end
| 57> %maxcore 3800
| 58> %base "QZ_B-P_59_AB"
| 59>
| 60> *xyz 0 1
| 61> C         2.372141    1.076681    0.608800
| 62> C         1.100946    0.657148    0.967108
| 63> C         3.083791    0.387020   -0.356834
| 64> C         2.514286   -0.720485   -0.964204
| 65> C         1.237523   -1.127559   -0.620116
| 66> C         0.509187   -0.443254    0.349236
| 67> H         0.799821   -1.985096   -1.114226
| 68> H         4.079833    0.706777   -0.631767
| 69> H         3.065388   -1.267649   -1.717808
| 70> H         2.811508    1.935970    1.098117
| 71> H         0.567552    1.183729    1.750215
| 72> B        -2.196894    0.328532   -0.234895
| 73> O        -3.501905    0.041561   -0.465892
| 74> O        -1.678402    1.489164   -0.715672
| 75> H        -0.731741    1.590347   -0.568524
| 76> H        -3.946296    0.717357   -0.990197
| 77> P        -1.184464   -0.914285    0.858638
| 78> H        -1.359417   -2.032915    0.017661
| 79> *
| 80>
| 81>
| 82>
| 83>
| 84>                          ****END OF INPUT****
 Total Charge           Charge          ....    0
 Multiplicity           Mult            ....    1
 Number of Electrons    NEL             ....   80
MP2 TOTAL ENERGY:     -748.602319158 Eh
FINAL SINGLE POINT ENERGY      -748.602319158342
MP2 TOTAL ENERGY:     -748.999644362 Eh
FINAL SINGLE POINT ENERGY      -748.999644362128

CARTESIAN COORDINATES (ANGSTROEM)
---------------------------------
  C      2.372141    1.076681    0.608800
  C      1.100946    0.657148    0.967108
  C      3.083791    0.387020   -0.356834
  C      2.514286   -0.720485   -0.964204
  C      1.237523   -1.127559   -0.620116
  C      0.509187   -0.443254    0.349236
  H      0.799821   -1.985096   -1.114226
  H      4.079833    0.706777   -0.631767
  H      3.065388   -1.267649   -1.717808
  H      2.811508    1.935970    1.098117
  H      0.567552    1.183729    1.750215
  B     -2.196894    0.328532   -0.234895
  O     -3.501905    0.041561   -0.465892
  O     -1.678402    1.489164   -0.715672
  H     -0.731741    1.590347   -0.568524
  H     -3.946296    0.717357   -0.990197
  P     -1.184464   -0.914285    0.858638
  H     -1.359417   -2.032915    0.017661

 Multiplicity           Mult            ....    1
 Number of Electrons    NEL             ....   80
 Basis Dimension        Dim             .... 1172

ORBITAL ENERGIES
----------------

  NO   OCC          E(Eh)            E(eV)
   0   2.0000     -79.925496     -2174.8833
   1   2.0000     -20.572589      -559.8086
   2   2.0000     -20.568728      -559.7035
   3   2.0000     -11.250835      -306.1508
   4   2.0000     -11.245266      -305.9993
   5   2.0000     -11.244148      -305.9688
   6   2.0000     -11.243856      -305.9609
   7   2.0000     -11.242761      -305.9311
   8   2.0000     -11.241466      -305.8958
   9   2.0000      -7.650508      -208.1809
  10   2.0000      -7.470670      -203.2873
  11   2.0000      -5.365005      -145.9892
  12   2.0000      -5.364451      -145.9741
  13   2.0000      -5.363943      -145.9603
  14   2.0000      -1.390693       -37.8427
  15   2.0000      -1.351008       -36.7628
  16   2.0000      -1.168670       -31.8011
  17   2.0000      -1.036989       -28.2179
  18   2.0000      -1.029558       -28.0157
  19   2.0000      -0.877306       -23.8727
  20   2.0000      -0.839768       -22.8513
  21   2.0000      -0.803895       -21.8751
  22   2.0000      -0.766059       -20.8455
  23   2.0000      -0.734192       -19.9784
  24   2.0000      -0.700609       -19.0645
  25   2.0000      -0.643188       -17.5020
  26   2.0000      -0.638001       -17.3609
  27   2.0000      -0.618108       -16.8196
  28   2.0000      -0.599425       -16.3112
  29   2.0000      -0.581765       -15.8306
  30   2.0000      -0.570443       -15.5225
  31   2.0000      -0.561786       -15.2870
  32   2.0000      -0.522335       -14.2134
  33   2.0000      -0.508009       -13.8236
  34   2.0000      -0.506215       -13.7748
  35   2.0000      -0.487819       -13.2742
  36   2.0000      -0.454924       -12.3791
  37   2.0000      -0.387516       -10.5448
  38   2.0000      -0.352422        -9.5899
  39   2.0000      -0.321620        -8.7517
  40   0.0000       0.019964         0.5433
  41   0.0000       0.026880         0.7315
  42   0.0000       0.027581         0.7505
  43   0.0000       0.035949         0.9782
  44   0.0000       0.040742         1.1086

MULLIKEN ATOMIC CHARGES
-----------------------
   0 C :   -0.261687
   1 C :   -0.225541
   2 C :   -0.383816
   3 C :   -0.299681
   4 C :   -0.528997
   5 C :    0.078076
   6 H :    0.330219
   7 H :    0.364664
   8 H :    0.249583
   9 H :    0.234432
  10 H :    0.335684
  11 B :    1.325936
  12 O :   -1.026411
  13 O :   -1.162609
  14 H :    0.411302
  15 H :    0.320641
  16 P :    0.354940
  17 H :   -0.116734
Sum of atomic charges:   -0.0000000

LOEWDIN ATOMIC CHARGES
----------------------
   0 C :    0.340202
   1 C :    0.227695
   2 C :    0.337802
   3 C :    0.339949
   4 C :    0.260716
   5 C :   -0.332267
   6 H :   -0.342099
   7 H :   -0.320402
   8 H :   -0.317833
   9 H :   -0.316741
  10 H :   -0.331072
  11 B :   -1.414802
  12 O :    1.278000
  13 O :    1.337893
  14 H :   -0.858952
  15 H :   -0.802826
  16 P :    1.362024
  17 H :   -0.447286

  Mayer bond orders larger than 0.100000
B(  0-C ,  1-C ) :   1.3333 B(  0-C ,  2-C ) :   1.1517 B(  0-C ,  3-C ) :  -0.1268
B(  0-C ,  4-C ) :   0.1558 B(  0-C ,  5-C ) :  -0.3005 B(  0-C ,  9-H ) :   1.1478
B(  1-C ,  2-C ) :   0.1479 B(  1-C ,  3-C ) :   0.1537 B(  1-C ,  4-C ) :   0.1027
B(  1-C ,  5-C ) :   0.8337 B(  1-C ,  9-H ) :  -0.1376 B(  1-C , 10-H ) :   0.9561
B(  1-C , 16-P ) :  -0.2264 B(  2-C ,  3-C ) :   1.1255 B(  2-C ,  4-C ) :   0.1582
B(  2-C ,  7-H ) :   0.9539 B(  2-C ,  8-H ) :  -0.1061 B(  3-C ,  4-C ) :   1.3646
B(  3-C ,  5-C ) :  -0.2805 B(  3-C ,  8-H ) :   1.1172 B(  4-C ,  5-C ) :   0.9291
B(  4-C ,  6-H ) :   0.9278 B(  4-C ,  8-H ) :  -0.1375 B(  5-C , 10-H ) :  -0.1387
B(  5-C , 16-P ) :   0.8186 B(  5-C , 17-H ) :  -0.1182 B( 11-B , 12-O ) :   0.4052
B( 11-B , 13-O ) :   0.4649 B( 11-B , 16-P ) :   1.0408 B( 12-O , 13-O ) :  -0.1345
B( 12-O , 15-H ) :   0.9408 B( 12-O , 16-P ) :  -0.1570 B( 13-O , 14-H ) :   0.8540
B( 16-P , 17-H ) :   0.9748

MP2 TOTAL ENERGY:     -749.128202629 Eh
FINAL SINGLE POINT ENERGY      -749.128202628934

DIPOLE MOMENT
-------------
                                X             Y             Z
Electronic contribution:     -7.18451      -1.07122       2.22235
Nuclear contribution   :      7.91028       1.44344      -2.73684
                        -----------------------------------------
Total Dipole Moment    :      0.72577       0.37222      -0.51449
                        -----------------------------------------
Magnitude (a.u.)       :      0.96435
Magnitude (Debye)      :      2.45120

Rotational constants in cm-1:     0.081992     0.022116     0.020799
Rotational constants in MHz :  2458.068829   663.024538   623.526485

                             ****ORCA TERMINATED NORMALLY****
TOTAL RUN TIME: 0 days 0 hours 40 minutes 52 seconds 5 msec
