                         Program Version 5.0.4 -  RELEASE  -
|  1> ! ri-mp2 aug-cc-pvdz aug-cc-pvdz/c tightscf
|  2> %pal nprocs 16 end
|  3> %maxcore 3800
|  4> %base "DZ_B-Cl_38_AB"
|  5>
|  6> *xyz 0 1
|  7> Cl         1.639910   -1.052554   -0.000047
|  8> Cl         0.613178    1.764055    0.000018
|  9> B         0.290133    0.052861    0.000007
| 10> C        -1.191977   -0.493637    0.000031
| 11> C        -2.334371    0.478206    0.000033
| 12> N        -1.449644   -1.737925   -0.000000
| 13> H        -2.288921    1.129043    0.874973
| 14> H        -3.275531   -0.065851    0.000027
| 15> H        -2.288918    1.129058   -0.874896
| 16> H        -0.594197   -2.294001   -0.000035
| 17> *
| 18>
| 19> $new_job
| 20> ! ri-mp2 aug-cc-pvtz aug-cc-pvtz/c tightscf
| 21> %pal nprocs 16 end
| 22> %maxcore 3800
| 23> %base "TZ_B-Cl_38_AB"
| 24>
| 25> *xyz 0 1
| 26> Cl         1.639910   -1.052554   -0.000047
| 27> Cl         0.613178    1.764055    0.000018
| 28> B         0.290133    0.052861    0.000007
| 29> C        -1.191977   -0.493637    0.000031
| 30> C        -2.334371    0.478206    0.000033
| 31> N        -1.449644   -1.737925   -0.000000
| 32> H        -2.288921    1.129043    0.874973
| 33> H        -3.275531   -0.065851    0.000027
| 34> H        -2.288918    1.129058   -0.874896
| 35> H        -0.594197   -2.294001   -0.000035
| 36> *
| 37>
| 38> $new_job
| 39> ! ri-mp2 aug-cc-pvqz aug-cc-pvqz/c tightscf
| 40> %pal nprocs 16 end
| 41> %maxcore 3800
| 42> %base "QZ_B-Cl_38_AB"
| 43>
| 44> *xyz 0 1
| 45> Cl         1.639910   -1.052554   -0.000047
| 46> Cl         0.613178    1.764055    0.000018
| 47> B         0.290133    0.052861    0.000007
| 48> C        -1.191977   -0.493637    0.000031
| 49> C        -2.334371    0.478206    0.000033
| 50> N        -1.449644   -1.737925   -0.000000
| 51> H        -2.288921    1.129043    0.874973
| 52> H        -3.275531   -0.065851    0.000027
| 53> H        -2.288918    1.129058   -0.874896
| 54> H        -0.594197   -2.294001   -0.000035
| 55> *
| 56>
| 57>
| 58>
| 59>
| 60>                          ****END OF INPUT****
 Total Charge           Charge          ....    0
 Multiplicity           Mult            ....    1
 Number of Electrons    NEL             ....   62
MP2 TOTAL ENERGY:    -1077.132426512 Eh
FINAL SINGLE POINT ENERGY     -1077.132426512296
MP2 TOTAL ENERGY:    -1077.390033989 Eh
FINAL SINGLE POINT ENERGY     -1077.390033989494

CARTESIAN COORDINATES (ANGSTROEM)
---------------------------------
  Cl     1.639910   -1.052554   -0.000047
  Cl     0.613178    1.764055    0.000018
  B      0.290133    0.052861    0.000007
  C     -1.191977   -0.493637    0.000031
  C     -2.334371    0.478206    0.000033
  N     -1.449644   -1.737925   -0.000000
  H     -2.288921    1.129043    0.874973
  H     -3.275531   -0.065851    0.000027
  H     -2.288918    1.129058   -0.874896
  H     -0.594197   -2.294001   -0.000035

 Multiplicity           Mult            ....    1
 Number of Electrons    NEL             ....   62
 Basis Dimension        Dim             ....  672

ORBITAL ENERGIES
----------------

  NO   OCC          E(Eh)            E(eV)
   0   2.0000    -104.856494     -2853.2903
   1   2.0000    -104.856011     -2853.2771
   2   2.0000     -15.572741      -423.7558
   3   2.0000     -11.282521      -307.0130
   4   2.0000     -11.229084      -305.5589
   5   2.0000     -10.584409      -288.0164
   6   2.0000     -10.583926      -288.0033
   7   2.0000      -8.051212      -219.0846
   8   2.0000      -8.050740      -219.0718
   9   2.0000      -8.050176      -219.0564
  10   2.0000      -8.049876      -219.0483
  11   2.0000      -8.049675      -219.0428
  12   2.0000      -8.049436      -219.0363
  13   2.0000      -7.725698      -210.2269
  14   2.0000      -1.231402       -33.5081
  15   2.0000      -1.157779       -31.5048
  16   2.0000      -1.116543       -30.3827
  17   2.0000      -0.998598       -27.1732
  18   2.0000      -0.802065       -21.8253
  19   2.0000      -0.728137       -19.8136
  20   2.0000      -0.650477       -17.7004
  21   2.0000      -0.606433       -16.5019
  22   2.0000      -0.592367       -16.1191
  23   2.0000      -0.562228       -15.2990
  24   2.0000      -0.549098       -14.9417
  25   2.0000      -0.532316       -14.4851
  26   2.0000      -0.501271       -13.6403
  27   2.0000      -0.482324       -13.1247
  28   2.0000      -0.469383       -12.7726
  29   2.0000      -0.440096       -11.9756
  30   2.0000      -0.421096       -11.4586
  31   0.0000       0.023907         0.6505
  32   0.0000       0.033312         0.9065
  33   0.0000       0.034806         0.9471
  34   0.0000       0.036766         1.0005
  35   0.0000       0.040787         1.1099

MULLIKEN ATOMIC CHARGES
-----------------------
   0 Cl:   -0.228264
   1 Cl:   -0.185683
   2 B :    0.740985
   3 C :   -0.028416
   4 C :   -0.725532
   5 N :   -0.693795
   6 H :    0.247961
   7 H :    0.309277
   8 H :    0.247975
   9 H :    0.315493
Sum of atomic charges:   -0.0000000

LOEWDIN ATOMIC CHARGES
----------------------
   0 Cl:    1.319469
   1 Cl:    1.313778
   2 B :   -2.336941
   3 C :   -0.371671
   4 C :    0.801474
   5 N :    0.977783
   6 H :   -0.310015
   7 H :   -0.320271
   8 H :   -0.310015
   9 H :   -0.763592

  Mayer bond orders larger than 0.100000
B(  0-Cl,  2-B ) :   0.9765 B(  0-Cl,  3-C ) :   0.1225 B(  1-Cl,  2-B ) :   1.0454
B(  1-Cl,  3-C ) :   0.1095 B(  2-B ,  3-C ) :   0.9863 B(  3-C ,  4-C ) :   0.8077
B(  3-C ,  5-N ) :   1.6090 B(  4-C ,  6-H ) :   0.9623 B(  4-C ,  7-H ) :   0.9647
B(  4-C ,  8-H ) :   0.9622 B(  5-N ,  9-H ) :   0.7956

MP2 TOTAL ENERGY:    -1077.475309735 Eh
FINAL SINGLE POINT ENERGY     -1077.475309735268

DIPOLE MOMENT
-------------
                                X             Y             Z
Electronic contribution:     11.34240       1.52175      -0.00010
Nuclear contribution   :    -11.20714      -1.10297       0.00010
                        -----------------------------------------
Total Dipole Moment    :      0.13526       0.41878       0.00000
                        -----------------------------------------
Magnitude (a.u.)       :      0.44008
Magnitude (Debye)      :      1.11860

Rotational constants in cm-1:     0.081497     0.069130     0.037661
Rotational constants in MHz :  2443.221401  2072.464997  1129.043427

                             ****ORCA TERMINATED NORMALLY****
TOTAL RUN TIME: 0 days 0 hours 7 minutes 3 seconds 697 msec
