                         Program Version 5.0.4 -  RELEASE  -
|  1> ! ri-mp2 aug-cc-pvdz aug-cc-pvdz/c tightscf
|  2> %pal nprocs 16 end
|  3> %maxcore 3800
|  4> %base "DZ_S-F_86_AB"
|  5>
|  6> *xyz 0 1
|  7> F        -2.516942   -1.350033    0.915132
|  8> C        -0.980984    0.478402   -0.137502
|  9> S        -2.444261   -0.428161   -0.434919
| 10> C         0.302349   -0.146888   -0.098245
| 11> C         0.483229   -1.542215   -0.193401
| 12> H        -0.383143   -2.177859   -0.303252
| 13> C         1.732784   -2.086780   -0.138822
| 14> H         1.854908   -3.158938   -0.215083
| 15> C         2.865882   -1.268550    0.016798
| 16> H         3.849505   -1.716328    0.061892
| 17> C         2.722116    0.083219    0.108100
| 18> H         3.587665    0.722999    0.224817
| 19> C         1.443140    0.678386    0.051128
| 20> C         1.282304    2.081327    0.127045
| 21> H         2.166799    2.697246    0.231373
| 22> C         0.047973    2.652402    0.074593
| 23> H        -0.064470    3.725927    0.138491
| 24> C        -1.094213    1.840577   -0.038217
| 25> H        -2.078090    2.288546   -0.044587
| 26> *
| 27>
| 28> $new_job
| 29> ! ri-mp2 aug-cc-pvtz aug-cc-pvtz/c tightscf
| 30> %pal nprocs 16 end
| 31> %maxcore 3800
| 32> %base "TZ_S-F_86_AB"
| 33>
| 34> *xyz 0 1
| 35> F        -2.516942   -1.350033    0.915132
| 36> C        -0.980984    0.478402   -0.137502
| 37> S        -2.444261   -0.428161   -0.434919
| 38> C         0.302349   -0.146888   -0.098245
| 39> C         0.483229   -1.542215   -0.193401
| 40> H        -0.383143   -2.177859   -0.303252
| 41> C         1.732784   -2.086780   -0.138822
| 42> H         1.854908   -3.158938   -0.215083
| 43> C         2.865882   -1.268550    0.016798
| 44> H         3.849505   -1.716328    0.061892
| 45> C         2.722116    0.083219    0.108100
| 46> H         3.587665    0.722999    0.224817
| 47> C         1.443140    0.678386    0.051128
| 48> C         1.282304    2.081327    0.127045
| 49> H         2.166799    2.697246    0.231373
| 50> C         0.047973    2.652402    0.074593
| 51> H        -0.064470    3.725927    0.138491
| 52> C        -1.094213    1.840577   -0.038217
| 53> H        -2.078090    2.288546   -0.044587
| 54> *
| 55>
| 56> $new_job
| 57> ! ri-mp2 aug-cc-pvqz aug-cc-pvqz/c tightscf
| 58> %pal nprocs 16 end
| 59> %maxcore 3800
| 60> %base "QZ_S-F_86_AB"
| 61>
| 62> *xyz 0 1
| 63> F        -2.516942   -1.350033    0.915132
| 64> C        -0.980984    0.478402   -0.137502
| 65> S        -2.444261   -0.428161   -0.434919
| 66> C         0.302349   -0.146888   -0.098245
| 67> C         0.483229   -1.542215   -0.193401
| 68> H        -0.383143   -2.177859   -0.303252
| 69> C         1.732784   -2.086780   -0.138822
| 70> H         1.854908   -3.158938   -0.215083
| 71> C         2.865882   -1.268550    0.016798
| 72> H         3.849505   -1.716328    0.061892
| 73> C         2.722116    0.083219    0.108100
| 74> H         3.587665    0.722999    0.224817
| 75> C         1.443140    0.678386    0.051128
| 76> C         1.282304    2.081327    0.127045
| 77> H         2.166799    2.697246    0.231373
| 78> C         0.047973    2.652402    0.074593
| 79> H        -0.064470    3.725927    0.138491
| 80> C        -1.094213    1.840577   -0.038217
| 81> H        -2.078090    2.288546   -0.044587
| 82> *
| 83>
| 84>
| 85>
| 86>
| 87>                          ****END OF INPUT****
 Total Charge           Charge          ....    0
 Multiplicity           Mult            ....    1
 Number of Electrons    NEL             ....   92
MP2 TOTAL ENERGY:     -881.442010945 Eh
FINAL SINGLE POINT ENERGY      -881.442010944858
MP2 TOTAL ENERGY:     -881.908280288 Eh
FINAL SINGLE POINT ENERGY      -881.908280288376

CARTESIAN COORDINATES (ANGSTROEM)
---------------------------------
  F     -2.516942   -1.350033    0.915132
  C     -0.980984    0.478402   -0.137502
  S     -2.444261   -0.428161   -0.434919
  C      0.302349   -0.146888   -0.098245
  C      0.483229   -1.542215   -0.193401
  H     -0.383143   -2.177859   -0.303252
  C      1.732784   -2.086780   -0.138822
  H      1.854908   -3.158938   -0.215083
  C      2.865882   -1.268550    0.016798
  H      3.849505   -1.716328    0.061892
  C      2.722116    0.083219    0.108100
  H      3.587665    0.722999    0.224817
  C      1.443140    0.678386    0.051128
  C      1.282304    2.081327    0.127045
  H      2.166799    2.697246    0.231373
  C      0.047973    2.652402    0.074593
  H     -0.064470    3.725927    0.138491
  C     -1.094213    1.840577   -0.038217
  H     -2.078090    2.288546   -0.044587

 Multiplicity           Mult            ....    1
 Number of Electrons    NEL             ....   92
 Basis Dimension        Dim             .... 1286

ORBITAL ENERGIES
----------------

  NO   OCC          E(Eh)            E(eV)
   0   2.0000     -92.024647     -2504.1180
   1   2.0000     -26.294533      -715.5106
   2   2.0000     -11.273725      -306.7736
   3   2.0000     -11.260587      -306.4161
   4   2.0000     -11.259563      -306.3883
   5   2.0000     -11.256585      -306.3073
   6   2.0000     -11.253943      -306.2354
   7   2.0000     -11.246716      -306.0387
   8   2.0000     -11.244700      -305.9838
   9   2.0000     -11.243029      -305.9384
  10   2.0000     -11.241534      -305.8977
  11   2.0000     -11.238854      -305.8248
  12   2.0000      -9.019170      -245.4241
  13   2.0000      -6.700827      -182.3388
  14   2.0000      -6.698881      -182.2858
  15   2.0000      -6.697680      -182.2531
  16   2.0000      -1.591514       -43.3073
  17   2.0000      -1.200318       -32.6623
  18   2.0000      -1.133547       -30.8454
  19   2.0000      -1.084250       -29.5039
  20   2.0000      -1.027535       -27.9607
  21   2.0000      -1.015479       -27.6326
  22   2.0000      -0.945075       -25.7168
  23   2.0000      -0.863831       -23.5060
  24   2.0000      -0.856455       -23.3053
  25   2.0000      -0.809439       -22.0259
  26   2.0000      -0.723007       -19.6740
  27   2.0000      -0.717498       -19.5241
  28   2.0000      -0.699329       -19.0297
  29   2.0000      -0.675497       -18.3812
  30   2.0000      -0.673904       -18.3379
  31   2.0000      -0.657579       -17.8936
  32   2.0000      -0.631192       -17.1756
  33   2.0000      -0.610149       -16.6030
  34   2.0000      -0.603456       -16.4209
  35   2.0000      -0.580033       -15.7835
  36   2.0000      -0.561360       -15.2754
  37   2.0000      -0.551162       -14.9979
  38   2.0000      -0.520547       -14.1648
  39   2.0000      -0.505468       -13.7545
  40   2.0000      -0.470850       -12.8125
  41   2.0000      -0.467246       -12.7144
  42   2.0000      -0.413163       -11.2427
  43   2.0000      -0.364288        -9.9128
  44   2.0000      -0.335873        -9.1396
  45   2.0000      -0.307559        -8.3691
  46   0.0000       0.021403         0.5824
  47   0.0000       0.024550         0.6680
  48   0.0000       0.030390         0.8269
  49   0.0000       0.037584         1.0227
  50   0.0000       0.041444         1.1278

MULLIKEN ATOMIC CHARGES
-----------------------
   0 F :   -0.668886
   1 C :   -0.305235
   2 S :    0.359530
   3 C :    0.778739
   4 C :   -0.501327
   5 H :    0.350410
   6 C :   -0.482596
   7 H :    0.229324
   8 C :   -0.439560
   9 H :    0.264415
  10 C :   -0.399262
  11 H :    0.182377
  12 C :    0.892877
  13 C :   -0.478227
  14 H :    0.203551
  15 C :   -0.237299
  16 H :    0.255161
  17 C :   -0.378876
  18 H :    0.374884
Sum of atomic charges:   -0.0000000

LOEWDIN ATOMIC CHARGES
----------------------
   0 F :    0.108717
   1 C :   -0.546771
   2 S :    0.760110
   3 C :   -0.204248
   4 C :    0.314507
   5 H :   -0.384364
   6 C :    0.361536
   7 H :   -0.316983
   8 C :    0.357615
   9 H :   -0.319482
  10 C :    0.354698
  11 H :   -0.317987
  12 C :   -0.116907
  13 C :    0.362152
  14 H :   -0.312475
  15 C :    0.363429
  16 H :   -0.320332
  17 C :    0.218144
  18 H :   -0.361358

  Mayer bond orders larger than 0.100000
B(  0-F ,  1-C ) :  -0.1438 B(  0-F ,  2-S ) :   0.5749 B(  1-C ,  2-S ) :   1.2626
B(  1-C ,  3-C ) :   0.6867 B(  1-C ,  5-H ) :   0.1236 B(  1-C , 12-C ) :  -0.4146
B(  1-C , 15-C ) :  -0.1644 B(  1-C , 17-C ) :   1.1700 B(  2-S ,  3-C ) :  -0.3054
B(  2-S , 17-C ) :  -0.2778 B(  3-C ,  4-C ) :   0.6321 B(  3-C ,  5-H ) :  -0.1572
B(  3-C ,  6-C ) :  -0.3667 B(  3-C , 10-C ) :  -0.3663 B(  3-C , 12-C ) :   1.0166
B(  3-C , 15-C ) :   0.1197 B(  4-C ,  5-H ) :   0.9566 B(  4-C ,  6-C ) :   1.3334
B(  4-C ,  7-H ) :  -0.1947 B(  4-C , 10-C ) :   0.1825 B(  4-C , 12-C ) :  -0.2284
B(  6-C ,  7-H ) :   1.1787 B(  6-C ,  8-C ) :   1.1612 B(  8-C ,  9-H ) :   1.1319
B(  8-C , 10-C ) :   1.2675 B(  8-C , 12-C ) :  -0.2540 B(  9-H , 10-C ) :  -0.1788
B( 10-C , 11-H ) :   1.1293 B( 10-C , 12-C ) :   0.7126 B( 10-C , 13-C ) :  -0.1839
B( 11-H , 12-C ) :  -0.1706 B( 12-C , 13-C ) :   0.4678 B( 12-C , 14-H ) :  -0.1890
B( 12-C , 15-C ) :  -0.4279 B( 13-C , 14-H ) :   1.0980 B( 13-C , 15-C ) :   1.2985
B( 13-C , 16-H ) :  -0.2171 B( 13-C , 17-C ) :   0.2130 B( 15-C , 16-H ) :   1.1675
B( 15-C , 17-C ) :   1.1129 B( 16-H , 17-C ) :  -0.1675 B( 17-C , 18-H ) :   0.9392

MP2 TOTAL ENERGY:     -882.058901032 Eh
FINAL SINGLE POINT ENERGY      -882.058901032321

DIPOLE MOMENT
-------------
                                X             Y             Z
Electronic contribution:    -10.19089      -2.90673       0.51935
Nuclear contribution   :     11.14337       3.61426      -0.77238
                        -----------------------------------------
Total Dipole Moment    :      0.95248       0.70754      -0.25303
                        -----------------------------------------
Magnitude (a.u.)       :      1.21320
Magnitude (Debye)      :      3.08370

Rotational constants in cm-1:     0.042716     0.025002     0.016501
Rotational constants in MHz :  1280.581551   749.528805   494.699841

                             ****ORCA TERMINATED NORMALLY****
TOTAL RUN TIME: 0 days 1 hours 14 minutes 10 seconds 950 msec
