                         Program Version 5.0.4 -  RELEASE  -
|  1> ! ri-mp2 aug-cc-pvdz aug-cc-pvdz/c tightscf
|  2> %pal nprocs 16 end
|  3> %maxcore 3800
|  4> %base "DZ_B-F_44_AB"
|  5> %scf
|  6> STABPerform true
|  7> STABRestartUHFifUnstable true
|  8> end
|  9>
| 10> *xyz 0 1
| 11> F        -0.794071    1.325635    0.000000
| 12> B        -0.849668    0.020534    0.000001
| 13> C         1.488347   -0.247732   -0.000001
| 14> N         2.566604    0.138841    0.000000
| 15> O         0.296527   -0.744642   -0.000000
| 16> F        -1.985950   -0.617972   -0.000000
| 17> *
| 18>
| 19> $new_job
| 20> ! ri-mp2 aug-cc-pvtz aug-cc-pvtz/c tightscf
| 21> %pal nprocs 16 end
| 22> %maxcore 3800
| 23> %base "TZ_B-F_44_AB"
| 24>
| 25> *xyz 0 1
| 26> F        -0.794071    1.325635    0.000000
| 27> B        -0.849668    0.020534    0.000001
| 28> C         1.488347   -0.247732   -0.000001
| 29> N         2.566604    0.138841    0.000000
| 30> O         0.296527   -0.744642   -0.000000
| 31> F        -1.985950   -0.617972   -0.000000
| 32> *
| 33>
| 34> $new_job
| 35> ! ri-mp2 aug-cc-pvqz aug-cc-pvqz/c tightscf
| 36> %pal nprocs 16 end
| 37> %maxcore 3800
| 38> %base "QZ_B-F_44_AB"
| 39>
| 40> *xyz 0 1
| 41> F        -0.794071    1.325635    0.000000
| 42> B        -0.849668    0.020534    0.000001
| 43> C         1.488347   -0.247732   -0.000001
| 44> N         2.566604    0.138841    0.000000
| 45> O         0.296527   -0.744642   -0.000000
| 46> F        -1.985950   -0.617972   -0.000000
| 47> *
| 48>
| 49>
| 50>
| 51>
| 52>                          ****END OF INPUT****
 Total Charge           Charge          ....    0
 Multiplicity           Mult            ....    1
 Number of Electrons    NEL             ....   44
MP2 TOTAL ENERGY:     -391.877192151 Eh
FINAL SINGLE POINT ENERGY      -391.877192151398
MP2 TOTAL ENERGY:     -392.213709740 Eh
FINAL SINGLE POINT ENERGY      -392.213709739557

CARTESIAN COORDINATES (ANGSTROEM)
---------------------------------
  F     -0.794071    1.325635    0.000000
  B     -0.849668    0.020534    0.000001
  C      1.488347   -0.247732   -0.000001
  N      2.566604    0.138841    0.000000
  O      0.296527   -0.744642   -0.000000
  F     -1.985950   -0.617972   -0.000000

 Multiplicity           Mult            ....    1
 Number of Electrons    NEL             ....   44
 Basis Dimension        Dim             ....  480

ORBITAL ENERGIES
----------------

  NO   OCC          E(Eh)            E(eV)
   0   2.0000     -26.363790      -717.3952
   1   2.0000     -26.360654      -717.3099
   2   2.0000     -20.696902      -563.1913
   3   2.0000     -15.589646      -424.2158
   4   2.0000     -11.360192      -309.1265
   5   2.0000      -7.800560      -212.2640
   6   2.0000      -1.699701       -46.2512
   7   2.0000      -1.670068       -45.4449
   8   2.0000      -1.526039       -41.5256
   9   2.0000      -1.245385       -33.8886
  10   2.0000      -0.943597       -25.6766
  11   2.0000      -0.858192       -23.3526
  12   2.0000      -0.828831       -22.5536
  13   2.0000      -0.779113       -21.2007
  14   2.0000      -0.751837       -20.4585
  15   2.0000      -0.714562       -19.4442
  16   2.0000      -0.711307       -19.3557
  17   2.0000      -0.694059       -18.8863
  18   2.0000      -0.689201       -18.7541
  19   2.0000      -0.585431       -15.9304
  20   2.0000      -0.488217       -13.2851
  21   2.0000      -0.479580       -13.0500
  22   0.0000       0.024540         0.6678
  23   0.0000       0.033243         0.9046
  24   0.0000       0.035093         0.9549
  25   0.0000       0.039187         1.0663
  26   0.0000       0.075342         2.0502

MULLIKEN ATOMIC CHARGES
-----------------------
   0 F :   -0.698852
   1 B :    1.917983
   2 C :    0.891572
   3 N :   -0.604028
   4 O :   -0.801358
   5 F :   -0.705316
Sum of atomic charges:    0.0000000

LOEWDIN ATOMIC CHARGES
----------------------
   0 F :    0.848226
   1 B :   -2.093025
   2 C :   -0.749609
   3 N :    0.360535
   4 O :    0.807588
   5 F :    0.826284

  Mayer bond orders larger than 0.100000
B(  0-F ,  1-B ) :   0.5619 B(  1-B ,  4-O ) :   0.5618 B(  1-B ,  5-F ) :   0.4986
B(  2-C ,  3-N ) :   2.6865 B(  2-C ,  4-O ) :   1.0742

MP2 TOTAL ENERGY:     -392.322100756 Eh
FINAL SINGLE POINT ENERGY      -392.322100756051

DIPOLE MOMENT
-------------
                                X             Y             Z
Electronic contribution:     -4.21770       0.38777       0.00000
Nuclear contribution   :      3.13891      -0.66087      -0.00000
                        -----------------------------------------
Total Dipole Moment    :     -1.07879      -0.27310       0.00000
                        -----------------------------------------
Magnitude (a.u.)       :      1.11282
Magnitude (Debye)      :      2.82857

Rotational constants in cm-1:     0.333699     0.078457     0.063522
Rotational constants in MHz : 10004.040369  2352.069500  1904.337083

                             ****ORCA TERMINATED NORMALLY****
TOTAL RUN TIME: 0 days 0 hours 9 minutes 15 seconds 293 msec
