                         Program Version 5.0.4 -  RELEASE  -
|  1> ! ri-mp2 aug-cc-pvdz aug-cc-pvdz/c tightscf
|  2> %pal nprocs 16 end
|  3> %maxcore 3800
|  4> %base "DZ_Si-Cl_55_A"
|  5> %scf
|  6> STABPerform true
|  7> STABRestartUHFifUnstable true
|  8> end
|  9>
| 10> *xyz 0 2
| 11> Si         0.321018   -0.021060    0.586550
| 12> C        -1.510602   -0.320343    0.037728
| 13> Cl         0.925007    1.834060   -0.101327
| 14> Cl         1.476780   -1.471952   -0.257421
| 15> N        -2.249253    0.767246   -0.266398
| 16> H        -1.826049    1.672238   -0.373125
| 17> H        -3.210659    0.636139   -0.540783
| 18> O        -1.934941   -1.452256    0.054920
| 19> *
| 20>
| 21> $new_job
| 22> ! ri-mp2 aug-cc-pvtz aug-cc-pvtz/c tightscf
| 23> %pal nprocs 16 end
| 24> %maxcore 3800
| 25> %base "TZ_Si-Cl_55_A"
| 26>
| 27> *xyz 0 2
| 28> Si         0.321018   -0.021060    0.586550
| 29> C        -1.510602   -0.320343    0.037728
| 30> Cl         0.925007    1.834060   -0.101327
| 31> Cl         1.476780   -1.471952   -0.257421
| 32> N        -2.249253    0.767246   -0.266398
| 33> H        -1.826049    1.672238   -0.373125
| 34> H        -3.210659    0.636139   -0.540783
| 35> O        -1.934941   -1.452256    0.054920
| 36> *
| 37>
| 38> $new_job
| 39> ! ri-mp2 aug-cc-pvqz aug-cc-pvqz/c tightscf
| 40> %pal nprocs 16 end
| 41> %maxcore 3800
| 42> %base "QZ_Si-Cl_55_A"
| 43>
| 44> *xyz 0 2
| 45> Si         0.321018   -0.021060    0.586550
| 46> C        -1.510602   -0.320343    0.037728
| 47> Cl         0.925007    1.834060   -0.101327
| 48> Cl         1.476780   -1.471952   -0.257421
| 49> N        -2.249253    0.767246   -0.266398
| 50> H        -1.826049    1.672238   -0.373125
| 51> H        -3.210659    0.636139   -0.540783
| 52> O        -1.934941   -1.452256    0.054920
| 53> *
| 54>
| 55>
| 56>
| 57>
| 58>                          ****END OF INPUT****
 Total Charge           Charge          ....    0
 Multiplicity           Mult            ....    2
 Number of Electrons    NEL             ....   71
MP2 TOTAL ENERGY:    -1377.266836576 Eh
FINAL SINGLE POINT ENERGY     -1377.266836576147
MP2 TOTAL ENERGY:    -1377.564284597 Eh
FINAL SINGLE POINT ENERGY     -1377.564284597147

CARTESIAN COORDINATES (ANGSTROEM)
---------------------------------
  Si     0.321018   -0.021060    0.586550
  C     -1.510602   -0.320343    0.037728
  Cl     0.925007    1.834060   -0.101327
  Cl     1.476780   -1.471952   -0.257421
  N     -2.249253    0.767246   -0.266398
  H     -1.826049    1.672238   -0.373125
  H     -3.210659    0.636139   -0.540783
  O     -1.934941   -1.452256    0.054920

 Multiplicity           Mult            ....    2
 Number of Electrons    NEL             ....   71
 Basis Dimension        Dim             ....  584

ORBITAL ENERGIES
----------------
                 SPIN UP ORBITALS
  NO   OCC          E(Eh)            E(eV)
   0   1.0000    -104.856155     -2853.2810
   1   1.0000    -104.849833     -2853.1090
   2   1.0000     -68.884375     -1874.4391
   3   1.0000     -20.545526      -559.0722
   4   1.0000     -15.605096      -424.6362
   5   1.0000     -11.364407      -309.2412
   6   1.0000     -10.583337      -287.9873
   7   1.0000     -10.576959      -287.8137
   8   1.0000      -8.051206      -219.0844
   9   1.0000      -8.048957      -219.0232
  10   1.0000      -8.048628      -219.0143
  11   1.0000      -8.044953      -218.9143
  12   1.0000      -8.042544      -218.8488
  13   1.0000      -8.042134      -218.8376
  14   1.0000      -6.225815      -169.4130
  15   1.0000      -4.336331      -117.9976
  16   1.0000      -4.328690      -117.7896
  17   1.0000      -4.327367      -117.7536
  18   1.0000      -1.408126       -38.3170
  19   1.0000      -1.235976       -33.6326
  20   1.0000      -1.138488       -30.9798
  21   1.0000      -1.110642       -30.2221
  22   1.0000      -0.856882       -23.3169
  23   1.0000      -0.772105       -21.0100
  24   1.0000      -0.712053       -19.3759
  25   1.0000      -0.663599       -18.0575
  26   1.0000      -0.599704       -16.3188
  27   1.0000      -0.595365       -16.2007
  28   1.0000      -0.568140       -15.4599
  29   1.0000      -0.532055       -14.4780
  30   1.0000      -0.511779       -13.9262
  31   1.0000      -0.493914       -13.4401
  32   1.0000      -0.475905       -12.9500
  33   1.0000      -0.441994       -12.0273
  34   1.0000      -0.433557       -11.7977
  35   1.0000      -0.363598        -9.8940
  36   0.0000       0.019921         0.5421
  37   0.0000       0.035389         0.9630
  38   0.0000       0.040059         1.0900
  39   0.0000       0.041857         1.1390
  40   0.0000       0.053289         1.4501

                 SPIN DOWN ORBITALS
  NO   OCC          E(Eh)            E(eV)
   0   1.0000    -104.855125     -2853.2530
   1   1.0000    -104.848733     -2853.0791
   2   1.0000     -68.878251     -1874.2725
   3   1.0000     -20.544129      -559.0342
   4   1.0000     -15.604900      -424.6309
   5   1.0000     -11.361806      -309.1704
   6   1.0000     -10.582210      -287.9566
   7   1.0000     -10.575762      -287.7811
   8   1.0000      -8.048835      -219.0199
   9   1.0000      -8.048101      -218.9999
  10   1.0000      -8.046645      -218.9603
  11   1.0000      -8.042423      -218.8454
  12   1.0000      -8.041580      -218.8225
  13   1.0000      -8.040042      -218.7807
  14   1.0000      -6.215683      -169.1373
  15   1.0000      -4.324722      -117.6817
  16   1.0000      -4.323831      -117.6574
  17   1.0000      -4.315266      -117.4244
  18   1.0000      -1.404567       -38.2202
  19   1.0000      -1.234060       -33.5805
  20   1.0000      -1.129313       -30.7302
  21   1.0000      -1.102549       -30.0019
  22   1.0000      -0.845786       -23.0150
  23   1.0000      -0.764751       -20.8099
  24   1.0000      -0.696115       -18.9422
  25   1.0000      -0.650266       -17.6946
  26   1.0000      -0.597698       -16.2642
  27   1.0000      -0.581779       -15.8310
  28   1.0000      -0.556512       -15.1435
  29   1.0000      -0.512211       -13.9380
  30   1.0000      -0.505864       -13.7653
  31   1.0000      -0.483539       -13.1578
  32   1.0000      -0.474094       -12.9007
  33   1.0000      -0.433931       -11.8079
  34   1.0000      -0.417450       -11.3594
  35   0.0000       0.005363         0.1459
  36   0.0000       0.021065         0.5732
  37   0.0000       0.038906         1.0587
  38   0.0000       0.042713         1.1623
  39   0.0000       0.043194         1.1754

MULLIKEN ATOMIC CHARGES AND SPIN POPULATIONS
--------------------------------------------
   0 Si:    1.439821    0.825125
   1 C :    0.542743    0.051965
   2 Cl:   -0.575431    0.041205
   3 Cl:   -0.551557    0.047834
   4 N :   -0.714047    0.001450
   5 H :    0.369820    0.000272
   6 H :    0.223283    0.003238
   7 O :   -0.734631    0.028911
Sum of atomic charges         :    0.0000000

LOEWDIN ATOMIC CHARGES AND SPIN POPULATIONS
-------------------------------------------
   0 Si:   -1.163041    0.553843
   1 C :   -1.020220    0.131357
   2 Cl:    0.790843    0.129170
   3 Cl:    0.800636    0.131931
   4 N :    1.123637    0.014579
   5 H :   -0.598855    0.002866
   6 H :   -0.501571    0.002111
   7 O :    0.568571    0.034143

  Mayer bond orders larger than 0.100000
B(  0-Si,  1-C ) :   0.8612 B(  0-Si,  2-Cl) :   0.6327 B(  0-Si,  3-Cl) :   0.7381
B(  1-C ,  4-N ) :   1.1261 B(  1-C ,  7-O ) :   1.5381 B(  4-N ,  5-H ) :   0.8623
B(  4-N ,  6-H ) :   1.0040 B(  4-N ,  7-O ) :   0.1087

MP2 TOTAL ENERGY:    -1377.664745515 Eh
FINAL SINGLE POINT ENERGY     -1377.664745514674

DIPOLE MOMENT
-------------
                                X             Y             Z
Electronic contribution:      7.69112      -0.36633       0.45889
Nuclear contribution   :     -7.95820       1.65318      -0.40739
                        -----------------------------------------
Total Dipole Moment    :     -0.26708       1.28685       0.05150
                        -----------------------------------------
Magnitude (a.u.)       :      1.31529
Magnitude (Debye)      :      3.34319

Rotational constants in cm-1:     0.065889     0.056889     0.032139
Rotational constants in MHz :  1975.309974  1705.497918   963.509578

                             ****ORCA TERMINATED NORMALLY****
TOTAL RUN TIME: 0 days 0 hours 40 minutes 36 seconds 835 msec
