                         Program Version 5.0.4 -  RELEASE  -
|  1> ! ri-mp2 aug-cc-pvdz aug-cc-pvdz/c tightscf
|  2> %pal nprocs 16 end
|  3> %maxcore 3800
|  4> %base "DZ_Si-Si_156_A"
|  5> %scf
|  6> STABPerform true
|  7> STABRestartUHFifUnstable true
|  8> end
|  9>
| 10> *xyz 0 2
| 11> Si         1.592213   -0.192640    0.019473
| 12> S        -0.565604    0.178803   -0.443885
| 13> H         2.288136    0.969535   -0.585102
| 14> H         1.652417   -0.136159    1.498235
| 15> O        -0.874007    1.294342    0.466338
| 16> O        -1.027749   -1.245886    0.262446
| 17> H        -1.967825   -1.384910    0.086143
| 18> *
| 19>
| 20> $new_job
| 21> ! ri-mp2 aug-cc-pvtz aug-cc-pvtz/c tightscf
| 22> %pal nprocs 16 end
| 23> %maxcore 3800
| 24> %base "TZ_Si-Si_156_A"
| 25>
| 26> *xyz 0 2
| 27> Si         1.592213   -0.192640    0.019473
| 28> S        -0.565604    0.178803   -0.443885
| 29> H         2.288136    0.969535   -0.585102
| 30> H         1.652417   -0.136159    1.498235
| 31> O        -0.874007    1.294342    0.466338
| 32> O        -1.027749   -1.245886    0.262446
| 33> H        -1.967825   -1.384910    0.086143
| 34> *
| 35>
| 36> $new_job
| 37> ! ri-mp2 aug-cc-pvqz aug-cc-pvqz/c tightscf
| 38> %pal nprocs 16 end
| 39> %maxcore 3800
| 40> %base "QZ_Si-Si_156_A"
| 41>
| 42> *xyz 0 2
| 43> Si         1.592213   -0.192640    0.019473
| 44> S        -0.565604    0.178803   -0.443885
| 45> H         2.288136    0.969535   -0.585102
| 46> H         1.652417   -0.136159    1.498235
| 47> O        -0.874007    1.294342    0.466338
| 48> O        -1.027749   -1.245886    0.262446
| 49> H        -1.967825   -1.384910    0.086143
| 50> *
| 51>
| 52>
| 53>
| 54>
| 55>                          ****END OF INPUT****
 Total Charge           Charge          ....    0
 Multiplicity           Mult            ....    2
 Number of Electrons    NEL             ....   49
MP2 TOTAL ENERGY:     -838.488665126 Eh
FINAL SINGLE POINT ENERGY      -838.488665125577
MP2 TOTAL ENERGY:     -838.719260695 Eh
FINAL SINGLE POINT ENERGY      -838.719260694986

CARTESIAN COORDINATES (ANGSTROEM)
---------------------------------
  Si     1.592213   -0.192640    0.019473
  S     -0.565604    0.178803   -0.443885
  H      2.288136    0.969535   -0.585102
  H      1.652417   -0.136159    1.498235
  O     -0.874007    1.294342    0.466338
  O     -1.027749   -1.245886    0.262446
  H     -1.967825   -1.384910    0.086143

 Multiplicity           Mult            ....    2
 Number of Electrons    NEL             ....   49
 Basis Dimension        Dim             ....  466

ORBITAL ENERGIES
----------------
                 SPIN UP ORBITALS
  NO   OCC          E(Eh)            E(eV)
   0   1.0000     -92.101943     -2506.2213
   1   1.0000     -68.822975     -1872.7684
   2   1.0000     -20.613906      -560.9329
   3   1.0000     -20.530881      -558.6737
   4   1.0000      -9.085818      -247.2377
   5   1.0000      -6.768106      -184.1695
   6   1.0000      -6.767303      -184.1477
   7   1.0000      -6.765769      -184.1059
   8   1.0000      -6.172082      -167.9509
   9   1.0000      -4.283967      -116.5727
  10   1.0000      -4.274450      -116.3137
  11   1.0000      -4.273928      -116.2995
  12   1.0000      -1.429277       -38.8926
  13   1.0000      -1.344389       -36.5827
  14   1.0000      -0.925157       -25.1748
  15   1.0000      -0.744148       -20.2493
  16   1.0000      -0.719537       -19.5796
  17   1.0000      -0.632794       -17.2192
  18   1.0000      -0.624429       -16.9916
  19   1.0000      -0.569651       -15.5010
  20   1.0000      -0.525307       -14.2943
  21   1.0000      -0.508255       -13.8303
  22   1.0000      -0.468755       -12.7555
  23   1.0000      -0.399120       -10.8606
  24   1.0000      -0.352637        -9.5957
  25   0.0000       0.022585         0.6146
  26   0.0000       0.028388         0.7725
  27   0.0000       0.035085         0.9547
  28   0.0000       0.046510         1.2656
  29   0.0000       0.053528         1.4566

                 SPIN DOWN ORBITALS
  NO   OCC          E(Eh)            E(eV)
   0   1.0000     -92.101657     -2506.2135
   1   1.0000     -68.817156     -1872.6100
   2   1.0000     -20.613917      -560.9332
   3   1.0000     -20.527609      -558.5846
   4   1.0000      -9.085483      -247.2286
   5   1.0000      -6.768014      -184.1670
   6   1.0000      -6.766406      -184.1233
   7   1.0000      -6.765343      -184.0943
   8   1.0000      -6.162985      -167.7033
   9   1.0000      -4.270805      -116.2145
  10   1.0000      -4.270184      -116.1976
  11   1.0000      -4.261424      -115.9592
  12   1.0000      -1.427721       -38.8503
  13   1.0000      -1.338463       -36.4214
  14   1.0000      -0.917971       -24.9793
  15   1.0000      -0.719830       -19.5876
  16   1.0000      -0.710477       -19.3331
  17   1.0000      -0.623864       -16.9762
  18   1.0000      -0.620251       -16.8779
  19   1.0000      -0.557171       -15.1614
  20   1.0000      -0.518233       -14.1018
  21   1.0000      -0.499363       -13.5884
  22   1.0000      -0.455213       -12.3870
  23   1.0000      -0.367943       -10.0122
  24   0.0000       0.003848         0.1047
  25   0.0000       0.026870         0.7312
  26   0.0000       0.030271         0.8237
  27   0.0000       0.036236         0.9860
  28   0.0000       0.052168         1.4196

MULLIKEN ATOMIC CHARGES AND SPIN POPULATIONS
--------------------------------------------
   0 Si:    0.766059    0.906474
   1 S :    1.030292   -0.009649
   2 H :   -0.186518    0.027130
   3 H :   -0.142716    0.028830
   4 O :   -1.060503    0.049986
   5 O :   -0.746603   -0.000605
   6 H :    0.339988   -0.002167
Sum of atomic charges         :    0.0000000

LOEWDIN ATOMIC CHARGES AND SPIN POPULATIONS
-------------------------------------------
   0 Si:    0.832144    0.575464
   1 S :    0.115230    0.103814
   2 H :   -0.400464    0.129758
   3 H :   -0.373842    0.122856
   4 O :   -0.037888    0.055648
   5 O :    0.808460    0.012006
   6 H :   -0.943639    0.000455

  Mayer bond orders larger than 0.100000
B(  0-Si,  1-S ) :   0.6960 B(  0-Si,  2-H ) :   0.9031 B(  0-Si,  3-H ) :   0.8988
B(  1-S ,  4-O ) :   1.3633 B(  1-S ,  5-O ) :   0.8227 B(  5-O ,  6-H ) :   0.9096

MP2 TOTAL ENERGY:     -838.795373477 Eh
FINAL SINGLE POINT ENERGY      -838.795373477054

DIPOLE MOMENT
-------------
                                X             Y             Z
Electronic contribution:     -1.37179      -0.46210      -1.65178
Nuclear contribution   :      1.80201      -0.52661       0.98949
                        -----------------------------------------
Total Dipole Moment    :      0.43022      -0.98871      -0.66229
                        -----------------------------------------
Magnitude (a.u.)       :      1.26541
Magnitude (Debye)      :      3.21642

Rotational constants in cm-1:     0.241614     0.123673     0.094123
Rotational constants in MHz :  7243.410632  3707.634522  2821.736202

                             ****ORCA TERMINATED NORMALLY****
TOTAL RUN TIME: 0 days 0 hours 21 minutes 32 seconds 892 msec
