                         Program Version 5.0.4 -  RELEASE  -
|  1> ! ri-mp2 aug-cc-pvdz aug-cc-pvdz/c tightscf
|  2> %pal nprocs 16 end
|  3> %maxcore 3800
|  4> %base "DZ_Si-Si_145_AB"
|  5> %scf
|  6> STABPerform true
|  7> STABRestartUHFifUnstable true
|  8> end
|  9>
| 10> *xyz 0 1
| 11> Si         2.652701    1.015402    0.097522
| 12> Si         1.746374   -1.055759   -0.497691
| 13> P        -0.933128   -0.105763    0.314471
| 14> O        -1.838873   -0.010151   -0.964623
| 15> O        -1.866685   -0.847507    1.363038
| 16> H        -1.712629   -0.535875    2.261612
| 17> O        -0.370446    1.145673    0.822147
| 18> O         0.114131   -1.171827   -0.125796
| 19> H         2.393954   -2.168179    0.227397
| 20> H         1.868156   -1.309728   -1.948604
| 21> H         2.056279    2.117787   -0.678775
| 22> H         4.091405    0.917448   -0.262347
| 23> C        -2.925583    0.918672   -0.995253
| 24> H        -3.312347    0.908872   -2.009713
| 25> H        -2.575936    1.917726   -0.738416
| 26> H        -3.705144    0.604960   -0.301280
| 27> H         2.554614    1.256907    1.548825
| 28> *
| 29>
| 30> $new_job
| 31> ! ri-mp2 aug-cc-pvtz aug-cc-pvtz/c tightscf
| 32> %pal nprocs 16 end
| 33> %maxcore 3800
| 34> %base "TZ_Si-Si_145_AB"
| 35>
| 36> *xyz 0 1
| 37> Si         2.652701    1.015402    0.097522
| 38> Si         1.746374   -1.055759   -0.497691
| 39> P        -0.933128   -0.105763    0.314471
| 40> O        -1.838873   -0.010151   -0.964623
| 41> O        -1.866685   -0.847507    1.363038
| 42> H        -1.712629   -0.535875    2.261612
| 43> O        -0.370446    1.145673    0.822147
| 44> O         0.114131   -1.171827   -0.125796
| 45> H         2.393954   -2.168179    0.227397
| 46> H         1.868156   -1.309728   -1.948604
| 47> H         2.056279    2.117787   -0.678775
| 48> H         4.091405    0.917448   -0.262347
| 49> C        -2.925583    0.918672   -0.995253
| 50> H        -3.312347    0.908872   -2.009713
| 51> H        -2.575936    1.917726   -0.738416
| 52> H        -3.705144    0.604960   -0.301280
| 53> H         2.554614    1.256907    1.548825
| 54> *
| 55>
| 56> $new_job
| 57> ! ri-mp2 aug-cc-pvqz aug-cc-pvqz/c tightscf
| 58> %pal nprocs 16 end
| 59> %maxcore 3800
| 60> %base "QZ_Si-Si_145_AB"
| 61>
| 62> *xyz 0 1
| 63> Si         2.652701    1.015402    0.097522
| 64> Si         1.746374   -1.055759   -0.497691
| 65> P        -0.933128   -0.105763    0.314471
| 66> O        -1.838873   -0.010151   -0.964623
| 67> O        -1.866685   -0.847507    1.363038
| 68> H        -1.712629   -0.535875    2.261612
| 69> O        -0.370446    1.145673    0.822147
| 70> O         0.114131   -1.171827   -0.125796
| 71> H         2.393954   -2.168179    0.227397
| 72> H         1.868156   -1.309728   -1.948604
| 73> H         2.056279    2.117787   -0.678775
| 74> H         4.091405    0.917448   -0.262347
| 75> C        -2.925583    0.918672   -0.995253
| 76> H        -3.312347    0.908872   -2.009713
| 77> H        -2.575936    1.917726   -0.738416
| 78> H        -3.705144    0.604960   -0.301280
| 79> H         2.554614    1.256907    1.548825
| 80> *
| 81>
| 82>
| 83>
| 84>
| 85>                          ****END OF INPUT****
 Total Charge           Charge          ....    0
 Multiplicity           Mult            ....    1
 Number of Electrons    NEL             ....   90
MP2 TOTAL ENERGY:    -1262.605885605 Eh
FINAL SINGLE POINT ENERGY     -1262.605885604640
MP2 TOTAL ENERGY:    -1263.066307434 Eh
FINAL SINGLE POINT ENERGY     -1263.066307433979

CARTESIAN COORDINATES (ANGSTROEM)
---------------------------------
  Si     2.652701    1.015402    0.097522
  Si     1.746374   -1.055759   -0.497691
  P     -0.933128   -0.105763    0.314471
  O     -1.838873   -0.010151   -0.964623
  O     -1.866685   -0.847507    1.363038
  H     -1.712629   -0.535875    2.261612
  O     -0.370446    1.145673    0.822147
  O      0.114131   -1.171827   -0.125796
  H      2.393954   -2.168179    0.227397
  H      1.868156   -1.309728   -1.948604
  H      2.056279    2.117787   -0.678775
  H      4.091405    0.917448   -0.262347
  C     -2.925583    0.918672   -0.995253
  H     -3.312347    0.908872   -2.009713
  H     -2.575936    1.917726   -0.738416
  H     -3.705144    0.604960   -0.301280
  H      2.554614    1.256907    1.548825

 Multiplicity           Mult            ....    1
 Number of Electrons    NEL             ....   90
 Basis Dimension        Dim             .... 1066

ORBITAL ENERGIES
----------------

  NO   OCC          E(Eh)            E(eV)
   0   2.0000     -80.095522     -2179.5100
   1   2.0000     -68.804105     -1872.2549
   2   2.0000     -68.761511     -1871.0958
   3   2.0000     -20.603915      -560.6610
   4   2.0000     -20.594368      -560.4013
   5   2.0000     -20.586535      -560.1881
   6   2.0000     -20.512375      -558.1701
   7   2.0000     -11.297846      -307.4300
   8   2.0000      -7.613456      -207.1727
   9   2.0000      -6.149355      -167.3325
  10   2.0000      -6.112129      -166.3195
  11   2.0000      -5.512350      -149.9987
  12   2.0000      -5.512262      -149.9963
  13   2.0000      -5.511173      -149.9666
  14   2.0000      -4.256333      -115.8207
  15   2.0000      -4.255431      -115.7962
  16   2.0000      -4.255364      -115.7943
  17   2.0000      -4.218385      -114.7881
  18   2.0000      -4.218200      -114.7831
  19   2.0000      -4.218016      -114.7781
  20   2.0000      -1.463917       -39.8352
  21   2.0000      -1.393949       -37.9313
  22   2.0000      -1.381752       -37.5994
  23   2.0000      -1.305011       -35.5112
  24   2.0000      -0.975872       -26.5548
  25   2.0000      -0.852748       -23.2045
  26   2.0000      -0.774398       -21.0724
  27   2.0000      -0.732945       -19.9445
  28   2.0000      -0.723920       -19.6989
  29   2.0000      -0.682725       -18.5779
  30   2.0000      -0.658151       -17.9092
  31   2.0000      -0.652649       -17.7595
  32   2.0000      -0.635047       -17.2805
  33   2.0000      -0.613591       -16.6967
  34   2.0000      -0.591257       -16.0889
  35   2.0000      -0.571091       -15.5402
  36   2.0000      -0.557744       -15.1770
  37   2.0000      -0.528829       -14.3902
  38   2.0000      -0.505095       -13.7443
  39   2.0000      -0.489396       -13.3171
  40   2.0000      -0.487017       -13.2524
  41   2.0000      -0.475353       -12.9350
  42   2.0000      -0.463197       -12.6042
  43   2.0000      -0.461715       -12.5639
  44   2.0000      -0.402121       -10.9423
  45   0.0000       0.023173         0.6306
  46   0.0000       0.030308         0.8247
  47   0.0000       0.031334         0.8526
  48   0.0000       0.033558         0.9132
  49   0.0000       0.044255         1.2043

MULLIKEN ATOMIC CHARGES
-----------------------
   0 Si:    0.557916
   1 Si:    0.997494
   2 P :    3.040079
   3 O :   -0.884544
   4 O :   -1.018008
   5 H :    0.390828
   6 O :   -1.211342
   7 O :   -1.104036
   8 H :   -0.240034
   9 H :   -0.226312
  10 H :   -0.145758
  11 H :   -0.339820
  12 C :   -0.743902
  13 H :    0.443185
  14 H :    0.337699
  15 H :    0.300505
  16 H :   -0.153949
Sum of atomic charges:   -0.0000000

LOEWDIN ATOMIC CHARGES
----------------------
   0 Si:    0.994035
   1 Si:    0.376574
   2 P :   -1.171103
   3 O :    0.671341
   4 O :    1.108348
   5 H :   -0.859594
   6 O :    0.341629
   7 O :    0.434533
   8 H :   -0.279602
   9 H :   -0.275444
  10 H :   -0.302339
  11 H :   -0.324141
  12 C :    0.548556
  13 H :   -0.321575
  14 H :   -0.324094
  15 H :   -0.314081
  16 H :   -0.303044

  Mayer bond orders larger than 0.100000
B(  0-Si,  1-Si) :   0.8815 B(  0-Si, 10-H ) :   0.8211 B(  0-Si, 11-H ) :   0.7598
B(  0-Si, 16-H ) :   0.8185 B(  1-Si,  7-O ) :   0.4671 B(  1-Si,  8-H ) :   0.8780
B(  1-Si,  9-H ) :   0.8612 B(  2-P ,  3-O ) :   0.5726 B(  2-P ,  4-O ) :   0.4150
B(  2-P ,  6-O ) :   1.2291 B(  2-P ,  7-O ) :   0.4591 B(  3-O , 12-C ) :   0.9273
B(  4-O ,  5-H ) :   0.8940 B( 12-C , 13-H ) :   0.8114 B( 12-C , 14-H ) :   0.8796
B( 12-C , 15-H ) :   0.8985

MP2 TOTAL ENERGY:    -1263.213708360 Eh
FINAL SINGLE POINT ENERGY     -1263.213708359591

DIPOLE MOMENT
-------------
                                X             Y             Z
Electronic contribution:     -2.79925      -3.86360       2.15996
Nuclear contribution   :      2.17634       3.72861      -2.11914
                        -----------------------------------------
Total Dipole Moment    :     -0.62290      -0.13500       0.04081
                        -----------------------------------------
Magnitude (a.u.)       :      0.63867
Magnitude (Debye)      :      1.62337

Rotational constants in cm-1:     0.070777     0.024384     0.022758
Rotational constants in MHz :  2121.833823   731.025053   682.252704

                             ****ORCA TERMINATED NORMALLY****
TOTAL RUN TIME: 0 days 2 hours 4 minutes 36 seconds 314 msec
