                         Program Version 5.0.4 -  RELEASE  -
|  1> ! ri-mp2 aug-cc-pvdz aug-cc-pvdz/c tightscf
|  2> %pal nprocs 16 end
|  3> %maxcore 3800
|  4> %base "DZ_B-Cl_69_AB"
|  5>
|  6> *xyz 0 1
|  7> Cl         3.867715    1.494699    0.000000
|  8> Cl         3.867715   -1.494699   -0.000002
|  9> B         2.956858   -0.000000   -0.000001
| 10> C         1.409512    0.000000    0.000001
| 11> C         0.689716   -1.197062    0.000001
| 12> H         1.221380   -2.138375    0.000000
| 13> C         0.689716    1.197062    0.000000
| 14> H         1.221380    2.138375    0.000000
| 15> Cl        -3.867715   -1.494699    0.000002
| 16> Cl        -3.867715    1.494699   -0.000000
| 17> B        -2.956859    0.000000   -0.000002
| 18> C        -1.409512   -0.000000   -0.000000
| 19> C        -0.689716    1.197062   -0.000000
| 20> H        -1.221380    2.138375   -0.000001
| 21> C        -0.689716   -1.197062    0.000000
| 22> H        -1.221380   -2.138375   -0.000000
| 23> *
| 24>
| 25> $new_job
| 26> ! ri-mp2 aug-cc-pvtz aug-cc-pvtz/c tightscf
| 27> %pal nprocs 16 end
| 28> %maxcore 3800
| 29> %base "TZ_B-Cl_69_AB"
| 30>
| 31> *xyz 0 1
| 32> Cl         3.867715    1.494699    0.000000
| 33> Cl         3.867715   -1.494699   -0.000002
| 34> B         2.956858   -0.000000   -0.000001
| 35> C         1.409512    0.000000    0.000001
| 36> C         0.689716   -1.197062    0.000001
| 37> H         1.221380   -2.138375    0.000000
| 38> C         0.689716    1.197062    0.000000
| 39> H         1.221380    2.138375    0.000000
| 40> Cl        -3.867715   -1.494699    0.000002
| 41> Cl        -3.867715    1.494699   -0.000000
| 42> B        -2.956859    0.000000   -0.000002
| 43> C        -1.409512   -0.000000   -0.000000
| 44> C        -0.689716    1.197062   -0.000000
| 45> H        -1.221380    2.138375   -0.000001
| 46> C        -0.689716   -1.197062    0.000000
| 47> H        -1.221380   -2.138375   -0.000000
| 48> *
| 49>
| 50> $new_job
| 51> ! ri-mp2 aug-cc-pvqz aug-cc-pvqz/c tightscf
| 52> %pal nprocs 16 end
| 53> %maxcore 3800
| 54> %base "QZ_B-Cl_69_AB"
| 55>
| 56> *xyz 0 1
| 57> Cl         3.867715    1.494699    0.000000
| 58> Cl         3.867715   -1.494699   -0.000002
| 59> B         2.956858   -0.000000   -0.000001
| 60> C         1.409512    0.000000    0.000001
| 61> C         0.689716   -1.197062    0.000001
| 62> H         1.221380   -2.138375    0.000000
| 63> C         0.689716    1.197062    0.000000
| 64> H         1.221380    2.138375    0.000000
| 65> Cl        -3.867715   -1.494699    0.000002
| 66> Cl        -3.867715    1.494699   -0.000000
| 67> B        -2.956859    0.000000   -0.000002
| 68> C        -1.409512   -0.000000   -0.000000
| 69> C        -0.689716    1.197062   -0.000000
| 70> H        -1.221380    2.138375   -0.000001
| 71> C        -0.689716   -1.197062    0.000000
| 72> H        -1.221380   -2.138375   -0.000000
| 73> *
| 74>
| 75>
| 76>
| 77>
| 78>                          ****END OF INPUT****
 Total Charge           Charge          ....    0
 Multiplicity           Mult            ....    1
 Number of Electrons    NEL             ....  118
MP2 TOTAL ENERGY:    -2118.709798308 Eh
FINAL SINGLE POINT ENERGY     -2118.709798307701
MP2 TOTAL ENERGY:    -2119.183482654 Eh
FINAL SINGLE POINT ENERGY     -2119.183482654322

CARTESIAN COORDINATES (ANGSTROEM)
---------------------------------
  Cl     3.867715    1.494699    0.000000
  Cl     3.867715   -1.494699   -0.000002
  B      2.956858   -0.000000   -0.000001
  C      1.409512    0.000000    0.000001
  C      0.689716   -1.197062    0.000001
  H      1.221380   -2.138375    0.000000
  C      0.689716    1.197062    0.000000
  H      1.221380    2.138375    0.000000
  Cl    -3.867715   -1.494699    0.000002
  Cl    -3.867715    1.494699   -0.000000
  B     -2.956859    0.000000   -0.000002
  C     -1.409512   -0.000000   -0.000000
  C     -0.689716    1.197062   -0.000000
  H     -1.221380    2.138375   -0.000001
  C     -0.689716   -1.197062    0.000000
  H     -1.221380   -2.138375   -0.000000

 Multiplicity           Mult            ....    1
 Number of Electrons    NEL             ....  118
 Basis Dimension        Dim             .... 1160

ORBITAL ENERGIES
----------------

  NO   OCC          E(Eh)            E(eV)
   0   2.0000    -104.846176     -2853.0095
   1   2.0000    -104.846176     -2853.0095
   2   2.0000    -104.846176     -2853.0095
   3   2.0000    -104.846176     -2853.0095
   4   2.0000     -11.259725      -306.3927
   5   2.0000     -11.259679      -306.3915
   6   2.0000     -11.258439      -306.3577
   7   2.0000     -11.258338      -306.3549
   8   2.0000     -11.250397      -306.1389
   9   2.0000     -11.250394      -306.1388
  10   2.0000     -10.574138      -287.7369
  11   2.0000     -10.574138      -287.7369
  12   2.0000     -10.574129      -287.7367
  13   2.0000     -10.574129      -287.7367
  14   2.0000      -8.040959      -218.8056
  15   2.0000      -8.040959      -218.8056
  16   2.0000      -8.040958      -218.8056
  17   2.0000      -8.040957      -218.8056
  18   2.0000      -8.039902      -218.7769
  19   2.0000      -8.039902      -218.7769
  20   2.0000      -8.039900      -218.7768
  21   2.0000      -8.039900      -218.7768
  22   2.0000      -8.039663      -218.7704
  23   2.0000      -8.039663      -218.7704
  24   2.0000      -8.039663      -218.7703
  25   2.0000      -8.039663      -218.7703
  26   2.0000      -7.716661      -209.9810
  27   2.0000      -7.716661      -209.9810
  28   2.0000      -1.186259       -32.2798
  29   2.0000      -1.154211       -31.4077
  30   2.0000      -1.145393       -31.1677
  31   2.0000      -1.106723       -30.1155
  32   2.0000      -1.106107       -30.0987
  33   2.0000      -1.042780       -28.3755
  34   2.0000      -1.042535       -28.3688
  35   2.0000      -0.861827       -23.4515
  36   2.0000      -0.851533       -23.1714
  37   2.0000      -0.749625       -20.3983
  38   2.0000      -0.709608       -19.3094
  39   2.0000      -0.663214       -18.0470
  40   2.0000      -0.655603       -17.8399
  41   2.0000      -0.644464       -17.5368
  42   2.0000      -0.612837       -16.6762
  43   2.0000      -0.599433       -16.3114
  44   2.0000      -0.575577       -15.6622
  45   2.0000      -0.562335       -15.3019
  46   2.0000      -0.550257       -14.9733
  47   2.0000      -0.528711       -14.3870
  48   2.0000      -0.528134       -14.3712
  49   2.0000      -0.513096       -13.9621
  50   2.0000      -0.505645       -13.7593
  51   2.0000      -0.473420       -12.8824
  52   2.0000      -0.473272       -12.8784
  53   2.0000      -0.473178       -12.8758
  54   2.0000      -0.470437       -12.8013
  55   2.0000      -0.458135       -12.4665
  56   2.0000      -0.458030       -12.4636
  57   2.0000      -0.372060       -10.1243
  58   2.0000      -0.361501        -9.8370
  59   0.0000       0.010416         0.2834
  60   0.0000       0.021011         0.5717
  61   0.0000       0.027194         0.7400
  62   0.0000       0.028054         0.7634
  63   0.0000       0.033360         0.9078

MULLIKEN ATOMIC CHARGES
-----------------------
   0 Cl:   -0.238286
   1 Cl:   -0.238286
   2 B :    0.911275
   3 C :   -0.462645
   4 C :   -0.227604
   5 H :    0.241571
   6 C :   -0.227597
   7 H :    0.241571
   8 Cl:   -0.238286
   9 Cl:   -0.238286
  10 B :    0.911278
  11 C :   -0.462635
  12 C :   -0.227599
  13 H :    0.241570
  14 C :   -0.227611
  15 H :    0.241572
Sum of atomic charges:   -0.0000000

LOEWDIN ATOMIC CHARGES
----------------------
   0 Cl:    1.311689
   1 Cl:    1.311689
   2 B :   -2.306602
   3 C :   -0.145273
   4 C :    0.288230
   5 H :   -0.373981
   6 C :    0.288230
   7 H :   -0.373981
   8 Cl:    1.311690
   9 Cl:    1.311690
  10 B :   -2.306603
  11 C :   -0.145273
  12 C :    0.288230
  13 H :   -0.373981
  14 C :    0.288230
  15 H :   -0.373981

  Mayer bond orders larger than 0.100000
B(  0-Cl,  2-B ) :   0.9050 B(  0-Cl,  3-C ) :   0.1833 B(  0-Cl,  7-H ) :  -0.1355
B(  1-Cl,  2-B ) :   0.9050 B(  1-Cl,  3-C ) :   0.1833 B(  1-Cl,  5-H ) :  -0.1356
B(  2-B ,  3-C ) :   1.2066 B(  3-C ,  4-C ) :   1.1768 B(  3-C ,  5-H ) :  -0.1021
B(  3-C ,  6-C ) :   1.1768 B(  3-C ,  7-H ) :  -0.1021 B(  3-C , 11-C ) :  -0.1622
B(  3-C , 12-C ) :  -0.2603 B(  3-C , 14-C ) :  -0.2603 B(  4-C ,  5-H ) :   1.1332
B(  4-C , 11-C ) :  -0.2603 B(  4-C , 12-C ) :   0.1946 B(  4-C , 14-C ) :   0.9971
B(  4-C , 15-H ) :  -0.1962 B(  5-H , 14-C ) :  -0.1962 B(  6-C ,  7-H ) :   1.1332
B(  6-C , 11-C ) :  -0.2603 B(  6-C , 12-C ) :   0.9972 B(  6-C , 13-H ) :  -0.1962
B(  6-C , 14-C ) :   0.1946 B(  7-H , 12-C ) :  -0.1962 B(  8-Cl, 10-B ) :   0.9050
B(  8-Cl, 11-C ) :   0.1833 B(  8-Cl, 15-H ) :  -0.1355 B(  9-Cl, 10-B ) :   0.9050
B(  9-Cl, 11-C ) :   0.1833 B(  9-Cl, 13-H ) :  -0.1355 B( 10-B , 11-C ) :   1.2066
B( 11-C , 12-C ) :   1.1768 B( 11-C , 13-H ) :  -0.1021 B( 11-C , 14-C ) :   1.1768
B( 11-C , 15-H ) :  -0.1021 B( 12-C , 13-H ) :   1.1332 B( 14-C , 15-H ) :   1.1332

MP2 TOTAL ENERGY:    -2119.341437119 Eh
FINAL SINGLE POINT ENERGY     -2119.341437118655

DIPOLE MOMENT
-------------
                                X             Y             Z
Electronic contribution:     -0.00001       0.00000      -0.00000
Nuclear contribution   :      0.00000      -0.00000       0.00000
                        -----------------------------------------
Total Dipole Moment    :     -0.00000       0.00000      -0.00000
                        -----------------------------------------
Magnitude (a.u.)       :      0.00001
Magnitude (Debye)      :      0.00001

Rotational constants in cm-1:     0.041716     0.007062     0.006040
Rotational constants in MHz :  1250.606004   211.720229   181.066703

                             ****ORCA TERMINATED NORMALLY****
TOTAL RUN TIME: 0 days 0 hours 49 minutes 20 seconds 24 msec
