                         Program Version 5.0.4 -  RELEASE  -
|  1> ! ri-mp2 aug-cc-pvdz aug-cc-pvdz/c tightscf
|  2> %pal nprocs 16 end
|  3> %maxcore 3800
|  4> %base "DZ_Si-Cl_15_AB"
|  5> %scf
|  6> STABPerform true
|  7> STABRestartUHFifUnstable true
|  8> end
|  9>
| 10> *xyz 0 1
| 11> Si         1.332690   -0.366235    0.413831
| 12> C        -0.329142   -0.868935   -0.254768
| 13> C        -1.502996   -0.013207    0.215816
| 14> H        -0.490025   -1.914456    0.032807
| 15> H        -0.274228   -0.862727   -1.347937
| 16> C         2.704678   -1.452050   -0.205544
| 17> H         2.546989   -2.483617    0.115392
| 18> H         3.668900   -1.120555    0.179302
| 19> H         2.750845   -1.437114   -1.294926
| 20> Cl         1.722604    1.582178   -0.182514
| 21> C        -2.842627   -0.469776   -0.344394
| 22> H        -1.331927    1.028548   -0.068062
| 23> H        -1.550986   -0.023031    1.309255
| 24> C        -4.004656    0.389381    0.127534
| 25> H        -3.014473   -1.511970   -0.059656
| 26> H        -2.794605   -0.457328   -1.437098
| 27> H        -4.091638    0.368774    1.215559
| 28> H        -4.951941    0.044497   -0.287845
| 29> H        -3.869358    1.430337   -0.171847
| 30> H         1.308983   -0.343577    1.892303
| 31> *
| 32>
| 33> $new_job
| 34> ! ri-mp2 aug-cc-pvtz aug-cc-pvtz/c tightscf
| 35> %pal nprocs 16 end
| 36> %maxcore 3800
| 37> %base "TZ_Si-Cl_15_AB"
| 38>
| 39> *xyz 0 1
| 40> Si         1.332690   -0.366235    0.413831
| 41> C        -0.329142   -0.868935   -0.254768
| 42> C        -1.502996   -0.013207    0.215816
| 43> H        -0.490025   -1.914456    0.032807
| 44> H        -0.274228   -0.862727   -1.347937
| 45> C         2.704678   -1.452050   -0.205544
| 46> H         2.546989   -2.483617    0.115392
| 47> H         3.668900   -1.120555    0.179302
| 48> H         2.750845   -1.437114   -1.294926
| 49> Cl         1.722604    1.582178   -0.182514
| 50> C        -2.842627   -0.469776   -0.344394
| 51> H        -1.331927    1.028548   -0.068062
| 52> H        -1.550986   -0.023031    1.309255
| 53> C        -4.004656    0.389381    0.127534
| 54> H        -3.014473   -1.511970   -0.059656
| 55> H        -2.794605   -0.457328   -1.437098
| 56> H        -4.091638    0.368774    1.215559
| 57> H        -4.951941    0.044497   -0.287845
| 58> H        -3.869358    1.430337   -0.171847
| 59> H         1.308983   -0.343577    1.892303
| 60> *
| 61>
| 62> $new_job
| 63> ! ri-mp2 aug-cc-pvqz aug-cc-pvqz/c tightscf
| 64> %pal nprocs 16 end
| 65> %maxcore 3800
| 66> %base "QZ_Si-Cl_15_AB"
| 67>
| 68> *xyz 0 1
| 69> Si         1.332690   -0.366235    0.413831
| 70> C        -0.329142   -0.868935   -0.254768
| 71> C        -1.502996   -0.013207    0.215816
| 72> H        -0.490025   -1.914456    0.032807
| 73> H        -0.274228   -0.862727   -1.347937
| 74> C         2.704678   -1.452050   -0.205544
| 75> H         2.546989   -2.483617    0.115392
| 76> H         3.668900   -1.120555    0.179302
| 77> H         2.750845   -1.437114   -1.294926
| 78> Cl         1.722604    1.582178   -0.182514
| 79> C        -2.842627   -0.469776   -0.344394
| 80> H        -1.331927    1.028548   -0.068062
| 81> H        -1.550986   -0.023031    1.309255
| 82> C        -4.004656    0.389381    0.127534
| 83> H        -3.014473   -1.511970   -0.059656
| 84> H        -2.794605   -0.457328   -1.437098
| 85> H        -4.091638    0.368774    1.215559
| 86> H        -4.951941    0.044497   -0.287845
| 87> H        -3.869358    1.430337   -0.171847
| 88> H         1.308983   -0.343577    1.892303
| 89> *
| 90>
| 91>
| 92>
| 93>
| 94>                          ****END OF INPUT****
 Total Charge           Charge          ....    0
 Multiplicity           Mult            ....    1
 Number of Electrons    NEL             ....   74
MP2 TOTAL ENERGY:     -946.450091721 Eh
FINAL SINGLE POINT ENERGY      -946.450091721455
MP2 TOTAL ENERGY:     -946.746156070 Eh
FINAL SINGLE POINT ENERGY      -946.746156069973

CARTESIAN COORDINATES (ANGSTROEM)
---------------------------------
  Si     1.332690   -0.366235    0.413831
  C     -0.329142   -0.868935   -0.254768
  C     -1.502996   -0.013207    0.215816
  H     -0.490025   -1.914456    0.032807
  H     -0.274228   -0.862727   -1.347937
  C      2.704678   -1.452050   -0.205544
  H      2.546989   -2.483617    0.115392
  H      3.668900   -1.120555    0.179302
  H      2.750845   -1.437114   -1.294926
  Cl     1.722604    1.582178   -0.182514
  C     -2.842627   -0.469776   -0.344394
  H     -1.331927    1.028548   -0.068062
  H     -1.550986   -0.023031    1.309255
  C     -4.004656    0.389381    0.127534
  H     -3.014473   -1.511970   -0.059656
  H     -2.794605   -0.457328   -1.437098
  H     -4.091638    0.368774    1.215559
  H     -4.951941    0.044497   -0.287845
  H     -3.869358    1.430337   -0.171847
  H      1.308983   -0.343577    1.892303

 Multiplicity           Mult            ....    1
 Number of Electrons    NEL             ....   74
 Basis Dimension        Dim             .... 1166

ORBITAL ENERGIES
----------------

  NO   OCC          E(Eh)            E(eV)
   0   2.0000    -104.811173     -2852.0570
   1   2.0000     -68.794376     -1871.9901
   2   2.0000     -11.222448      -305.3783
   3   2.0000     -11.217138      -305.2338
   4   2.0000     -11.211974      -305.0933
   5   2.0000     -11.210716      -305.0591
   6   2.0000     -11.209955      -305.0384
   7   2.0000     -10.538794      -286.7752
   8   2.0000      -8.005588      -217.8431
   9   2.0000      -8.004561      -217.8152
  10   2.0000      -8.004558      -217.8151
  11   2.0000      -6.140699      -167.0969
  12   2.0000      -4.247862      -115.5902
  13   2.0000      -4.246638      -115.5569
  14   2.0000      -4.246223      -115.5456
  15   2.0000      -1.087392       -29.5895
  16   2.0000      -1.074316       -29.2336
  17   2.0000      -0.988833       -26.9075
  18   2.0000      -0.953959       -25.9585
  19   2.0000      -0.866486       -23.5783
  20   2.0000      -0.795740       -21.6532
  21   2.0000      -0.673826       -18.3357
  22   2.0000      -0.648023       -17.6336
  23   2.0000      -0.590769       -16.0756
  24   2.0000      -0.586094       -15.9484
  25   2.0000      -0.573943       -15.6178
  26   2.0000      -0.567089       -15.4313
  27   2.0000      -0.544959       -14.8291
  28   2.0000      -0.512842       -13.9552
  29   2.0000      -0.509825       -13.8730
  30   2.0000      -0.492688       -13.4067
  31   2.0000      -0.489848       -13.3294
  32   2.0000      -0.475612       -12.9421
  33   2.0000      -0.468620       -12.7518
  34   2.0000      -0.460354       -12.5269
  35   2.0000      -0.432157       -11.7596
  36   2.0000      -0.413966       -11.2646
  37   0.0000       0.021669         0.5896
  38   0.0000       0.028793         0.7835
  39   0.0000       0.031827         0.8661
  40   0.0000       0.033899         0.9224
  41   0.0000       0.042939         1.1684

MULLIKEN ATOMIC CHARGES
-----------------------
   0 Si:    1.559091
   1 C :   -0.564307
   2 C :   -0.255657
   3 H :    0.222655
   4 H :    0.181161
   5 C :   -1.134733
   6 H :    0.249477
   7 H :    0.287701
   8 H :    0.216069
   9 Cl:   -0.764830
  10 C :   -0.482321
  11 H :    0.249445
  12 H :    0.247655
  13 C :   -0.889766
  14 H :    0.225922
  15 H :    0.223175
  16 H :    0.223204
  17 H :    0.273590
  18 H :    0.227290
  19 H :   -0.294821
Sum of atomic charges:   -0.0000000

LOEWDIN ATOMIC CHARGES
----------------------
   0 Si:   -0.269485
   1 C :    0.492364
   2 C :    0.419916
   3 H :   -0.326468
   4 H :   -0.331868
   5 C :    0.895219
   6 H :   -0.350959
   7 H :   -0.363518
   8 H :   -0.357075
   9 Cl:    0.965786
  10 C :    0.500153
  11 H :   -0.300122
  12 H :   -0.281258
  13 C :    0.926847
  14 H :   -0.272641
  15 H :   -0.272338
  16 H :   -0.283514
  17 H :   -0.282700
  18 H :   -0.283179
  19 H :   -0.225162

  Mayer bond orders larger than 0.100000
B(  0-Si,  1-C ) :   0.9115 B(  0-Si,  5-C ) :   0.8279 B(  0-Si,  9-Cl) :   0.1271
B(  0-Si, 19-H ) :   0.8510 B(  1-C ,  2-C ) :   0.9819 B(  1-C ,  3-H ) :   0.8844
B(  1-C ,  4-H ) :   0.9345 B(  1-C ,  5-C ) :  -0.1006 B(  2-C , 10-C ) :   0.9289
B(  2-C , 11-H ) :   0.8468 B(  2-C , 12-H ) :   0.8522 B(  2-C , 13-C ) :  -0.1097
B(  5-C ,  6-H ) :   0.9428 B(  5-C ,  7-H ) :   0.9554 B(  5-C ,  8-H ) :   0.9724
B( 10-C , 13-C ) :   1.0310 B( 10-C , 14-H ) :   0.8852 B( 10-C , 15-H ) :   0.8910
B( 13-C , 16-H ) :   0.9539 B( 13-C , 17-H ) :   1.0116 B( 13-C , 18-H ) :   0.9494

MP2 TOTAL ENERGY:     -946.837567723 Eh
FINAL SINGLE POINT ENERGY      -946.837567722675

DIPOLE MOMENT
-------------
                                X             Y             Z
Electronic contribution:     14.65218       8.83634      -0.34086
Nuclear contribution   :    -14.88292      -9.68234       0.31846
                        -----------------------------------------
Total Dipole Moment    :     -0.23073      -0.84599      -0.02240
                        -----------------------------------------
Magnitude (a.u.)       :      0.87718
Magnitude (Debye)      :      2.22961

Rotational constants in cm-1:     0.098018     0.024434     0.020610
Rotational constants in MHz :  2938.496669   732.523023   617.871718

                             ****ORCA TERMINATED NORMALLY****
TOTAL RUN TIME: 0 days 4 hours 58 minutes 52 seconds 48 msec
