                         Program Version 5.0.4 -  RELEASE  -
|  1> ! ri-mp2 aug-cc-pvdz aug-cc-pvdz/c tightscf
|  2> %pal nprocs 16 end
|  3> %maxcore 3800
|  4> %base "DZ_S-F_55_AB"
|  5> %scf
|  6> STABPerform true
|  7> STABRestartUHFifUnstable true
|  8> end
|  9>
| 10> *xyz 0 1
| 11> F        -1.787018    1.179222    0.367416
| 12> S        -1.526487   -0.198227   -0.430812
| 13> S         0.422742   -0.595513    0.147341
| 14> O         0.611168   -1.890614   -0.400706
| 15> O         1.325381    0.367303   -0.699285
| 16> C         1.493293    1.734071   -0.270157
| 17> H         2.298798    2.123301   -0.883657
| 18> H         1.759734    1.763846    0.782595
| 19> H         0.577610    2.293810   -0.451048
| 20> O         0.581848   -0.289005    1.525220
| 21> *
| 22>
| 23> $new_job
| 24> ! ri-mp2 aug-cc-pvtz aug-cc-pvtz/c tightscf
| 25> %pal nprocs 16 end
| 26> %maxcore 3800
| 27> %base "TZ_S-F_55_AB"
| 28>
| 29> *xyz 0 1
| 30> F        -1.787018    1.179222    0.367416
| 31> S        -1.526487   -0.198227   -0.430812
| 32> S         0.422742   -0.595513    0.147341
| 33> O         0.611168   -1.890614   -0.400706
| 34> O         1.325381    0.367303   -0.699285
| 35> C         1.493293    1.734071   -0.270157
| 36> H         2.298798    2.123301   -0.883657
| 37> H         1.759734    1.763846    0.782595
| 38> H         0.577610    2.293810   -0.451048
| 39> O         0.581848   -0.289005    1.525220
| 40> *
| 41>
| 42> $new_job
| 43> ! ri-mp2 aug-cc-pvqz aug-cc-pvqz/c tightscf
| 44> %pal nprocs 16 end
| 45> %maxcore 3800
| 46> %base "QZ_S-F_55_AB"
| 47>
| 48> *xyz 0 1
| 49> F        -1.787018    1.179222    0.367416
| 50> S        -1.526487   -0.198227   -0.430812
| 51> S         0.422742   -0.595513    0.147341
| 52> O         0.611168   -1.890614   -0.400706
| 53> O         1.325381    0.367303   -0.699285
| 54> C         1.493293    1.734071   -0.270157
| 55> H         2.298798    2.123301   -0.883657
| 56> H         1.759734    1.763846    0.782595
| 57> H         0.577610    2.293810   -0.451048
| 58> O         0.581848   -0.289005    1.525220
| 59> *
| 60>
| 61>
| 62>
| 63>
| 64>                          ****END OF INPUT****
 Total Charge           Charge          ....    0
 Multiplicity           Mult            ....    1
 Number of Electrons    NEL             ....   74
MP2 TOTAL ENERGY:    -1159.845309997 Eh
FINAL SINGLE POINT ENERGY     -1159.845309996890
MP2 TOTAL ENERGY:    -1160.312065449 Eh
FINAL SINGLE POINT ENERGY     -1160.312065449208

CARTESIAN COORDINATES (ANGSTROEM)
---------------------------------
  F     -1.787018    1.179222    0.367416
  S     -1.526487   -0.198227   -0.430812
  S      0.422742   -0.595513    0.147341
  O      0.611168   -1.890614   -0.400706
  O      1.325381    0.367303   -0.699285
  C      1.493293    1.734071   -0.270157
  H      2.298798    2.123301   -0.883657
  H      1.759734    1.763846    0.782595
  H      0.577610    2.293810   -0.451048
  O      0.581848   -0.289005    1.525220

 Multiplicity           Mult            ....    1
 Number of Electrons    NEL             ....   74
 Basis Dimension        Dim             ....  706

ORBITAL ENERGIES
----------------

  NO   OCC          E(Eh)            E(eV)
   0   2.0000     -92.244966     -2510.1131
   1   2.0000     -92.085718     -2505.7798
   2   2.0000     -26.351126      -717.0506
   3   2.0000     -20.647614      -561.8501
   4   2.0000     -20.587771      -560.2217
   5   2.0000     -20.585647      -560.1639
   6   2.0000     -11.321068      -308.0619
   7   2.0000      -9.208081      -250.5646
   8   2.0000      -9.079724      -247.0719
   9   2.0000      -6.894248      -187.6020
  10   2.0000      -6.893764      -187.5888
  11   2.0000      -6.892696      -187.5598
  12   2.0000      -6.760713      -183.9683
  13   2.0000      -6.759007      -183.9219
  14   2.0000      -6.757395      -183.8781
  15   2.0000      -1.651608       -44.9425
  16   2.0000      -1.545799       -42.0633
  17   2.0000      -1.424677       -38.7674
  18   2.0000      -1.396846       -38.0101
  19   2.0000      -1.052771       -28.6474
  20   2.0000      -1.004933       -27.3456
  21   2.0000      -0.858615       -23.3641
  22   2.0000      -0.782955       -21.3053
  23   2.0000      -0.748690       -20.3729
  24   2.0000      -0.731230       -19.8978
  25   2.0000      -0.724010       -19.7013
  26   2.0000      -0.709541       -19.3076
  27   2.0000      -0.687880       -18.7182
  28   2.0000      -0.651249       -17.7214
  29   2.0000      -0.631644       -17.1879
  30   2.0000      -0.590091       -16.0572
  31   2.0000      -0.557175       -15.1615
  32   2.0000      -0.540708       -14.7134
  33   2.0000      -0.536414       -14.5966
  34   2.0000      -0.515950       -14.0397
  35   2.0000      -0.480243       -13.0681
  36   2.0000      -0.426922       -11.6171
  37   0.0000       0.021475         0.5844
  38   0.0000       0.035033         0.9533
  39   0.0000       0.041831         1.1383
  40   0.0000       0.046645         1.2693
  41   0.0000       0.054350         1.4789

MULLIKEN ATOMIC CHARGES
-----------------------
   0 F :   -0.597443
   1 S :    0.591672
   2 S :    2.596963
   3 O :   -1.160108
   4 O :   -0.712503
   5 C :   -0.693972
   6 H :    0.445100
   7 H :    0.313456
   8 H :    0.336009
   9 O :   -1.119173
Sum of atomic charges:    0.0000000

LOEWDIN ATOMIC CHARGES
----------------------
   0 F :    0.045724
   1 S :    0.473566
   2 S :   -1.058715
   3 O :    0.214938
   4 O :    0.545697
   5 C :    0.531471
   6 H :   -0.323995
   7 H :   -0.353076
   8 H :   -0.334703
   9 O :    0.259093

  Mayer bond orders larger than 0.100000
B(  0-F ,  1-S ) :   0.6484 B(  1-S ,  2-S ) :   0.9492 B(  2-S ,  3-O ) :   1.1539
B(  2-S ,  4-O ) :   0.7276 B(  2-S ,  9-O ) :   1.1940 B(  4-O ,  5-C ) :   0.8287
B(  5-C ,  6-H ) :   0.8091 B(  5-C ,  7-H ) :   0.8912 B(  5-C ,  8-H ) :   0.8716

MP2 TOTAL ENERGY:    -1160.465146864 Eh
FINAL SINGLE POINT ENERGY     -1160.465146864445

DIPOLE MOMENT
-------------
                                X             Y             Z
Electronic contribution:     -6.18354      -3.45952       0.26959
Nuclear contribution   :      6.15698       4.76630      -0.85537
                        -----------------------------------------
Total Dipole Moment    :     -0.02656       1.30678      -0.58578
                        -----------------------------------------
Magnitude (a.u.)       :      1.43232
Magnitude (Debye)      :      3.64066

Rotational constants in cm-1:     0.081817     0.060844     0.046237
Rotational constants in MHz :  2452.797878  1824.062366  1386.152345

                             ****ORCA TERMINATED NORMALLY****
TOTAL RUN TIME: 0 days 0 hours 35 minutes 48 seconds 392 msec
