                         Program Version 5.0.4 -  RELEASE  -
|  1> ! ri-mp2 aug-cc-pvdz aug-cc-pvdz/c tightscf
|  2> %pal nprocs 16 end
|  3> %maxcore 3800
|  4> %base "DZ_Si-Si_129_AB"
|  5> %scf
|  6> STABPerform true
|  7> STABRestartUHFifUnstable true
|  8> end
|  9>
| 10> *xyz 0 1
| 11> Si        -1.089212   -1.266152   -0.689264
| 12> Si         0.814323   -1.128972    0.666983
| 13> C         1.830257    0.369397    0.002381
| 14> H         1.660491   -2.340057    0.619585
| 15> H         0.477170   -0.810353    2.069170
| 16> O         1.279674    1.384743   -0.346311
| 17> S         3.590076    0.169831   -0.062847
| 18> H         3.838768    1.404210   -0.531097
| 19> C        -2.468898   -0.106778   -0.011372
| 20> H        -1.642925   -2.632688   -0.705399
| 21> H        -0.718776   -0.834307   -2.053472
| 22> O        -3.541497   -0.552981    0.293799
| 23> S        -2.151032    1.636436    0.163895
| 24> H        -0.864556    1.614835   -0.229594
| 25> *
| 26>
| 27> $new_job
| 28> ! ri-mp2 aug-cc-pvtz aug-cc-pvtz/c tightscf
| 29> %pal nprocs 16 end
| 30> %maxcore 3800
| 31> %base "TZ_Si-Si_129_AB"
| 32>
| 33> *xyz 0 1
| 34> Si        -1.089212   -1.266152   -0.689264
| 35> Si         0.814323   -1.128972    0.666983
| 36> C         1.830257    0.369397    0.002381
| 37> H         1.660491   -2.340057    0.619585
| 38> H         0.477170   -0.810353    2.069170
| 39> O         1.279674    1.384743   -0.346311
| 40> S         3.590076    0.169831   -0.062847
| 41> H         3.838768    1.404210   -0.531097
| 42> C        -2.468898   -0.106778   -0.011372
| 43> H        -1.642925   -2.632688   -0.705399
| 44> H        -0.718776   -0.834307   -2.053472
| 45> O        -3.541497   -0.552981    0.293799
| 46> S        -2.151032    1.636436    0.163895
| 47> H        -0.864556    1.614835   -0.229594
| 48> *
| 49>
| 50> $new_job
| 51> ! ri-mp2 aug-cc-pvqz aug-cc-pvqz/c tightscf
| 52> %pal nprocs 16 end
| 53> %maxcore 3800
| 54> %base "QZ_Si-Si_129_AB"
| 55>
| 56> *xyz 0 1
| 57> Si        -1.089212   -1.266152   -0.689264
| 58> Si         0.814323   -1.128972    0.666983
| 59> C         1.830257    0.369397    0.002381
| 60> H         1.660491   -2.340057    0.619585
| 61> H         0.477170   -0.810353    2.069170
| 62> O         1.279674    1.384743   -0.346311
| 63> S         3.590076    0.169831   -0.062847
| 64> H         3.838768    1.404210   -0.531097
| 65> C        -2.468898   -0.106778   -0.011372
| 66> H        -1.642925   -2.632688   -0.705399
| 67> H        -0.718776   -0.834307   -2.053472
| 68> O        -3.541497   -0.552981    0.293799
| 69> S        -2.151032    1.636436    0.163895
| 70> H        -0.864556    1.614835   -0.229594
| 71> *
| 72>
| 73>
| 74>
| 75>
| 76>                          ****END OF INPUT****
 Total Charge           Charge          ....    0
 Multiplicity           Mult            ....    1
 Number of Electrons    NEL             ....   94
MP2 TOTAL ENERGY:    -1603.050295239 Eh
FINAL SINGLE POINT ENERGY     -1603.050295239304
MP2 TOTAL ENERGY:    -1603.408497881 Eh
FINAL SINGLE POINT ENERGY     -1603.408497880890

CARTESIAN COORDINATES (ANGSTROEM)
---------------------------------
  Si    -1.089212   -1.266152   -0.689264
  Si     0.814323   -1.128972    0.666983
  C      1.830257    0.369397    0.002381
  H      1.660491   -2.340057    0.619585
  H      0.477170   -0.810353    2.069170
  O      1.279674    1.384743   -0.346311
  S      3.590076    0.169831   -0.062847
  H      3.838768    1.404210   -0.531097
  C     -2.468898   -0.106778   -0.011372
  H     -1.642925   -2.632688   -0.705399
  H     -0.718776   -0.834307   -2.053472
  O     -3.541497   -0.552981    0.293799
  S     -2.151032    1.636436    0.163895
  H     -0.864556    1.614835   -0.229594

 Multiplicity           Mult            ....    1
 Number of Electrons    NEL             ....   94
 Basis Dimension        Dim             ....  932

ORBITAL ENERGIES
----------------

  NO   OCC          E(Eh)            E(eV)
   0   2.0000     -91.995732     -2503.3311
   1   2.0000     -91.971366     -2502.6681
   2   2.0000     -68.807110     -1872.3366
   3   2.0000     -68.801366     -1872.1804
   4   2.0000     -20.588858      -560.2513
   5   2.0000     -20.568952      -559.7096
   6   2.0000     -11.377098      -309.5866
   7   2.0000     -11.357772      -309.0607
   8   2.0000      -8.999647      -244.8929
   9   2.0000      -8.975176      -244.2270
  10   2.0000      -6.681056      -181.8008
  11   2.0000      -6.679916      -181.7698
  12   2.0000      -6.679291      -181.7527
  13   2.0000      -6.656399      -181.1298
  14   2.0000      -6.655656      -181.1096
  15   2.0000      -6.654858      -181.0879
  16   2.0000      -6.158207      -167.5733
  17   2.0000      -6.152221      -167.4105
  18   2.0000      -4.264307      -116.0377
  19   2.0000      -4.264099      -116.0320
  20   2.0000      -4.264006      -116.0295
  21   2.0000      -4.258278      -115.8736
  22   2.0000      -4.258104      -115.8689
  23   2.0000      -4.258062      -115.8677
  24   2.0000      -1.433177       -38.9987
  25   2.0000      -1.414019       -38.4774
  26   2.0000      -1.046294       -28.4711
  27   2.0000      -1.023781       -27.8585
  28   2.0000      -0.844933       -22.9918
  29   2.0000      -0.805944       -21.9309
  30   2.0000      -0.744234       -20.2516
  31   2.0000      -0.700818       -19.0702
  32   2.0000      -0.659666       -17.9504
  33   2.0000      -0.648211       -17.6387
  34   2.0000      -0.626194       -17.0396
  35   2.0000      -0.605856       -16.4862
  36   2.0000      -0.587920       -15.9981
  37   2.0000      -0.568237       -15.4625
  38   2.0000      -0.539248       -14.6737
  39   2.0000      -0.522698       -14.2233
  40   2.0000      -0.515132       -14.0175
  41   2.0000      -0.501517       -13.6470
  42   2.0000      -0.445729       -12.1289
  43   2.0000      -0.412013       -11.2114
  44   2.0000      -0.409952       -11.1554
  45   2.0000      -0.388545       -10.5729
  46   2.0000      -0.384674       -10.4675
  47   0.0000       0.019554         0.5321
  48   0.0000       0.028163         0.7664
  49   0.0000       0.029907         0.8138
  50   0.0000       0.037436         1.0187
  51   0.0000       0.043888         1.1942

MULLIKEN ATOMIC CHARGES
-----------------------
   0 Si:    0.922710
   1 Si:    0.907575
   2 C :    0.258296
   3 H :   -0.306280
   4 H :   -0.179424
   5 O :   -0.844834
   6 S :    0.030282
   7 H :    0.085182
   8 C :    0.264076
   9 H :   -0.306657
  10 H :   -0.183689
  11 O :   -0.777618
  12 S :    0.111124
  13 H :    0.019256
Sum of atomic charges:   -0.0000000

LOEWDIN ATOMIC CHARGES
----------------------
   0 Si:    0.610408
   1 Si:    0.588119
   2 C :   -1.242958
   3 H :   -0.276222
   4 H :   -0.264194
   5 O :    0.555672
   6 S :    1.517368
   7 H :   -0.798238
   8 C :   -1.237647
   9 H :   -0.271326
  10 H :   -0.262692
  11 O :    0.494882
  12 S :    1.535455
  13 H :   -0.948626

  Mayer bond orders larger than 0.100000
B(  0-Si,  1-Si) :   0.8085 B(  0-Si,  8-C ) :   0.6901 B(  0-Si,  9-H ) :   0.8169
B(  0-Si, 10-H ) :   0.8182 B(  1-Si,  2-C ) :   0.6406 B(  1-Si,  3-H ) :   0.7569
B(  1-Si,  4-H ) :   0.7969 B(  2-C ,  5-O ) :   1.5345 B(  2-C ,  6-S ) :   0.8812
B(  6-S ,  7-H ) :   1.0402 B(  8-C , 11-O ) :   1.4466 B(  8-C , 12-S ) :   1.0507
B( 12-S , 13-H ) :   0.9954

MP2 TOTAL ENERGY:    -1603.528658856 Eh
FINAL SINGLE POINT ENERGY     -1603.528658856273

DIPOLE MOMENT
-------------
                                X             Y             Z
Electronic contribution:     -0.91171       2.80948       0.59300
Nuclear contribution   :      2.60103      -3.38400      -0.80680
                        -----------------------------------------
Total Dipole Moment    :      1.68932      -0.57452      -0.21380
                        -----------------------------------------
Magnitude (a.u.)       :      1.79711
Magnitude (Debye)      :      4.56788

Rotational constants in cm-1:     0.064037     0.016599     0.014060
Rotational constants in MHz :  1919.791642   497.633652   421.500120

                             ****ORCA TERMINATED NORMALLY****
TOTAL RUN TIME: 0 days 1 hours 43 minutes 22 seconds 969 msec
