                         Program Version 5.0.4 -  RELEASE  -
|  1> ! ri-mp2 aug-cc-pvdz aug-cc-pvdz/c tightscf
|  2> %pal nprocs 16 end
|  3> %maxcore 3800
|  4> %base "DZ_B-Cl_5_A"
|  5> %scf
|  6> STABPerform true
|  7> STABRestartUHFifUnstable true
|  8> end
|  9>
| 10> *xyz 0 2
| 11> Cl         1.494840   -0.216772    0.000003
| 12> N        -1.150923    0.648268   -0.000006
| 13> B         0.187949    0.950425   -0.000002
| 14> C        -1.780156   -0.665643   -0.000000
| 15> H        -1.801042    1.418057   -0.000008
| 16> H        -1.010020   -1.431750   -0.000027
| 17> H        -2.401807   -0.798655   -0.886294
| 18> H        -2.401762   -0.798673    0.886323
| 19> *
| 20>
| 21> $new_job
| 22> ! ri-mp2 aug-cc-pvtz aug-cc-pvtz/c tightscf
| 23> %pal nprocs 16 end
| 24> %maxcore 3800
| 25> %base "TZ_B-Cl_5_A"
| 26>
| 27> *xyz 0 2
| 28> Cl         1.494840   -0.216772    0.000003
| 29> N        -1.150923    0.648268   -0.000006
| 30> B         0.187949    0.950425   -0.000002
| 31> C        -1.780156   -0.665643   -0.000000
| 32> H        -1.801042    1.418057   -0.000008
| 33> H        -1.010020   -1.431750   -0.000027
| 34> H        -2.401807   -0.798655   -0.886294
| 35> H        -2.401762   -0.798673    0.886323
| 36> *
| 37>
| 38> $new_job
| 39> ! ri-mp2 aug-cc-pvqz aug-cc-pvqz/c tightscf
| 40> %pal nprocs 16 end
| 41> %maxcore 3800
| 42> %base "QZ_B-Cl_5_A"
| 43>
| 44> *xyz 0 2
| 45> Cl         1.494840   -0.216772    0.000003
| 46> N        -1.150923    0.648268   -0.000006
| 47> B         0.187949    0.950425   -0.000002
| 48> C        -1.780156   -0.665643   -0.000000
| 49> H        -1.801042    1.418057   -0.000008
| 50> H        -1.010020   -1.431750   -0.000027
| 51> H        -2.401807   -0.798655   -0.886294
| 52> H        -2.401762   -0.798673    0.886323
| 53> *
| 54>
| 55>
| 56>
| 57>
| 58>                          ****END OF INPUT****
 Total Charge           Charge          ....    0
 Multiplicity           Mult            ....    2
 Number of Electrons    NEL             ....   39
MP2 TOTAL ENERGY:     -579.410502068 Eh
FINAL SINGLE POINT ENERGY      -579.410502068271
MP2 TOTAL ENERGY:     -579.578088633 Eh
FINAL SINGLE POINT ENERGY      -579.578088633018

CARTESIAN COORDINATES (ANGSTROEM)
---------------------------------
  Cl     1.494840   -0.216772    0.000003
  N     -1.150923    0.648268   -0.000006
  B      0.187949    0.950425   -0.000002
  C     -1.780156   -0.665643   -0.000000
  H     -1.801042    1.418057   -0.000008
  H     -1.010020   -1.431750   -0.000027
  H     -2.401807   -0.798655   -0.886294
  H     -2.401762   -0.798673    0.886323

 Multiplicity           Mult            ....    2
 Number of Electrons    NEL             ....   39
 Basis Dimension        Dim             ....  508

ORBITAL ENERGIES
----------------
                 SPIN UP ORBITALS
  NO   OCC          E(Eh)            E(eV)
   0   1.0000    -104.823454     -2852.3912
   1   1.0000     -15.573579      -423.7786
   2   1.0000     -11.265958      -306.5623
   3   1.0000     -10.551130      -287.1109
   4   1.0000      -8.019099      -218.2108
   5   1.0000      -8.016674      -218.1448
   6   1.0000      -8.016535      -218.1410
   7   1.0000      -7.660778      -208.4604
   8   1.0000      -1.214857       -33.0579
   9   1.0000      -1.101251       -29.9666
  10   1.0000      -0.937832       -25.5197
  11   1.0000      -0.737259       -20.0618
  12   1.0000      -0.646086       -17.5809
  13   1.0000      -0.612076       -16.6554
  14   1.0000      -0.594506       -16.1773
  15   1.0000      -0.544930       -14.8283
  16   1.0000      -0.486884       -13.2488
  17   1.0000      -0.481934       -13.1141
  18   1.0000      -0.407743       -11.0952
  19   1.0000      -0.336962        -9.1692
  20   0.0000       0.021790         0.5929
  21   0.0000       0.034806         0.9471
  22   0.0000       0.035124         0.9558
  23   0.0000       0.041490         1.1290
  24   0.0000       0.055116         1.4998

                 SPIN DOWN ORBITALS
  NO   OCC          E(Eh)            E(eV)
   0   1.0000    -104.822426     -2852.3632
   1   1.0000     -15.574957      -423.8161
   2   1.0000     -11.264578      -306.5248
   3   1.0000     -10.549921      -287.0780
   4   1.0000      -8.016827      -218.1490
   5   1.0000      -8.016080      -218.1286
   6   1.0000      -8.014457      -218.0845
   7   1.0000      -7.639283      -207.8755
   8   1.0000      -1.212842       -33.0031
   9   1.0000      -1.092095       -29.7174
  10   1.0000      -0.931281       -25.3415
  11   1.0000      -0.726931       -19.7808
  12   1.0000      -0.628338       -17.0979
  13   1.0000      -0.614566       -16.7232
  14   1.0000      -0.575021       -15.6471
  15   1.0000      -0.539560       -14.6822
  16   1.0000      -0.483147       -13.1471
  17   1.0000      -0.461241       -12.5510
  18   1.0000      -0.416873       -11.3437
  19   0.0000       0.021086         0.5738
  20   0.0000       0.033812         0.9201
  21   0.0000       0.035071         0.9543
  22   0.0000       0.039626         1.0783
  23   0.0000       0.054499         1.4830

MULLIKEN ATOMIC CHARGES AND SPIN POPULATIONS
--------------------------------------------
   0 Cl:   -0.278346    0.023201
   1 N :   -0.479648   -0.083339
   2 B :    0.334271    1.034561
   3 C :   -0.674067    0.040282
   4 H :    0.210992   -0.002781
   5 H :    0.334374   -0.002539
   6 H :    0.276212   -0.004692
   7 H :    0.276212   -0.004693
Sum of atomic charges         :    0.0000000

LOEWDIN ATOMIC CHARGES AND SPIN POPULATIONS
-------------------------------------------
   0 Cl:    1.175773    0.173767
   1 N :    0.759671    0.153578
   2 B :   -1.155016    0.586351
   3 C :    0.720218    0.024258
   4 H :   -0.561835    0.048927
   5 H :   -0.366321    0.006716
   6 H :   -0.286245    0.003202
   7 H :   -0.286244    0.003202

  Mayer bond orders larger than 0.100000
B(  0-Cl,  2-B ) :   0.9978 B(  1-N ,  2-B ) :   1.2794 B(  1-N ,  3-C ) :   0.8717
B(  1-N ,  4-H ) :   1.0395 B(  3-C ,  5-H ) :   0.8971 B(  3-C ,  6-H ) :   0.9389
B(  3-C ,  7-H ) :   0.9389

MP2 TOTAL ENERGY:     -579.632723419 Eh
FINAL SINGLE POINT ENERGY      -579.632723418539

DIPOLE MOMENT
-------------
                                X             Y             Z
Electronic contribution:      8.38124       1.91321       0.00001
Nuclear contribution   :     -9.51295      -1.98000      -0.00001
                        -----------------------------------------
Total Dipole Moment    :     -1.13171      -0.06679      -0.00000
                        -----------------------------------------
Magnitude (a.u.)       :      1.13367
Magnitude (Debye)      :      2.88157

Rotational constants in cm-1:     0.572245     0.110508     0.094262
Rotational constants in MHz : 17155.467052  3312.938569  2825.895747

                             ****ORCA TERMINATED NORMALLY****
TOTAL RUN TIME: 0 days 0 hours 26 minutes 6 seconds 621 msec
