                         Program Version 5.0.4 -  RELEASE  -
|  1> ! ri-mp2 aug-cc-pvdz aug-cc-pvdz/c tightscf
|  2> %pal nprocs 16 end
|  3> %maxcore 3800
|  4> %base "DZ_B-P_4_AB"
|  5> %scf
|  6> STABPerform true
|  7> STABRestartUHFifUnstable true
|  8> end
|  9>
| 10> *xyz 0 1
| 11> P        -0.261599   -1.153339   -0.300787
| 12> B         1.167096    0.118812   -0.054660
| 13> O         1.088441    1.311421   -0.700515
| 14> O         2.302277   -0.146219    0.656265
| 15> C        -1.746609   -0.052830   -0.403712
| 16> C        -1.997066    0.873878    0.775469
| 17> H        -1.168220    1.568408    0.909511
| 18> H        -2.117011    0.308431    1.700560
| 19> H        -2.904502    1.462111    0.625010
| 20> H        -2.608188   -0.701580   -0.569999
| 21> H        -1.618107    0.523851   -1.321638
| 22> H         1.880505    1.849213   -0.587325
| 23> H         2.319721   -0.997605    1.098571
| 24> H        -0.359395   -1.554710    1.053871
| 25> *
| 26>
| 27> $new_job
| 28> ! ri-mp2 aug-cc-pvtz aug-cc-pvtz/c tightscf
| 29> %pal nprocs 16 end
| 30> %maxcore 3800
| 31> %base "TZ_B-P_4_AB"
| 32>
| 33> *xyz 0 1
| 34> P        -0.261599   -1.153339   -0.300787
| 35> B         1.167096    0.118812   -0.054660
| 36> O         1.088441    1.311421   -0.700515
| 37> O         2.302277   -0.146219    0.656265
| 38> C        -1.746609   -0.052830   -0.403712
| 39> C        -1.997066    0.873878    0.775469
| 40> H        -1.168220    1.568408    0.909511
| 41> H        -2.117011    0.308431    1.700560
| 42> H        -2.904502    1.462111    0.625010
| 43> H        -2.608188   -0.701580   -0.569999
| 44> H        -1.618107    0.523851   -1.321638
| 45> H         1.880505    1.849213   -0.587325
| 46> H         2.319721   -0.997605    1.098571
| 47> H        -0.359395   -1.554710    1.053871
| 48> *
| 49>
| 50> $new_job
| 51> ! ri-mp2 aug-cc-pvqz aug-cc-pvqz/c tightscf
| 52> %pal nprocs 16 end
| 53> %maxcore 3800
| 54> %base "QZ_B-P_4_AB"
| 55>
| 56> *xyz 0 1
| 57> P        -0.261599   -1.153339   -0.300787
| 58> B         1.167096    0.118812   -0.054660
| 59> O         1.088441    1.311421   -0.700515
| 60> O         2.302277   -0.146219    0.656265
| 61> C        -1.746609   -0.052830   -0.403712
| 62> C        -1.997066    0.873878    0.775469
| 63> H        -1.168220    1.568408    0.909511
| 64> H        -2.117011    0.308431    1.700560
| 65> H        -2.904502    1.462111    0.625010
| 66> H        -2.608188   -0.701580   -0.569999
| 67> H        -1.618107    0.523851   -1.321638
| 68> H         1.880505    1.849213   -0.587325
| 69> H         2.319721   -0.997605    1.098571
| 70> H        -0.359395   -1.554710    1.053871
| 71> *
| 72>
| 73>
| 74>
| 75>
| 76>                          ****END OF INPUT****
 Total Charge           Charge          ....    0
 Multiplicity           Mult            ....    1
 Number of Electrons    NEL             ....   56
MP2 TOTAL ENERGY:     -596.607376226 Eh
FINAL SINGLE POINT ENERGY      -596.607376225634
MP2 TOTAL ENERGY:     -596.882978650 Eh
FINAL SINGLE POINT ENERGY      -596.882978649689

CARTESIAN COORDINATES (ANGSTROEM)
---------------------------------
  P     -0.261599   -1.153339   -0.300787
  B      1.167096    0.118812   -0.054660
  O      1.088441    1.311421   -0.700515
  O      2.302277   -0.146219    0.656265
  C     -1.746609   -0.052830   -0.403712
  C     -1.997066    0.873878    0.775469
  H     -1.168220    1.568408    0.909511
  H     -2.117011    0.308431    1.700560
  H     -2.904502    1.462111    0.625010
  H     -2.608188   -0.701580   -0.569999
  H     -1.618107    0.523851   -1.321638
  H      1.880505    1.849213   -0.587325
  H      2.319721   -0.997605    1.098571
  H     -0.359395   -1.554710    1.053871

 Multiplicity           Mult            ....    1
 Number of Electrons    NEL             ....   56
 Basis Dimension        Dim             ....  852

ORBITAL ENERGIES
----------------

  NO   OCC          E(Eh)            E(eV)
   0   2.0000     -79.915165     -2174.6022
   1   2.0000     -20.576052      -559.9028
   2   2.0000     -20.569413      -559.7222
   3   2.0000     -11.228327      -305.5383
   4   2.0000     -11.215396      -305.1864
   5   2.0000      -7.648807      -208.1346
   6   2.0000      -7.460472      -203.0098
   7   2.0000      -5.354865      -145.7133
   8   2.0000      -5.354410      -145.7009
   9   2.0000      -5.353774      -145.6836
  10   2.0000      -1.392543       -37.8930
  11   2.0000      -1.351603       -36.7790
  12   2.0000      -1.036586       -28.2070
  13   2.0000      -0.880154       -23.9502
  14   2.0000      -0.797718       -21.7070
  15   2.0000      -0.763833       -20.7850
  16   2.0000      -0.730042       -19.8654
  17   2.0000      -0.621648       -16.9159
  18   2.0000      -0.609355       -16.5814
  19   2.0000      -0.584823       -15.9138
  20   2.0000      -0.570352       -15.5201
  21   2.0000      -0.565932       -15.3998
  22   2.0000      -0.529915       -14.4197
  23   2.0000      -0.511859       -13.9284
  24   2.0000      -0.501201       -13.6384
  25   2.0000      -0.469532       -12.7766
  26   2.0000      -0.435649       -11.8546
  27   2.0000      -0.342435        -9.3181
  28   0.0000       0.022343         0.6080
  29   0.0000       0.030583         0.8322
  30   0.0000       0.033012         0.8983
  31   0.0000       0.037081         1.0090
  32   0.0000       0.046580         1.2675

MULLIKEN ATOMIC CHARGES
-----------------------
   0 P :    0.272512
   1 B :    1.318054
   2 O :   -0.954182
   3 O :   -1.134773
   4 C :   -0.565785
   5 C :   -0.910538
   6 H :    0.290164
   7 H :    0.241430
   8 H :    0.317882
   9 H :    0.309108
  10 H :    0.262344
  11 H :    0.322774
  12 H :    0.353288
  13 H :   -0.122277
Sum of atomic charges:    0.0000000

LOEWDIN ATOMIC CHARGES
----------------------
   0 P :    1.354596
   1 B :   -1.455545
   2 O :    1.296081
   3 O :    1.310006
   4 C :    0.303535
   5 C :    0.850714
   6 H :   -0.313632
   7 H :   -0.298903
   8 H :   -0.280155
   9 H :   -0.357439
  10 H :   -0.357938
  11 H :   -0.792148
  12 H :   -0.816257
  13 H :   -0.442916

  Mayer bond orders larger than 0.100000
B(  0-P ,  1-B ) :   0.9979 B(  0-P ,  4-C ) :   0.7758 B(  0-P , 13-H ) :   0.9606
B(  1-B ,  2-O ) :   0.4660 B(  1-B ,  3-O ) :   0.4626 B(  2-O , 11-H ) :   0.9565
B(  3-O , 12-H ) :   0.9016 B(  4-C ,  5-C ) :   0.9689 B(  4-C ,  9-H ) :   0.8822
B(  4-C , 10-H ) :   0.8933 B(  5-C ,  6-H ) :   0.9269 B(  5-C ,  7-H ) :   0.9454
B(  5-C ,  8-H ) :   0.9083

MP2 TOTAL ENERGY:     -596.970823403 Eh
FINAL SINGLE POINT ENERGY      -596.970823402702

DIPOLE MOMENT
-------------
                                X             Y             Z
Electronic contribution:      7.23981      -3.32132      -2.71468
Nuclear contribution   :     -7.16564       3.45629       3.21708
                        -----------------------------------------
Total Dipole Moment    :      0.07417       0.13497       0.50240
                        -----------------------------------------
Magnitude (a.u.)       :      0.52548
Magnitude (Debye)      :      1.33566

Rotational constants in cm-1:     0.133683     0.061670     0.051329
Rotational constants in MHz :  4007.710841  1848.811500  1538.807810

                             ****ORCA TERMINATED NORMALLY****
TOTAL RUN TIME: 0 days 1 hours 24 minutes 9 seconds 338 msec
