                         Program Version 5.0.4 -  RELEASE  -
|  1> ! ri-mp2 aug-cc-pvdz aug-cc-pvdz/c tightscf
|  2> %pal nprocs 16 end
|  3> %maxcore 3800
|  4> %base "DZ_B-Si_61_AB"
|  5> %scf
|  6> STABPerform true
|  7> STABRestartUHFifUnstable true
|  8> end
|  9>
| 10> *xyz 0 1
| 11> Si        -1.455674   -0.018763    0.000000
| 12> B         0.573574   -0.005592   -0.000018
| 13> O         1.224000   -1.195297    0.000009
| 14> O         1.331808    1.129641   -0.000002
| 15> H         0.833810    1.949856    0.000002
| 16> H         2.184600   -1.100273    0.000016
| 17> H        -1.987629   -0.702856    1.200360
| 18> H        -1.987646   -0.702866   -1.200346
| 19> H        -1.978034    1.372036   -0.000002
| 20> *
| 21>
| 22> $new_job
| 23> ! ri-mp2 aug-cc-pvtz aug-cc-pvtz/c tightscf
| 24> %pal nprocs 16 end
| 25> %maxcore 3800
| 26> %base "TZ_B-Si_61_AB"
| 27>
| 28> *xyz 0 1
| 29> Si        -1.455674   -0.018763    0.000000
| 30> B         0.573574   -0.005592   -0.000018
| 31> O         1.224000   -1.195297    0.000009
| 32> O         1.331808    1.129641   -0.000002
| 33> H         0.833810    1.949856    0.000002
| 34> H         2.184600   -1.100273    0.000016
| 35> H        -1.987629   -0.702856    1.200360
| 36> H        -1.987646   -0.702866   -1.200346
| 37> H        -1.978034    1.372036   -0.000002
| 38> *
| 39>
| 40> $new_job
| 41> ! ri-mp2 aug-cc-pvqz aug-cc-pvqz/c tightscf
| 42> %pal nprocs 16 end
| 43> %maxcore 3800
| 44> %base "QZ_B-Si_61_AB"
| 45>
| 46> *xyz 0 1
| 47> Si        -1.455674   -0.018763    0.000000
| 48> B         0.573574   -0.005592   -0.000018
| 49> O         1.224000   -1.195297    0.000009
| 50> O         1.331808    1.129641   -0.000002
| 51> H         0.833810    1.949856    0.000002
| 52> H         2.184600   -1.100273    0.000016
| 53> H        -1.987629   -0.702856    1.200360
| 54> H        -1.987646   -0.702866   -1.200346
| 55> H        -1.978034    1.372036   -0.000002
| 56> *
| 57>
| 58>
| 59>
| 60>
| 61>                          ****END OF INPUT****
 Total Charge           Charge          ....    0
 Multiplicity           Mult            ....    1
 Number of Electrons    NEL             ....   40
MP2 TOTAL ENERGY:     -466.969404021 Eh
FINAL SINGLE POINT ENERGY      -466.969404020809
MP2 TOTAL ENERGY:     -467.161560992 Eh
FINAL SINGLE POINT ENERGY      -467.161560992458

CARTESIAN COORDINATES (ANGSTROEM)
---------------------------------
  Si    -1.455674   -0.018763    0.000000
  B      0.573574   -0.005592   -0.000018
  O      1.224000   -1.195297    0.000009
  O      1.331808    1.129641   -0.000002
  H      0.833810    1.949856    0.000002
  H      2.184600   -1.100273    0.000016
  H     -1.987629   -0.702856    1.200360
  H     -1.987646   -0.702866   -1.200346
  H     -1.978034    1.372036   -0.000002

 Multiplicity           Mult            ....    1
 Number of Electrons    NEL             ....   40
 Basis Dimension        Dim             ....  554

ORBITAL ENERGIES
----------------

  NO   OCC          E(Eh)            E(eV)
   0   2.0000     -68.756037     -1870.9469
   1   2.0000     -20.579437      -559.9950
   2   2.0000     -20.570729      -559.7580
   3   2.0000      -7.644475      -208.0167
   4   2.0000      -6.107861      -166.2034
   5   2.0000      -4.214135      -114.6724
   6   2.0000      -4.214004      -114.6689
   7   2.0000      -4.213691      -114.6604
   8   2.0000      -1.394224       -37.9388
   9   2.0000      -1.352675       -36.8082
  10   2.0000      -0.784614       -21.3504
  11   2.0000      -0.751585       -20.4517
  12   2.0000      -0.707233       -19.2448
  13   2.0000      -0.615224       -16.7411
  14   2.0000      -0.582032       -15.8379
  15   2.0000      -0.570288       -15.5183
  16   2.0000      -0.509519       -13.8647
  17   2.0000      -0.478990       -13.0340
  18   2.0000      -0.478110       -13.0100
  19   2.0000      -0.421780       -11.4772
  20   0.0000       0.022654         0.6165
  21   0.0000       0.031318         0.8522
  22   0.0000       0.038586         1.0500
  23   0.0000       0.039886         1.0854
  24   0.0000       0.052214         1.4208

MULLIKEN ATOMIC CHARGES
-----------------------
   0 Si:    0.174150
   1 B :    1.391398
   2 O :   -0.949217
   3 O :   -1.014338
   4 H :    0.348795
   5 H :    0.334007
   6 H :   -0.082681
   7 H :   -0.082681
   8 H :   -0.119433
Sum of atomic charges:   -0.0000000

LOEWDIN ATOMIC CHARGES
----------------------
   0 Si:    1.198398
   1 B :   -1.246286
   2 O :    1.265728
   3 O :    1.296989
   4 H :   -0.826659
   5 H :   -0.807064
   6 H :   -0.293350
   7 H :   -0.293352
   8 H :   -0.294403

  Mayer bond orders larger than 0.100000
B(  0-Si,  1-B ) :   0.6293 B(  0-Si,  6-H ) :   0.6998 B(  0-Si,  7-H ) :   0.6998
B(  0-Si,  8-H ) :   0.6726 B(  1-B ,  2-O ) :   0.5041 B(  1-B ,  3-O ) :   0.4585
B(  2-O ,  5-H ) :   0.9247 B(  3-O ,  4-H ) :   0.9228

MP2 TOTAL ENERGY:     -467.225010087 Eh
FINAL SINGLE POINT ENERGY      -467.225010087427

DIPOLE MOMENT
-------------
                                X             Y             Z
Electronic contribution:      3.47862      -0.26306      -0.00005
Nuclear contribution   :     -3.23351       0.81174       0.00004
                        -----------------------------------------
Total Dipole Moment    :      0.24511       0.54869      -0.00001
                        -----------------------------------------
Magnitude (a.u.)       :      0.60094
Magnitude (Debye)      :      1.52748

Rotational constants in cm-1:     0.311485     0.124310     0.091657
Rotational constants in MHz :  9338.072002  3726.728146  2747.818468

                             ****ORCA TERMINATED NORMALLY****
TOTAL RUN TIME: 0 days 0 hours 18 minutes 7 seconds 24 msec
