                         Program Version 5.0.4 -  RELEASE  -
|  1> ! ri-mp2 aug-cc-pvdz aug-cc-pvdz/c tightscf
|  2> %pal nprocs 16 end
|  3> %maxcore 3800
|  4> %base "DZ_Si-S_8_AB"
|  5>
|  6> *xyz 0 1
|  7> S         1.813615    0.026328    0.000000
|  8> Si        -0.343258    0.005402    0.000000
|  9> C        -0.976453   -0.859469   -1.526954
| 10> H        -0.614229   -0.370772   -2.431558
| 11> H        -2.068470   -0.852331   -1.548636
| 12> H        -0.650396   -1.900188   -1.555776
| 13> C        -0.829588    1.804821   -0.000001
| 14> H        -1.916801    1.903677   -0.000001
| 15> H        -0.446706    2.318278   -0.882576
| 16> H        -0.446707    2.318279    0.882573
| 17> C        -0.976453   -0.859467    1.526955
| 18> H        -0.650397   -1.900187    1.555778
| 19> H        -2.068470   -0.852329    1.548637
| 20> H        -0.614230   -0.370769    2.431558
| 21> H         1.959137   -1.305850    0.000001
| 22> *
| 23>
| 24> $new_job
| 25> ! ri-mp2 aug-cc-pvtz aug-cc-pvtz/c tightscf
| 26> %pal nprocs 16 end
| 27> %maxcore 3800
| 28> %base "TZ_Si-S_8_AB"
| 29>
| 30> *xyz 0 1
| 31> S         1.813615    0.026328    0.000000
| 32> Si        -0.343258    0.005402    0.000000
| 33> C        -0.976453   -0.859469   -1.526954
| 34> H        -0.614229   -0.370772   -2.431558
| 35> H        -2.068470   -0.852331   -1.548636
| 36> H        -0.650396   -1.900188   -1.555776
| 37> C        -0.829588    1.804821   -0.000001
| 38> H        -1.916801    1.903677   -0.000001
| 39> H        -0.446706    2.318278   -0.882576
| 40> H        -0.446707    2.318279    0.882573
| 41> C        -0.976453   -0.859467    1.526955
| 42> H        -0.650397   -1.900187    1.555778
| 43> H        -2.068470   -0.852329    1.548637
| 44> H        -0.614230   -0.370769    2.431558
| 45> H         1.959137   -1.305850    0.000001
| 46> *
| 47>
| 48> $new_job
| 49> ! ri-mp2 aug-cc-pvqz aug-cc-pvqz/c tightscf
| 50> %pal nprocs 16 end
| 51> %maxcore 3800
| 52> %base "QZ_Si-S_8_AB"
| 53>
| 54> *xyz 0 1
| 55> S         1.813615    0.026328    0.000000
| 56> Si        -0.343258    0.005402    0.000000
| 57> C        -0.976453   -0.859469   -1.526954
| 58> H        -0.614229   -0.370772   -2.431558
| 59> H        -2.068470   -0.852331   -1.548636
| 60> H        -0.650396   -1.900188   -1.555776
| 61> C        -0.829588    1.804821   -0.000001
| 62> H        -1.916801    1.903677   -0.000001
| 63> H        -0.446706    2.318278   -0.882576
| 64> H        -0.446707    2.318279    0.882573
| 65> C        -0.976453   -0.859467    1.526955
| 66> H        -0.650397   -1.900187    1.555778
| 67> H        -2.068470   -0.852329    1.548637
| 68> H        -0.614230   -0.370769    2.431558
| 69> H         1.959137   -1.305850    0.000001
| 70> *
| 71>
| 72>
| 73>
| 74>
| 75>                          ****END OF INPUT****
 Total Charge           Charge          ....    0
 Multiplicity           Mult            ....    1
 Number of Electrons    NEL             ....   58
MP2 TOTAL ENERGY:     -806.680529244 Eh
FINAL SINGLE POINT ENERGY      -806.680529244442
MP2 TOTAL ENERGY:     -806.895111620 Eh
FINAL SINGLE POINT ENERGY      -806.895111620170

CARTESIAN COORDINATES (ANGSTROEM)
---------------------------------
  S      1.813615    0.026328    0.000000
  Si    -0.343258    0.005402    0.000000
  C     -0.976453   -0.859469   -1.526954
  H     -0.614229   -0.370772   -2.431558
  H     -2.068470   -0.852331   -1.548636
  H     -0.650396   -1.900188   -1.555776
  C     -0.829588    1.804821   -0.000001
  H     -1.916801    1.903677   -0.000001
  H     -0.446706    2.318278   -0.882576
  H     -0.446707    2.318279    0.882573
  C     -0.976453   -0.859467    1.526955
  H     -0.650397   -1.900187    1.555778
  H     -2.068470   -0.852329    1.548637
  H     -0.614230   -0.370769    2.431558
  H      1.959137   -1.305850    0.000001

 Multiplicity           Mult            ....    1
 Number of Electrons    NEL             ....   58
 Basis Dimension        Dim             ....  868

ORBITAL ENERGIES
----------------

  NO   OCC          E(Eh)            E(eV)
   0   2.0000     -91.931598     -2501.5860
   1   2.0000     -68.774227     -1871.4419
   2   2.0000     -11.202461      -304.8345
   3   2.0000     -11.202184      -304.8269
   4   2.0000     -11.202175      -304.8267
   5   2.0000      -8.936510      -243.1748
   6   2.0000      -6.618114      -180.0880
   7   2.0000      -6.617231      -180.0640
   8   2.0000      -6.616495      -180.0440
   9   2.0000      -6.121489      -166.5742
  10   2.0000      -4.228568      -115.0652
  11   2.0000      -4.227566      -115.0379
  12   2.0000      -4.227372      -115.0326
  13   2.0000      -0.989760       -26.9327
  14   2.0000      -0.936380       -25.4802
  15   2.0000      -0.932748       -25.3814
  16   2.0000      -0.931665       -25.3519
  17   2.0000      -0.636558       -17.3216
  18   2.0000      -0.580963       -15.8088
  19   2.0000      -0.571174       -15.5424
  20   2.0000      -0.570462       -15.5231
  21   2.0000      -0.554420       -15.0865
  22   2.0000      -0.550164       -14.9707
  23   2.0000      -0.537858       -14.6359
  24   2.0000      -0.519428       -14.1344
  25   2.0000      -0.448078       -12.1928
  26   2.0000      -0.440903       -11.9976
  27   2.0000      -0.421353       -11.4656
  28   2.0000      -0.363205        -9.8833
  29   0.0000       0.019829         0.5396
  30   0.0000       0.033100         0.9007
  31   0.0000       0.035417         0.9637
  32   0.0000       0.036630         0.9968
  33   0.0000       0.048988         1.3330

MULLIKEN ATOMIC CHARGES
-----------------------
   0 S :   -0.544984
   1 Si:    1.725092
   2 C :   -1.196305
   3 H :    0.276404
   4 H :    0.267958
   5 H :    0.264800
   6 C :   -1.237061
   7 H :    0.268505
   8 H :    0.275142
   9 H :    0.275143
  10 C :   -1.196305
  11 H :    0.264799
  12 H :    0.267957
  13 H :    0.276405
  14 H :    0.012450
Sum of atomic charges:    0.0000000

LOEWDIN ATOMIC CHARGES
----------------------
   0 S :    1.529041
   1 Si:   -0.332119
   2 C :    0.936213
   3 H :   -0.351263
   4 H :   -0.341277
   5 H :   -0.350775
   6 C :    0.922744
   7 H :   -0.341081
   8 H :   -0.349504
   9 H :   -0.349505
  10 C :    0.936213
  11 H :   -0.350774
  12 H :   -0.341277
  13 H :   -0.351264
  14 H :   -0.865370

  Mayer bond orders larger than 0.100000
B(  0-S ,  1-Si) :   0.4260 B(  0-S , 14-H ) :   1.1129 B(  1-Si,  2-C ) :   0.7886
B(  1-Si,  6-C ) :   0.7973 B(  1-Si, 10-C ) :   0.7886 B(  2-C ,  3-H ) :   0.9519
B(  2-C ,  4-H ) :   0.9442 B(  2-C ,  5-H ) :   0.9690 B(  6-C ,  7-H ) :   0.9548
B(  6-C ,  8-H ) :   0.9621 B(  6-C ,  9-H ) :   0.9621 B( 10-C , 11-H ) :   0.9690
B( 10-C , 12-H ) :   0.9442 B( 10-C , 13-H ) :   0.9519

MP2 TOTAL ENERGY:     -806.960395877 Eh
FINAL SINGLE POINT ENERGY      -806.960395876627

DIPOLE MOMENT
-------------
                                X             Y             Z
Electronic contribution:      7.03386       0.76031       0.00000
Nuclear contribution   :     -7.74211      -1.03879       0.00000
                        -----------------------------------------
Total Dipole Moment    :     -0.70824      -0.27848       0.00000
                        -----------------------------------------
Magnitude (a.u.)       :      0.76103
Magnitude (Debye)      :      1.93437

Rotational constants in cm-1:     0.104522     0.071169     0.070321
Rotational constants in MHz :  3133.480335  2133.583445  2108.164628

                             ****ORCA TERMINATED NORMALLY****
TOTAL RUN TIME: 0 days 0 hours 12 minutes 55 seconds 932 msec
