                         Program Version 5.0.4 -  RELEASE  -
|  1> ! ri-mp2 aug-cc-pvdz aug-cc-pvdz/c tightscf
|  2> %pal nprocs 16 end
|  3> %maxcore 3800
|  4> %base "DZ_Si-Cl_66_AB"
|  5>
|  6> *xyz 0 1
|  7> C        -2.241488    1.248474    0.113915
|  8> C        -0.911456    1.091740    0.444773
|  9> C        -2.942091    0.142835   -0.341607
| 10> N        -2.400187   -1.059549   -0.475901
| 11> C        -1.119619   -1.194667   -0.155336
| 12> C        -0.313961   -0.159484    0.311901
| 13> H        -2.734258    2.206435    0.205445
| 14> H        -0.340551    1.940185    0.803160
| 15> H        -0.709557   -2.192139   -0.277855
| 16> Si         1.467406   -0.452433    0.729870
| 17> Cl         2.685180    0.382345   -0.707520
| 18> H        -3.989139    0.229839   -0.610296
| 19> H         1.736961   -1.899993    0.771252
| 20> H         1.817807    0.193337    2.007383
| 21> *
| 22>
| 23> $new_job
| 24> ! ri-mp2 aug-cc-pvtz aug-cc-pvtz/c tightscf
| 25> %pal nprocs 16 end
| 26> %maxcore 3800
| 27> %base "TZ_Si-Cl_66_AB"
| 28>
| 29> *xyz 0 1
| 30> C        -2.241488    1.248474    0.113915
| 31> C        -0.911456    1.091740    0.444773
| 32> C        -2.942091    0.142835   -0.341607
| 33> N        -2.400187   -1.059549   -0.475901
| 34> C        -1.119619   -1.194667   -0.155336
| 35> C        -0.313961   -0.159484    0.311901
| 36> H        -2.734258    2.206435    0.205445
| 37> H        -0.340551    1.940185    0.803160
| 38> H        -0.709557   -2.192139   -0.277855
| 39> Si         1.467406   -0.452433    0.729870
| 40> Cl         2.685180    0.382345   -0.707520
| 41> H        -3.989139    0.229839   -0.610296
| 42> H         1.736961   -1.899993    0.771252
| 43> H         1.817807    0.193337    2.007383
| 44> *
| 45>
| 46> $new_job
| 47> ! ri-mp2 aug-cc-pvqz aug-cc-pvqz/c tightscf
| 48> %pal nprocs 16 end
| 49> %maxcore 3800
| 50> %base "QZ_Si-Cl_66_AB"
| 51>
| 52> *xyz 0 1
| 53> C        -2.241488    1.248474    0.113915
| 54> C        -0.911456    1.091740    0.444773
| 55> C        -2.942091    0.142835   -0.341607
| 56> N        -2.400187   -1.059549   -0.475901
| 57> C        -1.119619   -1.194667   -0.155336
| 58> C        -0.313961   -0.159484    0.311901
| 59> H        -2.734258    2.206435    0.205445
| 60> H        -0.340551    1.940185    0.803160
| 61> H        -0.709557   -2.192139   -0.277855
| 62> Si         1.467406   -0.452433    0.729870
| 63> Cl         2.685180    0.382345   -0.707520
| 64> H        -3.989139    0.229839   -0.610296
| 65> H         1.736961   -1.899993    0.771252
| 66> H         1.817807    0.193337    2.007383
| 67> *
| 68>
| 69>
| 70>
| 71>
| 72>                          ****END OF INPUT****
 Total Charge           Charge          ....    0
 Multiplicity           Mult            ....    1
 Number of Electrons    NEL             ....   74
MP2 TOTAL ENERGY:     -996.882431618 Eh
FINAL SINGLE POINT ENERGY      -996.882431617872
MP2 TOTAL ENERGY:     -997.194384515 Eh
FINAL SINGLE POINT ENERGY      -997.194384514681

CARTESIAN COORDINATES (ANGSTROEM)
---------------------------------
  C     -2.241488    1.248474    0.113915
  C     -0.911456    1.091740    0.444773
  C     -2.942091    0.142835   -0.341607
  N     -2.400187   -1.059549   -0.475901
  C     -1.119619   -1.194667   -0.155336
  C     -0.313961   -0.159484    0.311901
  H     -2.734258    2.206435    0.205445
  H     -0.340551    1.940185    0.803160
  H     -0.709557   -2.192139   -0.277855
  Si     1.467406   -0.452433    0.729870
  Cl     2.685180    0.382345   -0.707520
  H     -3.989139    0.229839   -0.610296
  H      1.736961   -1.899993    0.771252
  H      1.817807    0.193337    2.007383

 Multiplicity           Mult            ....    1
 Number of Electrons    NEL             ....   74
 Basis Dimension        Dim             ....  924

ORBITAL ENERGIES
----------------

  NO   OCC          E(Eh)            E(eV)
   0   2.0000    -104.825896     -2852.4576
   1   2.0000     -68.818183     -1872.6380
   2   2.0000     -15.570312      -423.6897
   3   2.0000     -11.286884      -307.1317
   4   2.0000     -11.285777      -307.1016
   5   2.0000     -11.271271      -306.7069
   6   2.0000     -11.247543      -306.0612
   7   2.0000     -11.237143      -305.7782
   8   2.0000     -10.553429      -287.1734
   9   2.0000      -8.020218      -218.2412
  10   2.0000      -8.019121      -218.2114
  11   2.0000      -8.019108      -218.2110
  12   2.0000      -6.163787      -167.7252
  13   2.0000      -4.270781      -116.2139
  14   2.0000      -4.269950      -116.1913
  15   2.0000      -4.269657      -116.1833
  16   2.0000      -1.275145       -34.6985
  17   2.0000      -1.105563       -30.0839
  18   2.0000      -1.093586       -29.7580
  19   2.0000      -1.046060       -28.4647
  20   2.0000      -0.871502       -23.7148
  21   2.0000      -0.869414       -23.6580
  22   2.0000      -0.747046       -20.3281
  23   2.0000      -0.707215       -19.2443
  24   2.0000      -0.678804       -18.4712
  25   2.0000      -0.637028       -17.3344
  26   2.0000      -0.586785       -15.9672
  27   2.0000      -0.575841       -15.6694
  28   2.0000      -0.561387       -15.2761
  29   2.0000      -0.530059       -14.4236
  30   2.0000      -0.526608       -14.3297
  31   2.0000      -0.507355       -13.8058
  32   2.0000      -0.458515       -12.4768
  33   2.0000      -0.451696       -12.2913
  34   2.0000      -0.419357       -11.4113
  35   2.0000      -0.396222       -10.7817
  36   2.0000      -0.361571        -9.8388
  37   0.0000       0.020343         0.5536
  38   0.0000       0.028240         0.7685
  39   0.0000       0.031197         0.8489
  40   0.0000       0.037911         1.0316
  41   0.0000       0.041423         1.1272

MULLIKEN ATOMIC CHARGES
-----------------------
   0 C :   -0.256417
   1 C :   -0.308025
   2 C :   -0.364540
   3 N :   -0.629577
   4 C :   -0.209214
   5 C :   -0.262048
   6 H :    0.327203
   7 H :    0.334001
   8 H :    0.498559
   9 Si:    1.482492
  10 Cl:   -0.618763
  11 H :    0.518549
  12 H :   -0.287813
  13 H :   -0.224408
Sum of atomic charges:   -0.0000000

LOEWDIN ATOMIC CHARGES
----------------------
   0 C :    0.338312
   1 C :    0.232983
   2 C :    0.075738
   3 N :    0.603162
   4 C :   -0.019681
   5 C :   -0.177770
   6 H :   -0.323045
   7 H :   -0.322853
   8 H :   -0.372183
   9 Si:   -0.034284
  10 Cl:    0.894846
  11 H :   -0.344853
  12 H :   -0.272123
  13 H :   -0.278250

  Mayer bond orders larger than 0.100000
B(  0-C ,  1-C ) :   1.2812 B(  0-C ,  2-C ) :   1.2162 B(  0-C ,  4-C ) :   0.1088
B(  0-C ,  5-C ) :  -0.2464 B(  0-C ,  6-H ) :   0.9849 B(  1-C ,  5-C ) :   0.9898
B(  1-C ,  6-H ) :  -0.1103 B(  1-C ,  7-H ) :   0.9145 B(  1-C ,  9-Si) :  -0.1059
B(  2-C ,  3-N ) :   1.3542 B(  2-C , 11-H ) :   0.7973 B(  3-N ,  4-C ) :   1.2307
B(  3-N ,  8-H ) :  -0.1231 B(  4-C ,  5-C ) :   1.1998 B(  4-C ,  8-H ) :   0.7505
B(  5-C ,  7-H ) :  -0.1123 B(  5-C ,  8-H ) :  -0.1013 B(  5-C ,  9-Si) :   1.0784
B(  9-Si, 10-Cl) :   0.3613 B(  9-Si, 12-H ) :   0.7684 B(  9-Si, 13-H ) :   0.7745

MP2 TOTAL ENERGY:     -997.296232947 Eh
FINAL SINGLE POINT ENERGY      -997.296232946525

DIPOLE MOMENT
-------------
                                X             Y             Z
Electronic contribution:      7.60173       0.57279      -3.15450
Nuclear contribution   :     -7.89799      -0.04653       3.73854
                        -----------------------------------------
Total Dipole Moment    :     -0.29626       0.52626       0.58404
                        -----------------------------------------
Magnitude (a.u.)       :      0.84013
Magnitude (Debye)      :      2.13545

Rotational constants in cm-1:     0.119315     0.025366     0.023666
Rotational constants in MHz :  3576.970258   760.465143   709.499424

                             ****ORCA TERMINATED NORMALLY****
TOTAL RUN TIME: 0 days 0 hours 23 minutes 23 seconds 442 msec
