                         Program Version 5.0.4 -  RELEASE  -
|  1> ! ri-mp2 aug-cc-pvdz aug-cc-pvdz/c tightscf
|  2> %pal nprocs 16 end
|  3> %maxcore 3800
|  4> %base "DZ_B-Si_18_AB"
|  5>
|  6> *xyz 0 1
|  7> C        -0.449631    1.106675    0.260427
|  8> C        -1.813769    1.276636    0.132890
|  9> C        -2.594240    0.164520   -0.136539
| 10> N        -2.095277   -1.055417   -0.278548
| 11> C        -0.781969   -1.201413   -0.149391
| 12> C         0.105216   -0.163030    0.123511
| 13> H        -2.270336    2.251461    0.236134
| 14> H        -3.669074    0.260362   -0.245075
| 15> H         0.181248    1.964192    0.463707
| 16> B         3.078219    0.861085   -0.679794
| 17> H        -0.410818   -2.213779   -0.273410
| 18> Si         1.943864   -0.473731    0.292224
| 19> H         2.691520    1.966550   -0.899248
| 20> H         4.190099    0.598857   -1.014544
| 21> H         2.346441   -0.340274    1.719988
| 22> H         2.209026   -1.872962   -0.115274
| 23> *
| 24>
| 25> $new_job
| 26> ! ri-mp2 aug-cc-pvtz aug-cc-pvtz/c tightscf
| 27> %pal nprocs 16 end
| 28> %maxcore 3800
| 29> %base "TZ_B-Si_18_AB"
| 30>
| 31> *xyz 0 1
| 32> C        -0.449631    1.106675    0.260427
| 33> C        -1.813769    1.276636    0.132890
| 34> C        -2.594240    0.164520   -0.136539
| 35> N        -2.095277   -1.055417   -0.278548
| 36> C        -0.781969   -1.201413   -0.149391
| 37> C         0.105216   -0.163030    0.123511
| 38> H        -2.270336    2.251461    0.236134
| 39> H        -3.669074    0.260362   -0.245075
| 40> H         0.181248    1.964192    0.463707
| 41> B         3.078219    0.861085   -0.679794
| 42> H        -0.410818   -2.213779   -0.273410
| 43> Si         1.943864   -0.473731    0.292224
| 44> H         2.691520    1.966550   -0.899248
| 45> H         4.190099    0.598857   -1.014544
| 46> H         2.346441   -0.340274    1.719988
| 47> H         2.209026   -1.872962   -0.115274
| 48> *
| 49>
| 50> $new_job
| 51> ! ri-mp2 aug-cc-pvqz aug-cc-pvqz/c tightscf
| 52> %pal nprocs 16 end
| 53> %maxcore 3800
| 54> %base "QZ_B-Si_18_AB"
| 55>
| 56> *xyz 0 1
| 57> C        -0.449631    1.106675    0.260427
| 58> C        -1.813769    1.276636    0.132890
| 59> C        -2.594240    0.164520   -0.136539
| 60> N        -2.095277   -1.055417   -0.278548
| 61> C        -0.781969   -1.201413   -0.149391
| 62> C         0.105216   -0.163030    0.123511
| 63> H        -2.270336    2.251461    0.236134
| 64> H        -3.669074    0.260362   -0.245075
| 65> H         0.181248    1.964192    0.463707
| 66> B         3.078219    0.861085   -0.679794
| 67> H        -0.410818   -2.213779   -0.273410
| 68> Si         1.943864   -0.473731    0.292224
| 69> H         2.691520    1.966550   -0.899248
| 70> H         4.190099    0.598857   -1.014544
| 71> H         2.346441   -0.340274    1.719988
| 72> H         2.209026   -1.872962   -0.115274
| 73> *
| 74>
| 75>
| 76>
| 77>
| 78>                          ****END OF INPUT****
 Total Charge           Charge          ....    0
 Multiplicity           Mult            ....    1
 Number of Electrons    NEL             ....   64
MP2 TOTAL ENERGY:     -563.075608158 Eh
FINAL SINGLE POINT ENERGY      -563.075608157615
MP2 TOTAL ENERGY:     -563.348029235 Eh
FINAL SINGLE POINT ENERGY      -563.348029234882

CARTESIAN COORDINATES (ANGSTROEM)
---------------------------------
  C     -0.449631    1.106675    0.260427
  C     -1.813769    1.276636    0.132890
  C     -2.594240    0.164520   -0.136539
  N     -2.095277   -1.055417   -0.278548
  C     -0.781969   -1.201413   -0.149391
  C      0.105216   -0.163030    0.123511
  H     -2.270336    2.251461    0.236134
  H     -3.669074    0.260362   -0.245075
  H      0.181248    1.964192    0.463707
  B      3.078219    0.861085   -0.679794
  H     -0.410818   -2.213779   -0.273410
  Si     1.943864   -0.473731    0.292224
  H      2.691520    1.966550   -0.899248
  H      4.190099    0.598857   -1.014544
  H      2.346441   -0.340274    1.719988
  H      2.209026   -1.872962   -0.115274

 Multiplicity           Mult            ....    1
 Number of Electrons    NEL             ....   64
 Basis Dimension        Dim             .... 1012

ORBITAL ENERGIES
----------------

  NO   OCC          E(Eh)            E(eV)
   0   2.0000     -68.760951     -1871.0806
   1   2.0000     -15.561849      -423.4594
   2   2.0000     -11.275460      -306.8209
   3   2.0000     -11.274781      -306.8024
   4   2.0000     -11.260250      -306.4070
   5   2.0000     -11.239531      -305.8432
   6   2.0000     -11.227217      -305.5081
   7   2.0000      -7.615661      -207.2327
   8   2.0000      -6.112357      -166.3257
   9   2.0000      -4.218798      -114.7993
  10   2.0000      -4.218559      -114.7928
  11   2.0000      -4.218228      -114.7838
  12   2.0000      -1.265348       -34.4319
  13   2.0000      -1.091958       -29.7137
  14   2.0000      -1.036400       -28.2019
  15   2.0000      -0.861157       -23.4333
  16   2.0000      -0.859709       -23.3939
  17   2.0000      -0.754060       -20.5190
  18   2.0000      -0.714197       -19.4343
  19   2.0000      -0.668929       -18.2025
  20   2.0000      -0.658889       -17.9293
  21   2.0000      -0.624590       -16.9960
  22   2.0000      -0.577212       -15.7067
  23   2.0000      -0.560319       -15.2471
  24   2.0000      -0.549264       -14.9462
  25   2.0000      -0.510841       -13.9007
  26   2.0000      -0.484605       -13.1868
  27   2.0000      -0.470076       -12.7914
  28   2.0000      -0.431778       -11.7493
  29   2.0000      -0.408939       -11.1278
  30   2.0000      -0.384120       -10.4524
  31   2.0000      -0.347579        -9.4581
  32   0.0000       0.019974         0.5435
  33   0.0000       0.023007         0.6261
  34   0.0000       0.026421         0.7190
  35   0.0000       0.030289         0.8242
  36   0.0000       0.036683         0.9982

MULLIKEN ATOMIC CHARGES
-----------------------
   0 C :   -0.309038
   1 C :   -0.260332
   2 C :   -0.345218
   3 N :   -0.655743
   4 C :   -0.181898
   5 C :   -0.195878
   6 H :    0.304897
   7 H :    0.516526
   8 H :    0.362658
   9 B :    0.294646
  10 H :    0.497537
  11 Si:    0.825952
  12 H :   -0.163889
  13 H :   -0.252096
  14 H :   -0.187003
  15 H :   -0.251120
Sum of atomic charges:   -0.0000000

LOEWDIN ATOMIC CHARGES
----------------------
   0 C :    0.239921
   1 C :    0.336168
   2 C :    0.070961
   3 N :    0.599484
   4 C :   -0.010908
   5 C :   -0.129398
   6 H :   -0.323623
   7 H :   -0.347547
   8 H :   -0.327277
   9 B :    0.378336
  10 H :   -0.373685
  11 Si:    0.850139
  12 H :   -0.247001
  13 H :   -0.255837
  14 H :   -0.228694
  15 H :   -0.231040

  Mayer bond orders larger than 0.100000
B(  0-C ,  1-C ) :   1.2478 B(  0-C ,  5-C ) :   0.8827 B(  0-C ,  6-H ) :  -0.1184
B(  0-C ,  8-H ) :   0.9026 B(  0-C , 11-Si) :  -0.1446 B(  1-C ,  2-C ) :   1.2332
B(  1-C ,  4-C ) :   0.1114 B(  1-C ,  5-C ) :  -0.2448 B(  1-C ,  6-H ) :   1.0149
B(  2-C ,  3-N ) :   1.3395 B(  2-C ,  7-H ) :   0.8003 B(  3-N ,  4-C ) :   1.2134
B(  3-N , 10-H ) :  -0.1330 B(  4-C ,  5-C ) :   1.1909 B(  4-C , 10-H ) :   0.7595
B(  5-C ,  8-H ) :  -0.1228 B(  5-C , 10-H ) :  -0.1192 B(  5-C , 11-Si) :   0.9626
B(  9-B , 11-Si) :   0.8416 B(  9-B , 12-H ) :   0.9010 B(  9-B , 13-H ) :   0.9107
B( 11-Si, 14-H ) :   0.7557 B( 11-Si, 15-H ) :   0.6935

MP2 TOTAL ENERGY:     -563.435294375 Eh
FINAL SINGLE POINT ENERGY      -563.435294374571

DIPOLE MOMENT
-------------
                                X             Y             Z
Electronic contribution:     -2.28242      -1.12186      -0.36565
Nuclear contribution   :      2.63924       1.92985       0.39795
                        -----------------------------------------
Total Dipole Moment    :      0.35682       0.80799       0.03231
                        -----------------------------------------
Magnitude (a.u.)       :      0.88386
Magnitude (Debye)      :      2.24660

Rotational constants in cm-1:     0.141105     0.035855     0.030170
Rotational constants in MHz :  4230.208283  1074.901320   904.466272

                             ****ORCA TERMINATED NORMALLY****
TOTAL RUN TIME: 0 days 0 hours 21 minutes 57 seconds 43 msec
