                         Program Version 5.0.4 -  RELEASE  -
|  1> ! ri-mp2 aug-cc-pvdz aug-cc-pvdz/c tightscf
|  2> %pal nprocs 16 end
|  3> %maxcore 3800
|  4> %base "DZ_P-Si_6_AB"
|  5> %scf
|  6> STABPerform true
|  7> STABRestartUHFifUnstable true
|  8> end
|  9>
| 10> *xyz 0 1
| 11> Si        -0.879611    0.415744   -0.005061
| 12> P         1.307345   -0.138490    0.128731
| 13> O         1.766199   -0.714524    1.397371
| 14> C        -1.225529    1.277323   -1.606612
| 15> H        -0.931905    0.655687   -2.451762
| 16> H        -0.664674    2.211619   -1.657281
| 17> C        -1.324770    1.388291    1.504023
| 18> Cl        -1.863112   -1.400111    0.022182
| 19> H        -0.786227    2.337389    1.511645
| 20> H        -1.058895    0.836840    2.405163
| 21> H        -2.394655    1.598323    1.526500
| 22> H        -2.288461    1.503988   -1.698484
| 23> O         1.633595   -1.074207   -1.136121
| 24> H         1.732703   -1.997987   -0.875858
| 25> O         1.992417    1.242291   -0.298321
| 26> H         2.933505    1.290802   -0.085028
| 27> *
| 28>
| 29> $new_job
| 30> ! ri-mp2 aug-cc-pvtz aug-cc-pvtz/c tightscf
| 31> %pal nprocs 16 end
| 32> %maxcore 3800
| 33> %base "TZ_P-Si_6_AB"
| 34>
| 35> *xyz 0 1
| 36> Si        -0.879611    0.415744   -0.005061
| 37> P         1.307345   -0.138490    0.128731
| 38> O         1.766199   -0.714524    1.397371
| 39> C        -1.225529    1.277323   -1.606612
| 40> H        -0.931905    0.655687   -2.451762
| 41> H        -0.664674    2.211619   -1.657281
| 42> C        -1.324770    1.388291    1.504023
| 43> Cl        -1.863112   -1.400111    0.022182
| 44> H        -0.786227    2.337389    1.511645
| 45> H        -1.058895    0.836840    2.405163
| 46> H        -2.394655    1.598323    1.526500
| 47> H        -2.288461    1.503988   -1.698484
| 48> O         1.633595   -1.074207   -1.136121
| 49> H         1.732703   -1.997987   -0.875858
| 50> O         1.992417    1.242291   -0.298321
| 51> H         2.933505    1.290802   -0.085028
| 52> *
| 53>
| 54> $new_job
| 55> ! ri-mp2 aug-cc-pvqz aug-cc-pvqz/c tightscf
| 56> %pal nprocs 16 end
| 57> %maxcore 3800
| 58> %base "QZ_P-Si_6_AB"
| 59>
| 60> *xyz 0 1
| 61> Si        -0.879611    0.415744   -0.005061
| 62> P         1.307345   -0.138490    0.128731
| 63> O         1.766199   -0.714524    1.397371
| 64> C        -1.225529    1.277323   -1.606612
| 65> H        -0.931905    0.655687   -2.451762
| 66> H        -0.664674    2.211619   -1.657281
| 67> C        -1.324770    1.388291    1.504023
| 68> Cl        -1.863112   -1.400111    0.022182
| 69> H        -0.786227    2.337389    1.511645
| 70> H        -1.058895    0.836840    2.405163
| 71> H        -2.394655    1.598323    1.526500
| 72> H        -2.288461    1.503988   -1.698484
| 73> O         1.633595   -1.074207   -1.136121
| 74> H         1.732703   -1.997987   -0.875858
| 75> O         1.992417    1.242291   -0.298321
| 76> H         2.933505    1.290802   -0.085028
| 77> *
| 78>
| 79>
| 80>
| 81>
| 82>                          ****END OF INPUT****
 Total Charge           Charge          ....    0
 Multiplicity           Mult            ....    1
 Number of Electrons    NEL             ....   90
MP2 TOTAL ENERGY:    -1395.633246809 Eh
FINAL SINGLE POINT ENERGY     -1395.633246808853
MP2 TOTAL ENERGY:    -1396.078747830 Eh
FINAL SINGLE POINT ENERGY     -1396.078747830136

CARTESIAN COORDINATES (ANGSTROEM)
---------------------------------
  Si    -0.879611    0.415744   -0.005061
  P      1.307345   -0.138490    0.128731
  O      1.766199   -0.714524    1.397371
  C     -1.225529    1.277323   -1.606612
  H     -0.931905    0.655687   -2.451762
  H     -0.664674    2.211619   -1.657281
  C     -1.324770    1.388291    1.504023
  Cl    -1.863112   -1.400111    0.022182
  H     -0.786227    2.337389    1.511645
  H     -1.058895    0.836840    2.405163
  H     -2.394655    1.598323    1.526500
  H     -2.288461    1.503988   -1.698484
  O      1.633595   -1.074207   -1.136121
  H      1.732703   -1.997987   -0.875858
  O      1.992417    1.242291   -0.298321
  H      2.933505    1.290802   -0.085028

 Multiplicity           Mult            ....    1
 Number of Electrons    NEL             ....   90
 Basis Dimension        Dim             .... 1020

ORBITAL ENERGIES
----------------

  NO   OCC          E(Eh)            E(eV)
   0   2.0000    -104.828276     -2852.5224
   1   2.0000     -80.058907     -2178.5136
   2   2.0000     -68.818942     -1872.6586
   3   2.0000     -20.602171      -560.6136
   4   2.0000     -20.596573      -560.4612
   5   2.0000     -20.504911      -557.9670
   6   2.0000     -11.222764      -305.3869
   7   2.0000     -11.221078      -305.3411
   8   2.0000     -10.555826      -287.2386
   9   2.0000      -8.022617      -218.3065
  10   2.0000      -8.021545      -218.2773
  11   2.0000      -8.021515      -218.2765
  12   2.0000      -7.583071      -206.3458
  13   2.0000      -6.164971      -167.7574
  14   2.0000      -5.481006      -149.1457
  15   2.0000      -5.480204      -149.1239
  16   2.0000      -5.479114      -149.0943
  17   2.0000      -4.272054      -116.2485
  18   2.0000      -4.271028      -116.2206
  19   2.0000      -4.270358      -116.2024
  20   2.0000      -1.433519       -39.0080
  21   2.0000      -1.382910       -37.6309
  22   2.0000      -1.295346       -35.2482
  23   2.0000      -1.101349       -29.9692
  24   2.0000      -0.980817       -26.6894
  25   2.0000      -0.952965       -25.9315
  26   2.0000      -0.860441       -23.4138
  27   2.0000      -0.744963       -20.2715
  28   2.0000      -0.697791       -18.9879
  29   2.0000      -0.668501       -18.1908
  30   2.0000      -0.635788       -17.3007
  31   2.0000      -0.612802       -16.6752
  32   2.0000      -0.590365       -16.0646
  33   2.0000      -0.583538       -15.8789
  34   2.0000      -0.574158       -15.6236
  35   2.0000      -0.569922       -15.5084
  36   2.0000      -0.561098       -15.2683
  37   2.0000      -0.553689       -15.0666
  38   2.0000      -0.510436       -13.8897
  39   2.0000      -0.505886       -13.7659
  40   2.0000      -0.495027       -13.4704
  41   2.0000      -0.474185       -12.9032
  42   2.0000      -0.464023       -12.6267
  43   2.0000      -0.445158       -12.1134
  44   2.0000      -0.411165       -11.1884
  45   0.0000       0.020344         0.5536
  46   0.0000       0.029397         0.7999
  47   0.0000       0.032469         0.8835
  48   0.0000       0.037627         1.0239
  49   0.0000       0.046072         1.2537

MULLIKEN ATOMIC CHARGES
-----------------------
   0 Si:    1.761776
   1 P :    2.196063
   2 O :   -1.272830
   3 C :   -1.164873
   4 H :    0.265814
   5 H :    0.270352
   6 C :   -1.159073
   7 Cl:   -0.830813
   8 H :    0.263103
   9 H :    0.275547
  10 H :    0.286844
  11 H :    0.298426
  12 O :   -0.981777
  13 H :    0.370584
  14 O :   -0.924713
  15 H :    0.345571
Sum of atomic charges:    0.0000000

LOEWDIN ATOMIC CHARGES
----------------------
   0 Si:   -0.659392
   1 P :   -0.661044
   2 O :    0.249455
   3 C :    0.903407
   4 H :   -0.356155
   5 H :   -0.347353
   6 C :    0.902750
   7 Cl:    0.996318
   8 H :   -0.343691
   9 H :   -0.355715
  10 H :   -0.349734
  11 H :   -0.349629
  12 O :    1.054171
  13 H :   -0.883416
  14 O :    1.052245
  15 H :   -0.852218

  Mayer bond orders larger than 0.100000
B(  0-Si,  1-P ) :   0.8327 B(  0-Si,  3-C ) :   0.8282 B(  0-Si,  6-C ) :   0.8037
B(  1-P ,  2-O ) :   1.2715 B(  1-P , 12-O ) :   0.5658 B(  1-P , 14-O ) :   0.4990
B(  3-C ,  4-H ) :   0.9556 B(  3-C ,  5-H ) :   0.9383 B(  3-C , 11-H ) :   0.9292
B(  6-C ,  8-H ) :   0.9523 B(  6-C ,  9-H ) :   0.9483 B(  6-C , 10-H ) :   0.9350
B( 12-O , 13-H ) :   0.9174 B( 14-O , 15-H ) :   0.9248

MP2 TOTAL ENERGY:    -1396.222194661 Eh
FINAL SINGLE POINT ENERGY     -1396.222194661468

DIPOLE MOMENT
-------------
                                X             Y             Z
Electronic contribution:      1.65303      -9.30908       0.69456
Nuclear contribution   :     -1.83921      10.20163      -1.43252
                        -----------------------------------------
Total Dipole Moment    :     -0.18618       0.89255      -0.73795
                        -----------------------------------------
Magnitude (a.u.)       :      1.17298
Magnitude (Debye)      :      2.98149

Rotational constants in cm-1:     0.051951     0.030388     0.027664
Rotational constants in MHz :  1557.442149   911.010688   829.334042

                             ****ORCA TERMINATED NORMALLY****
TOTAL RUN TIME: 0 days 2 hours 20 minutes 13 seconds 398 msec
