                         Program Version 5.0.4 -  RELEASE  -
|  1> ! ri-mp2 aug-cc-pvdz aug-cc-pvdz/c tightscf
|  2> %pal nprocs 16 end
|  3> %maxcore 3800
|  4> %base "DZ_P-Si_44_B"
|  5> %scf
|  6> STABPerform true
|  7> STABRestartUHFifUnstable true
|  8> end
|  9>
| 10> *xyz 0 2
| 11> Si         0.000894    0.497492   -0.147728
| 12> O        -1.363371   -0.374617    0.097875
| 13> H        -1.430099   -1.247091   -0.296801
| 14> O         1.282637   -0.504685    0.121057
| 15> H         2.135934   -0.272403   -0.250311
| 16> H        -0.072476    1.589022    0.863852
| 17> *
| 18>
| 19> $new_job
| 20> ! ri-mp2 aug-cc-pvtz aug-cc-pvtz/c tightscf
| 21> %pal nprocs 16 end
| 22> %maxcore 3800
| 23> %base "TZ_P-Si_44_B"
| 24>
| 25> *xyz 0 2
| 26> Si         0.000894    0.497492   -0.147728
| 27> O        -1.363371   -0.374617    0.097875
| 28> H        -1.430099   -1.247091   -0.296801
| 29> O         1.282637   -0.504685    0.121057
| 30> H         2.135934   -0.272403   -0.250311
| 31> H        -0.072476    1.589022    0.863852
| 32> *
| 33>
| 34> $new_job
| 35> ! ri-mp2 aug-cc-pvqz aug-cc-pvqz/c tightscf
| 36> %pal nprocs 16 end
| 37> %maxcore 3800
| 38> %base "QZ_P-Si_44_B"
| 39>
| 40> *xyz 0 2
| 41> Si         0.000894    0.497492   -0.147728
| 42> O        -1.363371   -0.374617    0.097875
| 43> H        -1.430099   -1.247091   -0.296801
| 44> O         1.282637   -0.504685    0.121057
| 45> H         2.135934   -0.272403   -0.250311
| 46> H        -0.072476    1.589022    0.863852
| 47> *
| 48>
| 49>
| 50>
| 51>
| 52>                          ****END OF INPUT****
 Total Charge           Charge          ....    0
 Multiplicity           Mult            ....    2
 Number of Electrons    NEL             ....   33
MP2 TOTAL ENERGY:     -440.962877106 Eh
FINAL SINGLE POINT ENERGY      -440.962877106100
MP2 TOTAL ENERGY:     -441.139607431 Eh
FINAL SINGLE POINT ENERGY      -441.139607430666

CARTESIAN COORDINATES (ANGSTROEM)
---------------------------------
  Si     0.000894    0.497492   -0.147728
  O     -1.363371   -0.374617    0.097875
  H     -1.430099   -1.247091   -0.296801
  O      1.282637   -0.504685    0.121057
  H      2.135934   -0.272403   -0.250311
  H     -0.072476    1.589022    0.863852

 Multiplicity           Mult            ....    2
 Number of Electrons    NEL             ....   33
 Basis Dimension        Dim             ....  382

ORBITAL ENERGIES
----------------
                 SPIN UP ORBITALS
  NO   OCC          E(Eh)            E(eV)
   0   1.0000     -68.816380     -1872.5889
   1   1.0000     -20.567978      -559.6831
   2   1.0000     -20.563349      -559.5572
   3   1.0000      -6.158409      -167.5788
   4   1.0000      -4.270031      -116.1935
   5   1.0000      -4.262485      -115.9881
   6   1.0000      -4.261594      -115.9639
   7   1.0000      -1.365513       -37.1575
   8   1.0000      -1.342004       -36.5178
   9   1.0000      -0.777746       -21.1635
  10   1.0000      -0.711115       -19.3504
  11   1.0000      -0.616952       -16.7881
  12   1.0000      -0.586289       -15.9537
  13   1.0000      -0.553671       -15.0661
  14   1.0000      -0.537737       -14.6326
  15   1.0000      -0.511017       -13.9055
  16   1.0000      -0.330713        -8.9992
  17   0.0000       0.024180         0.6580
  18   0.0000       0.034729         0.9450
  19   0.0000       0.041807         1.1376
  20   0.0000       0.046527         1.2661
  21   0.0000       0.058552         1.5933

                 SPIN DOWN ORBITALS
  NO   OCC          E(Eh)            E(eV)
   0   1.0000     -68.811293     -1872.4505
   1   1.0000     -20.564054      -559.5764
   2   1.0000     -20.559766      -559.4597
   3   1.0000      -6.150005      -167.3501
   4   1.0000      -4.259392      -115.9040
   5   1.0000      -4.258982      -115.8928
   6   1.0000      -4.251333      -115.6846
   7   1.0000      -1.354477       -36.8572
   8   1.0000      -1.331230       -36.2246
   9   1.0000      -0.764471       -20.8023
  10   1.0000      -0.706994       -19.2383
  11   1.0000      -0.587617       -15.9899
  12   1.0000      -0.568934       -15.4815
  13   1.0000      -0.532780       -14.4977
  14   1.0000      -0.518840       -14.1184
  15   1.0000      -0.490067       -13.3354
  16   0.0000       0.020044         0.5454
  17   0.0000       0.035635         0.9697
  18   0.0000       0.041112         1.1187
  19   0.0000       0.042630         1.1600
  20   0.0000       0.058806         1.6002

MULLIKEN ATOMIC CHARGES AND SPIN POPULATIONS
--------------------------------------------
   0 Si:    1.289481    0.866827
   1 O :   -0.894176    0.044307
   2 H :    0.342424   -0.014882
   3 O :   -0.865012    0.032891
   4 H :    0.336603   -0.019766
   5 H :   -0.209320    0.090623
Sum of atomic charges         :    0.0000000

LOEWDIN ATOMIC CHARGES AND SPIN POPULATIONS
-------------------------------------------
   0 Si:    0.209259    0.566085
   1 O :    0.988108    0.118033
   2 H :   -0.925212    0.018395
   3 O :    0.999913    0.124566
   4 H :   -0.942499    0.033521
   5 H :   -0.329569    0.139399

  Mayer bond orders larger than 0.100000
B(  0-Si,  1-O ) :   0.6164 B(  0-Si,  3-O ) :   0.6141 B(  0-Si,  5-H ) :   0.9024
B(  1-O ,  2-H ) :   0.9122 B(  3-O ,  4-H ) :   0.9218

MP2 TOTAL ENERGY:     -441.196980651 Eh
FINAL SINGLE POINT ENERGY      -441.196980651239

DIPOLE MOMENT
-------------
                                X             Y             Z
Electronic contribution:     -0.08876      -0.13049      -0.87525
Nuclear contribution   :      0.62070       0.02501       0.32326
                        -----------------------------------------
Total Dipole Moment    :      0.53194      -0.10548      -0.55199
                        -----------------------------------------
Magnitude (a.u.)       :      0.77381
Magnitude (Debye)      :      1.96687

Rotational constants in cm-1:     0.871829     0.261594     0.209713
Rotational constants in MHz : 26136.771074  7842.380366  6287.043387

                             ****ORCA TERMINATED NORMALLY****
TOTAL RUN TIME: 0 days 0 hours 6 minutes 56 seconds 174 msec
