                         Program Version 5.0.4 -  RELEASE  -
|  1> ! ri-mp2 aug-cc-pvdz aug-cc-pvdz/c tightscf
|  2> %pal nprocs 16 end
|  3> %maxcore 3800
|  4> %base "DZ_Si-F_27_A"
|  5> %scf
|  6> STABPerform true
|  7> STABRestartUHFifUnstable true
|  8> end
|  9>
| 10> *xyz 0 2
| 11> C         1.014237    0.000000    0.341681
| 12> Si        -0.766291    0.000000   -0.406034
| 13> F         1.692121   -1.101029   -0.080579
| 14> H         1.014038    0.000000    1.436631
| 15> F         1.692121    1.101029   -0.080579
| 16> F        -1.490532   -1.277406    0.202677
| 17> F        -1.490531    1.277406    0.202677
| 18> *
| 19>
| 20> $new_job
| 21> ! ri-mp2 aug-cc-pvtz aug-cc-pvtz/c tightscf
| 22> %pal nprocs 16 end
| 23> %maxcore 3800
| 24> %base "TZ_Si-F_27_A"
| 25>
| 26> *xyz 0 2
| 27> C         1.014237    0.000000    0.341681
| 28> Si        -0.766291    0.000000   -0.406034
| 29> F         1.692121   -1.101029   -0.080579
| 30> H         1.014038    0.000000    1.436631
| 31> F         1.692121    1.101029   -0.080579
| 32> F        -1.490532   -1.277406    0.202677
| 33> F        -1.490531    1.277406    0.202677
| 34> *
| 35>
| 36> $new_job
| 37> ! ri-mp2 aug-cc-pvqz aug-cc-pvqz/c tightscf
| 38> %pal nprocs 16 end
| 39> %maxcore 3800
| 40> %base "QZ_Si-F_27_A"
| 41>
| 42> *xyz 0 2
| 43> C         1.014237    0.000000    0.341681
| 44> Si        -0.766291    0.000000   -0.406034
| 45> F         1.692121   -1.101029   -0.080579
| 46> H         1.014038    0.000000    1.436631
| 47> F         1.692121    1.101029   -0.080579
| 48> F        -1.490532   -1.277406    0.202677
| 49> F        -1.490531    1.277406    0.202677
| 50> *
| 51>
| 52>
| 53>
| 54>
| 55>                          ****END OF INPUT****
 Total Charge           Charge          ....    0
 Multiplicity           Mult            ....    2
 Number of Electrons    NEL             ....   57
MP2 TOTAL ENERGY:     -726.286996587 Eh
FINAL SINGLE POINT ENERGY      -726.286996587288
MP2 TOTAL ENERGY:     -726.693586011 Eh
FINAL SINGLE POINT ENERGY      -726.693586011256

CARTESIAN COORDINATES (ANGSTROEM)
---------------------------------
  C      1.014237    0.000000    0.341681
  Si    -0.766291    0.000000   -0.406034
  F      1.692121   -1.101029   -0.080579
  H      1.014038    0.000000    1.436631
  F      1.692121    1.101029   -0.080579
  F     -1.490532   -1.277406    0.202677
  F     -1.490531    1.277406    0.202677

 Multiplicity           Mult            ....    2
 Number of Electrons    NEL             ....   57
 Basis Dimension        Dim             ....  530

ORBITAL ENERGIES
----------------
                 SPIN UP ORBITALS
  NO   OCC          E(Eh)            E(eV)
   0   1.0000     -68.887564     -1874.5259
   1   1.0000     -26.325328      -716.3486
   2   1.0000     -26.325312      -716.3481
   3   1.0000     -26.320815      -716.2258
   4   1.0000     -26.320808      -716.2256
   5   1.0000     -11.415691      -310.6367
   6   1.0000      -6.227473      -169.4582
   7   1.0000      -4.338390      -118.0536
   8   1.0000      -4.331369      -117.8625
   9   1.0000      -4.329756      -117.8186
  10   1.0000      -1.675100       -45.5818
  11   1.0000      -1.635951       -44.5165
  12   1.0000      -1.617895       -44.0252
  13   1.0000      -1.614818       -43.9414
  14   1.0000      -0.980489       -26.6805
  15   1.0000      -0.831193       -22.6179
  16   1.0000      -0.790446       -21.5091
  17   1.0000      -0.771336       -20.9891
  18   1.0000      -0.770847       -20.9758
  19   1.0000      -0.746566       -20.3151
  20   1.0000      -0.721401       -19.6303
  21   1.0000      -0.705864       -19.2075
  22   1.0000      -0.692069       -18.8322
  23   1.0000      -0.684660       -18.6305
  24   1.0000      -0.670337       -18.2408
  25   1.0000      -0.647819       -17.6280
  26   1.0000      -0.623568       -16.9681
  27   1.0000      -0.532177       -14.4813
  28   1.0000      -0.401213       -10.9176
  29   0.0000       0.028276         0.7694
  30   0.0000       0.036019         0.9801
  31   0.0000       0.039926         1.0865
  32   0.0000       0.041273         1.1231
  33   0.0000       0.074373         2.0238

                 SPIN DOWN ORBITALS
  NO   OCC          E(Eh)            E(eV)
   0   1.0000     -68.881501     -1874.3609
   1   1.0000     -26.325589      -716.3557
   2   1.0000     -26.325573      -716.3553
   3   1.0000     -26.317828      -716.1445
   4   1.0000     -26.317818      -716.1442
   5   1.0000     -11.410937      -310.5074
   6   1.0000      -6.217116      -169.1763
   7   1.0000      -4.327397      -117.7545
   8   1.0000      -4.326554      -117.7315
   9   1.0000      -4.318303      -117.5070
  10   1.0000      -1.674965       -45.5781
  11   1.0000      -1.627357       -44.2826
  12   1.0000      -1.616214       -43.9794
  13   1.0000      -1.608606       -43.7724
  14   1.0000      -0.969889       -26.3920
  15   1.0000      -0.813605       -22.1393
  16   1.0000      -0.788485       -21.4558
  17   1.0000      -0.770922       -20.9778
  18   1.0000      -0.762262       -20.7422
  19   1.0000      -0.735326       -20.0092
  20   1.0000      -0.706058       -19.2128
  21   1.0000      -0.699604       -19.0372
  22   1.0000      -0.685299       -18.6479
  23   1.0000      -0.678159       -18.4537
  24   1.0000      -0.667999       -18.1772
  25   1.0000      -0.648035       -17.6339
  26   1.0000      -0.619196       -16.8492
  27   1.0000      -0.497793       -13.5456
  28   0.0000       0.003601         0.0980
  29   0.0000       0.031718         0.8631
  30   0.0000       0.038974         1.0605
  31   0.0000       0.041364         1.1256
  32   0.0000       0.051225         1.3939

MULLIKEN ATOMIC CHARGES AND SPIN POPULATIONS
--------------------------------------------
   0 C :    0.628493    0.111054
   1 Si:    1.709671    0.886117
   2 F :   -0.617004   -0.003929
   3 H :    0.305139    0.011678
   4 F :   -0.617004   -0.003929
   5 F :   -0.704648   -0.000496
   6 F :   -0.704648   -0.000496
Sum of atomic charges         :    0.0000000

LOEWDIN ATOMIC CHARGES AND SPIN POPULATIONS
-------------------------------------------
   0 C :   -1.119683    0.157356
   1 Si:   -0.448568    0.589930
   2 F :    0.684055    0.009921
   3 H :   -0.479038    0.026396
   4 F :    0.684055    0.009921
   5 F :    0.339590    0.103238
   6 F :    0.339590    0.103238

  Mayer bond orders larger than 0.100000
B(  0-C ,  1-Si) :   0.8299 B(  0-C ,  2-F ) :   0.5803 B(  0-C ,  3-H ) :   0.8318
B(  0-C ,  4-F ) :   0.5803 B(  1-Si,  5-F ) :   0.4237 B(  1-Si,  6-F ) :   0.4237

MP2 TOTAL ENERGY:     -726.828913594 Eh
FINAL SINGLE POINT ENERGY      -726.828913593962

DIPOLE MOMENT
-------------
                                X             Y             Z
Electronic contribution:     -0.79885       0.00000      -1.10512
Nuclear contribution   :      0.60555       0.00000       1.11543
                        -----------------------------------------
Total Dipole Moment    :     -0.19330       0.00000       0.01031
                        -----------------------------------------
Magnitude (a.u.)       :      0.19358
Magnitude (Debye)      :      0.49204

Rotational constants in cm-1:     0.142928     0.072352     0.050903
Rotational constants in MHz :  4284.873174  2169.044157  1526.019538

                             ****ORCA TERMINATED NORMALLY****
TOTAL RUN TIME: 0 days 0 hours 23 minutes 14 seconds 433 msec
