                         Program Version 5.0.4 -  RELEASE  -
|  1> ! ri-mp2 aug-cc-pvdz aug-cc-pvdz/c tightscf
|  2> %pal nprocs 16 end
|  3> %maxcore 3800
|  4> %base "DZ_B-F_55_A"
|  5> %scf
|  6> STABPerform true
|  7> STABRestartUHFifUnstable true
|  8> end
|  9>
| 10> *xyz 0 2
| 11> F        -2.973839   -0.358573   -0.022127
| 12> B        -1.705307   -0.449586    0.277689
| 13> O        -0.858695    0.512529   -0.160610
| 14> C         0.492616    0.504061   -0.030280
| 15> O         1.126720    1.500803    0.085699
| 16> O         0.962122   -0.733001   -0.090167
| 17> C         2.385178   -0.852108    0.025841
| 18> H         2.872115   -0.314568   -0.784797
| 19> H         2.592629   -1.915004   -0.037168
| 20> H         2.718398   -0.449710    0.979917
| 21> *
| 22>
| 23> $new_job
| 24> ! ri-mp2 aug-cc-pvtz aug-cc-pvtz/c tightscf
| 25> %pal nprocs 16 end
| 26> %maxcore 3800
| 27> %base "TZ_B-F_55_A"
| 28>
| 29> *xyz 0 2
| 30> F        -2.973839   -0.358573   -0.022127
| 31> B        -1.705307   -0.449586    0.277689
| 32> O        -0.858695    0.512529   -0.160610
| 33> C         0.492616    0.504061   -0.030280
| 34> O         1.126720    1.500803    0.085699
| 35> O         0.962122   -0.733001   -0.090167
| 36> C         2.385178   -0.852108    0.025841
| 37> H         2.872115   -0.314568   -0.784797
| 38> H         2.592629   -1.915004   -0.037168
| 39> H         2.718398   -0.449710    0.979917
| 40> *
| 41>
| 42> $new_job
| 43> ! ri-mp2 aug-cc-pvqz aug-cc-pvqz/c tightscf
| 44> %pal nprocs 16 end
| 45> %maxcore 3800
| 46> %base "QZ_B-F_55_A"
| 47>
| 48> *xyz 0 2
| 49> F        -2.973839   -0.358573   -0.022127
| 50> B        -1.705307   -0.449586    0.277689
| 51> O        -0.858695    0.512529   -0.160610
| 52> C         0.492616    0.504061   -0.030280
| 53> O         1.126720    1.500803    0.085699
| 54> O         0.962122   -0.733001   -0.090167
| 55> C         2.385178   -0.852108    0.025841
| 56> H         2.872115   -0.314568   -0.784797
| 57> H         2.592629   -1.915004   -0.037168
| 58> H         2.718398   -0.449710    0.979917
| 59> *
| 60>
| 61>
| 62>
| 63>
| 64>                          ****END OF INPUT****
 Total Charge           Charge          ....    0
 Multiplicity           Mult            ....    2
 Number of Electrons    NEL             ....   53
MP2 TOTAL ENERGY:     -427.415970876 Eh
FINAL SINGLE POINT ENERGY      -427.415970875655
MP2 TOTAL ENERGY:     -427.784547531 Eh
FINAL SINGLE POINT ENERGY      -427.784547531243

CARTESIAN COORDINATES (ANGSTROEM)
---------------------------------
  F     -2.973839   -0.358573   -0.022127
  B     -1.705307   -0.449586    0.277689
  O     -0.858695    0.512529   -0.160610
  C      0.492616    0.504061   -0.030280
  O      1.126720    1.500803    0.085699
  O      0.962122   -0.733001   -0.090167
  C      2.385178   -0.852108    0.025841
  H      2.872115   -0.314568   -0.784797
  H      2.592629   -1.915004   -0.037168
  H      2.718398   -0.449710    0.979917

 Multiplicity           Mult            ....    2
 Number of Electrons    NEL             ....   53
 Basis Dimension        Dim             ....  698

ORBITAL ENERGIES
----------------
                 SPIN UP ORBITALS
  NO   OCC          E(Eh)            E(eV)
   0   1.0000     -26.326040      -716.3680
   1   1.0000     -20.634514      -561.4937
   2   1.0000     -20.632506      -561.4390
   3   1.0000     -20.565117      -559.6053
   4   1.0000     -11.455862      -311.7298
   5   1.0000     -11.306802      -307.6737
   6   1.0000      -7.730345      -210.3534
   7   1.0000      -1.647810       -44.8392
   8   1.0000      -1.535235       -41.7759
   9   1.0000      -1.427639       -38.8480
  10   1.0000      -1.398474       -38.0544
  11   1.0000      -1.008114       -27.4322
  12   1.0000      -0.894927       -24.3522
  13   1.0000      -0.803475       -21.8637
  14   1.0000      -0.788317       -21.4512
  15   1.0000      -0.738397       -20.0928
  16   1.0000      -0.726449       -19.7677
  17   1.0000      -0.703260       -19.1367
  18   1.0000      -0.699051       -19.0222
  19   1.0000      -0.664314       -18.0769
  20   1.0000      -0.631198       -17.1758
  21   1.0000      -0.599428       -16.3113
  22   1.0000      -0.565487       -15.3877
  23   1.0000      -0.541925       -14.7465
  24   1.0000      -0.500386       -13.6162
  25   1.0000      -0.495338       -13.4788
  26   1.0000      -0.397278       -10.8105
  27   0.0000       0.022020         0.5992
  28   0.0000       0.033391         0.9086
  29   0.0000       0.036532         0.9941
  30   0.0000       0.040258         1.0955
  31   0.0000       0.049261         1.3405

                 SPIN DOWN ORBITALS
  NO   OCC          E(Eh)            E(eV)
   0   1.0000     -26.322653      -716.2758
   1   1.0000     -20.634250      -561.4865
   2   1.0000     -20.629880      -561.3676
   3   1.0000     -20.565133      -559.6057
   4   1.0000     -11.455847      -311.7294
   5   1.0000     -11.306815      -307.6741
   6   1.0000      -7.707535      -209.7327
   7   1.0000      -1.637474       -44.5579
   8   1.0000      -1.532581       -41.7036
   9   1.0000      -1.422415       -38.7059
  10   1.0000      -1.396935       -38.0125
  11   1.0000      -1.007466       -27.4146
  12   1.0000      -0.886900       -24.1338
  13   1.0000      -0.798812       -21.7368
  14   1.0000      -0.773343       -21.0437
  15   1.0000      -0.728234       -19.8163
  16   1.0000      -0.722326       -19.6555
  17   1.0000      -0.699265       -19.0280
  18   1.0000      -0.685429       -18.6515
  19   1.0000      -0.654650       -17.8139
  20   1.0000      -0.629999       -17.1431
  21   1.0000      -0.591946       -16.1077
  22   1.0000      -0.563946       -15.3457
  23   1.0000      -0.540713       -14.7136
  24   1.0000      -0.499987       -13.6053
  25   1.0000      -0.494262       -13.4496
  26   0.0000       0.019303         0.5253
  27   0.0000       0.031222         0.8496
  28   0.0000       0.035017         0.9529
  29   0.0000       0.038309         1.0424
  30   0.0000       0.047871         1.3026

MULLIKEN ATOMIC CHARGES AND SPIN POPULATIONS
--------------------------------------------
   0 F :   -0.754191    0.006186
   1 B :    1.175680    0.995741
   2 O :   -0.853638    0.029709
   3 C :    1.320357   -0.010099
   4 O :   -0.674585    0.002920
   5 O :   -0.609026   -0.020933
   6 C :   -0.605732   -0.002918
   7 H :    0.292605    0.000310
   8 H :    0.421159   -0.000509
   9 H :    0.287371   -0.000406
Sum of atomic charges         :   -0.0000000

LOEWDIN ATOMIC CHARGES AND SPIN POPULATIONS
-------------------------------------------
   0 F :    0.707980    0.146930
   1 B :   -1.054334    0.586459
   2 O :    0.760453    0.159960
   3 C :   -1.552574    0.060661
   4 O :    0.676906    0.003414
   5 O :    0.812553    0.033115
   6 C :    0.591815    0.006452
   7 H :   -0.312567    0.000848
   8 H :   -0.317987    0.000983
   9 H :   -0.312245    0.001177

  Mayer bond orders larger than 0.100000
B(  0-F ,  1-B ) :   0.4367 B(  1-B ,  2-O ) :   0.7650 B(  2-O ,  3-C ) :   0.8887
B(  3-C ,  4-O ) :   1.6250 B(  3-C ,  5-O ) :   1.0567 B(  5-O ,  6-C ) :   0.8180
B(  6-C ,  7-H ) :   0.9216 B(  6-C ,  8-H ) :   0.8308 B(  6-C ,  9-H ) :   0.9140

MP2 TOTAL ENERGY:     -427.903637150 Eh
FINAL SINGLE POINT ENERGY      -427.903637149524

DIPOLE MOMENT
-------------
                                X             Y             Z
Electronic contribution:    -11.10327       0.82381       0.13415
Nuclear contribution   :     11.87950      -1.84426      -0.04420
                        -----------------------------------------
Total Dipole Moment    :      0.77624      -1.02044       0.08995
                        -----------------------------------------
Magnitude (a.u.)       :      1.28528
Magnitude (Debye)      :      3.26692

Rotational constants in cm-1:     0.234082     0.049279     0.041330
Rotational constants in MHz :  7017.613826  1477.350535  1239.043798

                             ****ORCA TERMINATED NORMALLY****
TOTAL RUN TIME: 0 days 1 hours 28 minutes 32 seconds 68 msec
