                         Program Version 5.0.4 -  RELEASE  -
|  1> ! ri-mp2 aug-cc-pvdz aug-cc-pvdz/c tightscf
|  2> %pal nprocs 16 end
|  3> %maxcore 3800
|  4> %base "DZ_P-O_15_A"
|  5> %scf
|  6> STABPerform true
|  7> STABRestartUHFifUnstable true
|  8> end
|  9>
| 10> *xyz 0 2
| 11> O         0.902367   -0.045213   -1.143712
| 12> S         0.016511    0.104677   -0.000012
| 13> O        -0.875523    1.196310   -0.000154
| 14> O         0.902367   -0.044877    1.143722
| 15> F        -0.855317   -1.169400    0.000150
| 16> *
| 17>
| 18> $new_job
| 19> ! ri-mp2 aug-cc-pvtz aug-cc-pvtz/c tightscf
| 20> %pal nprocs 16 end
| 21> %maxcore 3800
| 22> %base "TZ_P-O_15_A"
| 23>
| 24> *xyz 0 2
| 25> O         0.902367   -0.045213   -1.143712
| 26> S         0.016511    0.104677   -0.000012
| 27> O        -0.875523    1.196310   -0.000154
| 28> O         0.902367   -0.044877    1.143722
| 29> F        -0.855317   -1.169400    0.000150
| 30> *
| 31>
| 32> $new_job
| 33> ! ri-mp2 aug-cc-pvqz aug-cc-pvqz/c tightscf
| 34> %pal nprocs 16 end
| 35> %maxcore 3800
| 36> %base "QZ_P-O_15_A"
| 37>
| 38> *xyz 0 2
| 39> O         0.902367   -0.045213   -1.143712
| 40> S         0.016511    0.104677   -0.000012
| 41> O        -0.875523    1.196310   -0.000154
| 42> O         0.902367   -0.044877    1.143722
| 43> F        -0.855317   -1.169400    0.000150
| 44> *
| 45>
| 46>
| 47>
| 48>
| 49>                          ****END OF INPUT****
 Total Charge           Charge          ....    0
 Multiplicity           Mult            ....    2
 Number of Electrons    NEL             ....   49
MP2 TOTAL ENERGY:     -722.335679197 Eh
FINAL SINGLE POINT ENERGY      -722.335679196833
MP2 TOTAL ENERGY:     -722.715633452 Eh
FINAL SINGLE POINT ENERGY      -722.715633452388

CARTESIAN COORDINATES (ANGSTROEM)
---------------------------------
  O      0.902367   -0.045213   -1.143712
  S      0.016511    0.104677   -0.000012
  O     -0.875523    1.196310   -0.000154
  O      0.902367   -0.044877    1.143722
  F     -0.855317   -1.169400    0.000150

 Multiplicity           Mult            ....    2
 Number of Electrons    NEL             ....   49
 Basis Dimension        Dim             ....  404

ORBITAL ENERGIES
----------------
                 SPIN UP ORBITALS
  NO   OCC          E(Eh)            E(eV)
   0   1.0000     -92.308117     -2511.8316
   1   1.0000     -26.402209      -718.4406
   2   1.0000     -20.766435      -565.0834
   3   1.0000     -20.635582      -561.5227
   4   1.0000     -20.624015      -561.2080
   5   1.0000      -9.266626      -252.1577
   6   1.0000      -6.954283      -189.2357
   7   1.0000      -6.953116      -189.2039
   8   1.0000      -6.950716      -189.1386
   9   1.0000      -1.748499       -47.5791
  10   1.0000      -1.619070       -44.0571
  11   1.0000      -1.484408       -40.3928
  12   1.0000      -1.430142       -38.9162
  13   1.0000      -0.966327       -26.2951
  14   1.0000      -0.867501       -23.6059
  15   1.0000      -0.837345       -22.7853
  16   1.0000      -0.813637       -22.1402
  17   1.0000      -0.779509       -21.2115
  18   1.0000      -0.739675       -20.1276
  19   1.0000      -0.702380       -19.1127
  20   1.0000      -0.677802       -18.4439
  21   1.0000      -0.629656       -17.1338
  22   1.0000      -0.601098       -16.3567
  23   1.0000      -0.573093       -15.5947
  24   1.0000      -0.551489       -15.0068
  25   0.0000       0.046507         1.2655
  26   0.0000       0.062005         1.6872
  27   0.0000       0.064192         1.7468
  28   0.0000       0.065200         1.7742
  29   0.0000       0.123583         3.3629

                 SPIN DOWN ORBITALS
  NO   OCC          E(Eh)            E(eV)
   0   1.0000     -92.309249     -2511.8624
   1   1.0000     -26.402804      -718.4568
   2   1.0000     -20.730620      -564.1089
   3   1.0000     -20.621907      -561.1506
   4   1.0000     -20.621447      -561.1381
   5   1.0000      -9.268320      -252.2038
   6   1.0000      -6.956021      -189.2829
   7   1.0000      -6.954823      -189.2503
   8   1.0000      -6.953346      -189.2102
   9   1.0000      -1.745773       -47.5049
  10   1.0000      -1.557059       -42.3697
  11   1.0000      -1.433360       -39.0037
  12   1.0000      -1.390062       -37.8255
  13   1.0000      -0.949997       -25.8507
  14   1.0000      -0.835616       -22.7383
  15   1.0000      -0.806888       -21.9565
  16   1.0000      -0.795973       -21.6595
  17   1.0000      -0.729957       -19.8631
  18   1.0000      -0.691015       -18.8035
  19   1.0000      -0.668071       -18.1791
  20   1.0000      -0.597951       -16.2711
  21   1.0000      -0.572144       -15.5688
  22   1.0000      -0.544334       -14.8121
  23   1.0000      -0.523441       -14.2435
  24   0.0000      -0.072729        -1.9790
  25   0.0000       0.048084         1.3084
  26   0.0000       0.062295         1.6951
  27   0.0000       0.065346         1.7781
  28   0.0000       0.066335         1.8051

MULLIKEN ATOMIC CHARGES AND SPIN POPULATIONS
--------------------------------------------
   0 O :   -0.843860    0.288814
   1 S :    2.789432   -0.271668
   2 O :   -0.897714    0.051997
   3 O :   -0.519349    0.935123
   4 F :   -0.528510   -0.004265
Sum of atomic charges         :    0.0000000

LOEWDIN ATOMIC CHARGES AND SPIN POPULATIONS
-------------------------------------------
   0 O :    0.250739    0.207378
   1 S :   -1.335688    0.109351
   2 O :    0.237365    0.031143
   3 O :    0.410509    0.668115
   4 F :    0.437075   -0.015987

  Mayer bond orders larger than 0.100000
B(  0-O ,  1-S ) :   1.3428 B(  0-O ,  3-O ) :   0.1373 B(  1-S ,  2-O ) :   1.4622
B(  1-S ,  3-O ) :   0.8126 B(  1-S ,  4-F ) :   0.6125

MP2 TOTAL ENERGY:     -722.841323645 Eh
FINAL SINGLE POINT ENERGY      -722.841323645190

DIPOLE MOMENT
-------------
                                X             Y             Z
Electronic contribution:     -0.74548      -1.44810       0.69315
Nuclear contribution   :      0.79789       1.08613      -0.00014
                        -----------------------------------------
Total Dipole Moment    :      0.05242      -0.36197       0.69301
                        -----------------------------------------
Magnitude (a.u.)       :      0.78360
Magnitude (Debye)      :      1.99175

Rotational constants in cm-1:     0.185588     0.178621     0.166089
Rotational constants in MHz :  5563.797097  5354.916420  4979.213907

                             ****ORCA TERMINATED NORMALLY****
TOTAL RUN TIME: 0 days 0 hours 15 minutes 52 seconds 550 msec
