                         Program Version 5.0.4 -  RELEASE  -
|  1> ! ri-mp2 aug-cc-pvdz aug-cc-pvdz/c tightscf
|  2> %pal nprocs 16 end
|  3> %maxcore 3800
|  4> %base "DZ_S-S_4_AB"
|  5> %scf
|  6> STABPerform true
|  7> STABRestartUHFifUnstable true
|  8> end
|  9>
| 10> *xyz 0 1
| 11> S         0.964725    1.803716   -0.313181
| 12> S        -0.964728    1.803715    0.313188
| 13> C        -1.620294    0.351209   -0.538910
| 14> C         1.620290    0.351202    0.538906
| 15> O         0.980403   -0.304401    1.302493
| 16> O        -0.980410   -0.304385   -1.302508
| 17> C         3.011887    0.037600    0.083664
| 18> C         4.265615   -1.657007   -0.377614
| 19> C         3.095958   -0.964017   -1.103090
| 20> H         3.277709   -0.539378   -2.087215
| 21> H         2.205873   -1.589539   -1.146066
| 22> C        -3.011889    0.037600   -0.083664
| 23> C        -3.837591   -0.952226   -0.925012
| 24> C        -3.095950   -0.964020    1.103089
| 25> H        -3.554026    0.956456    0.141641
| 26> C         3.837591   -0.952223    0.925014
| 27> H         5.230776   -1.300562   -0.735699
| 28> H         3.179458   -1.570357    1.532278
| 29> H         4.616423   -0.529370    1.555849
| 30> C        -4.265606   -1.657014    0.377616
| 31> H        -3.179458   -1.570355   -1.532280
| 32> H        -4.273868   -2.744861    0.376622
| 33> H        -5.230768   -1.300575    0.735706
| 34> H        -3.277700   -0.539383    2.087215
| 35> H         3.554021    0.956459   -0.141637
| 36> H        -2.205861   -1.589537    1.146061
| 37> H        -4.616428   -0.529375   -1.555843
| 38> H         4.273882   -2.744854   -0.376622
| 39> *
| 40>
| 41> $new_job
| 42> ! ri-mp2 aug-cc-pvtz aug-cc-pvtz/c tightscf
| 43> %pal nprocs 16 end
| 44> %maxcore 3800
| 45> %base "TZ_S-S_4_AB"
| 46>
| 47> *xyz 0 1
| 48> S         0.964725    1.803716   -0.313181
| 49> S        -0.964728    1.803715    0.313188
| 50> C        -1.620294    0.351209   -0.538910
| 51> C         1.620290    0.351202    0.538906
| 52> O         0.980403   -0.304401    1.302493
| 53> O        -0.980410   -0.304385   -1.302508
| 54> C         3.011887    0.037600    0.083664
| 55> C         4.265615   -1.657007   -0.377614
| 56> C         3.095958   -0.964017   -1.103090
| 57> H         3.277709   -0.539378   -2.087215
| 58> H         2.205873   -1.589539   -1.146066
| 59> C        -3.011889    0.037600   -0.083664
| 60> C        -3.837591   -0.952226   -0.925012
| 61> C        -3.095950   -0.964020    1.103089
| 62> H        -3.554026    0.956456    0.141641
| 63> C         3.837591   -0.952223    0.925014
| 64> H         5.230776   -1.300562   -0.735699
| 65> H         3.179458   -1.570357    1.532278
| 66> H         4.616423   -0.529370    1.555849
| 67> C        -4.265606   -1.657014    0.377616
| 68> H        -3.179458   -1.570355   -1.532280
| 69> H        -4.273868   -2.744861    0.376622
| 70> H        -5.230768   -1.300575    0.735706
| 71> H        -3.277700   -0.539383    2.087215
| 72> H         3.554021    0.956459   -0.141637
| 73> H        -2.205861   -1.589537    1.146061
| 74> H        -4.616428   -0.529375   -1.555843
| 75> H         4.273882   -2.744854   -0.376622
| 76> *
| 77>
| 78> $new_job
| 79> ! ri-mp2 aug-cc-pvqz aug-cc-pvqz/c tightscf
| 80> %pal nprocs 16 end
| 81> %maxcore 3800
| 82> %base "QZ_S-S_4_AB"
| 83>
| 84> *xyz 0 1
| 85> S         0.964725    1.803716   -0.313181
| 86> S        -0.964728    1.803715    0.313188
| 87> C        -1.620294    0.351209   -0.538910
| 88> C         1.620290    0.351202    0.538906
| 89> O         0.980403   -0.304401    1.302493
| 90> O        -0.980410   -0.304385   -1.302508
| 91> C         3.011887    0.037600    0.083664
| 92> C         4.265615   -1.657007   -0.377614
| 93> C         3.095958   -0.964017   -1.103090
| 94> H         3.277709   -0.539378   -2.087215
| 95> H         2.205873   -1.589539   -1.146066
| 96> C        -3.011889    0.037600   -0.083664
| 97> C        -3.837591   -0.952226   -0.925012
| 98> C        -3.095950   -0.964020    1.103089
| 99> H        -3.554026    0.956456    0.141641
|100> C         3.837591   -0.952223    0.925014
|101> H         5.230776   -1.300562   -0.735699
|102> H         3.179458   -1.570357    1.532278
|103> H         4.616423   -0.529370    1.555849
|104> C        -4.265606   -1.657014    0.377616
|105> H        -3.179458   -1.570355   -1.532280
|106> H        -4.273868   -2.744861    0.376622
|107> H        -5.230768   -1.300575    0.735706
|108> H        -3.277700   -0.539383    2.087215
|109> H         3.554021    0.956459   -0.141637
|110> H        -2.205861   -1.589537    1.146061
|111> H        -4.616428   -0.529375   -1.555843
|112> H         4.273882   -2.744854   -0.376622
|113> *
|114>
|115>
|116>
|117>
|118>                          ****END OF INPUT****
 Total Charge           Charge          ....    0
 Multiplicity           Mult            ....    1
 Number of Electrons    NEL             ....  122
MP2 TOTAL ENERGY:    -1333.732199578 Eh
FINAL SINGLE POINT ENERGY     -1333.732199578489
MP2 TOTAL ENERGY:    -1334.308724864 Eh
FINAL SINGLE POINT ENERGY     -1334.308724863749

CARTESIAN COORDINATES (ANGSTROEM)
---------------------------------
  S      0.964725    1.803716   -0.313181
  S     -0.964728    1.803715    0.313188
  C     -1.620294    0.351209   -0.538910
  C      1.620290    0.351202    0.538906
  O      0.980403   -0.304401    1.302493
  O     -0.980410   -0.304385   -1.302508
  C      3.011887    0.037600    0.083664
  C      4.265615   -1.657007   -0.377614
  C      3.095958   -0.964017   -1.103090
  H      3.277709   -0.539378   -2.087215
  H      2.205873   -1.589539   -1.146066
  C     -3.011889    0.037600   -0.083664
  C     -3.837591   -0.952226   -0.925012
  C     -3.095950   -0.964020    1.103089
  H     -3.554026    0.956456    0.141641
  C      3.837591   -0.952223    0.925014
  H      5.230776   -1.300562   -0.735699
  H      3.179458   -1.570357    1.532278
  H      4.616423   -0.529370    1.555849
  C     -4.265606   -1.657014    0.377616
  H     -3.179458   -1.570355   -1.532280
  H     -4.273868   -2.744861    0.376622
  H     -5.230768   -1.300575    0.735706
  H     -3.277700   -0.539383    2.087215
  H      3.554021    0.956459   -0.141637
  H     -2.205861   -1.589537    1.146061
  H     -4.616428   -0.529375   -1.555843
  H      4.273882   -2.744854   -0.376622

 Multiplicity           Mult            ....    1
 Number of Electrons    NEL             ....  122
 Basis Dimension        Dim             .... 1772

ORBITAL ENERGIES
----------------

  NO   OCC          E(Eh)            E(eV)
   0   2.0000     -91.989570     -2503.1634
   1   2.0000     -91.989567     -2503.1634
   2   2.0000     -20.560030      -559.4669
   3   2.0000     -20.560029      -559.4668
   4   2.0000     -11.360991      -309.1483
   5   2.0000     -11.360990      -309.1483
   6   2.0000     -11.248466      -306.0863
   7   2.0000     -11.248466      -306.0863
   8   2.0000     -11.233974      -305.6920
   9   2.0000     -11.233974      -305.6920
  10   2.0000     -11.227847      -305.5252
  11   2.0000     -11.227847      -305.5252
  12   2.0000     -11.226758      -305.4956
  13   2.0000     -11.226758      -305.4956
  14   2.0000      -8.991354      -244.6672
  15   2.0000      -8.991138      -244.6613
  16   2.0000      -6.672725      -181.5741
  17   2.0000      -6.672333      -181.5634
  18   2.0000      -6.671205      -181.5327
  19   2.0000      -6.671093      -181.5297
  20   2.0000      -6.670489      -181.5132
  21   2.0000      -6.670476      -181.5129
  22   2.0000      -1.417689       -38.5773
  23   2.0000      -1.413492       -38.4631
  24   2.0000      -1.152281       -31.3552
  25   2.0000      -1.151939       -31.3459
  26   2.0000      -1.085093       -29.5269
  27   2.0000      -0.996998       -27.1297
  28   2.0000      -0.954265       -25.9669
  29   2.0000      -0.912582       -24.8326
  30   2.0000      -0.911740       -24.8097
  31   2.0000      -0.890574       -24.2337
  32   2.0000      -0.802942       -21.8492
  33   2.0000      -0.773628       -21.0515
  34   2.0000      -0.737990       -20.0817
  35   2.0000      -0.732185       -19.9238
  36   2.0000      -0.684034       -18.6135
  37   2.0000      -0.674814       -18.3626
  38   2.0000      -0.671030       -18.2596
  39   2.0000      -0.664137       -18.0721
  40   2.0000      -0.647125       -17.6092
  41   2.0000      -0.611263       -16.6333
  42   2.0000      -0.588743       -16.0205
  43   2.0000      -0.576855       -15.6970
  44   2.0000      -0.572797       -15.5866
  45   2.0000      -0.566937       -15.4271
  46   2.0000      -0.550600       -14.9826
  47   2.0000      -0.549808       -14.9610
  48   2.0000      -0.512302       -13.9404
  49   2.0000      -0.494372       -13.4525
  50   2.0000      -0.493387       -13.4258
  51   2.0000      -0.484499       -13.1839
  52   2.0000      -0.474260       -12.9053
  53   2.0000      -0.464783       -12.6474
  54   2.0000      -0.453097       -12.3294
  55   2.0000      -0.451510       -12.2862
  56   2.0000      -0.449932       -12.2433
  57   2.0000      -0.426273       -11.5995
  58   2.0000      -0.415284       -11.3004
  59   2.0000      -0.385814       -10.4985
  60   2.0000      -0.362800        -9.8723
  61   0.0000       0.025090         0.6827
  62   0.0000       0.025244         0.6869
  63   0.0000       0.031131         0.8471
  64   0.0000       0.033267         0.9052
  65   0.0000       0.036570         0.9951

MULLIKEN ATOMIC CHARGES
-----------------------
   0 S :   -0.062799
   1 S :   -0.062802
   2 C :    0.381632
   3 C :    0.381612
   4 O :   -0.995691
   5 O :   -0.995688
   6 C :    0.270847
   7 C :   -0.564823
   8 C :   -0.659076
   9 H :    0.358114
  10 H :    0.293692
  11 C :    0.270864
  12 C :   -0.585157
  13 C :   -0.659092
  14 H :    0.386325
  15 C :   -0.585129
  16 H :    0.230048
  17 H :    0.270633
  18 H :    0.349938
  19 C :   -0.564812
  20 H :    0.270632
  21 H :    0.326304
  22 H :    0.230053
  23 H :    0.358124
  24 H :    0.386324
  25 H :    0.293679
  26 H :    0.349941
  27 H :    0.326306
Sum of atomic charges:    0.0000000

LOEWDIN ATOMIC CHARGES
----------------------
   0 S :    0.775958
   1 S :    0.775958
   2 C :   -1.145212
   3 C :   -1.145211
   4 O :    0.661875
   5 O :    0.661874
   6 C :   -0.046789
   7 C :    0.566260
   8 C :    0.537357
   9 H :   -0.245267
  10 H :   -0.268639
  11 C :   -0.046788
  12 C :    0.538279
  13 C :    0.537357
  14 H :   -0.316377
  15 C :    0.538279
  16 H :   -0.266507
  17 H :   -0.293786
  18 H :   -0.244583
  19 C :    0.566259
  20 H :   -0.293787
  21 H :   -0.252568
  22 H :   -0.266507
  23 H :   -0.245267
  24 H :   -0.316377
  25 H :   -0.268639
  26 H :   -0.244583
  27 H :   -0.252568

  Mayer bond orders larger than 0.100000
B(  0-S ,  1-S ) :   1.1211 B(  0-S ,  2-C ) :  -0.1037 B(  0-S ,  3-C ) :   1.0729
B(  0-S ,  6-C ) :  -0.2524 B(  1-S ,  2-C ) :   1.0729 B(  1-S ,  3-C ) :  -0.1037
B(  1-S , 11-C ) :  -0.2524 B(  2-C ,  5-O ) :   1.2021 B(  2-C , 11-C ) :   0.5288
B(  3-C ,  4-O ) :   1.2021 B(  3-C ,  6-C ) :   0.5287 B(  6-C ,  7-C ) :  -0.1616
B(  6-C ,  8-C ) :   0.8809 B(  6-C , 15-C ) :   0.8600 B(  6-C , 24-H ) :   0.8272
B(  7-C ,  8-C ) :   1.0487 B(  7-C , 15-C ) :   1.1078 B(  7-C , 16-H ) :   0.9331
B(  7-C , 27-H ) :   0.8609 B(  8-C ,  9-H ) :   0.8064 B(  8-C , 10-H ) :   0.8704
B( 11-C , 12-C ) :   0.8600 B( 11-C , 13-C ) :   0.8809 B( 11-C , 14-H ) :   0.8272
B( 11-C , 19-C ) :  -0.1616 B( 12-C , 19-C ) :   1.1078 B( 12-C , 20-H ) :   0.9018
B( 12-C , 26-H ) :   0.8469 B( 13-C , 19-C ) :   1.0487 B( 13-C , 23-H ) :   0.8064
B( 13-C , 25-H ) :   0.8704 B( 15-C , 17-H ) :   0.9018 B( 15-C , 18-H ) :   0.8470
B( 19-C , 21-H ) :   0.8609 B( 19-C , 22-H ) :   0.9331

MP2 TOTAL ENERGY:    -1334.493939327 Eh
FINAL SINGLE POINT ENERGY     -1334.493939326607

DIPOLE MOMENT
-------------
                                X             Y             Z
Electronic contribution:     -0.00003      14.62160      -0.00000
Nuclear contribution   :      0.00003     -14.67830       0.00001
                        -----------------------------------------
Total Dipole Moment    :      0.00001      -0.05670       0.00001
                        -----------------------------------------
Magnitude (a.u.)       :      0.05670
Magnitude (Debye)      :      0.14411

Rotational constants in cm-1:     0.033802     0.009643     0.008600
Rotational constants in MHz :  1013.353782   289.089272   257.823734

                             ****ORCA TERMINATED NORMALLY****
TOTAL RUN TIME: 0 days 13 hours 14 minutes 32 seconds 493 msec
