                         Program Version 5.0.4 -  RELEASE  -
|  1> ! ri-mp2 aug-cc-pvdz aug-cc-pvdz/c tightscf
|  2> %pal nprocs 16 end
|  3> %maxcore 3800
|  4> %base "DZ_S-Cl_37_AB"
|  5> %scf
|  6> STABPerform true
|  7> STABRestartUHFifUnstable true
|  8> end
|  9>
| 10> *xyz 0 1
| 11> Cl        -1.664573    0.859065   -0.000739
| 12> S        -0.751248   -0.968556   -0.080387
| 13> O         0.695136   -0.706635    0.517757
| 14> O         1.625231   -0.211268   -0.517396
| 15> C         2.350497    0.827663    0.101057
| 16> H         3.061384    1.147030   -0.660736
| 17> H         2.891597    0.464046    0.976196
| 18> H         1.698811    1.658955    0.374053
| 19> *
| 20>
| 21> $new_job
| 22> ! ri-mp2 aug-cc-pvtz aug-cc-pvtz/c tightscf
| 23> %pal nprocs 16 end
| 24> %maxcore 3800
| 25> %base "TZ_S-Cl_37_AB"
| 26>
| 27> *xyz 0 1
| 28> Cl        -1.664573    0.859065   -0.000739
| 29> S        -0.751248   -0.968556   -0.080387
| 30> O         0.695136   -0.706635    0.517757
| 31> O         1.625231   -0.211268   -0.517396
| 32> C         2.350497    0.827663    0.101057
| 33> H         3.061384    1.147030   -0.660736
| 34> H         2.891597    0.464046    0.976196
| 35> H         1.698811    1.658955    0.374053
| 36> *
| 37>
| 38> $new_job
| 39> ! ri-mp2 aug-cc-pvqz aug-cc-pvqz/c tightscf
| 40> %pal nprocs 16 end
| 41> %maxcore 3800
| 42> %base "QZ_S-Cl_37_AB"
| 43>
| 44> *xyz 0 1
| 45> Cl        -1.664573    0.859065   -0.000739
| 46> S        -0.751248   -0.968556   -0.080387
| 47> O         0.695136   -0.706635    0.517757
| 48> O         1.625231   -0.211268   -0.517396
| 49> C         2.350497    0.827663    0.101057
| 50> H         3.061384    1.147030   -0.660736
| 51> H         2.891597    0.464046    0.976196
| 52> H         1.698811    1.658955    0.374053
| 53> *
| 54>
| 55>
| 56>
| 57>
| 58>                          ****END OF INPUT****
 Total Charge           Charge          ....    0
 Multiplicity           Mult            ....    1
 Number of Electrons    NEL             ....   58
MP2 TOTAL ENERGY:    -1047.091002019 Eh
FINAL SINGLE POINT ENERGY     -1047.091002018526
MP2 TOTAL ENERGY:    -1047.377560052 Eh
FINAL SINGLE POINT ENERGY     -1047.377560051721

CARTESIAN COORDINATES (ANGSTROEM)
---------------------------------
  Cl    -1.664573    0.859065   -0.000739
  S     -0.751248   -0.968556   -0.080387
  O      0.695136   -0.706635    0.517757
  O      1.625231   -0.211268   -0.517396
  C      2.350497    0.827663    0.101057
  H      3.061384    1.147030   -0.660736
  H      2.891597    0.464046    0.976196
  H      1.698811    1.658955    0.374053

 Multiplicity           Mult            ....    1
 Number of Electrons    NEL             ....   58
 Basis Dimension        Dim             ....  546

ORBITAL ENERGIES
----------------

  NO   OCC          E(Eh)            E(eV)
   0   2.0000    -104.857036     -2853.3050
   1   2.0000     -92.064818     -2505.2111
   2   2.0000     -20.676743      -562.6428
   3   2.0000     -20.652072      -561.9715
   4   2.0000     -11.293708      -307.3174
   5   2.0000     -10.581651      -287.9414
   6   2.0000      -9.057259      -246.4605
   7   2.0000      -8.048567      -219.0127
   8   2.0000      -8.046806      -218.9647
   9   2.0000      -8.046517      -218.9569
  10   2.0000      -6.738213      -183.3561
  11   2.0000      -6.736724      -183.3156
  12   2.0000      -6.735031      -183.2695
  13   2.0000      -1.511064       -41.1181
  14   2.0000      -1.300524       -35.3890
  15   2.0000      -1.131331       -30.7851
  16   2.0000      -0.945317       -25.7234
  17   2.0000      -0.895038       -24.3552
  18   2.0000      -0.705472       -19.1969
  19   2.0000      -0.696526       -18.9534
  20   2.0000      -0.690834       -18.7986
  21   2.0000      -0.606885       -16.5142
  22   2.0000      -0.595983       -16.2175
  23   2.0000      -0.555057       -15.1039
  24   2.0000      -0.509126       -13.8540
  25   2.0000      -0.504659       -13.7325
  26   2.0000      -0.474004       -12.8983
  27   2.0000      -0.466266       -12.6878
  28   2.0000      -0.371112       -10.0985
  29   0.0000       0.026498         0.7211
  30   0.0000       0.040913         1.1133
  31   0.0000       0.041374         1.1259
  32   0.0000       0.051902         1.4123
  33   0.0000       0.060118         1.6359

MULLIKEN ATOMIC CHARGES
-----------------------
   0 Cl:   -0.242458
   1 S :    0.644205
   2 O :   -0.529342
   3 O :   -0.335010
   4 C :   -0.471211
   5 H :    0.378213
   6 H :    0.267439
   7 H :    0.288164
Sum of atomic charges:    0.0000000

LOEWDIN ATOMIC CHARGES
----------------------
   0 Cl:    0.395996
   1 S :   -0.038451
   2 O :   -0.206612
   3 O :    0.425693
   4 C :    0.452267
   5 H :   -0.351798
   6 H :   -0.333104
   7 H :   -0.343991

  Mayer bond orders larger than 0.100000
B(  0-Cl,  1-S ) :   0.9906 B(  1-S ,  2-O ) :   0.8949 B(  2-O ,  3-O ) :   0.7697
B(  3-O ,  4-C ) :   0.8058 B(  4-C ,  5-H ) :   0.8519 B(  4-C ,  6-H ) :   0.9300
B(  4-C ,  7-H ) :   0.8961

MP2 TOTAL ENERGY:    -1047.469777644 Eh
FINAL SINGLE POINT ENERGY     -1047.469777643774

DIPOLE MOMENT
-------------
                                X             Y             Z
Electronic contribution:     -9.01211      -1.64707      -0.56700
Nuclear contribution   :      9.59798       1.95557       0.65907
                        -----------------------------------------
Total Dipole Moment    :      0.58588       0.30850       0.09207
                        -----------------------------------------
Magnitude (a.u.)       :      0.66851
Magnitude (Debye)      :      1.69921

Rotational constants in cm-1:     0.193023     0.063960     0.051077
Rotational constants in MHz :  5786.680753  1917.470432  1531.245968

                             ****ORCA TERMINATED NORMALLY****
TOTAL RUN TIME: 0 days 0 hours 14 minutes 14 seconds 293 msec
