                         Program Version 5.0.4 -  RELEASE  -
|  1> ! ri-mp2 aug-cc-pvdz aug-cc-pvdz/c tightscf
|  2> %pal nprocs 16 end
|  3> %maxcore 3800
|  4> %base "DZ_Si-Si_102_AB"
|  5>
|  6> *xyz 0 1
|  7> Si        -2.051203    0.293803   -0.000017
|  8> Si        -0.097283   -0.979344    0.000018
|  9> N         1.319421    0.242653    0.000001
| 10> O         1.041370    1.430825    0.000019
| 11> H        -3.200444   -0.639023   -0.000022
| 12> H        -2.086969    1.126159   -1.216845
| 13> H         0.141218   -1.785048   -1.210110
| 14> H         0.141208   -1.784992    1.210185
| 15> O         2.450486   -0.198860   -0.000022
| 16> H        -2.086999    1.126183    1.216794
| 17> *
| 18>
| 19> $new_job
| 20> ! ri-mp2 aug-cc-pvtz aug-cc-pvtz/c tightscf
| 21> %pal nprocs 16 end
| 22> %maxcore 3800
| 23> %base "TZ_Si-Si_102_AB"
| 24>
| 25> *xyz 0 1
| 26> Si        -2.051203    0.293803   -0.000017
| 27> Si        -0.097283   -0.979344    0.000018
| 28> N         1.319421    0.242653    0.000001
| 29> O         1.041370    1.430825    0.000019
| 30> H        -3.200444   -0.639023   -0.000022
| 31> H        -2.086969    1.126159   -1.216845
| 32> H         0.141218   -1.785048   -1.210110
| 33> H         0.141208   -1.784992    1.210185
| 34> O         2.450486   -0.198860   -0.000022
| 35> H        -2.086999    1.126183    1.216794
| 36> *
| 37>
| 38> $new_job
| 39> ! ri-mp2 aug-cc-pvqz aug-cc-pvqz/c tightscf
| 40> %pal nprocs 16 end
| 41> %maxcore 3800
| 42> %base "QZ_Si-Si_102_AB"
| 43>
| 44> *xyz 0 1
| 45> Si        -2.051203    0.293803   -0.000017
| 46> Si        -0.097283   -0.979344    0.000018
| 47> N         1.319421    0.242653    0.000001
| 48> O         1.041370    1.430825    0.000019
| 49> H        -3.200444   -0.639023   -0.000022
| 50> H        -2.086969    1.126159   -1.216845
| 51> H         0.141218   -1.785048   -1.210110
| 52> H         0.141208   -1.784992    1.210185
| 53> O         2.450486   -0.198860   -0.000022
| 54> H        -2.086999    1.126183    1.216794
| 55> *
| 56>
| 57>
| 58>
| 59>
| 60>                          ****END OF INPUT****
 Total Charge           Charge          ....    0
 Multiplicity           Mult            ....    1
 Number of Electrons    NEL             ....   56
MP2 TOTAL ENERGY:     -785.657792078 Eh
FINAL SINGLE POINT ENERGY      -785.657792077958
MP2 TOTAL ENERGY:     -785.897740424 Eh
FINAL SINGLE POINT ENERGY      -785.897740423675

CARTESIAN COORDINATES (ANGSTROEM)
---------------------------------
  Si    -2.051203    0.293803   -0.000017
  Si    -0.097283   -0.979344    0.000018
  N      1.319421    0.242653    0.000001
  O      1.041370    1.430825    0.000019
  H     -3.200444   -0.639023   -0.000022
  H     -2.086969    1.126159   -1.216845
  H      0.141218   -1.785048   -1.210110
  H      0.141208   -1.784992    1.210185
  O      2.450486   -0.198860   -0.000022
  H     -2.086999    1.126183    1.216794

 Multiplicity           Mult            ....    1
 Number of Electrons    NEL             ....   56
 Basis Dimension        Dim             ....  638

ORBITAL ENERGIES
----------------

  NO   OCC          E(Eh)            E(eV)
   0   2.0000     -68.833369     -1873.0512
   1   2.0000     -68.794559     -1871.9951
   2   2.0000     -20.601154      -560.5859
   3   2.0000     -20.601080      -560.5839
   4   2.0000     -15.815503      -430.3617
   5   2.0000      -6.181888      -168.2177
   6   2.0000      -6.145355      -167.2236
   7   2.0000      -4.288410      -116.6936
   8   2.0000      -4.287279      -116.6628
   9   2.0000      -4.287150      -116.6593
  10   2.0000      -4.251720      -115.6952
  11   2.0000      -4.251366      -115.6856
  12   2.0000      -4.251255      -115.6825
  13   2.0000      -1.598272       -43.4912
  14   2.0000      -1.397305       -38.0226
  15   2.0000      -0.955032       -25.9877
  16   2.0000      -0.805228       -21.9114
  17   2.0000      -0.746442       -20.3117
  18   2.0000      -0.722081       -19.6488
  19   2.0000      -0.707247       -19.2452
  20   2.0000      -0.668004       -18.1773
  21   2.0000      -0.535000       -14.5581
  22   2.0000      -0.517204       -14.0738
  23   2.0000      -0.505191       -13.7469
  24   2.0000      -0.501356       -13.6426
  25   2.0000      -0.465642       -12.6708
  26   2.0000      -0.452651       -12.3173
  27   2.0000      -0.437707       -11.9106
  28   0.0000       0.019921         0.5421
  29   0.0000       0.027005         0.7348
  30   0.0000       0.034515         0.9392
  31   0.0000       0.040302         1.0967
  32   0.0000       0.046299         1.2599

MULLIKEN ATOMIC CHARGES
-----------------------
   0 Si:    0.368144
   1 Si:    0.843145
   2 N :    0.637988
   3 O :   -0.607176
   4 H :   -0.161335
   5 H :   -0.111271
   6 H :   -0.140414
   7 H :   -0.140413
   8 O :   -0.577397
   9 H :   -0.111271
Sum of atomic charges:    0.0000000

LOEWDIN ATOMIC CHARGES
----------------------
   0 Si:    1.044563
   1 Si:    0.562397
   2 N :   -0.982665
   3 O :    0.420010
   4 H :   -0.319127
   5 H :   -0.305289
   6 H :   -0.270141
   7 H :   -0.270141
   8 O :    0.425682
   9 H :   -0.305289

  Mayer bond orders larger than 0.100000
B(  0-Si,  1-Si) :   0.7812 B(  0-Si,  4-H ) :   0.7610 B(  0-Si,  5-H ) :   0.7656
B(  0-Si,  9-H ) :   0.7656 B(  1-Si,  2-N ) :   0.3749 B(  1-Si,  6-H ) :   0.9088
B(  1-Si,  7-H ) :   0.9088 B(  2-N ,  3-O ) :   1.2996 B(  2-N ,  8-O ) :   1.3503
B(  3-O ,  8-O ) :   0.1499

MP2 TOTAL ENERGY:     -785.978818296 Eh
FINAL SINGLE POINT ENERGY      -785.978818295745

DIPOLE MOMENT
-------------
                                X             Y             Z
Electronic contribution:      5.24918       0.92046       0.00001
Nuclear contribution   :     -6.76719      -1.85813       0.00000
                        -----------------------------------------
Total Dipole Moment    :     -1.51801      -0.93767       0.00001
                        -----------------------------------------
Magnitude (a.u.)       :      1.78426
Magnitude (Debye)      :      4.53523

Rotational constants in cm-1:     0.213858     0.060006     0.048458
Rotational constants in MHz :  6411.312746  1798.947164  1452.731494

                             ****ORCA TERMINATED NORMALLY****
TOTAL RUN TIME: 0 days 0 hours 5 minutes 46 seconds 269 msec
