                         Program Version 5.0.4 -  RELEASE  -
|  1> ! ri-mp2 aug-cc-pvdz aug-cc-pvdz/c tightscf
|  2> %pal nprocs 16 end
|  3> %maxcore 3800
|  4> %base "DZ_B-B_25_AB"
|  5> %scf
|  6> STABPerform true
|  7> STABRestartUHFifUnstable true
|  8> end
|  9>
| 10> *xyz 0 1
| 11> B        -0.691494   -0.958828   -0.439585
| 12> B         0.691494   -0.958829    0.439584
| 13> C        -1.938399   -0.088241   -0.055065
| 14> O        -2.809113   -0.374824    0.684070
| 15> F        -1.931929    1.110391   -0.694748
| 16> C         1.938398   -0.088240    0.055065
| 17> O         2.809115   -0.374823   -0.684068
| 18> F         1.931928    1.110392    0.694748
| 19> H         0.819148   -1.671350    1.383037
| 20> H        -0.819146   -1.671347   -1.383040
| 21> *
| 22>
| 23> $new_job
| 24> ! ri-mp2 aug-cc-pvtz aug-cc-pvtz/c tightscf
| 25> %pal nprocs 16 end
| 26> %maxcore 3800
| 27> %base "TZ_B-B_25_AB"
| 28>
| 29> *xyz 0 1
| 30> B        -0.691494   -0.958828   -0.439585
| 31> B         0.691494   -0.958829    0.439584
| 32> C        -1.938399   -0.088241   -0.055065
| 33> O        -2.809113   -0.374824    0.684070
| 34> F        -1.931929    1.110391   -0.694748
| 35> C         1.938398   -0.088240    0.055065
| 36> O         2.809115   -0.374823   -0.684068
| 37> F         1.931928    1.110392    0.694748
| 38> H         0.819148   -1.671350    1.383037
| 39> H        -0.819146   -1.671347   -1.383040
| 40> *
| 41>
| 42> $new_job
| 43> ! ri-mp2 aug-cc-pvqz aug-cc-pvqz/c tightscf
| 44> %pal nprocs 16 end
| 45> %maxcore 3800
| 46> %base "QZ_B-B_25_AB"
| 47>
| 48> *xyz 0 1
| 49> B        -0.691494   -0.958828   -0.439585
| 50> B         0.691494   -0.958829    0.439584
| 51> C        -1.938399   -0.088241   -0.055065
| 52> O        -2.809113   -0.374824    0.684070
| 53> F        -1.931929    1.110391   -0.694748
| 54> C         1.938398   -0.088240    0.055065
| 55> O         2.809115   -0.374823   -0.684068
| 56> F         1.931928    1.110392    0.694748
| 57> H         0.819148   -1.671350    1.383037
| 58> H        -0.819146   -1.671347   -1.383040
| 59> *
| 60>
| 61>
| 62>
| 63>
| 64>                          ****END OF INPUT****
 Total Charge           Charge          ....    0
 Multiplicity           Mult            ....    1
 Number of Electrons    NEL             ....   58
MP2 TOTAL ENERGY:     -476.105003962 Eh
FINAL SINGLE POINT ENERGY      -476.105003961573
MP2 TOTAL ENERGY:     -476.496391593 Eh
FINAL SINGLE POINT ENERGY      -476.496391593293

CARTESIAN COORDINATES (ANGSTROEM)
---------------------------------
  B     -0.691494   -0.958828   -0.439585
  B      0.691494   -0.958829    0.439584
  C     -1.938399   -0.088241   -0.055065
  O     -2.809113   -0.374824    0.684070
  F     -1.931929    1.110391   -0.694748
  C      1.938398   -0.088240    0.055065
  O      2.809115   -0.374823   -0.684068
  F      1.931928    1.110392    0.694748
  H      0.819148   -1.671350    1.383037
  H     -0.819146   -1.671347   -1.383040

 Multiplicity           Mult            ....    1
 Number of Electrons    NEL             ....   58
 Basis Dimension        Dim             ....  732

ORBITAL ENERGIES
----------------

  NO   OCC          E(Eh)            E(eV)
   0   2.0000     -26.342279      -716.8098
   1   2.0000     -26.342279      -716.8098
   2   2.0000     -20.601910      -560.6065
   3   2.0000     -20.601910      -560.6065
   4   2.0000     -11.425601      -310.9064
   5   2.0000     -11.425601      -310.9064
   6   2.0000      -7.666204      -208.6080
   7   2.0000      -7.665222      -208.5813
   8   2.0000      -1.666568       -45.3496
   9   2.0000      -1.666417       -45.3455
  10   2.0000      -1.453259       -39.5452
  11   2.0000      -1.453227       -39.5443
  12   2.0000      -0.934068       -25.4173
  13   2.0000      -0.911747       -24.8099
  14   2.0000      -0.823627       -22.4120
  15   2.0000      -0.796978       -21.6869
  16   2.0000      -0.735834       -20.0231
  17   2.0000      -0.735223       -20.0064
  18   2.0000      -0.733747       -19.9663
  19   2.0000      -0.732764       -19.9395
  20   2.0000      -0.706175       -19.2160
  21   2.0000      -0.657751       -17.8983
  22   2.0000      -0.610160       -16.6033
  23   2.0000      -0.608829       -16.5671
  24   2.0000      -0.583568       -15.8797
  25   2.0000      -0.560984       -15.2651
  26   2.0000      -0.516592       -14.0572
  27   2.0000      -0.495182       -13.4746
  28   2.0000      -0.484689       -13.1891
  29   0.0000       0.012313         0.3351
  30   0.0000       0.020063         0.5459
  31   0.0000       0.021412         0.5827
  32   0.0000       0.025737         0.7003
  33   0.0000       0.040739         1.1086

MULLIKEN ATOMIC CHARGES
-----------------------
   0 B :    0.458298
   1 B :    0.458299
   2 C :    1.044637
   3 O :   -0.701515
   4 F :   -0.629463
   5 C :    1.044638
   6 O :   -0.701516
   7 F :   -0.629463
   8 H :   -0.171957
   9 H :   -0.171957
Sum of atomic charges:    0.0000000

LOEWDIN ATOMIC CHARGES
----------------------
   0 B :   -0.053945
   1 B :   -0.053944
   2 C :   -1.147477
   3 O :    0.650205
   4 F :    0.715994
   5 C :   -1.147476
   6 O :    0.650204
   7 F :    0.715994
   8 H :   -0.164777
   9 H :   -0.164777

  Mayer bond orders larger than 0.100000
B(  0-B ,  1-B ) :   1.0411 B(  0-B ,  2-C ) :   0.9314 B(  0-B ,  9-H ) :   0.9145
B(  1-B ,  5-C ) :   0.9314 B(  1-B ,  8-H ) :   0.9145 B(  2-C ,  3-O ) :   1.6495
B(  2-C ,  4-F ) :   0.5650 B(  5-C ,  6-O ) :   1.6495 B(  5-C ,  7-F ) :   0.5650

MP2 TOTAL ENERGY:     -476.627279923 Eh
FINAL SINGLE POINT ENERGY      -476.627279922576

DIPOLE MOMENT
-------------
                                X             Y             Z
Electronic contribution:     -0.00001       2.80836       0.00000
Nuclear contribution   :      0.00000      -3.70570      -0.00000
                        -----------------------------------------
Total Dipole Moment    :     -0.00000      -0.89734      -0.00000
                        -----------------------------------------
Magnitude (a.u.)       :      0.89734
Magnitude (Debye)      :      2.28086

Rotational constants in cm-1:     0.142473     0.031352     0.029411
Rotational constants in MHz :  4271.225568   939.917424   881.725849

                             ****ORCA TERMINATED NORMALLY****
TOTAL RUN TIME: 0 days 0 hours 29 minutes 40 seconds 823 msec
