                         Program Version 5.0.4 -  RELEASE  -
|  1> ! ri-mp2 aug-cc-pvdz aug-cc-pvdz/c tightscf
|  2> %pal nprocs 16 end
|  3> %maxcore 3800
|  4> %base "DZ_B-Si_46_AB"
|  5> %scf
|  6> STABPerform true
|  7> STABRestartUHFifUnstable true
|  8> end
|  9>
| 10> *xyz 0 1
| 11> Si         0.570722    0.000002   -0.004435
| 12> B        -1.434199    0.000004   -0.020254
| 13> H        -2.053399    1.016605    0.002440
| 14> H        -2.053373   -1.016614    0.002443
| 15> H         1.162097    1.202056   -0.635537
| 16> H         1.162064   -1.201944   -0.635775
| 17> H         0.963494   -0.000148    1.429783
| 18> *
| 19>
| 20> $new_job
| 21> ! ri-mp2 aug-cc-pvtz aug-cc-pvtz/c tightscf
| 22> %pal nprocs 16 end
| 23> %maxcore 3800
| 24> %base "TZ_B-Si_46_AB"
| 25>
| 26> *xyz 0 1
| 27> Si         0.570722    0.000002   -0.004435
| 28> B        -1.434199    0.000004   -0.020254
| 29> H        -2.053399    1.016605    0.002440
| 30> H        -2.053373   -1.016614    0.002443
| 31> H         1.162097    1.202056   -0.635537
| 32> H         1.162064   -1.201944   -0.635775
| 33> H         0.963494   -0.000148    1.429783
| 34> *
| 35>
| 36> $new_job
| 37> ! ri-mp2 aug-cc-pvqz aug-cc-pvqz/c tightscf
| 38> %pal nprocs 16 end
| 39> %maxcore 3800
| 40> %base "QZ_B-Si_46_AB"
| 41>
| 42> *xyz 0 1
| 43> Si         0.570722    0.000002   -0.004435
| 44> B        -1.434199    0.000004   -0.020254
| 45> H        -2.053399    1.016605    0.002440
| 46> H        -2.053373   -1.016614    0.002443
| 47> H         1.162097    1.202056   -0.635537
| 48> H         1.162064   -1.201944   -0.635775
| 49> H         0.963494   -0.000148    1.429783
| 50> *
| 51>
| 52>
| 53>
| 54>
| 55>                          ****END OF INPUT****
 Total Charge           Charge          ....    0
 Multiplicity           Mult            ....    1
 Number of Electrons    NEL             ....   24
MP2 TOTAL ENERGY:     -316.678075358 Eh
FINAL SINGLE POINT ENERGY      -316.678075358067
MP2 TOTAL ENERGY:     -316.741020733 Eh
FINAL SINGLE POINT ENERGY      -316.741020732945

CARTESIAN COORDINATES (ANGSTROEM)
---------------------------------
  Si     0.570722    0.000002   -0.004435
  B     -1.434199    0.000004   -0.020254
  H     -2.053399    1.016605    0.002440
  H     -2.053373   -1.016614    0.002443
  H      1.162097    1.202056   -0.635537
  H      1.162064   -1.201944   -0.635775
  H      0.963494   -0.000148    1.429783

 Multiplicity           Mult            ....    1
 Number of Electrons    NEL             ....   24
 Basis Dimension        Dim             ....  394

ORBITAL ENERGIES
----------------

  NO   OCC          E(Eh)            E(eV)
   0   2.0000     -68.756111     -1870.9489
   1   2.0000      -7.614308      -207.1959
   2   2.0000      -6.107865      -166.2035
   3   2.0000      -4.214229      -114.6750
   4   2.0000      -4.213942      -114.6672
   5   2.0000      -4.213709      -114.6609
   6   2.0000      -0.749556       -20.3965
   7   2.0000      -0.655522       -17.8376
   8   2.0000      -0.514755       -14.0072
   9   2.0000      -0.480571       -13.0770
  10   2.0000      -0.467370       -12.7178
  11   2.0000      -0.419014       -11.4020
  12   0.0000       0.024380         0.6634
  13   0.0000       0.027476         0.7477
  14   0.0000       0.031898         0.8680
  15   0.0000       0.034838         0.9480
  16   0.0000       0.051466         1.4005

MULLIKEN ATOMIC CHARGES
-----------------------
   0 Si:    0.327448
   1 B :    0.394034
   2 H :   -0.186569
   3 H :   -0.186566
   4 H :   -0.112470
   5 H :   -0.112478
   6 H :   -0.123399
Sum of atomic charges:   -0.0000000

LOEWDIN ATOMIC CHARGES
----------------------
   0 Si:    1.142346
   1 B :    0.304467
   2 H :   -0.270414
   3 H :   -0.270414
   4 H :   -0.304699
   5 H :   -0.304698
   6 H :   -0.296589

  Mayer bond orders larger than 0.100000
B(  0-Si,  1-B ) :   0.7518 B(  0-Si,  4-H ) :   0.7425 B(  0-Si,  5-H ) :   0.7425
B(  0-Si,  6-H ) :   0.7626 B(  1-B ,  2-H ) :   0.9411 B(  1-B ,  3-H ) :   0.9411

MP2 TOTAL ENERGY:     -316.761064934 Eh
FINAL SINGLE POINT ENERGY      -316.761064934058

DIPOLE MOMENT
-------------
                                X             Y             Z
Electronic contribution:     -0.48232       0.00006      -0.24184
Nuclear contribution   :      0.30974      -0.00005       0.18460
                        -----------------------------------------
Total Dipole Moment    :     -0.17259       0.00001      -0.05724
                        -----------------------------------------
Magnitude (a.u.)       :      0.18183
Magnitude (Debye)      :      0.46218

Rotational constants in cm-1:     2.140568     0.363158     0.347317
Rotational constants in MHz : 64172.604314 10887.210635 10412.307512

                             ****ORCA TERMINATED NORMALLY****
TOTAL RUN TIME: 0 days 0 hours 3 minutes 49 seconds 803 msec
