                         Program Version 5.0.4 -  RELEASE  -
|  1> ! ri-mp2 aug-cc-pvdz aug-cc-pvdz/c tightscf
|  2> %pal nprocs 16 end
|  3> %maxcore 3800
|  4> %base "DZ_B-Si_32_AB"
|  5>
|  6> *xyz 0 1
|  7> B         2.464779    0.276909   -0.188881
|  8> C         3.931500   -0.243127   -0.310221
|  9> C        -0.701525   -0.413457    0.290364
| 10> C         2.097743    1.709520   -0.683522
| 11> H         2.809019    2.133306   -1.395314
| 12> H         2.142287    2.346516    0.212715
| 13> H         1.082420    1.815568   -1.066660
| 14> H         4.222424   -1.011868    0.406270
| 15> H         4.682172    0.550046   -0.321755
| 16> H         3.978240   -0.720849   -1.300301
| 17> C        -1.229185    0.757432    0.834509
| 18> C        -1.513891   -1.157073   -0.562530
| 19> C        -2.803566   -0.749108   -0.863117
| 20> C        -3.307247    0.416100   -0.312149
| 21> C        -2.516627    1.170001    0.540135
| 22> H        -2.905753    2.080571    0.976942
| 23> H        -0.627460    1.359857    1.505764
| 24> H        -3.417043   -1.344311   -1.527009
| 25> H        -4.314718    0.736039   -0.543646
| 26> H        -1.136987   -2.074744   -0.998047
| 27> Si         1.064313   -0.925456    0.648239
| 28> H         1.234284   -2.331609    0.198435
| 29> H         1.283635   -0.908412    2.120859
| 30> *
| 31>
| 32> $new_job
| 33> ! ri-mp2 aug-cc-pvtz aug-cc-pvtz/c tightscf
| 34> %pal nprocs 16 end
| 35> %maxcore 3800
| 36> %base "TZ_B-Si_32_AB"
| 37>
| 38> *xyz 0 1
| 39> B         2.464779    0.276909   -0.188881
| 40> C         3.931500   -0.243127   -0.310221
| 41> C        -0.701525   -0.413457    0.290364
| 42> C         2.097743    1.709520   -0.683522
| 43> H         2.809019    2.133306   -1.395314
| 44> H         2.142287    2.346516    0.212715
| 45> H         1.082420    1.815568   -1.066660
| 46> H         4.222424   -1.011868    0.406270
| 47> H         4.682172    0.550046   -0.321755
| 48> H         3.978240   -0.720849   -1.300301
| 49> C        -1.229185    0.757432    0.834509
| 50> C        -1.513891   -1.157073   -0.562530
| 51> C        -2.803566   -0.749108   -0.863117
| 52> C        -3.307247    0.416100   -0.312149
| 53> C        -2.516627    1.170001    0.540135
| 54> H        -2.905753    2.080571    0.976942
| 55> H        -0.627460    1.359857    1.505764
| 56> H        -3.417043   -1.344311   -1.527009
| 57> H        -4.314718    0.736039   -0.543646
| 58> H        -1.136987   -2.074744   -0.998047
| 59> Si         1.064313   -0.925456    0.648239
| 60> H         1.234284   -2.331609    0.198435
| 61> H         1.283635   -0.908412    2.120859
| 62> *
| 63>
| 64> $new_job
| 65> ! ri-mp2 aug-cc-pvqz aug-cc-pvqz/c tightscf
| 66> %pal nprocs 16 end
| 67> %maxcore 3800
| 68> %base "QZ_B-Si_32_AB"
| 69>
| 70> *xyz 0 1
| 71> B         2.464779    0.276909   -0.188881
| 72> C         3.931500   -0.243127   -0.310221
| 73> C        -0.701525   -0.413457    0.290364
| 74> C         2.097743    1.709520   -0.683522
| 75> H         2.809019    2.133306   -1.395314
| 76> H         2.142287    2.346516    0.212715
| 77> H         1.082420    1.815568   -1.066660
| 78> H         4.222424   -1.011868    0.406270
| 79> H         4.682172    0.550046   -0.321755
| 80> H         3.978240   -0.720849   -1.300301
| 81> C        -1.229185    0.757432    0.834509
| 82> C        -1.513891   -1.157073   -0.562530
| 83> C        -2.803566   -0.749108   -0.863117
| 84> C        -3.307247    0.416100   -0.312149
| 85> C        -2.516627    1.170001    0.540135
| 86> H        -2.905753    2.080571    0.976942
| 87> H        -0.627460    1.359857    1.505764
| 88> H        -3.417043   -1.344311   -1.527009
| 89> H        -4.314718    0.736039   -0.543646
| 90> H        -1.136987   -2.074744   -0.998047
| 91> Si         1.064313   -0.925456    0.648239
| 92> H         1.234284   -2.331609    0.198435
| 93> H         1.283635   -0.908412    2.120859
| 94> *
| 95>
| 96>
| 97>
| 98>
| 99>                          ****END OF INPUT****
 Total Charge           Charge          ....    0
 Multiplicity           Mult            ....    1
 Number of Electrons    NEL             ....   80
MP2 TOTAL ENERGY:     -625.465078688 Eh
FINAL SINGLE POINT ENERGY      -625.465078688274
MP2 TOTAL ENERGY:     -625.805717181 Eh
FINAL SINGLE POINT ENERGY      -625.805717181358

CARTESIAN COORDINATES (ANGSTROEM)
---------------------------------
  B      2.464779    0.276909   -0.188881
  C      3.931500   -0.243127   -0.310221
  C     -0.701525   -0.413457    0.290364
  C      2.097743    1.709520   -0.683522
  H      2.809019    2.133306   -1.395314
  H      2.142287    2.346516    0.212715
  H      1.082420    1.815568   -1.066660
  H      4.222424   -1.011868    0.406270
  H      4.682172    0.550046   -0.321755
  H      3.978240   -0.720849   -1.300301
  C     -1.229185    0.757432    0.834509
  C     -1.513891   -1.157073   -0.562530
  C     -2.803566   -0.749108   -0.863117
  C     -3.307247    0.416100   -0.312149
  C     -2.516627    1.170001    0.540135
  H     -2.905753    2.080571    0.976942
  H     -0.627460    1.359857    1.505764
  H     -3.417043   -1.344311   -1.527009
  H     -4.314718    0.736039   -0.543646
  H     -1.136987   -2.074744   -0.998047
  Si     1.064313   -0.925456    0.648239
  H      1.234284   -2.331609    0.198435
  H      1.283635   -0.908412    2.120859

 Multiplicity           Mult            ....    1
 Number of Electrons    NEL             ....   80
 Basis Dimension        Dim             .... 1402

ORBITAL ENERGIES
----------------

  NO   OCC          E(Eh)            E(eV)
   0   2.0000     -68.742717     -1870.5844
   1   2.0000     -11.233347      -305.6749
   2   2.0000     -11.233041      -305.6666
   3   2.0000     -11.232446      -305.6504
   4   2.0000     -11.230416      -305.5951
   5   2.0000     -11.229774      -305.5777
   6   2.0000     -11.216486      -305.2161
   7   2.0000     -11.195027      -304.6322
   8   2.0000     -11.192934      -304.5752
   9   2.0000      -7.588017      -206.4804
  10   2.0000      -6.094530      -165.8406
  11   2.0000      -4.200980      -114.3145
  12   2.0000      -4.200643      -114.3053
  13   2.0000      -4.200116      -114.2910
  14   2.0000      -1.152590       -31.3636
  15   2.0000      -1.015958       -27.6456
  16   2.0000      -1.014037       -27.5934
  17   2.0000      -0.971514       -26.4362
  18   2.0000      -0.926384       -25.2082
  19   2.0000      -0.824345       -22.4316
  20   2.0000      -0.823545       -22.4098
  21   2.0000      -0.728224       -19.8160
  22   2.0000      -0.681655       -18.5488
  23   2.0000      -0.626540       -17.0490
  24   2.0000      -0.624226       -16.9861
  25   2.0000      -0.601283       -16.3618
  26   2.0000      -0.586680       -15.9644
  27   2.0000      -0.573934       -15.6175
  28   2.0000      -0.559564       -15.2265
  29   2.0000      -0.550946       -14.9920
  30   2.0000      -0.536964       -14.6115
  31   2.0000      -0.529751       -14.4153
  32   2.0000      -0.505716       -13.7612
  33   2.0000      -0.491446       -13.3729
  34   2.0000      -0.466241       -12.6871
  35   2.0000      -0.461559       -12.5597
  36   2.0000      -0.438549       -11.9335
  37   2.0000      -0.387558       -10.5460
  38   2.0000      -0.338142        -9.2013
  39   2.0000      -0.329612        -8.9692
  40   0.0000       0.020985         0.5710
  41   0.0000       0.026700         0.7265
  42   0.0000       0.028694         0.7808
  43   0.0000       0.032290         0.8787
  44   0.0000       0.037999         1.0340

MULLIKEN ATOMIC CHARGES
-----------------------
   0 B :    0.193542
   1 C :   -1.125079
   2 C :    0.119432
   3 C :   -1.225462
   4 H :    0.347155
   5 H :    0.292937
   6 H :    0.432399
   7 H :    0.345849
   8 H :    0.310590
   9 H :    0.272875
  10 C :   -0.417379
  11 C :   -0.587800
  12 C :   -0.295597
  13 C :   -0.406935
  14 C :   -0.219768
  15 H :    0.240829
  16 H :    0.284319
  17 H :    0.254102
  18 H :    0.361170
  19 H :    0.314498
  20 Si:    1.002632
  21 H :   -0.263984
  22 H :   -0.230325
Sum of atomic charges:    0.0000000

LOEWDIN ATOMIC CHARGES
----------------------
   0 B :   -0.452800
   1 C :    1.005285
   2 C :   -0.110363
   3 C :    1.014702
   4 H :   -0.299353
   5 H :   -0.295037
   6 H :   -0.315203
   7 H :   -0.312184
   8 H :   -0.302612
   9 H :   -0.299402
  10 C :    0.248305
  11 C :    0.256748
  12 C :    0.337094
  13 C :    0.333519
  14 C :    0.339003
  15 H :   -0.319375
  16 H :   -0.328707
  17 H :   -0.320553
  18 H :   -0.320515
  19 H :   -0.342667
  20 Si:    0.902565
  21 H :   -0.208947
  22 H :   -0.209503

  Mayer bond orders larger than 0.100000
B(  0-B ,  1-C ) :   1.0191 B(  0-B ,  3-C ) :   0.9636 B(  0-B , 20-Si) :   0.5884
B(  1-C ,  7-H ) :   0.8855 B(  1-C ,  8-H ) :   0.8754 B(  1-C ,  9-H ) :   0.8913
B(  2-C , 10-C ) :   0.9013 B(  2-C , 11-C ) :   0.8271 B(  2-C , 12-C ) :  -0.3652
B(  2-C , 14-C ) :  -0.3123 B(  2-C , 16-H ) :  -0.1567 B(  2-C , 19-H ) :  -0.1386
B(  2-C , 20-Si) :   0.7429 B(  2-C , 21-H ) :  -0.1067 B(  3-C ,  4-H ) :   0.8777
B(  3-C ,  5-H ) :   0.8845 B(  3-C ,  6-H ) :   0.8216 B( 10-C , 12-C ) :   0.1388
B( 10-C , 14-C ) :   1.2317 B( 10-C , 15-H ) :  -0.1534 B( 10-C , 16-H ) :   0.9569
B( 10-C , 20-Si) :  -0.1889 B( 11-C , 12-C ) :   1.3569 B( 11-C , 13-C ) :   0.1694
B( 11-C , 14-C ) :   0.1340 B( 11-C , 17-H ) :  -0.1620 B( 11-C , 19-H ) :   0.9563
B( 11-C , 20-Si) :  -0.2457 B( 12-C , 13-C ) :   1.1580 B( 12-C , 17-H ) :   1.1279
B( 13-C , 14-C ) :   1.1709 B( 13-C , 17-H ) :  -0.1013 B( 13-C , 18-H ) :   0.9581
B( 14-C , 15-H ) :   1.1330 B( 20-Si, 21-H ) :   0.6257 B( 20-Si, 22-H ) :   0.6618

MP2 TOTAL ENERGY:     -625.911923546 Eh
FINAL SINGLE POINT ENERGY      -625.911923545505

DIPOLE MOMENT
-------------
                                X             Y             Z
Electronic contribution:     -7.03036      -2.17620       1.38372
Nuclear contribution   :      7.08351       2.49905      -1.64249
                        -----------------------------------------
Total Dipole Moment    :      0.05316       0.32285      -0.25877
                        -----------------------------------------
Magnitude (a.u.)       :      0.41716
Magnitude (Debye)      :      1.06033

Rotational constants in cm-1:     0.081107     0.019485     0.017775
Rotational constants in MHz :  2431.514290   584.152125   532.895665

                             ****ORCA TERMINATED NORMALLY****
TOTAL RUN TIME: 0 days 1 hours 7 minutes 55 seconds 792 msec
