                         Program Version 5.0.4 -  RELEASE  -
|  1> ! ri-mp2 aug-cc-pvdz aug-cc-pvdz/c tightscf
|  2> %pal nprocs 16 end
|  3> %maxcore 3800
|  4> %base "DZ_P-F_13_AB"
|  5>
|  6> *xyz 0 1
|  7> F         1.411218   -1.538322   -1.194095
|  8> F         1.411233   -1.538494    1.193857
|  9> S         0.839386    1.002985    0.000068
| 10> O         1.115032    1.651241   -1.254858
| 11> O         1.115047    1.651059    1.255084
| 12> P         2.125677   -0.790958   -0.000070
| 13> C        -1.454362    0.189384   -1.211254
| 14> C        -2.750419   -0.290938   -1.204074
| 15> C        -3.393552   -0.531527   -0.000019
| 16> C        -2.750403   -0.291118    1.204063
| 17> C        -1.454346    0.189202    1.211298
| 18> C        -0.823122    0.427607    0.000036
| 19> H        -0.935327    0.395908   -2.136155
| 20> H        -3.261069   -0.474959   -2.139205
| 21> H        -4.408054   -0.907367   -0.000040
| 22> H        -3.261040   -0.475280    2.139174
| 23> H        -0.935298    0.395587    2.136223
| 24> *
| 25>
| 26> $new_job
| 27> ! ri-mp2 aug-cc-pvtz aug-cc-pvtz/c tightscf
| 28> %pal nprocs 16 end
| 29> %maxcore 3800
| 30> %base "TZ_P-F_13_AB"
| 31>
| 32> *xyz 0 1
| 33> F         1.411218   -1.538322   -1.194095
| 34> F         1.411233   -1.538494    1.193857
| 35> S         0.839386    1.002985    0.000068
| 36> O         1.115032    1.651241   -1.254858
| 37> O         1.115047    1.651059    1.255084
| 38> P         2.125677   -0.790958   -0.000070
| 39> C        -1.454362    0.189384   -1.211254
| 40> C        -2.750419   -0.290938   -1.204074
| 41> C        -3.393552   -0.531527   -0.000019
| 42> C        -2.750403   -0.291118    1.204063
| 43> C        -1.454346    0.189202    1.211298
| 44> C        -0.823122    0.427607    0.000036
| 45> H        -0.935327    0.395908   -2.136155
| 46> H        -3.261069   -0.474959   -2.139205
| 47> H        -4.408054   -0.907367   -0.000040
| 48> H        -3.261040   -0.475280    2.139174
| 49> H        -0.935298    0.395587    2.136223
| 50> *
| 51>
| 52> $new_job
| 53> ! ri-mp2 aug-cc-pvqz aug-cc-pvqz/c tightscf
| 54> %pal nprocs 16 end
| 55> %maxcore 3800
| 56> %base "QZ_P-F_13_AB"
| 57>
| 58> *xyz 0 1
| 59> F         1.411218   -1.538322   -1.194095
| 60> F         1.411233   -1.538494    1.193857
| 61> S         0.839386    1.002985    0.000068
| 62> O         1.115032    1.651241   -1.254858
| 63> O         1.115047    1.651059    1.255084
| 64> P         2.125677   -0.790958   -0.000070
| 65> C        -1.454362    0.189384   -1.211254
| 66> C        -2.750419   -0.290938   -1.204074
| 67> C        -3.393552   -0.531527   -0.000019
| 68> C        -2.750403   -0.291118    1.204063
| 69> C        -1.454346    0.189202    1.211298
| 70> C        -0.823122    0.427607    0.000036
| 71> H        -0.935327    0.395908   -2.136155
| 72> H        -3.261069   -0.474959   -2.139205
| 73> H        -4.408054   -0.907367   -0.000040
| 74> H        -3.261040   -0.475280    2.139174
| 75> H        -0.935298    0.395587    2.136223
| 76> *
| 77>
| 78>
| 79>
| 80>
| 81>                          ****END OF INPUT****
 Total Charge           Charge          ....    0
 Multiplicity           Mult            ....    1
 Number of Electrons    NEL             ....  106
MP2 TOTAL ENERGY:    -1318.901918813 Eh
FINAL SINGLE POINT ENERGY     -1318.901918812729
MP2 TOTAL ENERGY:    -1319.535647417 Eh
FINAL SINGLE POINT ENERGY     -1319.535647417491

CARTESIAN COORDINATES (ANGSTROEM)
---------------------------------
  F      1.411218   -1.538322   -1.194095
  F      1.411233   -1.538494    1.193857
  S      0.839386    1.002985    0.000068
  O      1.115032    1.651241   -1.254858
  O      1.115047    1.651059    1.255084
  P      2.125677   -0.790958   -0.000070
  C     -1.454362    0.189384   -1.211254
  C     -2.750419   -0.290938   -1.204074
  C     -3.393552   -0.531527   -0.000019
  C     -2.750403   -0.291118    1.204063
  C     -1.454346    0.189202    1.211298
  C     -0.823122    0.427607    0.000036
  H     -0.935327    0.395908   -2.136155
  H     -3.261069   -0.474959   -2.139205
  H     -4.408054   -0.907367   -0.000040
  H     -3.261040   -0.475280    2.139174
  H     -0.935298    0.395587    2.136223

 Multiplicity           Mult            ....    1
 Number of Electrons    NEL             ....  106
 Basis Dimension        Dim             .... 1198

ORBITAL ENERGIES
----------------

  NO   OCC          E(Eh)            E(eV)
   0   2.0000     -92.175816     -2508.2315
   1   2.0000     -80.110645     -2179.9215
   2   2.0000     -26.350408      -717.0311
   3   2.0000     -26.350396      -717.0307
   4   2.0000     -20.557871      -559.4081
   5   2.0000     -20.557852      -559.4076
   6   2.0000     -11.282307      -307.0072
   7   2.0000     -11.272088      -306.7291
   8   2.0000     -11.271994      -306.7266
   9   2.0000     -11.268493      -306.6313
  10   2.0000     -11.259301      -306.3812
  11   2.0000     -11.259204      -306.3785
  12   2.0000      -9.148197      -248.9351
  13   2.0000      -7.636571      -207.8017
  14   2.0000      -6.833215      -185.9412
  15   2.0000      -6.832710      -185.9275
  16   2.0000      -6.832512      -185.9221
  17   2.0000      -5.529803      -150.4736
  18   2.0000      -5.528900      -150.4490
  19   2.0000      -5.527314      -150.4059
  20   2.0000      -1.680489       -45.7284
  21   2.0000      -1.645335       -44.7719
  22   2.0000      -1.467581       -39.9349
  23   2.0000      -1.357856       -36.9491
  24   2.0000      -1.195666       -32.5357
  25   2.0000      -1.071915       -29.1683
  26   2.0000      -1.053128       -28.6571
  27   2.0000      -0.958266       -26.0757
  28   2.0000      -0.898906       -24.4605
  29   2.0000      -0.863993       -23.5104
  30   2.0000      -0.825155       -22.4536
  31   2.0000      -0.783043       -21.3077
  32   2.0000      -0.769900       -20.9501
  33   2.0000      -0.757882       -20.6230
  34   2.0000      -0.742561       -20.2061
  35   2.0000      -0.716154       -19.4876
  36   2.0000      -0.694199       -18.8901
  37   2.0000      -0.686887       -18.6912
  38   2.0000      -0.673204       -18.3188
  39   2.0000      -0.672646       -18.3036
  40   2.0000      -0.646289       -17.5864
  41   2.0000      -0.640643       -17.4328
  42   2.0000      -0.623652       -16.9704
  43   2.0000      -0.555553       -15.1174
  44   2.0000      -0.544333       -14.8121
  45   2.0000      -0.529652       -14.4126
  46   2.0000      -0.528827       -14.3901
  47   2.0000      -0.521386       -14.1876
  48   2.0000      -0.495828       -13.4922
  49   2.0000      -0.491983       -13.3875
  50   2.0000      -0.406636       -11.0651
  51   2.0000      -0.374713       -10.1965
  52   2.0000      -0.369261       -10.0481
  53   0.0000       0.018342         0.4991
  54   0.0000       0.026659         0.7254
  55   0.0000       0.030837         0.8391
  56   0.0000       0.038164         1.0385
  57   0.0000       0.043846         1.1931

MULLIKEN ATOMIC CHARGES
-----------------------
   0 F :   -0.702409
   1 F :   -0.702409
   2 S :    2.574602
   3 O :   -1.318827
   4 O :   -1.318826
   5 P :    1.585744
   6 C :   -0.291317
   7 C :   -0.314688
   8 C :   -0.257858
   9 C :   -0.314683
  10 C :   -0.291310
  11 C :   -0.269356
  12 H :    0.402893
  13 H :    0.244229
  14 H :    0.327094
  15 H :    0.244229
  16 H :    0.402893
Sum of atomic charges:    0.0000000

LOEWDIN ATOMIC CHARGES
----------------------
   0 F :    0.266990
   1 F :    0.266990
   2 S :   -0.428043
   3 O :    0.242374
   4 O :    0.242374
   5 P :   -0.228356
   6 C :    0.265941
   7 C :    0.358314
   8 C :    0.351743
   9 C :    0.358313
  10 C :    0.265940
  11 C :   -0.328537
  12 H :   -0.345257
  13 H :   -0.316155
  14 H :   -0.311219
  15 H :   -0.316155
  16 H :   -0.345257

  Mayer bond orders larger than 0.100000
B(  0-F ,  5-P ) :   0.5289 B(  1-F ,  5-P ) :   0.5289 B(  2-S ,  3-O ) :   0.9514
B(  2-S ,  4-O ) :   0.9514 B(  2-S ,  5-P ) :   0.7221 B(  2-S ,  6-C ) :  -0.1356
B(  2-S , 10-C ) :  -0.1356 B(  2-S , 11-C ) :   1.0493 B(  3-O ,  6-C ) :   0.1230
B(  3-O , 11-C ) :  -0.1097 B(  4-O , 10-C ) :   0.1230 B(  4-O , 11-C ) :  -0.1097
B(  6-C ,  7-C ) :   1.3711 B(  6-C ,  9-C ) :   0.1104 B(  6-C , 11-C ) :   0.8917
B(  6-C , 12-H ) :   0.8338 B(  6-C , 13-H ) :  -0.1175 B(  7-C ,  8-C ) :   1.1080
B(  7-C , 10-C ) :   0.1104 B(  7-C , 11-C ) :  -0.2803 B(  7-C , 13-H ) :   1.1214
B(  8-C ,  9-C ) :   1.1080 B(  8-C , 13-H ) :  -0.1095 B(  8-C , 14-H ) :   1.0094
B(  8-C , 15-H ) :  -0.1095 B(  9-C , 10-C ) :   1.3711 B(  9-C , 11-C ) :  -0.2803
B(  9-C , 15-H ) :   1.1214 B( 10-C , 11-C ) :   0.8917 B( 10-C , 15-H ) :  -0.1175
B( 10-C , 16-H ) :   0.8338 B( 11-C , 12-H ) :  -0.1070 B( 11-C , 16-H ) :  -0.1070

MP2 TOTAL ENERGY:    -1319.743259019 Eh
FINAL SINGLE POINT ENERGY     -1319.743259018584

DIPOLE MOMENT
-------------
                                X             Y             Z
Electronic contribution:     15.46747      -3.94502      -0.00037
Nuclear contribution   :    -16.67702       2.60236       0.00028
                        -----------------------------------------
Total Dipole Moment    :     -1.20955      -1.34266      -0.00009
                        -----------------------------------------
Magnitude (a.u.)       :      1.80714
Magnitude (Debye)      :      4.59338

Rotational constants in cm-1:     0.039060     0.018905     0.017988
Rotational constants in MHz :  1170.979481   566.764894   539.265762

                             ****ORCA TERMINATED NORMALLY****
TOTAL RUN TIME: 0 days 0 hours 49 minutes 33 seconds 646 msec
