                         Program Version 5.0.4 -  RELEASE  -
|  1> ! ri-mp2 aug-cc-pvdz aug-cc-pvdz/c tightscf
|  2> %pal nprocs 16 end
|  3> %maxcore 3800
|  4> %base "DZ_P-O_8_AB"
|  5> %scf
|  6> STABPerform true
|  7> STABRestartUHFifUnstable true
|  8> end
|  9>
| 10> *xyz 0 1
| 11> F        -1.993500   -0.086713    0.027640
| 12> O        -0.881537   -0.958719   -0.162444
| 13> P         0.472031   -0.040454   -0.041638
| 14> O         1.586570   -0.924614   -0.293250
| 15> O         0.267902    1.155181   -1.026107
| 16> H        -0.422582    1.787039   -0.792514
| 17> O         0.360888    0.664976    1.364249
| 18> H         0.613044    0.105595    2.108747
| 19> *
| 20>
| 21> $new_job
| 22> ! ri-mp2 aug-cc-pvtz aug-cc-pvtz/c tightscf
| 23> %pal nprocs 16 end
| 24> %maxcore 3800
| 25> %base "TZ_P-O_8_AB"
| 26>
| 27> *xyz 0 1
| 28> F        -1.993500   -0.086713    0.027640
| 29> O        -0.881537   -0.958719   -0.162444
| 30> P         0.472031   -0.040454   -0.041638
| 31> O         1.586570   -0.924614   -0.293250
| 32> O         0.267902    1.155181   -1.026107
| 33> H        -0.422582    1.787039   -0.792514
| 34> O         0.360888    0.664976    1.364249
| 35> H         0.613044    0.105595    2.108747
| 36> *
| 37>
| 38> $new_job
| 39> ! ri-mp2 aug-cc-pvqz aug-cc-pvqz/c tightscf
| 40> %pal nprocs 16 end
| 41> %maxcore 3800
| 42> %base "QZ_P-O_8_AB"
| 43>
| 44> *xyz 0 1
| 45> F        -1.993500   -0.086713    0.027640
| 46> O        -0.881537   -0.958719   -0.162444
| 47> P         0.472031   -0.040454   -0.041638
| 48> O         1.586570   -0.924614   -0.293250
| 49> O         0.267902    1.155181   -1.026107
| 50> H        -0.422582    1.787039   -0.792514
| 51> O         0.360888    0.664976    1.364249
| 52> H         0.613044    0.105595    2.108747
| 53> *
| 54>
| 55>
| 56>
| 57>
| 58>                          ****END OF INPUT****
 Total Charge           Charge          ....    0
 Multiplicity           Mult            ....    1
 Number of Electrons    NEL             ....   58
MP2 TOTAL ENERGY:     -741.922093769 Eh
FINAL SINGLE POINT ENERGY      -741.922093769160
MP2 TOTAL ENERGY:     -742.341924647 Eh
FINAL SINGLE POINT ENERGY      -742.341924647284

CARTESIAN COORDINATES (ANGSTROEM)
---------------------------------
  F     -1.993500   -0.086713    0.027640
  O     -0.881537   -0.958719   -0.162444
  P      0.472031   -0.040454   -0.041638
  O      1.586570   -0.924614   -0.293250
  O      0.267902    1.155181   -1.026107
  H     -0.422582    1.787039   -0.792514
  O      0.360888    0.664976    1.364249
  H      0.613044    0.105595    2.108747

 Multiplicity           Mult            ....    1
 Number of Electrons    NEL             ....   58
 Basis Dimension        Dim             ....  576

ORBITAL ENERGIES
----------------

  NO   OCC          E(Eh)            E(eV)
   0   2.0000     -80.128796     -2180.4154
   1   2.0000     -26.380858      -717.8596
   2   2.0000     -20.713761      -563.6501
   3   2.0000     -20.638157      -561.5928
   4   2.0000     -20.635656      -561.5248
   5   2.0000     -20.538968      -558.8937
   6   2.0000      -7.647668      -208.1036
   7   2.0000      -5.546571      -150.9299
   8   2.0000      -5.546175      -150.9191
   9   2.0000      -5.544958      -150.8860
  10   2.0000      -1.683311       -45.8052
  11   2.0000      -1.485482       -40.4220
  12   2.0000      -1.424573       -38.7646
  13   2.0000      -1.362631       -37.0791
  14   2.0000      -1.318511       -35.8785
  15   2.0000      -0.892343       -24.2819
  16   2.0000      -0.812188       -22.1008
  17   2.0000      -0.800596       -21.7853
  18   2.0000      -0.763307       -20.7706
  19   2.0000      -0.737936       -20.0803
  20   2.0000      -0.688689       -18.7402
  21   2.0000      -0.655076       -17.8255
  22   2.0000      -0.635296       -17.2873
  23   2.0000      -0.614196       -16.7131
  24   2.0000      -0.600216       -16.3327
  25   2.0000      -0.584213       -15.8973
  26   2.0000      -0.564392       -15.3579
  27   2.0000      -0.508912       -13.8482
  28   2.0000      -0.503002       -13.6874
  29   0.0000       0.018295         0.4978
  30   0.0000       0.030289         0.8242
  31   0.0000       0.056569         1.5393
  32   0.0000       0.057877         1.5749
  33   0.0000       0.075466         2.0535

MULLIKEN ATOMIC CHARGES
-----------------------
   0 F :   -0.276911
   1 O :   -0.315520
   2 P :    2.528796
   3 O :   -1.066585
   4 O :   -0.824018
   5 H :    0.387121
   6 O :   -0.810121
   7 H :    0.377237
Sum of atomic charges:   -0.0000000

LOEWDIN ATOMIC CHARGES
----------------------
   0 F :    0.262227
   1 O :    0.074564
   2 P :   -1.075703
   3 O :    0.267589
   4 O :    1.082111
   5 H :   -0.858216
   6 O :    1.088038
   7 H :   -0.840610

  Mayer bond orders larger than 0.100000
B(  0-F ,  1-O ) :   0.7632 B(  1-O ,  2-P ) :   0.5797 B(  2-P ,  3-O ) :   1.4943
B(  2-P ,  4-O ) :   0.7359 B(  2-P ,  6-O ) :   0.7645 B(  4-O ,  5-H ) :   0.8618
B(  6-O ,  7-H ) :   0.8936

MP2 TOTAL ENERGY:     -742.478983081 Eh
FINAL SINGLE POINT ENERGY      -742.478983081452

DIPOLE MOMENT
-------------
                                X             Y             Z
Electronic contribution:     -2.29569      -0.90682      -0.35058
Nuclear contribution   :      1.62541       1.89317       1.24603
                        -----------------------------------------
Total Dipole Moment    :     -0.67027       0.98636       0.89545
                        -----------------------------------------
Magnitude (a.u.)       :      1.49131
Magnitude (Debye)      :      3.79060

Rotational constants in cm-1:     0.148207     0.087679     0.084582
Rotational constants in MHz :  4443.145557  2628.547187  2535.714440

                             ****ORCA TERMINATED NORMALLY****
TOTAL RUN TIME: 0 days 0 hours 17 minutes 54 seconds 47 msec
