                         Program Version 5.0.4 -  RELEASE  -
|  1> ! ri-mp2 aug-cc-pvdz aug-cc-pvdz/c tightscf
|  2> %pal nprocs 16 end
|  3> %maxcore 3800
|  4> %base "DZ_B-S_29_AB"
|  5>
|  6> *xyz 0 1
|  7> C         2.476200   -0.061386   -0.000012
|  8> S         1.018565   -1.134918   -0.000006
|  9> H         2.498682    0.561939   -0.890312
| 10> H         3.345372   -0.714059   -0.000018
| 11> H         2.498692    0.561935    0.890291
| 12> B        -0.368524   -0.005211    0.000002
| 13> S        -2.050857   -0.658164    0.000001
| 14> S        -0.106579    1.780525    0.000011
| 15> H        -1.740201   -1.962215   -0.000010
| 16> H        -1.395185    2.147670    0.000021
| 17> *
| 18>
| 19> $new_job
| 20> ! ri-mp2 aug-cc-pvtz aug-cc-pvtz/c tightscf
| 21> %pal nprocs 16 end
| 22> %maxcore 3800
| 23> %base "TZ_B-S_29_AB"
| 24>
| 25> *xyz 0 1
| 26> C         2.476200   -0.061386   -0.000012
| 27> S         1.018565   -1.134918   -0.000006
| 28> H         2.498682    0.561939   -0.890312
| 29> H         3.345372   -0.714059   -0.000018
| 30> H         2.498692    0.561935    0.890291
| 31> B        -0.368524   -0.005211    0.000002
| 32> S        -2.050857   -0.658164    0.000001
| 33> S        -0.106579    1.780525    0.000011
| 34> H        -1.740201   -1.962215   -0.000010
| 35> H        -1.395185    2.147670    0.000021
| 36> *
| 37>
| 38> $new_job
| 39> ! ri-mp2 aug-cc-pvqz aug-cc-pvqz/c tightscf
| 40> %pal nprocs 16 end
| 41> %maxcore 3800
| 42> %base "QZ_B-S_29_AB"
| 43>
| 44> *xyz 0 1
| 45> C         2.476200   -0.061386   -0.000012
| 46> S         1.018565   -1.134918   -0.000006
| 47> H         2.498682    0.561939   -0.890312
| 48> H         3.345372   -0.714059   -0.000018
| 49> H         2.498692    0.561935    0.890291
| 50> B        -0.368524   -0.005211    0.000002
| 51> S        -2.050857   -0.658164    0.000001
| 52> S        -0.106579    1.780525    0.000011
| 53> H        -1.740201   -1.962215   -0.000010
| 54> H        -1.395185    2.147670    0.000021
| 55> *
| 56>
| 57>
| 58>
| 59>
| 60>                          ****END OF INPUT****
 Total Charge           Charge          ....    0
 Multiplicity           Mult            ....    1
 Number of Electrons    NEL             ....   64
MP2 TOTAL ENERGY:    -1258.829720060 Eh
FINAL SINGLE POINT ENERGY     -1258.829720059826
MP2 TOTAL ENERGY:    -1259.045417421 Eh
FINAL SINGLE POINT ENERGY     -1259.045417421139

CARTESIAN COORDINATES (ANGSTROEM)
---------------------------------
  C      2.476200   -0.061386   -0.000012
  S      1.018565   -1.134918   -0.000006
  H      2.498682    0.561939   -0.890312
  H      3.345372   -0.714059   -0.000018
  H      2.498692    0.561935    0.890291
  B     -0.368524   -0.005211    0.000002
  S     -2.050857   -0.658164    0.000001
  S     -0.106579    1.780525    0.000011
  H     -1.740201   -1.962215   -0.000010
  H     -1.395185    2.147670    0.000021

 Multiplicity           Mult            ....    1
 Number of Electrons    NEL             ....   64
 Basis Dimension        Dim             ....  642

ORBITAL ENERGIES
----------------

  NO   OCC          E(Eh)            E(eV)
   0   2.0000     -91.962431     -2502.4250
   1   2.0000     -91.959066     -2502.3334
   2   2.0000     -91.954961     -2502.2217
   3   2.0000     -11.263199      -306.4872
   4   2.0000      -8.967474      -244.0174
   5   2.0000      -8.964035      -243.9238
   6   2.0000      -8.959453      -243.7991
   7   2.0000      -7.674116      -208.8233
   8   2.0000      -6.649048      -180.9298
   9   2.0000      -6.648101      -180.9040
  10   2.0000      -6.647572      -180.8896
  11   2.0000      -6.645611      -180.8363
  12   2.0000      -6.644688      -180.8112
  13   2.0000      -6.644124      -180.7958
  14   2.0000      -6.641014      -180.7112
  15   2.0000      -6.640102      -180.6864
  16   2.0000      -6.639679      -180.6749
  17   2.0000      -1.062999       -28.9257
  18   2.0000      -1.007356       -27.4116
  19   2.0000      -0.967900       -26.3379
  20   2.0000      -0.877985       -23.8912
  21   2.0000      -0.655754       -17.8440
  22   2.0000      -0.611993       -16.6532
  23   2.0000      -0.602606       -16.3978
  24   2.0000      -0.569187       -15.4884
  25   2.0000      -0.557927       -15.1820
  26   2.0000      -0.480192       -13.0667
  27   2.0000      -0.452103       -12.3024
  28   2.0000      -0.451712       -12.2917
  29   2.0000      -0.436758       -11.8848
  30   2.0000      -0.376573       -10.2471
  31   2.0000      -0.361022        -9.8239
  32   0.0000       0.025410         0.6914
  33   0.0000       0.032788         0.8922
  34   0.0000       0.035457         0.9648
  35   0.0000       0.040093         1.0910
  36   0.0000       0.048115         1.3093

MULLIKEN ATOMIC CHARGES
-----------------------
   0 C :   -0.949785
   1 S :    0.114004
   2 H :    0.274767
   3 H :    0.419408
   4 H :    0.274766
   5 B :   -0.065879
   6 S :   -0.073837
   7 S :   -0.013008
   8 H :    0.036473
   9 H :   -0.016908
Sum of atomic charges:    0.0000000

LOEWDIN ATOMIC CHARGES
----------------------
   0 C :    0.495447
   1 S :    1.291476
   2 H :   -0.382482
   3 H :   -0.383319
   4 H :   -0.382482
   5 B :   -2.187855
   6 S :    1.569738
   7 S :    1.604169
   8 H :   -0.815941
   9 H :   -0.808750

  Mayer bond orders larger than 0.100000
B(  0-C ,  1-S ) :   1.0110 B(  0-C ,  2-H ) :   0.9183 B(  0-C ,  3-H ) :   0.8051
B(  0-C ,  4-H ) :   0.9183 B(  1-S ,  5-B ) :   1.3209 B(  5-B ,  6-S ) :   1.1289
B(  5-B ,  7-S ) :   1.1745 B(  6-S ,  8-H ) :   1.0705 B(  7-S ,  9-H ) :   1.0933

MP2 TOTAL ENERGY:    -1259.115228014 Eh
FINAL SINGLE POINT ENERGY     -1259.115228013808

DIPOLE MOMENT
-------------
                                X             Y             Z
Electronic contribution:     -4.95825      -0.47735       0.00003
Nuclear contribution   :      5.36778       0.58127      -0.00003
                        -----------------------------------------
Total Dipole Moment    :      0.40953       0.10392      -0.00000
                        -----------------------------------------
Magnitude (a.u.)       :      0.42250
Magnitude (Debye)      :      1.07392

Rotational constants in cm-1:     0.100262     0.061563     0.038420
Rotational constants in MHz :  3005.781003  1845.610518  1151.815533

                             ****ORCA TERMINATED NORMALLY****
TOTAL RUN TIME: 0 days 0 hours 6 minutes 42 seconds 622 msec
