                         Program Version 5.0.4 -  RELEASE  -
|  1> ! ri-mp2 aug-cc-pvdz aug-cc-pvdz/c tightscf
|  2> %pal nprocs 16 end
|  3> %maxcore 3800
|  4> %base "DZ_S-F_34_AB"
|  5> %scf
|  6> STABPerform true
|  7> STABRestartUHFifUnstable true
|  8> end
|  9>
| 10> *xyz 0 1
| 11> F         1.760240    0.538497    0.000011
| 12> S         0.737775   -0.685520   -0.000004
| 13> C        -0.752668    0.222124   -0.000004
| 14> O        -0.933524    1.378796   -0.000012
| 15> F        -1.740261   -0.693474    0.000009
| 16> *
| 17>
| 18> $new_job
| 19> ! ri-mp2 aug-cc-pvtz aug-cc-pvtz/c tightscf
| 20> %pal nprocs 16 end
| 21> %maxcore 3800
| 22> %base "TZ_S-F_34_AB"
| 23>
| 24> *xyz 0 1
| 25> F         1.760240    0.538497    0.000011
| 26> S         0.737775   -0.685520   -0.000004
| 27> C        -0.752668    0.222124   -0.000004
| 28> O        -0.933524    1.378796   -0.000012
| 29> F        -1.740261   -0.693474    0.000009
| 30> *
| 31>
| 32> $new_job
| 33> ! ri-mp2 aug-cc-pvqz aug-cc-pvqz/c tightscf
| 34> %pal nprocs 16 end
| 35> %maxcore 3800
| 36> %base "QZ_S-F_34_AB"
| 37>
| 38> *xyz 0 1
| 39> F         1.760240    0.538497    0.000011
| 40> S         0.737775   -0.685520   -0.000004
| 41> C        -0.752668    0.222124   -0.000004
| 42> O        -0.933524    1.378796   -0.000012
| 43> F        -1.740261   -0.693474    0.000009
| 44> *
| 45>
| 46>
| 47>
| 48>
| 49>                          ****END OF INPUT****
 Total Charge           Charge          ....    0
 Multiplicity           Mult            ....    1
 Number of Electrons    NEL             ....   48
MP2 TOTAL ENERGY:     -710.010561101 Eh
FINAL SINGLE POINT ENERGY      -710.010561100513
MP2 TOTAL ENERGY:     -710.322300434 Eh
FINAL SINGLE POINT ENERGY      -710.322300434239

CARTESIAN COORDINATES (ANGSTROEM)
---------------------------------
  F      1.760240    0.538497    0.000011
  S      0.737775   -0.685520   -0.000004
  C     -0.752668    0.222124   -0.000004
  O     -0.933524    1.378796   -0.000012
  F     -1.740261   -0.693474    0.000009

 Multiplicity           Mult            ....    1
 Number of Electrons    NEL             ....   48
 Basis Dimension        Dim             ....  404

ORBITAL ENERGIES
----------------

  NO   OCC          E(Eh)            E(eV)
   0   2.0000     -92.093836     -2506.0007
   1   2.0000     -26.367683      -717.5011
   2   2.0000     -26.355894      -717.1803
   3   2.0000     -20.610993      -560.8536
   4   2.0000     -11.471784      -312.1631
   5   2.0000      -9.088222      -247.3031
   6   2.0000      -6.769611      -184.2105
   7   2.0000      -6.767867      -184.1630
   8   2.0000      -6.766499      -184.1258
   9   2.0000      -1.695248       -46.1301
  10   2.0000      -1.660593       -45.1870
  11   2.0000      -1.470150       -40.0048
  12   2.0000      -1.075590       -29.2683
  13   2.0000      -0.887196       -24.1418
  14   2.0000      -0.802212       -21.8293
  15   2.0000      -0.763285       -20.7700
  16   2.0000      -0.756664       -20.5899
  17   2.0000      -0.735333       -20.0094
  18   2.0000      -0.719620       -19.5819
  19   2.0000      -0.682938       -18.5837
  20   2.0000      -0.609450       -16.5840
  21   2.0000      -0.589862       -16.0510
  22   2.0000      -0.504939       -13.7401
  23   2.0000      -0.433457       -11.7950
  24   0.0000       0.039422         1.0727
  25   0.0000       0.047497         1.2925
  26   0.0000       0.058441         1.5903
  27   0.0000       0.068117         1.8536
  28   0.0000       0.085566         2.3284

MULLIKEN ATOMIC CHARGES
-----------------------
   0 F :   -0.566221
   1 S :    0.784454
   2 C :    0.753232
   3 O :   -0.505108
   4 F :   -0.466356
Sum of atomic charges:    0.0000000

LOEWDIN ATOMIC CHARGES
----------------------
   0 F :    0.096633
   1 S :    0.598114
   2 C :   -1.851773
   3 O :    0.529781
   4 F :    0.627245

  Mayer bond orders larger than 0.100000
B(  0-F ,  1-S ) :   0.6808 B(  1-S ,  2-C ) :   1.0848 B(  2-C ,  3-O ) :   1.8578
B(  2-C ,  4-F ) :   0.7265

MP2 TOTAL ENERGY:     -710.427193115 Eh
FINAL SINGLE POINT ENERGY      -710.427193114997

DIPOLE MOMENT
-------------
                                X             Y             Z
Electronic contribution:      0.36786      -1.03990       0.00002
Nuclear contribution   :     -0.05259       0.18012      -0.00002
                        -----------------------------------------
Total Dipole Moment    :      0.31527      -0.85978      -0.00000
                        -----------------------------------------
Magnitude (a.u.)       :      0.91576
Magnitude (Debye)      :      2.32768

Rotational constants in cm-1:     0.277852     0.109008     0.078292
Rotational constants in MHz :  8329.805307  3267.992440  2347.147395

                             ****ORCA TERMINATED NORMALLY****
TOTAL RUN TIME: 0 days 0 hours 6 minutes 18 seconds 838 msec
