                         Program Version 5.0.4 -  RELEASE  -
|  1> ! ri-mp2 aug-cc-pvdz aug-cc-pvdz/c tightscf
|  2> %pal nprocs 16 end
|  3> %maxcore 3800
|  4> %base "DZ_Si-Cl_57_AB"
|  5> %scf
|  6> STABPerform true
|  7> STABRestartUHFifUnstable true
|  8> end
|  9>
| 10> *xyz 0 1
| 11> Si        -0.730983    0.007751   -0.000001
| 12> C         1.025712    0.770739    0.000003
| 13> Cl        -1.043081   -1.139039    1.660739
| 14> Cl        -1.043069   -1.139046   -1.660737
| 15> Cl        -2.066594    1.518414   -0.000008
| 16> N         2.139314    0.006656    0.000005
| 17> C         2.151211   -1.436719    0.000002
| 18> O         1.046371    1.989217    0.000003
| 19> H         2.667223   -1.811699   -0.886486
| 20> H         1.146652   -1.845165    0.000018
| 21> H         2.667250   -1.811699    0.886474
| 22> C         3.438977    0.647151    0.000003
| 23> H         3.300061    1.722963   -0.000002
| 24> H         4.003836    0.352070   -0.886689
| 25> H         4.003835    0.352079    0.886699
| 26> *
| 27>
| 28> $new_job
| 29> ! ri-mp2 aug-cc-pvtz aug-cc-pvtz/c tightscf
| 30> %pal nprocs 16 end
| 31> %maxcore 3800
| 32> %base "TZ_Si-Cl_57_AB"
| 33>
| 34> *xyz 0 1
| 35> Si        -0.730983    0.007751   -0.000001
| 36> C         1.025712    0.770739    0.000003
| 37> Cl        -1.043081   -1.139039    1.660739
| 38> Cl        -1.043069   -1.139046   -1.660737
| 39> Cl        -2.066594    1.518414   -0.000008
| 40> N         2.139314    0.006656    0.000005
| 41> C         2.151211   -1.436719    0.000002
| 42> O         1.046371    1.989217    0.000003
| 43> H         2.667223   -1.811699   -0.886486
| 44> H         1.146652   -1.845165    0.000018
| 45> H         2.667250   -1.811699    0.886474
| 46> C         3.438977    0.647151    0.000003
| 47> H         3.300061    1.722963   -0.000002
| 48> H         4.003836    0.352070   -0.886689
| 49> H         4.003835    0.352079    0.886699
| 50> *
| 51>
| 52> $new_job
| 53> ! ri-mp2 aug-cc-pvqz aug-cc-pvqz/c tightscf
| 54> %pal nprocs 16 end
| 55> %maxcore 3800
| 56> %base "QZ_Si-Cl_57_AB"
| 57>
| 58> *xyz 0 1
| 59> Si        -0.730983    0.007751   -0.000001
| 60> C         1.025712    0.770739    0.000003
| 61> Cl        -1.043081   -1.139039    1.660739
| 62> Cl        -1.043069   -1.139046   -1.660737
| 63> Cl        -2.066594    1.518414   -0.000008
| 64> N         2.139314    0.006656    0.000005
| 65> C         2.151211   -1.436719    0.000002
| 66> O         1.046371    1.989217    0.000003
| 67> H         2.667223   -1.811699   -0.886486
| 68> H         1.146652   -1.845165    0.000018
| 69> H         2.667250   -1.811699    0.886474
| 70> C         3.438977    0.647151    0.000003
| 71> H         3.300061    1.722963   -0.000002
| 72> H         4.003836    0.352070   -0.886689
| 73> H         4.003835    0.352079    0.886699
| 74> *
| 75>
| 76>
| 77>
| 78>
| 79>                          ****END OF INPUT****
 Total Charge           Charge          ....    0
 Multiplicity           Mult            ....    1
 Number of Electrons    NEL             ....  104
MP2 TOTAL ENERGY:    -1915.383702063 Eh
FINAL SINGLE POINT ENERGY     -1915.383702062754
MP2 TOTAL ENERGY:    -1915.825770358 Eh
FINAL SINGLE POINT ENERGY     -1915.825770358132

CARTESIAN COORDINATES (ANGSTROEM)
---------------------------------
  Si    -0.730983    0.007751   -0.000001
  C      1.025712    0.770739    0.000003
  Cl    -1.043081   -1.139039    1.660739
  Cl    -1.043069   -1.139046   -1.660737
  Cl    -2.066594    1.518414   -0.000008
  N      2.139314    0.006656    0.000005
  C      2.151211   -1.436719    0.000002
  O      1.046371    1.989217    0.000003
  H      2.667223   -1.811699   -0.886486
  H      1.146652   -1.845165    0.000018
  H      2.667250   -1.811699    0.886474
  C      3.438977    0.647151    0.000003
  H      3.300061    1.722963   -0.000002
  H      4.003836    0.352070   -0.886689
  H      4.003835    0.352079    0.886699

 Multiplicity           Mult            ....    1
 Number of Electrons    NEL             ....  104
 Basis Dimension        Dim             .... 1012

ORBITAL ENERGIES
----------------

  NO   OCC          E(Eh)            E(eV)
   0   2.0000    -104.853696     -2853.2141
   1   2.0000    -104.853695     -2853.2141
   2   2.0000    -104.844723     -2852.9700
   3   2.0000     -68.908199     -1875.0874
   4   2.0000     -20.536836      -558.8357
   5   2.0000     -15.607205      -424.6936
   6   2.0000     -11.356246      -309.0192
   7   2.0000     -11.282409      -307.0099
   8   2.0000     -11.265576      -306.5519
   9   2.0000     -10.581296      -287.9317
  10   2.0000     -10.581290      -287.9315
  11   2.0000     -10.572336      -287.6879
  12   2.0000      -8.048050      -218.9986
  13   2.0000      -8.048049      -218.9985
  14   2.0000      -8.046860      -218.9662
  15   2.0000      -8.046859      -218.9662
  16   2.0000      -8.046854      -218.9660
  17   2.0000      -8.046853      -218.9660
  18   2.0000      -8.039139      -218.7561
  19   2.0000      -8.037876      -218.7217
  20   2.0000      -8.037846      -218.7209
  21   2.0000      -6.244015      -169.9083
  22   2.0000      -4.351430      -118.4084
  23   2.0000      -4.351340      -118.4060
  24   2.0000      -4.349982      -118.3690
  25   2.0000      -1.401319       -38.1318
  26   2.0000      -1.269892       -34.5555
  27   2.0000      -1.152917       -31.3725
  28   2.0000      -1.111890       -30.2561
  29   2.0000      -1.106188       -30.1009
  30   2.0000      -0.995385       -27.0858
  31   2.0000      -0.963060       -26.2062
  32   2.0000      -0.794018       -21.6063
  33   2.0000      -0.734445       -19.9853
  34   2.0000      -0.674771       -18.3615
  35   2.0000      -0.674406       -18.3515
  36   2.0000      -0.663455       -18.0535
  37   2.0000      -0.591178       -16.0868
  38   2.0000      -0.585811       -15.9407
  39   2.0000      -0.584482       -15.9046
  40   2.0000      -0.576170       -15.6784
  41   2.0000      -0.571990       -15.5647
  42   2.0000      -0.550350       -14.9758
  43   2.0000      -0.547361       -14.8945
  44   2.0000      -0.515222       -14.0199
  45   2.0000      -0.507808       -13.8182
  46   2.0000      -0.499383       -13.5889
  47   2.0000      -0.481646       -13.1063
  48   2.0000      -0.474668       -12.9164
  49   2.0000      -0.465502       -12.6670
  50   2.0000      -0.414656       -11.2834
  51   2.0000      -0.390638       -10.6298
  52   0.0000       0.020730         0.5641
  53   0.0000       0.032131         0.8743
  54   0.0000       0.032741         0.8909
  55   0.0000       0.038121         1.0373
  56   0.0000       0.049291         1.3413

MULLIKEN ATOMIC CHARGES
-----------------------
   0 Si:    2.319294
   1 C :    0.899501
   2 Cl:   -0.645972
   3 Cl:   -0.645972
   4 Cl:   -0.733627
   5 N :   -0.479986
   6 C :   -0.858399
   7 O :   -0.902889
   8 H :    0.327757
   9 H :    0.356109
  10 H :    0.327756
  11 C :   -0.876745
  12 H :    0.323872
  13 H :    0.294649
  14 H :    0.294652
Sum of atomic charges:   -0.0000000

LOEWDIN ATOMIC CHARGES
----------------------
   0 Si:   -2.372631
   1 C :   -0.955828
   2 Cl:    0.935239
   3 Cl:    0.935240
   4 Cl:    0.937736
   5 N :    0.328514
   6 C :    0.705733
   7 O :    0.620981
   8 H :   -0.269539
   9 H :   -0.449394
  10 H :   -0.269540
  11 C :    0.760199
  12 H :   -0.360083
  13 H :   -0.273313
  14 H :   -0.273313

  Mayer bond orders larger than 0.100000
B(  0-Si,  1-C ) :   0.8455 B(  0-Si,  2-Cl) :   0.5278 B(  0-Si,  3-Cl) :   0.5278
B(  0-Si,  4-Cl) :   0.3033 B(  1-C ,  5-N ) :   1.3222 B(  1-C ,  7-O ) :   1.2107
B(  5-N ,  6-C ) :   0.8313 B(  5-N ,  7-O ) :   0.1866 B(  5-N , 11-C ) :   0.8057
B(  6-C ,  8-H ) :   0.9288 B(  6-C ,  9-H ) :   0.9086 B(  6-C , 10-H ) :   0.9288
B( 11-C , 12-H ) :   0.8955 B( 11-C , 13-H ) :   0.9645 B( 11-C , 14-H ) :   0.9645

MP2 TOTAL ENERGY:    -1915.971465228 Eh
FINAL SINGLE POINT ENERGY     -1915.971465227829

DIPOLE MOMENT
-------------
                                X             Y             Z
Electronic contribution:    -21.46075       0.61815      -0.00002
Nuclear contribution   :     22.51117      -1.81926       0.00002
                        -----------------------------------------
Total Dipole Moment    :      1.05041      -1.20111      -0.00000
                        -----------------------------------------
Magnitude (a.u.)       :      1.59563
Magnitude (Debye)      :      4.05576

Rotational constants in cm-1:     0.034687     0.021326     0.019178
Rotational constants in MHz :  1039.898367   639.347776   574.956710

                             ****ORCA TERMINATED NORMALLY****
TOTAL RUN TIME: 0 days 2 hours 32 minutes 13 seconds 848 msec
