                         Program Version 5.0.4 -  RELEASE  -
|  1> ! ri-mp2 aug-cc-pvdz aug-cc-pvdz/c tightscf
|  2> %pal nprocs 16 end
|  3> %maxcore 3800
|  4> %base "DZ_S-F_88_AB"
|  5>
|  6> *xyz 0 1
|  7> C        -1.053668    1.197353    0.260728
|  8> C        -2.374887    1.198316   -0.149808
|  9> C        -3.038062   -0.000005   -0.354858
| 10> C        -2.374881   -1.198321   -0.149801
| 11> C        -1.053662   -1.197349    0.260735
| 12> C         1.057845    0.000009    0.901782
| 13> C        -0.384296    0.000004    0.479193
| 14> S         2.003569   -0.000003   -0.624264
| 15> F         3.508900   -0.000002    0.000092
| 16> H         1.303586   -0.889270    1.479677
| 17> H         1.303584    0.889299    1.479662
| 18> H        -0.533720    2.134055    0.417454
| 19> H        -2.887884    2.137093   -0.310080
| 20> H        -4.071525   -0.000009   -0.674529
| 21> H        -2.887873   -2.137102   -0.310068
| 22> H        -0.533708   -2.134048    0.417467
| 23> *
| 24>
| 25> $new_job
| 26> ! ri-mp2 aug-cc-pvtz aug-cc-pvtz/c tightscf
| 27> %pal nprocs 16 end
| 28> %maxcore 3800
| 29> %base "TZ_S-F_88_AB"
| 30>
| 31> *xyz 0 1
| 32> C        -1.053668    1.197353    0.260728
| 33> C        -2.374887    1.198316   -0.149808
| 34> C        -3.038062   -0.000005   -0.354858
| 35> C        -2.374881   -1.198321   -0.149801
| 36> C        -1.053662   -1.197349    0.260735
| 37> C         1.057845    0.000009    0.901782
| 38> C        -0.384296    0.000004    0.479193
| 39> S         2.003569   -0.000003   -0.624264
| 40> F         3.508900   -0.000002    0.000092
| 41> H         1.303586   -0.889270    1.479677
| 42> H         1.303584    0.889299    1.479662
| 43> H        -0.533720    2.134055    0.417454
| 44> H        -2.887884    2.137093   -0.310080
| 45> H        -4.071525   -0.000009   -0.674529
| 46> H        -2.887873   -2.137102   -0.310068
| 47> H        -0.533708   -2.134048    0.417467
| 48> *
| 49>
| 50> $new_job
| 51> ! ri-mp2 aug-cc-pvqz aug-cc-pvqz/c tightscf
| 52> %pal nprocs 16 end
| 53> %maxcore 3800
| 54> %base "QZ_S-F_88_AB"
| 55>
| 56> *xyz 0 1
| 57> C        -1.053668    1.197353    0.260728
| 58> C        -2.374887    1.198316   -0.149808
| 59> C        -3.038062   -0.000005   -0.354858
| 60> C        -2.374881   -1.198321   -0.149801
| 61> C        -1.053662   -1.197349    0.260735
| 62> C         1.057845    0.000009    0.901782
| 63> C        -0.384296    0.000004    0.479193
| 64> S         2.003569   -0.000003   -0.624264
| 65> F         3.508900   -0.000002    0.000092
| 66> H         1.303586   -0.889270    1.479677
| 67> H         1.303584    0.889299    1.479662
| 68> H        -0.533720    2.134055    0.417454
| 69> H        -2.887884    2.137093   -0.310080
| 70> H        -4.071525   -0.000009   -0.674529
| 71> H        -2.887873   -2.137102   -0.310068
| 72> H        -0.533708   -2.134048    0.417467
| 73> *
| 74>
| 75>
| 76>
| 77>
| 78>                          ****END OF INPUT****
 Total Charge           Charge          ....    0
 Multiplicity           Mult            ....    1
 Number of Electrons    NEL             ....   74
MP2 TOTAL ENERGY:     -767.434484837 Eh
FINAL SINGLE POINT ENERGY      -767.434484836940
MP2 TOTAL ENERGY:     -767.809579513 Eh
FINAL SINGLE POINT ENERGY      -767.809579512897

CARTESIAN COORDINATES (ANGSTROEM)
---------------------------------
  C     -1.053668    1.197353    0.260728
  C     -2.374887    1.198316   -0.149808
  C     -3.038062   -0.000005   -0.354858
  C     -2.374881   -1.198321   -0.149801
  C     -1.053662   -1.197349    0.260735
  C      1.057845    0.000009    0.901782
  C     -0.384296    0.000004    0.479193
  S      2.003569   -0.000003   -0.624264
  F      3.508900   -0.000002    0.000092
  H      1.303586   -0.889270    1.479677
  H      1.303584    0.889299    1.479662
  H     -0.533720    2.134055    0.417454
  H     -2.887884    2.137093   -0.310080
  H     -4.071525   -0.000009   -0.674529
  H     -2.887873   -2.137102   -0.310068
  H     -0.533708   -2.134048    0.417467

 Multiplicity           Mult            ....    1
 Number of Electrons    NEL             ....   74
 Basis Dimension        Dim             .... 1046

ORBITAL ENERGIES
----------------

  NO   OCC          E(Eh)            E(eV)
   0   2.0000     -92.021960     -2504.0448
   1   2.0000     -26.296829      -715.5731
   2   2.0000     -11.274830      -306.8037
   3   2.0000     -11.257825      -306.3410
   4   2.0000     -11.245405      -306.0030
   5   2.0000     -11.245360      -306.0018
   6   2.0000     -11.244002      -305.9648
   7   2.0000     -11.242946      -305.9361
   8   2.0000     -11.242234      -305.9167
   9   2.0000      -9.016560      -245.3531
  10   2.0000      -6.698144      -182.2658
  11   2.0000      -6.695952      -182.2061
  12   2.0000      -6.694689      -182.1717
  13   2.0000      -1.594935       -43.4004
  14   2.0000      -1.178748       -32.0754
  15   2.0000      -1.090000       -29.6604
  16   2.0000      -1.031387       -28.0655
  17   2.0000      -0.998217       -27.1629
  18   2.0000      -0.884934       -24.0803
  19   2.0000      -0.844727       -22.9862
  20   2.0000      -0.810824       -22.0636
  21   2.0000      -0.714031       -19.4298
  22   2.0000      -0.683425       -18.5969
  23   2.0000      -0.677121       -18.4254
  24   2.0000      -0.670793       -18.2532
  25   2.0000      -0.657636       -17.8952
  26   2.0000      -0.642756       -17.4903
  27   2.0000      -0.602368       -16.3913
  28   2.0000      -0.585499       -15.9323
  29   2.0000      -0.579626       -15.7724
  30   2.0000      -0.526062       -14.3149
  31   2.0000      -0.508767       -13.8443
  32   2.0000      -0.505064       -13.7435
  33   2.0000      -0.477573       -12.9954
  34   2.0000      -0.367909       -10.0113
  35   2.0000      -0.347272        -9.4498
  36   2.0000      -0.346279        -9.4227
  37   0.0000       0.023003         0.6259
  38   0.0000       0.027516         0.7488
  39   0.0000       0.029185         0.7942
  40   0.0000       0.040018         1.0889
  41   0.0000       0.041646         1.1332

MULLIKEN ATOMIC CHARGES
-----------------------
   0 C :   -0.422003
   1 C :   -0.308848
   2 C :   -0.304663
   3 C :   -0.308846
   4 C :   -0.421998
   5 C :   -0.250155
   6 C :    0.339896
   7 S :    0.521323
   8 F :   -0.664532
   9 H :    0.199292
  10 H :    0.199291
  11 H :    0.307320
  12 H :    0.242861
  13 H :    0.320885
  14 H :    0.242858
  15 H :    0.307320
Sum of atomic charges:   -0.0000000

LOEWDIN ATOMIC CHARGES
----------------------
   0 C :    0.318141
   1 C :    0.347175
   2 C :    0.339458
   3 C :    0.347174
   4 C :    0.318139
   5 C :    0.068849
   6 C :   -0.245073
   7 S :    0.764337
   8 F :    0.075013
   9 H :   -0.372846
  10 H :   -0.372846
  11 H :   -0.315260
  12 H :   -0.318648
  13 H :   -0.319707
  14 H :   -0.318648
  15 H :   -0.315258

  Mayer bond orders larger than 0.100000
B(  0-C ,  1-C ) :   1.3811 B(  0-C ,  3-C ) :   0.1557 B(  0-C ,  5-C ) :  -0.1283
B(  0-C ,  6-C ) :   1.0204 B(  0-C , 11-H ) :   0.9520 B(  0-C , 12-H ) :  -0.1180
B(  1-C ,  2-C ) :   1.1327 B(  1-C ,  4-C ) :   0.1557 B(  1-C ,  6-C ) :  -0.3143
B(  1-C , 12-H ) :   1.1161 B(  2-C ,  3-C ) :   1.1327 B(  2-C , 13-H ) :   1.0075
B(  3-C ,  4-C ) :   1.3811 B(  3-C ,  6-C ) :  -0.3143 B(  3-C , 14-H ) :   1.1161
B(  4-C ,  5-C ) :  -0.1283 B(  4-C ,  6-C ) :   1.0204 B(  4-C , 14-H ) :  -0.1180
B(  4-C , 15-H ) :   0.9520 B(  5-C ,  6-C ) :   0.8391 B(  5-C ,  7-S ) :   0.9261
B(  5-C ,  8-F ) :  -0.1179 B(  5-C ,  9-H ) :   0.9825 B(  5-C , 10-H ) :   0.9825
B(  7-S ,  8-F ) :   0.5687

MP2 TOTAL ENERGY:     -767.930190941 Eh
FINAL SINGLE POINT ENERGY      -767.930190940949

DIPOLE MOMENT
-------------
                                X             Y             Z
Electronic contribution:     10.49545      -0.00002      -2.10627
Nuclear contribution   :    -11.56725       0.00002       2.46183
                        -----------------------------------------
Total Dipole Moment    :     -1.07180       0.00000       0.35556
                        -----------------------------------------
Magnitude (a.u.)       :      1.12923
Magnitude (Debye)      :      2.87029

Rotational constants in cm-1:     0.137162     0.023366     0.021713
Rotational constants in MHz :  4112.015901   700.489784   650.929543

                             ****ORCA TERMINATED NORMALLY****
TOTAL RUN TIME: 0 days 0 hours 42 minutes 49 seconds 324 msec
