                         Program Version 5.0.4 -  RELEASE  -
|  1> ! ri-mp2 aug-cc-pvdz aug-cc-pvdz/c tightscf
|  2> %pal nprocs 16 end
|  3> %maxcore 3800
|  4> %base "DZ_S-S_39_AB"
|  5> %scf
|  6> STABPerform true
|  7> STABRestartUHFifUnstable true
|  8> end
|  9>
| 10> *xyz 0 1
| 11> S         2.089010   -0.201842   -0.125163
| 12> O         3.282535   -0.018315    0.608937
| 13> S         0.752472    1.197046    0.671201
| 14> S        -0.752472    1.197047   -0.671201
| 15> S        -2.089010   -0.201842    0.125163
| 16> O        -3.282535   -0.018315   -0.608937
| 17> O         2.025480   -0.247905   -1.534653
| 18> O        -2.025480   -0.247905    1.534652
| 19> F         1.447196   -1.532613    0.382265
| 20> F        -1.447196   -1.532613   -0.382264
| 21> *
| 22>
| 23> $new_job
| 24> ! ri-mp2 aug-cc-pvtz aug-cc-pvtz/c tightscf
| 25> %pal nprocs 16 end
| 26> %maxcore 3800
| 27> %base "TZ_S-S_39_AB"
| 28>
| 29> *xyz 0 1
| 30> S         2.089010   -0.201842   -0.125163
| 31> O         3.282535   -0.018315    0.608937
| 32> S         0.752472    1.197046    0.671201
| 33> S        -0.752472    1.197047   -0.671201
| 34> S        -2.089010   -0.201842    0.125163
| 35> O        -3.282535   -0.018315   -0.608937
| 36> O         2.025480   -0.247905   -1.534653
| 37> O        -2.025480   -0.247905    1.534652
| 38> F         1.447196   -1.532613    0.382265
| 39> F        -1.447196   -1.532613   -0.382264
| 40> *
| 41>
| 42> $new_job
| 43> ! ri-mp2 aug-cc-pvqz aug-cc-pvqz/c tightscf
| 44> %pal nprocs 16 end
| 45> %maxcore 3800
| 46> %base "QZ_S-S_39_AB"
| 47>
| 48> *xyz 0 1
| 49> S         2.089010   -0.201842   -0.125163
| 50> O         3.282535   -0.018315    0.608937
| 51> S         0.752472    1.197046    0.671201
| 52> S        -0.752472    1.197047   -0.671201
| 53> S        -2.089010   -0.201842    0.125163
| 54> O        -3.282535   -0.018315   -0.608937
| 55> O         2.025480   -0.247905   -1.534653
| 56> O        -2.025480   -0.247905    1.534652
| 57> F         1.447196   -1.532613    0.382265
| 58> F        -1.447196   -1.532613   -0.382264
| 59> *
| 60>
| 61>
| 62>
| 63>
| 64>                          ****END OF INPUT****
 Total Charge           Charge          ....    0
 Multiplicity           Mult            ....    1
 Number of Electrons    NEL             ....  114
MP2 TOTAL ENERGY:    -2090.105033895 Eh
FINAL SINGLE POINT ENERGY     -2090.105033894831
MP2 TOTAL ENERGY:    -2090.826750720 Eh
FINAL SINGLE POINT ENERGY     -2090.826750719613

CARTESIAN COORDINATES (ANGSTROEM)
---------------------------------
  S      2.089010   -0.201842   -0.125163
  O      3.282535   -0.018315    0.608937
  S      0.752472    1.197046    0.671201
  S     -0.752472    1.197047   -0.671201
  S     -2.089010   -0.201842    0.125163
  O     -3.282535   -0.018315   -0.608937
  O      2.025480   -0.247905   -1.534653
  O     -2.025480   -0.247905    1.534652
  F      1.447196   -1.532613    0.382265
  F     -1.447196   -1.532613   -0.382264

 Multiplicity           Mult            ....    1
 Number of Electrons    NEL             ....  114
 Basis Dimension        Dim             ....  816

ORBITAL ENERGIES
----------------

  NO   OCC          E(Eh)            E(eV)
   0   2.0000     -92.286704     -2511.2489
   1   2.0000     -92.286703     -2511.2489
   2   2.0000     -92.084382     -2505.7434
   3   2.0000     -92.084379     -2505.7433
   4   2.0000     -26.392766      -718.1837
   5   2.0000     -26.392764      -718.1836
   6   2.0000     -20.620933      -561.1241
   7   2.0000     -20.620933      -561.1241
   8   2.0000     -20.619865      -561.0950
   9   2.0000     -20.619865      -561.0950
  10   2.0000      -9.248754      -251.6714
  11   2.0000      -9.248754      -251.6714
  12   2.0000      -9.084075      -247.1903
  13   2.0000      -9.083845      -247.1840
  14   2.0000      -6.935413      -188.7222
  15   2.0000      -6.935413      -188.7222
  16   2.0000      -6.933923      -188.6816
  17   2.0000      -6.933922      -188.6816
  18   2.0000      -6.932795      -188.6509
  19   2.0000      -6.932795      -188.6509
  20   2.0000      -6.764753      -184.0783
  21   2.0000      -6.764432      -184.0696
  22   2.0000      -6.763523      -184.0448
  23   2.0000      -6.763323      -184.0394
  24   2.0000      -6.762330      -184.0123
  25   2.0000      -6.762328      -184.0123
  26   2.0000      -1.725972       -46.9661
  27   2.0000      -1.724352       -46.9220
  28   2.0000      -1.522303       -41.4240
  29   2.0000      -1.521762       -41.4092
  30   2.0000      -1.430851       -38.9354
  31   2.0000      -1.430839       -38.9351
  32   2.0000      -1.167240       -31.7622
  33   2.0000      -1.034623       -28.1535
  34   2.0000      -0.948646       -25.8140
  35   2.0000      -0.905754       -24.6468
  36   2.0000      -0.824378       -22.4325
  37   2.0000      -0.790451       -21.5093
  38   2.0000      -0.787031       -21.4162
  39   2.0000      -0.786009       -21.3884
  40   2.0000      -0.782074       -21.2813
  41   2.0000      -0.777203       -21.1488
  42   2.0000      -0.706623       -19.2282
  43   2.0000      -0.697215       -18.9722
  44   2.0000      -0.692134       -18.8339
  45   2.0000      -0.689828       -18.7712
  46   2.0000      -0.617085       -16.7917
  47   2.0000      -0.613206       -16.6862
  48   2.0000      -0.597794       -16.2668
  49   2.0000      -0.577497       -15.7145
  50   2.0000      -0.563950       -15.3459
  51   2.0000      -0.555176       -15.1071
  52   2.0000      -0.552570       -15.0362
  53   2.0000      -0.534673       -14.5492
  54   2.0000      -0.532537       -14.4911
  55   2.0000      -0.464421       -12.6375
  56   2.0000      -0.457648       -12.4532
  57   0.0000       0.028858         0.7853
  58   0.0000       0.030852         0.8395
  59   0.0000       0.042130         1.1464
  60   0.0000       0.050525         1.3748
  61   0.0000       0.051778         1.4090

MULLIKEN ATOMIC CHARGES
-----------------------
   0 S :    2.521569
   1 O :   -1.055857
   2 S :    0.139555
   3 S :    0.139555
   4 S :    2.521570
   5 O :   -1.055857
   6 O :   -1.012588
   7 O :   -1.012588
   8 F :   -0.592679
   9 F :   -0.592679
Sum of atomic charges:   -0.0000000

LOEWDIN ATOMIC CHARGES
----------------------
   0 S :   -1.252118
   1 O :    0.189193
   2 S :    0.473286
   3 S :    0.473286
   4 S :   -1.252119
   5 O :    0.189193
   6 O :    0.192613
   7 O :    0.192613
   8 F :    0.397025
   9 F :    0.397026

  Mayer bond orders larger than 0.100000
B(  0-S ,  1-O ) :   1.2653 B(  0-S ,  2-S ) :   0.9771 B(  0-S ,  6-O ) :   1.3054
B(  0-S ,  8-F ) :   0.5234 B(  2-S ,  3-S ) :   1.1426 B(  3-S ,  4-S ) :   0.9771
B(  4-S ,  5-O ) :   1.2653 B(  4-S ,  7-O ) :   1.3054 B(  4-S ,  9-F ) :   0.5234

MP2 TOTAL ENERGY:    -2091.065764546 Eh
FINAL SINGLE POINT ENERGY     -2091.065764545886

DIPOLE MOMENT
-------------
                                X             Y             Z
Electronic contribution:     -0.00000      -1.97094       0.00000
Nuclear contribution   :      0.00000       2.75016      -0.00000
                        -----------------------------------------
Total Dipole Moment    :     -0.00000       0.77922       0.00000
                        -----------------------------------------
Magnitude (a.u.)       :      0.77922
Magnitude (Debye)      :      1.98063

Rotational constants in cm-1:     0.054671     0.016952     0.015942
Rotational constants in MHz :  1638.996978   508.213647   477.929177

                             ****ORCA TERMINATED NORMALLY****
TOTAL RUN TIME: 0 days 1 hours 3 minutes 55 seconds 446 msec
