                         Program Version 5.0.4 -  RELEASE  -
|  1> ! ri-mp2 aug-cc-pvdz aug-cc-pvdz/c tightscf
|  2> %pal nprocs 16 end
|  3> %maxcore 3800
|  4> %base "DZ_B-Cl_79_AB"
|  5> %scf
|  6> STABPerform true
|  7> STABRestartUHFifUnstable true
|  8> end
|  9>
| 10> *xyz 0 1
| 11> Cl        2.376588    0.002092    0.068629
| 12> O        -0.018304   -1.218200   -0.043802
| 13> N        -0.102663    1.191227   -0.111653
| 14> C        -2.107651   -0.058482    0.419322
| 15> C        -1.554872    1.241397   -0.141961
| 16> C        -1.430837   -1.254410   -0.220892
| 17> B         0.602586   -0.012615   -0.039104
| 18> H        -1.780722   -2.185737    0.221979
| 19> H        -1.645034   -1.288855   -1.293205
| 20> H        -3.183975   -0.115159    0.251231
| 21> H        -1.937991   -0.090844    1.497923
| 22> H         0.385625    2.068197   -0.145474
| 23> H        -1.909118    2.084255    0.453713
| 24> H        -1.918487    1.391635   -1.164174
| 25> *
| 26>
| 27> $new_job
| 28> ! ri-mp2 aug-cc-pvtz aug-cc-pvtz/c tightscf
| 29> %pal nprocs 16 end
| 30> %maxcore 3800
| 31> %base "TZ_B-Cl_79_AB"
| 32>
| 33> *xyz 0 1
| 34> Cl        2.376588    0.002092    0.068629
| 35> O        -0.018304   -1.218200   -0.043802
| 36> N        -0.102663    1.191227   -0.111653
| 37> C        -2.107651   -0.058482    0.419322
| 38> C        -1.554872    1.241397   -0.141961
| 39> C        -1.430837   -1.254410   -0.220892
| 40> B         0.602586   -0.012615   -0.039104
| 41> H        -1.780722   -2.185737    0.221979
| 42> H        -1.645034   -1.288855   -1.293205
| 43> H        -3.183975   -0.115159    0.251231
| 44> H        -1.937991   -0.090844    1.497923
| 45> H         0.385625    2.068197   -0.145474
| 46> H        -1.909118    2.084255    0.453713
| 47> H        -1.918487    1.391635   -1.164174
| 48> *
| 49>
| 50> $new_job
| 51> ! ri-mp2 aug-cc-pvqz aug-cc-pvqz/c tightscf
| 52> %pal nprocs 16 end
| 53> %maxcore 3800
| 54> %base "QZ_B-Cl_79_AB"
| 55>
| 56> *xyz 0 1
| 57> Cl        2.376588    0.002092    0.068629
| 58> O        -0.018304   -1.218200   -0.043802
| 59> N        -0.102663    1.191227   -0.111653
| 60> C        -2.107651   -0.058482    0.419322
| 61> C        -1.554872    1.241397   -0.141961
| 62> C        -1.430837   -1.254410   -0.220892
| 63> B         0.602586   -0.012615   -0.039104
| 64> H        -1.780722   -2.185737    0.221979
| 65> H        -1.645034   -1.288855   -1.293205
| 66> H        -3.183975   -0.115159    0.251231
| 67> H        -1.937991   -0.090844    1.497923
| 68> H         0.385625    2.068197   -0.145474
| 69> H        -1.909118    2.084255    0.453713
| 70> H        -1.918487    1.391635   -1.164174
| 71> *
| 72>
| 73>
| 74>
| 75>
| 76>                          ****END OF INPUT****
 Total Charge           Charge          ....    0
 Multiplicity           Mult            ....    1
 Number of Electrons    NEL             ....   62
MP2 TOTAL ENERGY:     -732.386498347 Eh
FINAL SINGLE POINT ENERGY      -732.386498347279
MP2 TOTAL ENERGY:     -732.692035773 Eh
FINAL SINGLE POINT ENERGY      -732.692035773260

CARTESIAN COORDINATES (ANGSTROEM)
---------------------------------
  Cl     2.376588    0.002092    0.068629
  O     -0.018304   -1.218200   -0.043802
  N     -0.102663    1.191227   -0.111653
  C     -2.107651   -0.058482    0.419322
  C     -1.554872    1.241397   -0.141961
  C     -1.430837   -1.254410   -0.220892
  B      0.602586   -0.012615   -0.039104
  H     -1.780722   -2.185737    0.221979
  H     -1.645034   -1.288855   -1.293205
  H     -3.183975   -0.115159    0.251231
  H     -1.937991   -0.090844    1.497923
  H      0.385625    2.068197   -0.145474
  H     -1.909118    2.084255    0.453713
  H     -1.918487    1.391635   -1.164174

 Multiplicity           Mult            ....    1
 Number of Electrons    NEL             ....   62
 Basis Dimension        Dim             ....  886

ORBITAL ENERGIES
----------------

  NO   OCC          E(Eh)            E(eV)
   0   2.0000    -104.805756     -2851.9096
   1   2.0000     -20.560729      -559.4859
   2   2.0000     -15.554150      -423.2499
   3   2.0000     -11.288704      -307.1813
   4   2.0000     -11.270639      -306.6897
   5   2.0000     -11.236955      -305.7731
   6   2.0000     -10.533618      -286.6343
   7   2.0000      -8.000553      -217.7061
   8   2.0000      -7.999458      -217.6763
   9   2.0000      -7.999369      -217.6739
  10   2.0000      -7.659522      -208.4262
  11   2.0000      -1.383262       -37.6405
  12   2.0000      -1.207953       -32.8701
  13   2.0000      -1.089842       -29.6561
  14   2.0000      -1.045599       -28.4522
  15   2.0000      -0.925670       -25.1888
  16   2.0000      -0.836262       -22.7559
  17   2.0000      -0.736440       -20.0395
  18   2.0000      -0.695795       -18.9336
  19   2.0000      -0.652411       -17.7530
  20   2.0000      -0.637009       -17.3339
  21   2.0000      -0.618421       -16.8281
  22   2.0000      -0.601189       -16.3592
  23   2.0000      -0.556430       -15.1412
  24   2.0000      -0.549903       -14.9636
  25   2.0000      -0.508961       -13.8495
  26   2.0000      -0.484510       -13.1842
  27   2.0000      -0.468172       -12.7396
  28   2.0000      -0.443970       -12.0810
  29   2.0000      -0.443483       -12.0678
  30   2.0000      -0.397044       -10.8041
  31   0.0000       0.019901         0.5415
  32   0.0000       0.029102         0.7919
  33   0.0000       0.031535         0.8581
  34   0.0000       0.034709         0.9445
  35   0.0000       0.048512         1.3201

MULLIKEN ATOMIC CHARGES
-----------------------
   0 Cl:   -0.299666
   1 O :   -1.231341
   2 N :   -0.650463
   3 C :   -0.633777
   4 C :   -0.270181
   5 C :   -0.181733
   6 B :    1.351448
   7 H :    0.416083
   8 H :    0.235806
   9 H :    0.355061
  10 H :    0.248677
  11 H :    0.103357
  12 H :    0.331576
  13 H :    0.225153
Sum of atomic charges:   -0.0000000

LOEWDIN ATOMIC CHARGES
----------------------
   0 Cl:    1.290477
   1 O :    0.896830
   2 N :    0.888677
   3 C :    0.508948
   4 C :    0.376553
   5 C :    0.194593
   6 B :   -2.001128
   7 H :   -0.291508
   8 H :   -0.280489
   9 H :   -0.259093
  10 H :   -0.264086
  11 H :   -0.526504
  12 H :   -0.268553
  13 H :   -0.264715

  Mayer bond orders larger than 0.100000
B(  0-Cl,  2-N ) :   0.1686 B(  0-Cl,  6-B ) :   0.7676 B(  1-O ,  5-C ) :   0.8399
B(  1-O ,  6-B ) :   0.2899 B(  2-N ,  4-C ) :   0.7660 B(  2-N ,  6-B ) :   1.0570
B(  2-N , 11-H ) :   1.1563 B(  3-C ,  4-C ) :   0.9939 B(  3-C ,  5-C ) :   1.0220
B(  3-C ,  9-H ) :   0.8303 B(  3-C , 10-H ) :   0.8927 B(  4-C , 12-H ) :   0.8886
B(  4-C , 13-H ) :   0.9602 B(  5-C ,  7-H ) :   0.7904 B(  5-C ,  8-H ) :   0.9248

MP2 TOTAL ENERGY:     -732.790203338 Eh
FINAL SINGLE POINT ENERGY      -732.790203337912

DIPOLE MOMENT
-------------
                                X             Y             Z
Electronic contribution:     13.96943      -1.17249       0.14806
Nuclear contribution   :    -15.48817       1.81303      -0.24001
                        -----------------------------------------
Total Dipole Moment    :     -1.51874       0.64054      -0.09196
                        -----------------------------------------
Magnitude (a.u.)       :      1.65085
Magnitude (Debye)      :      4.19613

Rotational constants in cm-1:     0.157286     0.048768     0.038764
Rotational constants in MHz :  4715.308573  1462.037625  1162.105894

                             ****ORCA TERMINATED NORMALLY****
TOTAL RUN TIME: 0 days 1 hours 53 minutes 33 seconds 6 msec
