                         Program Version 5.0.4 -  RELEASE  -
|  1> ! ri-mp2 aug-cc-pvdz aug-cc-pvdz/c tightscf
|  2> %pal nprocs 16 end
|  3> %maxcore 3800
|  4> %base "DZ_B-F_46_AB"
|  5>
|  6> *xyz 0 1
|  7> F        -2.045874   -0.900456   -0.000004
|  8> B        -1.061370   -0.020684   -0.000002
|  9> F        -1.384842    1.252703   -0.000009
| 10> C         0.406684   -0.512094    0.000006
| 11> N         1.327136    0.363243    0.000005
| 12> H         0.667192   -1.570238    0.000008
| 13> O         2.576834   -0.191726    0.000007
| 14> H         3.171371    0.567102    0.000002
| 15> *
| 16>
| 17> $new_job
| 18> ! ri-mp2 aug-cc-pvtz aug-cc-pvtz/c tightscf
| 19> %pal nprocs 16 end
| 20> %maxcore 3800
| 21> %base "TZ_B-F_46_AB"
| 22>
| 23> *xyz 0 1
| 24> F        -2.045874   -0.900456   -0.000004
| 25> B        -1.061370   -0.020684   -0.000002
| 26> F        -1.384842    1.252703   -0.000009
| 27> C         0.406684   -0.512094    0.000006
| 28> N         1.327136    0.363243    0.000005
| 29> H         0.667192   -1.570238    0.000008
| 30> O         2.576834   -0.191726    0.000007
| 31> H         3.171371    0.567102    0.000002
| 32> *
| 33>
| 34> $new_job
| 35> ! ri-mp2 aug-cc-pvqz aug-cc-pvqz/c tightscf
| 36> %pal nprocs 16 end
| 37> %maxcore 3800
| 38> %base "QZ_B-F_46_AB"
| 39>
| 40> *xyz 0 1
| 41> F        -2.045874   -0.900456   -0.000004
| 42> B        -1.061370   -0.020684   -0.000002
| 43> F        -1.384842    1.252703   -0.000009
| 44> C         0.406684   -0.512094    0.000006
| 45> N         1.327136    0.363243    0.000005
| 46> H         0.667192   -1.570238    0.000008
| 47> O         2.576834   -0.191726    0.000007
| 48> H         3.171371    0.567102    0.000002
| 49> *
| 50>
| 51>
| 52>
| 53>
| 54>                          ****END OF INPUT****
 Total Charge           Charge          ....    0
 Multiplicity           Mult            ....    1
 Number of Electrons    NEL             ....   46
MP2 TOTAL ENERGY:     -393.001568732 Eh
FINAL SINGLE POINT ENERGY      -393.001568731655
MP2 TOTAL ENERGY:     -393.337991828 Eh
FINAL SINGLE POINT ENERGY      -393.337991827865

CARTESIAN COORDINATES (ANGSTROEM)
---------------------------------
  F     -2.045874   -0.900456   -0.000004
  B     -1.061370   -0.020684   -0.000002
  F     -1.384842    1.252703   -0.000009
  C      0.406684   -0.512094    0.000006
  N      1.327136    0.363243    0.000005
  H      0.667192   -1.570238    0.000008
  O      2.576834   -0.191726    0.000007
  H      3.171371    0.567102    0.000002

 Multiplicity           Mult            ....    1
 Number of Electrons    NEL             ....   46
 Basis Dimension        Dim             ....  572

ORBITAL ENERGIES
----------------

  NO   OCC          E(Eh)            E(eV)
   0   2.0000     -26.317972      -716.1484
   1   2.0000     -26.314283      -716.0481
   2   2.0000     -20.627614      -561.3059
   3   2.0000     -15.666961      -426.3197
   4   2.0000     -11.269586      -306.6610
   5   2.0000      -7.718553      -210.0325
   6   2.0000      -1.650518       -44.9129
   7   2.0000      -1.618467       -44.0407
   8   2.0000      -1.469619       -39.9904
   9   2.0000      -1.181299       -32.1448
  10   2.0000      -0.870085       -23.6762
  11   2.0000      -0.813504       -22.1366
  12   2.0000      -0.774951       -21.0875
  13   2.0000      -0.751110       -20.4387
  14   2.0000      -0.722460       -19.6591
  15   2.0000      -0.719502       -19.5786
  16   2.0000      -0.671671       -18.2771
  17   2.0000      -0.664211       -18.0741
  18   2.0000      -0.652282       -17.7495
  19   2.0000      -0.625595       -17.0233
  20   2.0000      -0.570665       -15.5286
  21   2.0000      -0.468741       -12.7551
  22   2.0000      -0.425866       -11.5884
  23   0.0000       0.024215         0.6589
  24   0.0000       0.031686         0.8622
  25   0.0000       0.038865         1.0576
  26   0.0000       0.041173         1.1204
  27   0.0000       0.052983         1.4417

MULLIKEN ATOMIC CHARGES
-----------------------
   0 F :   -0.766212
   1 B :    1.707103
   2 F :   -0.773686
   3 C :   -0.362478
   4 N :   -0.128086
   5 H :    0.533329
   6 O :   -0.551126
   7 H :    0.341156
Sum of atomic charges:    0.0000000

LOEWDIN ATOMIC CHARGES
----------------------
   0 F :    0.804066
   1 B :   -1.771434
   2 F :    0.815426
   3 C :    0.133901
   4 N :    0.246793
   5 H :   -0.392795
   6 O :    1.017414
   7 H :   -0.853371

  Mayer bond orders larger than 0.100000
B(  0-F ,  1-B ) :   0.3801 B(  1-B ,  2-F ) :   0.4302 B(  1-B ,  3-C ) :   0.9378
B(  3-C ,  4-N ) :   1.7764 B(  3-C ,  5-H ) :   0.6911 B(  4-N ,  6-O ) :   0.8511
B(  6-O ,  7-H ) :   0.9342

MP2 TOTAL ENERGY:     -393.447650432 Eh
FINAL SINGLE POINT ENERGY      -393.447650432213

DIPOLE MOMENT
-------------
                                X             Y             Z
Electronic contribution:     -6.88543       1.07907      -0.00002
Nuclear contribution   :      7.56572      -1.24250       0.00002
                        -----------------------------------------
Total Dipole Moment    :      0.68029      -0.16343       0.00000
                        -----------------------------------------
Magnitude (a.u.)       :      0.69964
Magnitude (Debye)      :      1.77835

Rotational constants in cm-1:     0.314526     0.062227     0.051949
Rotational constants in MHz :  9429.258590  1865.517379  1557.396607

                             ****ORCA TERMINATED NORMALLY****
TOTAL RUN TIME: 0 days 0 hours 3 minutes 34 seconds 732 msec
