                         Program Version 5.0.4 -  RELEASE  -
|  1> ! ri-mp2 aug-cc-pvdz aug-cc-pvdz/c tightscf
|  2> %pal nprocs 16 end
|  3> %maxcore 3800
|  4> %base "DZ_B-Cl_78_A"
|  5> %scf
|  6> STABPerform true
|  7> STABRestartUHFifUnstable true
|  8> end
|  9>
| 10> *xyz 0 2
| 11> Cl         2.751129   -0.000001    0.014592
| 12> N        -0.187659   -0.000002   -0.046812
| 13> C        -2.247281    1.295783    0.026240
| 14> C        -1.521947   -0.000000   -0.096039
| 15> C        -2.247287   -1.295781    0.026240
| 16> B         1.056051    0.000000   -0.010991
| 17> H        -1.682254    2.103871   -0.437632
| 18> H        -2.405360    1.571041    1.077792
| 19> H        -3.230744    1.241520   -0.442196
| 20> H        -1.682236   -2.103881   -0.437581
| 21> H        -3.230727   -1.241532   -0.442246
| 22> H        -2.405419   -1.571009    1.077792
| 23> *
| 24>
| 25> $new_job
| 26> ! ri-mp2 aug-cc-pvtz aug-cc-pvtz/c tightscf
| 27> %pal nprocs 16 end
| 28> %maxcore 3800
| 29> %base "TZ_B-Cl_78_A"
| 30>
| 31> *xyz 0 2
| 32> Cl         2.751129   -0.000001    0.014592
| 33> N        -0.187659   -0.000002   -0.046812
| 34> C        -2.247281    1.295783    0.026240
| 35> C        -1.521947   -0.000000   -0.096039
| 36> C        -2.247287   -1.295781    0.026240
| 37> B         1.056051    0.000000   -0.010991
| 38> H        -1.682254    2.103871   -0.437632
| 39> H        -2.405360    1.571041    1.077792
| 40> H        -3.230744    1.241520   -0.442196
| 41> H        -1.682236   -2.103881   -0.437581
| 42> H        -3.230727   -1.241532   -0.442246
| 43> H        -2.405419   -1.571009    1.077792
| 44> *
| 45>
| 46> $new_job
| 47> ! ri-mp2 aug-cc-pvqz aug-cc-pvqz/c tightscf
| 48> %pal nprocs 16 end
| 49> %maxcore 3800
| 50> %base "QZ_B-Cl_78_A"
| 51>
| 52> *xyz 0 2
| 53> Cl         2.751129   -0.000001    0.014592
| 54> N        -0.187659   -0.000002   -0.046812
| 55> C        -2.247281    1.295783    0.026240
| 56> C        -1.521947   -0.000000   -0.096039
| 57> C        -2.247287   -1.295781    0.026240
| 58> B         1.056051    0.000000   -0.010991
| 59> H        -1.682254    2.103871   -0.437632
| 60> H        -2.405360    1.571041    1.077792
| 61> H        -3.230744    1.241520   -0.442196
| 62> H        -1.682236   -2.103881   -0.437581
| 63> H        -3.230727   -1.241532   -0.442246
| 64> H        -2.405419   -1.571009    1.077792
| 65> *
| 66>
| 67>
| 68>
| 69>
| 70>                          ****END OF INPUT****
 Total Charge           Charge          ....    0
 Multiplicity           Mult            ....    2
 Number of Electrons    NEL             ....   53
MP2 TOTAL ENERGY:     -656.582486689 Eh
FINAL SINGLE POINT ENERGY      -656.582486688567
MP2 TOTAL ENERGY:     -656.819473718 Eh
FINAL SINGLE POINT ENERGY      -656.819473718389

CARTESIAN COORDINATES (ANGSTROEM)
---------------------------------
  Cl     2.751129   -0.000001    0.014592
  N     -0.187659   -0.000002   -0.046812
  C     -2.247281    1.295783    0.026240
  C     -1.521947   -0.000000   -0.096039
  C     -2.247287   -1.295781    0.026240
  B      1.056051    0.000000   -0.010991
  H     -1.682254    2.103871   -0.437632
  H     -2.405360    1.571041    1.077792
  H     -3.230744    1.241520   -0.442196
  H     -1.682236   -2.103881   -0.437581
  H     -3.230727   -1.241532   -0.442246
  H     -2.405419   -1.571009    1.077792

 Multiplicity           Mult            ....    2
 Number of Electrons    NEL             ....   53
 Basis Dimension        Dim             ....  760

ORBITAL ENERGIES
----------------
                 SPIN UP ORBITALS
  NO   OCC          E(Eh)            E(eV)
   0   1.0000    -104.866403     -2853.5599
   1   1.0000     -15.545050      -423.0023
   2   1.0000     -11.262676      -306.4730
   3   1.0000     -11.215145      -305.1796
   4   1.0000     -11.215122      -305.1790
   5   1.0000     -10.593236      -288.2566
   6   1.0000      -8.059756      -219.3171
   7   1.0000      -8.059444      -219.3086
   8   1.0000      -8.058903      -219.2939
   9   1.0000      -7.655225      -208.3093
  10   1.0000      -1.198836       -32.6220
  11   1.0000      -1.142432       -31.0872
  12   1.0000      -1.022597       -27.8263
  13   1.0000      -0.944958       -25.7136
  14   1.0000      -0.829973       -22.5847
  15   1.0000      -0.658008       -17.9053
  16   1.0000      -0.629803       -17.1378
  17   1.0000      -0.621430       -16.9100
  18   1.0000      -0.600517       -16.3409
  19   1.0000      -0.544499       -14.8166
  20   1.0000      -0.543557       -14.7909
  21   1.0000      -0.533268       -14.5110
  22   1.0000      -0.522911       -14.2291
  23   1.0000      -0.508580       -13.8392
  24   1.0000      -0.459297       -12.4981
  25   1.0000      -0.394046       -10.7225
  26   1.0000      -0.268241        -7.2992
  27   0.0000       0.023062         0.6275
  28   0.0000       0.032931         0.8961
  29   0.0000       0.034611         0.9418
  30   0.0000       0.037936         1.0323
  31   0.0000       0.048616         1.3229

                 SPIN DOWN ORBITALS
  NO   OCC          E(Eh)            E(eV)
   0   1.0000    -104.866286     -2853.5567
   1   1.0000     -15.556705      -423.3195
   2   1.0000     -11.239306      -305.8371
   3   1.0000     -11.218259      -305.2643
   4   1.0000     -11.218231      -305.2636
   5   1.0000     -10.593106      -288.2531
   6   1.0000      -8.060793      -219.3453
   7   1.0000      -8.058676      -219.2877
   8   1.0000      -8.058010      -219.2696
   9   1.0000      -7.648191      -208.1178
  10   1.0000      -1.196277       -32.5523
  11   1.0000      -1.140523       -31.0352
  12   1.0000      -1.010094       -27.4861
  13   1.0000      -0.945391       -25.7254
  14   1.0000      -0.806491       -21.9457
  15   1.0000      -0.639662       -17.4061
  16   1.0000      -0.625059       -17.0087
  17   1.0000      -0.597648       -16.2628
  18   1.0000      -0.577224       -15.7071
  19   1.0000      -0.541951       -14.7472
  20   1.0000      -0.534402       -14.5418
  21   1.0000      -0.520932       -14.1753
  22   1.0000      -0.519373       -14.1329
  23   1.0000      -0.505443       -13.7538
  24   1.0000      -0.456164       -12.4129
  25   1.0000      -0.407319       -11.0837
  26   0.0000       0.023367         0.6359
  27   0.0000       0.032983         0.8975
  28   0.0000       0.034778         0.9464
  29   0.0000       0.037423         1.0183
  30   0.0000       0.048647         1.3238

MULLIKEN ATOMIC CHARGES AND SPIN POPULATIONS
--------------------------------------------
   0 Cl:   -0.294540    0.017126
   1 N :   -0.666393   -0.273855
   2 C :   -0.848116   -0.154783
   3 C :    0.471058    1.010983
   4 C :   -0.848101   -0.154786
   5 B :    0.588199    0.353342
   6 H :    0.261538    0.015634
   7 H :    0.269567    0.070434
   8 H :    0.267843    0.014918
   9 H :    0.261529    0.015633
  10 H :    0.267839    0.014922
  11 H :    0.269577    0.070432
Sum of atomic charges         :    0.0000000

LOEWDIN ATOMIC CHARGES AND SPIN POPULATIONS
-------------------------------------------
   0 Cl:    1.263233    0.072576
   1 N :    0.476671    0.080375
   2 C :    0.873000    0.106215
   3 C :   -0.321101    0.380869
   4 C :    0.873001    0.106215
   5 B :   -1.368533    0.160041
   6 H :   -0.308669    0.010458
   7 H :   -0.282602    0.025616
   8 H :   -0.306864    0.010781
   9 H :   -0.308671    0.010457
  10 H :   -0.306864    0.010782
  11 H :   -0.282602    0.025616

  Mayer bond orders larger than 0.100000
B(  0-Cl,  1-N ) :   0.1415 B(  0-Cl,  5-B ) :   0.9499 B(  1-N ,  3-C ) :   0.6627
B(  1-N ,  5-B ) :   2.0636 B(  2-C ,  3-C ) :   0.8495 B(  2-C ,  6-H ) :   0.9937
B(  2-C ,  7-H ) :   0.8748 B(  2-C ,  8-H ) :   0.9868 B(  3-C ,  4-C ) :   0.8495
B(  4-C ,  9-H ) :   0.9937 B(  4-C , 10-H ) :   0.9868 B(  4-C , 11-H ) :   0.8748

MP2 TOTAL ENERGY:     -656.895626586 Eh
FINAL SINGLE POINT ENERGY      -656.895626586301

DIPOLE MOMENT
-------------
                                X             Y             Z
Electronic contribution:     18.74216      -0.00001      -0.34154
Nuclear contribution   :    -18.89084       0.00001       0.37309
                        -----------------------------------------
Total Dipole Moment    :     -0.14868       0.00000       0.03155
                        -----------------------------------------
Magnitude (a.u.)       :      0.15199
Magnitude (Debye)      :      0.38633

Rotational constants in cm-1:     0.278058     0.036014     0.032286
Rotational constants in MHz :  8335.974872  1079.685821   967.909075

                             ****ORCA TERMINATED NORMALLY****
TOTAL RUN TIME: 0 days 2 hours 2 minutes 10 seconds 593 msec
