                         Program Version 5.0.4 -  RELEASE  -
|  1> ! ri-mp2 aug-cc-pvdz aug-cc-pvdz/c tightscf
|  2> %pal nprocs 16 end
|  3> %maxcore 3800
|  4> %base "DZ_P-N_2_AB"
|  5>
|  6> *xyz 0 1
|  7> C        -0.879694   -1.567748   -0.040907
|  8> C        -2.199669   -1.908558    0.003517
|  9> C        -3.189941   -0.912028    0.063767
| 10> C        -2.831372    0.402631    0.069058
| 11> C        -1.473393    0.786899    0.019229
| 12> C        -0.471542   -0.213874   -0.029331
| 13> H        -0.135563   -2.350803   -0.097725
| 14> H        -2.488396   -2.951113   -0.010302
| 15> H        -4.233978   -1.193060    0.101006
| 16> H        -3.586772    1.177571    0.108942
| 17> C         0.900545    0.175043   -0.067543
| 18> C         1.217942    1.504487   -0.087464
| 19> C        -1.094284    2.148538    0.010302
| 20> C         0.218983    2.496548   -0.047967
| 21> H        -1.867510    2.905597    0.045528
| 22> H         0.507244    3.539497   -0.061157
| 23> H         2.257460    1.798557   -0.135736
| 24> N         3.597271   -0.241226    0.226284
| 25> P         2.207339   -1.104503   -0.189542
| 26> H         1.882834   -1.754272    1.030079
| 27> H         3.739210    0.126833    1.152780
| 28> H         4.449037   -0.514313   -0.230236
| 29> *
| 30>
| 31> $new_job
| 32> ! ri-mp2 aug-cc-pvtz aug-cc-pvtz/c tightscf
| 33> %pal nprocs 16 end
| 34> %maxcore 3800
| 35> %base "TZ_P-N_2_AB"
| 36>
| 37> *xyz 0 1
| 38> C        -0.879694   -1.567748   -0.040907
| 39> C        -2.199669   -1.908558    0.003517
| 40> C        -3.189941   -0.912028    0.063767
| 41> C        -2.831372    0.402631    0.069058
| 42> C        -1.473393    0.786899    0.019229
| 43> C        -0.471542   -0.213874   -0.029331
| 44> H        -0.135563   -2.350803   -0.097725
| 45> H        -2.488396   -2.951113   -0.010302
| 46> H        -4.233978   -1.193060    0.101006
| 47> H        -3.586772    1.177571    0.108942
| 48> C         0.900545    0.175043   -0.067543
| 49> C         1.217942    1.504487   -0.087464
| 50> C        -1.094284    2.148538    0.010302
| 51> C         0.218983    2.496548   -0.047967
| 52> H        -1.867510    2.905597    0.045528
| 53> H         0.507244    3.539497   -0.061157
| 54> H         2.257460    1.798557   -0.135736
| 55> N         3.597271   -0.241226    0.226284
| 56> P         2.207339   -1.104503   -0.189542
| 57> H         1.882834   -1.754272    1.030079
| 58> H         3.739210    0.126833    1.152780
| 59> H         4.449037   -0.514313   -0.230236
| 60> *
| 61>
| 62> $new_job
| 63> ! ri-mp2 aug-cc-pvqz aug-cc-pvqz/c tightscf
| 64> %pal nprocs 16 end
| 65> %maxcore 3800
| 66> %base "QZ_P-N_2_AB"
| 67>
| 68> *xyz 0 1
| 69> C        -0.879694   -1.567748   -0.040907
| 70> C        -2.199669   -1.908558    0.003517
| 71> C        -3.189941   -0.912028    0.063767
| 72> C        -2.831372    0.402631    0.069058
| 73> C        -1.473393    0.786899    0.019229
| 74> C        -0.471542   -0.213874   -0.029331
| 75> H        -0.135563   -2.350803   -0.097725
| 76> H        -2.488396   -2.951113   -0.010302
| 77> H        -4.233978   -1.193060    0.101006
| 78> H        -3.586772    1.177571    0.108942
| 79> C         0.900545    0.175043   -0.067543
| 80> C         1.217942    1.504487   -0.087464
| 81> C        -1.094284    2.148538    0.010302
| 82> C         0.218983    2.496548   -0.047967
| 83> H        -1.867510    2.905597    0.045528
| 84> H         0.507244    3.539497   -0.061157
| 85> H         2.257460    1.798557   -0.135736
| 86> N         3.597271   -0.241226    0.226284
| 87> P         2.207339   -1.104503   -0.189542
| 88> H         1.882834   -1.754272    1.030079
| 89> H         3.739210    0.126833    1.152780
| 90> H         4.449037   -0.514313   -0.230236
| 91> *
| 92>
| 93>
| 94>
| 95>
| 96>                          ****END OF INPUT****
 Total Charge           Charge          ....    0
 Multiplicity           Mult            ....    1
 Number of Electrons    NEL             ....   92
MP2 TOTAL ENERGY:     -781.405337418 Eh
FINAL SINGLE POINT ENERGY      -781.405337418231
MP2 TOTAL ENERGY:     -781.835908900 Eh
FINAL SINGLE POINT ENERGY      -781.835908900194

CARTESIAN COORDINATES (ANGSTROEM)
---------------------------------
  C     -0.879694   -1.567748   -0.040907
  C     -2.199669   -1.908558    0.003517
  C     -3.189941   -0.912028    0.063767
  C     -2.831372    0.402631    0.069058
  C     -1.473393    0.786899    0.019229
  C     -0.471542   -0.213874   -0.029331
  H     -0.135563   -2.350803   -0.097725
  H     -2.488396   -2.951113   -0.010302
  H     -4.233978   -1.193060    0.101006
  H     -3.586772    1.177571    0.108942
  C      0.900545    0.175043   -0.067543
  C      1.217942    1.504487   -0.087464
  C     -1.094284    2.148538    0.010302
  C      0.218983    2.496548   -0.047967
  H     -1.867510    2.905597    0.045528
  H      0.507244    3.539497   -0.061157
  H      2.257460    1.798557   -0.135736
  N      3.597271   -0.241226    0.226284
  P      2.207339   -1.104503   -0.189542
  H      1.882834   -1.754272    1.030079
  H      3.739210    0.126833    1.152780
  H      4.449037   -0.514313   -0.230236

 Multiplicity           Mult            ....    1
 Number of Electrons    NEL             ....   92
 Basis Dimension        Dim             .... 1424

ORBITAL ENERGIES
----------------

  NO   OCC          E(Eh)            E(eV)
   0   2.0000     -79.955737     -2175.7062
   1   2.0000     -15.552314      -423.2000
   2   2.0000     -11.242186      -305.9154
   3   2.0000     -11.239342      -305.8380
   4   2.0000     -11.234969      -305.7190
   5   2.0000     -11.233499      -305.6791
   6   2.0000     -11.233112      -305.6685
   7   2.0000     -11.232232      -305.6446
   8   2.0000     -11.231796      -305.6327
   9   2.0000     -11.231163      -305.6155
  10   2.0000     -11.230503      -305.5975
  11   2.0000     -11.229026      -305.5573
  12   2.0000      -7.494209      -203.9278
  13   2.0000      -5.388716      -146.6344
  14   2.0000      -5.388073      -146.6169
  15   2.0000      -5.387547      -146.6026
  16   2.0000      -1.183474       -32.2040
  17   2.0000      -1.167004       -31.7558
  18   2.0000      -1.113009       -30.2865
  19   2.0000      -1.054737       -28.7009
  20   2.0000      -1.010393       -27.4942
  21   2.0000      -0.985836       -26.8260
  22   2.0000      -0.864035       -23.5116
  23   2.0000      -0.840876       -22.8814
  24   2.0000      -0.838966       -22.8294
  25   2.0000      -0.771242       -20.9866
  26   2.0000      -0.706098       -19.2139
  27   2.0000      -0.692844       -18.8532
  28   2.0000      -0.682249       -18.5649
  29   2.0000      -0.675683       -18.3863
  30   2.0000      -0.622401       -16.9364
  31   2.0000      -0.609098       -16.5744
  32   2.0000      -0.587554       -15.9882
  33   2.0000      -0.572558       -15.5801
  34   2.0000      -0.568361       -15.4659
  35   2.0000      -0.562899       -15.3173
  36   2.0000      -0.539052       -14.6684
  37   2.0000      -0.517022       -14.0689
  38   2.0000      -0.487756       -13.2725
  39   2.0000      -0.475304       -12.9337
  40   2.0000      -0.453519       -12.3409
  41   2.0000      -0.415560       -11.3080
  42   2.0000      -0.395710       -10.7678
  43   2.0000      -0.347817        -9.4646
  44   2.0000      -0.321185        -8.7399
  45   2.0000      -0.285958        -7.7813
  46   0.0000       0.022297         0.6067
  47   0.0000       0.025888         0.7044
  48   0.0000       0.027808         0.7567
  49   0.0000       0.035984         0.9792
  50   0.0000       0.038781         1.0553

MULLIKEN ATOMIC CHARGES
-----------------------
   0 C :   -0.484960
   1 C :   -0.499062
   2 C :   -0.379493
   3 C :   -0.466825
   4 C :    0.949739
   5 C :    0.947992
   6 H :    0.275662
   7 H :    0.215843
   8 H :    0.281409
   9 H :    0.158957
  10 C :   -0.060362
  11 C :   -0.819616
  12 C :   -0.766555
  13 C :   -0.204354
  14 H :    0.204650
  15 H :    0.247205
  16 H :    0.366132
  17 N :   -1.055098
  18 P :    0.745630
  19 H :   -0.131372
  20 H :    0.262219
  21 H :    0.212260
Sum of atomic charges:   -0.0000000

LOEWDIN ATOMIC CHARGES
----------------------
   0 C :    0.311154
   1 C :    0.358967
   2 C :    0.353634
   3 C :    0.352535
   4 C :   -0.119545
   5 C :   -0.184009
   6 H :   -0.387091
   7 H :   -0.319043
   8 H :   -0.321508
   9 H :   -0.319466
  10 C :   -0.225428
  11 C :    0.261914
  12 C :    0.354277
  13 C :    0.360352
  14 H :   -0.318833
  15 H :   -0.320397
  16 H :   -0.376075
  17 N :    1.011612
  18 P :    1.086309
  19 H :   -0.392764
  20 H :   -0.565889
  21 H :   -0.600706

  Mayer bond orders larger than 0.100000
B(  0-C ,  1-C ) :   1.3117 B(  0-C ,  3-C ) :   0.1527 B(  0-C ,  4-C ) :  -0.2306
B(  0-C ,  5-C ) :   0.6562 B(  0-C ,  6-H ) :   0.9707 B(  0-C ,  7-H ) :  -0.1798
B(  0-C , 10-C ) :  -0.2111 B(  1-C ,  2-C ) :   1.1647 B(  1-C ,  4-C ) :   0.1090
B(  1-C ,  5-C ) :  -0.3361 B(  1-C ,  7-H ) :   1.1877 B(  2-C ,  3-C ) :   1.2582
B(  2-C ,  4-C ) :  -0.2704 B(  2-C ,  8-H ) :   1.1164 B(  3-C ,  4-C ) :   0.7481
B(  3-C ,  5-C ) :  -0.3972 B(  3-C ,  8-H ) :  -0.1956 B(  3-C ,  9-H ) :   1.1634
B(  3-C , 12-C ) :  -0.1539 B(  4-C ,  5-C ) :   0.8762 B(  4-C ,  9-H ) :  -0.1690
B(  4-C , 10-C ) :  -0.5290 B(  4-C , 12-C ) :   0.4627 B(  4-C , 13-C ) :  -0.3864
B(  4-C , 14-H ) :  -0.1732 B(  5-C ,  6-H ) :  -0.2442 B(  5-C , 11-C ) :   0.1579
B(  5-C , 13-C ) :   0.1212 B(  5-C , 17-N ) :   0.1033 B(  5-C , 18-P ) :  -0.3370
B(  6-H , 10-C ) :   0.1643 B( 10-C , 11-C ) :   0.7924 B( 10-C , 13-C ) :  -0.2703
B( 10-C , 16-H ) :  -0.1547 B( 10-C , 17-N ) :  -0.1837 B( 10-C , 18-P ) :   0.9836
B( 11-C , 12-C ) :   0.4387 B( 11-C , 13-C ) :   1.1436 B( 11-C , 15-H ) :  -0.1753
B( 11-C , 16-H ) :   0.9545 B( 11-C , 18-P ) :  -0.1054 B( 12-C , 13-C ) :   1.3027
B( 12-C , 14-H ) :   1.1059 B( 12-C , 15-H ) :  -0.2422 B( 13-C , 15-H ) :   1.1802
B( 17-N , 18-P ) :   0.6731 B( 17-N , 20-H ) :   0.9506 B( 17-N , 21-H ) :   1.0595
B( 18-P , 19-H ) :   0.9166

MP2 TOTAL ENERGY:     -781.972782970 Eh
FINAL SINGLE POINT ENERGY      -781.972782970091

DIPOLE MOMENT
-------------
                                X             Y             Z
Electronic contribution:      1.81457      -1.58410      -1.59552
Nuclear contribution   :     -1.53629       1.80996       2.05659
                        -----------------------------------------
Total Dipole Moment    :      0.27827       0.22586       0.46108
                        -----------------------------------------
Magnitude (a.u.)       :      0.58398
Magnitude (Debye)      :      1.48437

Rotational constants in cm-1:     0.049707     0.021671     0.015217
Rotational constants in MHz :  1490.187220   649.684927   456.197669

                             ****ORCA TERMINATED NORMALLY****
TOTAL RUN TIME: 0 days 1 hours 35 minutes 38 seconds 597 msec
