                         Program Version 5.0.4 -  RELEASE  -
|  1> ! ri-mp2 aug-cc-pvdz aug-cc-pvdz/c tightscf
|  2> %pal nprocs 16 end
|  3> %maxcore 3800
|  4> %base "DZ_B-P_83_AB"
|  5>
|  6> *xyz 0 1
|  7> C        -0.549272   -0.162853   -0.035350
|  8> B         1.892112    0.513797    0.131298
|  9> P         3.716747   -0.007690   -0.108320
| 10> C        -1.095930    1.114092   -0.062773
| 11> C        -2.467892    1.279457   -0.024473
| 12> C        -3.314842    0.184566    0.030852
| 13> C        -2.771186   -1.087724    0.047328
| 14> C        -1.399602   -1.260570    0.016039
| 15> H        -0.979490   -2.259265    0.036910
| 16> H        -0.448168    1.975791   -0.120728
| 17> H        -2.879338    2.279980   -0.046407
| 18> H        -4.386913    0.322523    0.056137
| 19> H        -3.416604   -1.955113    0.087394
| 20> N         0.843100   -0.382710   -0.064636
| 21> H         1.662239    1.656494    0.366485
| 22> H         1.069245   -1.354278   -0.217328
| 23> H         3.640026   -1.352200    0.323823
| 24> H         4.217882    0.509593    1.104740
| 25> *
| 26>
| 27> $new_job
| 28> ! ri-mp2 aug-cc-pvtz aug-cc-pvtz/c tightscf
| 29> %pal nprocs 16 end
| 30> %maxcore 3800
| 31> %base "TZ_B-P_83_AB"
| 32>
| 33> *xyz 0 1
| 34> C        -0.549272   -0.162853   -0.035350
| 35> B         1.892112    0.513797    0.131298
| 36> P         3.716747   -0.007690   -0.108320
| 37> C        -1.095930    1.114092   -0.062773
| 38> C        -2.467892    1.279457   -0.024473
| 39> C        -3.314842    0.184566    0.030852
| 40> C        -2.771186   -1.087724    0.047328
| 41> C        -1.399602   -1.260570    0.016039
| 42> H        -0.979490   -2.259265    0.036910
| 43> H        -0.448168    1.975791   -0.120728
| 44> H        -2.879338    2.279980   -0.046407
| 45> H        -4.386913    0.322523    0.056137
| 46> H        -3.416604   -1.955113    0.087394
| 47> N         0.843100   -0.382710   -0.064636
| 48> H         1.662239    1.656494    0.366485
| 49> H         1.069245   -1.354278   -0.217328
| 50> H         3.640026   -1.352200    0.323823
| 51> H         4.217882    0.509593    1.104740
| 52> *
| 53>
| 54> $new_job
| 55> ! ri-mp2 aug-cc-pvqz aug-cc-pvqz/c tightscf
| 56> %pal nprocs 16 end
| 57> %maxcore 3800
| 58> %base "QZ_B-P_83_AB"
| 59>
| 60> *xyz 0 1
| 61> C        -0.549272   -0.162853   -0.035350
| 62> B         1.892112    0.513797    0.131298
| 63> P         3.716747   -0.007690   -0.108320
| 64> C        -1.095930    1.114092   -0.062773
| 65> C        -2.467892    1.279457   -0.024473
| 66> C        -3.314842    0.184566    0.030852
| 67> C        -2.771186   -1.087724    0.047328
| 68> C        -1.399602   -1.260570    0.016039
| 69> H        -0.979490   -2.259265    0.036910
| 70> H        -0.448168    1.975791   -0.120728
| 71> H        -2.879338    2.279980   -0.046407
| 72> H        -4.386913    0.322523    0.056137
| 73> H        -3.416604   -1.955113    0.087394
| 74> N         0.843100   -0.382710   -0.064636
| 75> H         1.662239    1.656494    0.366485
| 76> H         1.069245   -1.354278   -0.217328
| 77> H         3.640026   -1.352200    0.323823
| 78> H         4.217882    0.509593    1.104740
| 79> *
| 80>
| 81>
| 82>
| 83>
| 84>                          ****END OF INPUT****
 Total Charge           Charge          ....    0
 Multiplicity           Mult            ....    1
 Number of Electrons    NEL             ....   72
MP2 TOTAL ENERGY:     -653.594793143 Eh
FINAL SINGLE POINT ENERGY      -653.594793143062
MP2 TOTAL ENERGY:     -653.912877195 Eh
FINAL SINGLE POINT ENERGY      -653.912877195183

CARTESIAN COORDINATES (ANGSTROEM)
---------------------------------
  C     -0.549272   -0.162853   -0.035350
  B      1.892112    0.513797    0.131298
  P      3.716747   -0.007690   -0.108320
  C     -1.095930    1.114092   -0.062773
  C     -2.467892    1.279457   -0.024473
  C     -3.314842    0.184566    0.030852
  C     -2.771186   -1.087724    0.047328
  C     -1.399602   -1.260570    0.016039
  H     -0.979490   -2.259265    0.036910
  H     -0.448168    1.975791   -0.120728
  H     -2.879338    2.279980   -0.046407
  H     -4.386913    0.322523    0.056137
  H     -3.416604   -1.955113    0.087394
  N      0.843100   -0.382710   -0.064636
  H      1.662239    1.656494    0.366485
  H      1.069245   -1.354278   -0.217328
  H      3.640026   -1.352200    0.323823
  H      4.217882    0.509593    1.104740

 Multiplicity           Mult            ....    1
 Number of Electrons    NEL             ....   72
 Basis Dimension        Dim             .... 1138

ORBITAL ENERGIES
----------------

  NO   OCC          E(Eh)            E(eV)
   0   2.0000     -79.920706     -2174.7530
   1   2.0000     -15.580144      -423.9573
   2   2.0000     -11.283642      -307.0435
   3   2.0000     -11.239222      -305.8348
   4   2.0000     -11.238282      -305.8092
   5   2.0000     -11.232882      -305.6623
   6   2.0000     -11.229311      -305.5651
   7   2.0000     -11.227441      -305.5142
   8   2.0000      -7.608883      -207.0482
   9   2.0000      -7.466542      -203.1749
  10   2.0000      -5.360797      -145.8747
  11   2.0000      -5.360354      -145.8627
  12   2.0000      -5.359853      -145.8490
  13   2.0000      -1.239864       -33.7384
  14   2.0000      -1.143268       -31.1099
  15   2.0000      -1.024562       -27.8798
  16   2.0000      -1.003551       -27.3080
  17   2.0000      -0.860048       -23.4031
  18   2.0000      -0.844409       -22.9775
  19   2.0000      -0.820582       -22.3292
  20   2.0000      -0.726097       -19.7581
  21   2.0000      -0.719657       -19.5829
  22   2.0000      -0.669889       -18.2286
  23   2.0000      -0.622460       -16.9380
  24   2.0000      -0.612475       -16.6663
  25   2.0000      -0.592610       -16.1257
  26   2.0000      -0.568301       -15.4642
  27   2.0000      -0.548835       -14.9346
  28   2.0000      -0.523536       -14.2461
  29   2.0000      -0.508278       -13.8309
  30   2.0000      -0.496065       -13.4986
  31   2.0000      -0.471530       -12.8310
  32   2.0000      -0.448062       -12.1924
  33   2.0000      -0.363701        -9.8968
  34   2.0000      -0.346387        -9.4257
  35   2.0000      -0.311193        -8.4680
  36   0.0000       0.021466         0.5841
  37   0.0000       0.026157         0.7118
  38   0.0000       0.029212         0.7949
  39   0.0000       0.036828         1.0021
  40   0.0000       0.038415         1.0453

MULLIKEN ATOMIC CHARGES
-----------------------
   0 C :    1.053615
   1 B :    0.350999
   2 P :    0.180013
   3 C :   -0.342448
   4 C :   -0.352670
   5 C :   -0.370731
   6 C :   -0.297118
   7 C :   -0.553385
   8 H :    0.230012
   9 H :    0.322783
  10 H :    0.241948
  11 H :    0.307228
  12 H :    0.265265
  13 N :   -0.732560
  14 H :   -0.314832
  15 H :    0.165611
  16 H :   -0.077776
  17 H :   -0.075953
Sum of atomic charges:    0.0000000

LOEWDIN ATOMIC CHARGES
----------------------
   0 C :   -0.229527
   1 B :   -0.540951
   2 P :    1.607286
   3 C :    0.338588
   4 C :    0.343408
   5 C :    0.335111
   6 C :    0.337329
   7 C :    0.344001
   8 H :   -0.316512
   9 H :   -0.353708
  10 H :   -0.316788
  11 H :   -0.326370
  12 H :   -0.318302
  13 N :    0.889760
  14 H :   -0.218045
  15 H :   -0.564044
  16 H :   -0.501189
  17 H :   -0.510047

  Mayer bond orders larger than 0.100000
B(  0-C ,  3-C ) :   1.0363 B(  0-C ,  4-C ) :  -0.3416 B(  0-C ,  6-C ) :  -0.3353
B(  0-C ,  7-C ) :   0.9393 B(  0-C , 13-N ) :   0.6195 B(  0-C , 15-H ) :  -0.1444
B(  1-B ,  2-P ) :   1.0971 B(  1-B , 13-N ) :   1.0990 B(  1-B , 14-H ) :   0.8580
B(  2-P , 16-H ) :   0.9222 B(  2-P , 17-H ) :   0.9119 B(  3-C ,  4-C ) :   1.2247
B(  3-C ,  6-C ) :   0.1151 B(  3-C ,  9-H ) :   0.9304 B(  3-C , 10-H ) :  -0.1391
B(  4-C ,  5-C ) :   1.1810 B(  4-C ,  7-C ) :   0.1509 B(  4-C , 10-H ) :   1.1369
B(  5-C ,  6-C ) :   1.1546 B(  5-C ,  7-C ) :   0.1093 B(  5-C , 11-H ) :   1.0256
B(  6-C ,  7-C ) :   1.3163 B(  6-C , 12-H ) :   1.1155 B(  7-C ,  8-H ) :   1.0195
B(  7-C , 12-H ) :  -0.1554 B( 13-N , 15-H ) :   1.1324

MP2 TOTAL ENERGY:     -654.014099969 Eh
FINAL SINGLE POINT ENERGY      -654.014099968775

DIPOLE MOMENT
-------------
                                X             Y             Z
Electronic contribution:      6.00815       0.21041      -1.35921
Nuclear contribution   :     -6.49850      -0.57812       1.56820
                        -----------------------------------------
Total Dipole Moment    :     -0.49035      -0.36771       0.20899
                        -----------------------------------------
Magnitude (a.u.)       :      0.64756
Magnitude (Debye)      :      1.64596

Rotational constants in cm-1:     0.167403     0.018870     0.017034
Rotational constants in MHz :  5018.628856   565.715445   510.675597

                             ****ORCA TERMINATED NORMALLY****
TOTAL RUN TIME: 0 days 0 hours 35 minutes 46 seconds 761 msec
