                         Program Version 5.0.4 -  RELEASE  -
|  1> ! ri-mp2 aug-cc-pvdz aug-cc-pvdz/c tightscf
|  2> %pal nprocs 16 end
|  3> %maxcore 3800
|  4> %base "DZ_P-Si_44_AB"
|  5> %scf
|  6> STABPerform true
|  7> STABRestartUHFifUnstable true
|  8> end
|  9>
| 10> *xyz 0 1
| 11> Si        -1.017096   -0.343915   -0.304885
| 12> P         1.062861    0.408080   -0.601690
| 13> C         1.278589    1.302096    1.001853
| 14> H         0.640188    2.184978    1.011135
| 15> H         2.312287    1.637477    1.085667
| 16> H         1.032895    0.682555    1.863440
| 17> C         1.980602   -1.161256   -0.256449
| 18> H         3.050139   -0.951579   -0.249443
| 19> H         1.792163   -1.878915   -1.054839
| 20> H         1.703004   -1.611753    0.696123
| 21> O        -1.146949   -0.993666    1.193540
| 22> H        -2.019389   -1.195951    1.538092
| 23> O        -2.122411    0.873172   -0.380954
| 24> H        -2.286569    1.301280   -1.223187
| 25> H        -1.328551   -1.355570   -1.346355
| 26> *
| 27>
| 28> $new_job
| 29> ! ri-mp2 aug-cc-pvtz aug-cc-pvtz/c tightscf
| 30> %pal nprocs 16 end
| 31> %maxcore 3800
| 32> %base "TZ_P-Si_44_AB"
| 33>
| 34> *xyz 0 1
| 35> Si        -1.017096   -0.343915   -0.304885
| 36> P         1.062861    0.408080   -0.601690
| 37> C         1.278589    1.302096    1.001853
| 38> H         0.640188    2.184978    1.011135
| 39> H         2.312287    1.637477    1.085667
| 40> H         1.032895    0.682555    1.863440
| 41> C         1.980602   -1.161256   -0.256449
| 42> H         3.050139   -0.951579   -0.249443
| 43> H         1.792163   -1.878915   -1.054839
| 44> H         1.703004   -1.611753    0.696123
| 45> O        -1.146949   -0.993666    1.193540
| 46> H        -2.019389   -1.195951    1.538092
| 47> O        -2.122411    0.873172   -0.380954
| 48> H        -2.286569    1.301280   -1.223187
| 49> H        -1.328551   -1.355570   -1.346355
| 50> *
| 51>
| 52> $new_job
| 53> ! ri-mp2 aug-cc-pvqz aug-cc-pvqz/c tightscf
| 54> %pal nprocs 16 end
| 55> %maxcore 3800
| 56> %base "QZ_P-Si_44_AB"
| 57>
| 58> *xyz 0 1
| 59> Si        -1.017096   -0.343915   -0.304885
| 60> P         1.062861    0.408080   -0.601690
| 61> C         1.278589    1.302096    1.001853
| 62> H         0.640188    2.184978    1.011135
| 63> H         2.312287    1.637477    1.085667
| 64> H         1.032895    0.682555    1.863440
| 65> C         1.980602   -1.161256   -0.256449
| 66> H         3.050139   -0.951579   -0.249443
| 67> H         1.792163   -1.878915   -1.054839
| 68> H         1.703004   -1.611753    0.696123
| 69> O        -1.146949   -0.993666    1.193540
| 70> H        -2.019389   -1.195951    1.538092
| 71> O        -2.122411    0.873172   -0.380954
| 72> H        -2.286569    1.301280   -1.223187
| 73> H        -1.328551   -1.355570   -1.346355
| 74> *
| 75>
| 76>
| 77>
| 78>
| 79>                          ****END OF INPUT****
 Total Charge           Charge          ....    0
 Multiplicity           Mult            ....    1
 Number of Electrons    NEL             ....   66
MP2 TOTAL ENERGY:     -861.444582177 Eh
FINAL SINGLE POINT ENERGY      -861.444582177107
MP2 TOTAL ENERGY:     -861.749335450 Eh
FINAL SINGLE POINT ENERGY      -861.749335449945

CARTESIAN COORDINATES (ANGSTROEM)
---------------------------------
  Si    -1.017096   -0.343915   -0.304885
  P      1.062861    0.408080   -0.601690
  C      1.278589    1.302096    1.001853
  H      0.640188    2.184978    1.011135
  H      2.312287    1.637477    1.085667
  H      1.032895    0.682555    1.863440
  C      1.980602   -1.161256   -0.256449
  H      3.050139   -0.951579   -0.249443
  H      1.792163   -1.878915   -1.054839
  H      1.703004   -1.611753    0.696123
  O     -1.146949   -0.993666    1.193540
  H     -2.019389   -1.195951    1.538092
  O     -2.122411    0.873172   -0.380954
  H     -2.286569    1.301280   -1.223187
  H     -1.328551   -1.355570   -1.346355

 Multiplicity           Mult            ....    1
 Number of Electrons    NEL             ....   66
 Basis Dimension        Dim             ....  902

ORBITAL ENERGIES
----------------

  NO   OCC          E(Eh)            E(eV)
   0   2.0000     -79.915835     -2174.6204
   1   2.0000     -68.803991     -1872.2518
   2   2.0000     -20.558092      -559.4141
   3   2.0000     -20.556426      -559.3688
   4   2.0000     -11.221450      -305.3512
   5   2.0000     -11.218654      -305.2751
   6   2.0000      -7.459669      -202.9879
   7   2.0000      -6.145553      -167.2290
   8   2.0000      -5.353850      -145.6857
   9   2.0000      -5.353806      -145.6845
  10   2.0000      -5.352891      -145.6596
  11   2.0000      -4.253069      -115.7319
  12   2.0000      -4.252619      -115.7196
  13   2.0000      -4.252288      -115.7106
  14   2.0000      -1.356551       -36.9136
  15   2.0000      -1.332344       -36.2549
  16   2.0000      -0.998747       -27.1773
  17   2.0000      -0.934999       -25.4426
  18   2.0000      -0.784838       -21.3565
  19   2.0000      -0.722677       -19.6650
  20   2.0000      -0.703489       -19.1429
  21   2.0000      -0.620301       -16.8793
  22   2.0000      -0.590183       -16.0597
  23   2.0000      -0.581081       -15.8120
  24   2.0000      -0.565367       -15.3844
  25   2.0000      -0.555228       -15.1085
  26   2.0000      -0.553022       -15.0485
  27   2.0000      -0.535631       -14.5753
  28   2.0000      -0.524665       -14.2769
  29   2.0000      -0.492293       -13.3960
  30   2.0000      -0.459952       -12.5159
  31   2.0000      -0.405795       -11.0423
  32   2.0000      -0.327452        -8.9104
  33   0.0000       0.023544         0.6407
  34   0.0000       0.032181         0.8757
  35   0.0000       0.034837         0.9480
  36   0.0000       0.035622         0.9693
  37   0.0000       0.048096         1.3088

MULLIKEN ATOMIC CHARGES
-----------------------
   0 Si:    1.677737
   1 P :    0.279074
   2 C :   -1.172188
   3 H :    0.343259
   4 H :    0.369520
   5 H :    0.320042
   6 C :   -1.165425
   7 H :    0.358725
   8 H :    0.331931
   9 H :    0.307927
  10 O :   -0.932143
  11 H :    0.326605
  12 O :   -1.067399
  13 H :    0.363135
  14 H :   -0.340800
Sum of atomic charges:    0.0000000

LOEWDIN ATOMIC CHARGES
----------------------
   0 Si:   -0.325753
   1 P :    0.908548
   2 C :    0.712818
   3 H :   -0.365093
   4 H :   -0.359878
   5 H :   -0.362751
   6 C :    0.705575
   7 H :   -0.360958
   8 H :   -0.368342
   9 H :   -0.358342
  10 O :    1.093319
  11 H :   -0.873379
  12 O :    1.082289
  13 H :   -0.894986
  14 H :   -0.233067

  Mayer bond orders larger than 0.100000
B(  0-Si,  1-P ) :   0.9498 B(  0-Si, 10-O ) :   0.5942 B(  0-Si, 12-O ) :   0.4768
B(  0-Si, 14-H ) :   0.7873 B(  1-P ,  2-C ) :   0.8647 B(  1-P ,  6-C ) :   0.8664
B(  2-C ,  3-H ) :   0.8895 B(  2-C ,  4-H ) :   0.8630 B(  2-C ,  5-H ) :   0.8791
B(  6-C ,  7-H ) :   0.8691 B(  6-C ,  8-H ) :   0.8972 B(  6-C ,  9-H ) :   0.8889
B( 10-O , 11-H ) :   0.9483 B( 12-O , 13-H ) :   0.8907

MP2 TOTAL ENERGY:     -861.845360462 Eh
FINAL SINGLE POINT ENERGY      -861.845360462401

DIPOLE MOMENT
-------------
                                X             Y             Z
Electronic contribution:     -4.17506       1.39177      -2.93358
Nuclear contribution   :      3.88789      -1.55465       2.92029
                        -----------------------------------------
Total Dipole Moment    :     -0.28717      -0.16288      -0.01329
                        -----------------------------------------
Magnitude (a.u.)       :      0.33041
Magnitude (Debye)      :      0.83985

Rotational constants in cm-1:     0.106890     0.052444     0.047969
Rotational constants in MHz :  3204.488231  1572.236205  1438.082318

                             ****ORCA TERMINATED NORMALLY****
TOTAL RUN TIME: 0 days 1 hours 28 minutes 12 seconds 450 msec
