                         Program Version 5.0.4 -  RELEASE  -
|  1> ! ri-mp2 aug-cc-pvdz aug-cc-pvdz/c tightscf
|  2> %pal nprocs 16 end
|  3> %maxcore 3800
|  4> %base "DZ_B-Cl_81_A"
|  5> %scf
|  6> STABPerform true
|  7> STABRestartUHFifUnstable true
|  8> end
|  9>
| 10> *xyz 0 2
| 11> Cl        -2.517316   -0.023330   -0.413006
| 12> B        -0.916035    0.253842   -0.912167
| 13> C         0.393303   -0.006976   -0.080692
| 14> Cl         0.655222    1.607371    0.650382
| 15> Cl         0.241404   -1.230559    1.195032
| 16> Cl         1.751300   -0.425679   -1.135645
| 17> *
| 18>
| 19> $new_job
| 20> ! ri-mp2 aug-cc-pvtz aug-cc-pvtz/c tightscf
| 21> %pal nprocs 16 end
| 22> %maxcore 3800
| 23> %base "TZ_B-Cl_81_A"
| 24>
| 25> *xyz 0 2
| 26> Cl        -2.517316   -0.023330   -0.413006
| 27> B        -0.916035    0.253842   -0.912167
| 28> C         0.393303   -0.006976   -0.080692
| 29> Cl         0.655222    1.607371    0.650382
| 30> Cl         0.241404   -1.230559    1.195032
| 31> Cl         1.751300   -0.425679   -1.135645
| 32> *
| 33>
| 34> $new_job
| 35> ! ri-mp2 aug-cc-pvqz aug-cc-pvqz/c tightscf
| 36> %pal nprocs 16 end
| 37> %maxcore 3800
| 38> %base "QZ_B-Cl_81_A"
| 39>
| 40> *xyz 0 2
| 41> Cl        -2.517316   -0.023330   -0.413006
| 42> B        -0.916035    0.253842   -0.912167
| 43> C         0.393303   -0.006976   -0.080692
| 44> Cl         0.655222    1.607371    0.650382
| 45> Cl         0.241404   -1.230559    1.195032
| 46> Cl         1.751300   -0.425679   -1.135645
| 47> *
| 48>
| 49>
| 50>
| 51>
| 52>                          ****END OF INPUT****
 Total Charge           Charge          ....    0
 Multiplicity           Mult            ....    2
 Number of Electrons    NEL             ....   79
MP2 TOTAL ENERGY:    -1901.326544198 Eh
FINAL SINGLE POINT ENERGY     -1901.326544197693
MP2 TOTAL ENERGY:    -1901.615767922 Eh
FINAL SINGLE POINT ENERGY     -1901.615767922042

CARTESIAN COORDINATES (ANGSTROEM)
---------------------------------
  Cl    -2.517316   -0.023330   -0.413006
  B     -0.916035    0.253842   -0.912167
  C      0.393303   -0.006976   -0.080692
  Cl     0.655222    1.607371    0.650382
  Cl     0.241404   -1.230559    1.195032
  Cl     1.751300   -0.425679   -1.135645

 Multiplicity           Mult            ....    2
 Number of Electrons    NEL             ....   79
 Basis Dimension        Dim             ....  496

ORBITAL ENERGIES
----------------
                 SPIN UP ORBITALS
  NO   OCC          E(Eh)            E(eV)
   0   1.0000    -104.874579     -2853.7824
   1   1.0000    -104.870211     -2853.6635
   2   1.0000    -104.868830     -2853.6259
   3   1.0000    -104.867026     -2853.5768
   4   1.0000     -11.429060      -311.0005
   5   1.0000     -10.600028      -288.4414
   6   1.0000     -10.597884      -288.3831
   7   1.0000     -10.594449      -288.2896
   8   1.0000     -10.592644      -288.2405
   9   1.0000      -8.066928      -219.5123
  10   1.0000      -8.065595      -219.4760
  11   1.0000      -8.065027      -219.4605
  12   1.0000      -8.064924      -219.4577
  13   1.0000      -8.063408      -219.4165
  14   1.0000      -8.062999      -219.4054
  15   1.0000      -8.061380      -219.3613
  16   1.0000      -8.060362      -219.3336
  17   1.0000      -8.059508      -219.3104
  18   1.0000      -8.059419      -219.3079
  19   1.0000      -8.057554      -219.2572
  20   1.0000      -8.057533      -219.2566
  21   1.0000      -7.719403      -210.0556
  22   1.0000      -1.247712       -33.9520
  23   1.0000      -1.155645       -31.4467
  24   1.0000      -1.121643       -30.5214
  25   1.0000      -1.117491       -30.4085
  26   1.0000      -0.885659       -24.1000
  27   1.0000      -0.713573       -19.4173
  28   1.0000      -0.641935       -17.4679
  29   1.0000      -0.634797       -17.2737
  30   1.0000      -0.626303       -17.0426
  31   1.0000      -0.540888       -14.7183
  32   1.0000      -0.525680       -14.3045
  33   1.0000      -0.509868       -13.8742
  34   1.0000      -0.501827       -13.6554
  35   1.0000      -0.472000       -12.8438
  36   1.0000      -0.469870       -12.7858
  37   1.0000      -0.461329       -12.5534
  38   1.0000      -0.455965       -12.4074
  39   1.0000      -0.373486       -10.1631
  40   0.0000       0.031234         0.8499
  41   0.0000       0.034111         0.9282
  42   0.0000       0.038348         1.0435
  43   0.0000       0.043067         1.1719
  44   0.0000       0.047177         1.2837

                 SPIN DOWN ORBITALS
  NO   OCC          E(Eh)            E(eV)
   0   1.0000    -104.874604     -2853.7831
   1   1.0000    -104.869486     -2853.6438
   2   1.0000    -104.868762     -2853.6241
   3   1.0000    -104.866534     -2853.5635
   4   1.0000     -11.427993      -310.9715
   5   1.0000     -10.600054      -288.4421
   6   1.0000     -10.597026      -288.3597
   7   1.0000     -10.594358      -288.2871
   8   1.0000     -10.592136      -288.2267
   9   1.0000      -8.066988      -219.5139
  10   1.0000      -8.065090      -219.4622
  11   1.0000      -8.064937      -219.4581
  12   1.0000      -8.064025      -219.4333
  13   1.0000      -8.063357      -219.4151
  14   1.0000      -8.061390      -219.3616
  15   1.0000      -8.061110      -219.3540
  16   1.0000      -8.059398      -219.3074
  17   1.0000      -8.059229      -219.3028
  18   1.0000      -8.058541      -219.2841
  19   1.0000      -8.057285      -219.2499
  20   1.0000      -8.057019      -219.2426
  21   1.0000      -7.697512      -209.4599
  22   1.0000      -1.244774       -33.8720
  23   1.0000      -1.147715       -31.2309
  24   1.0000      -1.121023       -30.5046
  25   1.0000      -1.114619       -30.3303
  26   1.0000      -0.873242       -23.7621
  27   1.0000      -0.694682       -18.9033
  28   1.0000      -0.635198       -17.2846
  29   1.0000      -0.632796       -17.2193
  30   1.0000      -0.608319       -16.5532
  31   1.0000      -0.528862       -14.3911
  32   1.0000      -0.514198       -13.9920
  33   1.0000      -0.508445       -13.8355
  34   1.0000      -0.497167       -13.5286
  35   1.0000      -0.471960       -12.8427
  36   1.0000      -0.467597       -12.7240
  37   1.0000      -0.455704       -12.4003
  38   1.0000      -0.453220       -12.3328
  39   0.0000       0.025880         0.7042
  40   0.0000       0.036355         0.9893
  41   0.0000       0.038378         1.0443
  42   0.0000       0.042969         1.1692
  43   0.0000       0.057750         1.5715

MULLIKEN ATOMIC CHARGES AND SPIN POPULATIONS
--------------------------------------------
   0 Cl:   -0.192926    0.019632
   1 B :    0.459561    0.991369
   2 C :    0.279601   -0.057392
   3 Cl:   -0.172737    0.004135
   4 Cl:   -0.189789    0.040169
   5 Cl:   -0.183710    0.002087
Sum of atomic charges         :   -0.0000000

LOEWDIN ATOMIC CHARGES AND SPIN POPULATIONS
-------------------------------------------
   0 Cl:    1.229456    0.164258
   1 B :   -1.715302    0.575156
   2 C :   -2.518333    0.169577
   3 Cl:    1.023174    0.023250
   4 Cl:    0.978263    0.039851
   5 Cl:    1.002743    0.027907

  Mayer bond orders larger than 0.100000
B(  0-Cl,  1-B ) :   1.1866 B(  1-B ,  2-C ) :   0.7647 B(  2-C ,  3-Cl) :   0.8235
B(  2-C ,  4-Cl) :   0.8158 B(  2-C ,  5-Cl) :   0.8142

MP2 TOTAL ENERGY:    -1901.713888577 Eh
FINAL SINGLE POINT ENERGY     -1901.713888577035

DIPOLE MOMENT
-------------
                                X             Y             Z
Electronic contribution:     -0.70996       0.09197      -0.38015
Nuclear contribution   :      0.49682      -0.09125       0.27979
                        -----------------------------------------
Total Dipole Moment    :     -0.21314       0.00072      -0.10037
                        -----------------------------------------
Magnitude (a.u.)       :      0.23559
Magnitude (Debye)      :      0.59882

Rotational constants in cm-1:     0.060445     0.034539     0.032795
Rotational constants in MHz :  1812.089215  1035.442447   983.159768

                             ****ORCA TERMINATED NORMALLY****
TOTAL RUN TIME: 0 days 0 hours 32 minutes 36 seconds 626 msec
