                         Program Version 5.0.4 -  RELEASE  -
|  1> ! ri-mp2 aug-cc-pvdz aug-cc-pvdz/c tightscf
|  2> %pal nprocs 16 end
|  3> %maxcore 3800
|  4> %base "DZ_S-Cl_11_AB"
|  5> %scf
|  6> STABPerform true
|  7> STABRestartUHFifUnstable true
|  8> end
|  9>
| 10> *xyz 0 1
| 11> Cl         1.854937   -0.873211    0.199939
| 12> S         1.051583    0.875450   -0.483796
| 13> Si        -0.844501    0.763203    0.479828
| 14> Cl        -2.024524   -0.731613   -0.262537
| 15> H        -0.667862    0.521712    1.916927
| 16> H        -1.451473    2.068266    0.170381
| 17> *
| 18>
| 19> $new_job
| 20> ! ri-mp2 aug-cc-pvtz aug-cc-pvtz/c tightscf
| 21> %pal nprocs 16 end
| 22> %maxcore 3800
| 23> %base "TZ_S-Cl_11_AB"
| 24>
| 25> *xyz 0 1
| 26> Cl         1.854937   -0.873211    0.199939
| 27> S         1.051583    0.875450   -0.483796
| 28> Si        -0.844501    0.763203    0.479828
| 29> Cl        -2.024524   -0.731613   -0.262537
| 30> H        -0.667862    0.521712    1.916927
| 31> H        -1.451473    2.068266    0.170381
| 32> *
| 33>
| 34> $new_job
| 35> ! ri-mp2 aug-cc-pvqz aug-cc-pvqz/c tightscf
| 36> %pal nprocs 16 end
| 37> %maxcore 3800
| 38> %base "QZ_S-Cl_11_AB"
| 39>
| 40> *xyz 0 1
| 41> Cl         1.854937   -0.873211    0.199939
| 42> S         1.051583    0.875450   -0.483796
| 43> Si        -0.844501    0.763203    0.479828
| 44> Cl        -2.024524   -0.731613   -0.262537
| 45> H        -0.667862    0.521712    1.916927
| 46> H        -1.451473    2.068266    0.170381
| 47> *
| 48>
| 49>
| 50>
| 51>
| 52>                          ****END OF INPUT****
 Total Charge           Charge          ....    0
 Multiplicity           Mult            ....    1
 Number of Electrons    NEL             ....   66
MP2 TOTAL ENERGY:    -1607.234160066 Eh
FINAL SINGLE POINT ENERGY     -1607.234160066273
MP2 TOTAL ENERGY:    -1607.451165008 Eh
FINAL SINGLE POINT ENERGY     -1607.451165007956

CARTESIAN COORDINATES (ANGSTROEM)
---------------------------------
  Cl     1.854937   -0.873211    0.199939
  S      1.051583    0.875450   -0.483796
  Si    -0.844501    0.763203    0.479828
  Cl    -2.024524   -0.731613   -0.262537
  H     -0.667862    0.521712    1.916927
  H     -1.451473    2.068266    0.170381

 Multiplicity           Mult            ....    1
 Number of Electrons    NEL             ....   66
 Basis Dimension        Dim             ....  428

ORBITAL ENERGIES
----------------

  NO   OCC          E(Eh)            E(eV)
   0   2.0000    -104.866703     -2853.5681
   1   2.0000    -104.841735     -2852.8887
   2   2.0000     -92.012525     -2503.7881
   3   2.0000     -68.853457     -1873.5978
   4   2.0000     -10.590650      -288.1862
   5   2.0000     -10.569187      -287.6022
   6   2.0000      -9.012752      -245.2495
   7   2.0000      -8.057683      -219.2607
   8   2.0000      -8.055627      -219.2047
   9   2.0000      -8.055494      -219.2011
  10   2.0000      -8.035970      -218.6699
  11   2.0000      -8.034818      -218.6385
  12   2.0000      -8.034777      -218.6374
  13   2.0000      -6.693996      -182.1529
  14   2.0000      -6.692391      -182.1092
  15   2.0000      -6.691526      -182.0857
  16   2.0000      -6.196465      -168.6144
  17   2.0000      -4.303307      -117.0989
  18   2.0000      -4.302950      -117.0892
  19   2.0000      -4.302157      -117.0676
  20   2.0000      -1.151857       -31.3436
  21   2.0000      -1.112218       -30.2650
  22   2.0000      -0.934277       -25.4230
  23   2.0000      -0.723625       -19.6908
  24   2.0000      -0.573591       -15.6082
  25   2.0000      -0.560476       -15.2513
  26   2.0000      -0.556747       -15.1499
  27   2.0000      -0.524263       -14.2659
  28   2.0000      -0.517417       -14.0796
  29   2.0000      -0.483606       -13.1596
  30   2.0000      -0.465902       -12.6778
  31   2.0000      -0.431813       -11.7502
  32   2.0000      -0.385481       -10.4895
  33   0.0000       0.028437         0.7738
  34   0.0000       0.033405         0.9090
  35   0.0000       0.039023         1.0619
  36   0.0000       0.041145         1.1196
  37   0.0000       0.049093         1.3359

MULLIKEN ATOMIC CHARGES
-----------------------
   0 Cl:   -0.269091
   1 S :   -0.126602
   2 Si:    1.334968
   3 Cl:   -0.537329
   4 H :   -0.185799
   5 H :   -0.216148
Sum of atomic charges:    0.0000000

LOEWDIN ATOMIC CHARGES
----------------------
   0 Cl:    0.413999
   1 S :    0.169169
   2 Si:   -0.715448
   3 Cl:    0.841094
   4 H :   -0.350180
   5 H :   -0.358634

  Mayer bond orders larger than 0.100000
B(  0-Cl,  1-S ) :   0.9417 B(  1-S ,  2-Si) :   0.7744 B(  2-Si,  3-Cl) :   0.5845
B(  2-Si,  4-H ) :   0.9074 B(  2-Si,  5-H ) :   0.9061

MP2 TOTAL ENERGY:    -1607.524020359 Eh
FINAL SINGLE POINT ENERGY     -1607.524020358770

DIPOLE MOMENT
-------------
                                X             Y             Z
Electronic contribution:      1.50420      -3.95027      -1.73362
Nuclear contribution   :     -1.73063       4.48292       2.01452
                        -----------------------------------------
Total Dipole Moment    :     -0.22642       0.53265       0.28090
                        -----------------------------------------
Magnitude (a.u.)       :      0.64334
Magnitude (Debye)      :      1.63524

Rotational constants in cm-1:     0.149427     0.048599     0.040452
Rotational constants in MHz :  4479.703191  1456.960673  1212.705729

                             ****ORCA TERMINATED NORMALLY****
TOTAL RUN TIME: 0 days 0 hours 9 minutes 11 seconds 22 msec
