                         Program Version 5.0.4 -  RELEASE  -
|  1> ! ri-mp2 aug-cc-pvdz aug-cc-pvdz/c tightscf
|  2> %pal nprocs 16 end
|  3> %maxcore 3800
|  4> %base "DZ_Si-Si_156_AB"
|  5> %scf
|  6> STABPerform true
|  7> STABRestartUHFifUnstable true
|  8> end
|  9>
| 10> *xyz 0 1
| 11> Si        -2.091525   -0.583906    0.092311
| 12> Si        -0.542047    1.152367   -0.114210
| 13> H        -2.148736   -1.350874   -1.165076
| 14> H        -3.415349    0.026123    0.354344
| 15> H        -1.719973   -1.451460    1.225197
| 16> S         1.447726    0.144300   -0.210846
| 17> H        -0.523066    2.131513    0.993210
| 18> H        -0.632385    1.868782   -1.404303
| 19> O         1.196035   -0.991951   -1.115399
| 20> O         1.302135   -0.358985    1.366556
| 21> H         2.160549   -0.683857    1.667486
| 22> *
| 23>
| 24> $new_job
| 25> ! ri-mp2 aug-cc-pvtz aug-cc-pvtz/c tightscf
| 26> %pal nprocs 16 end
| 27> %maxcore 3800
| 28> %base "TZ_Si-Si_156_AB"
| 29>
| 30> *xyz 0 1
| 31> Si        -2.091525   -0.583906    0.092311
| 32> Si        -0.542047    1.152367   -0.114210
| 33> H        -2.148736   -1.350874   -1.165076
| 34> H        -3.415349    0.026123    0.354344
| 35> H        -1.719973   -1.451460    1.225197
| 36> S         1.447726    0.144300   -0.210846
| 37> H        -0.523066    2.131513    0.993210
| 38> H        -0.632385    1.868782   -1.404303
| 39> O         1.196035   -0.991951   -1.115399
| 40> O         1.302135   -0.358985    1.366556
| 41> H         2.160549   -0.683857    1.667486
| 42> *
| 43>
| 44> $new_job
| 45> ! ri-mp2 aug-cc-pvqz aug-cc-pvqz/c tightscf
| 46> %pal nprocs 16 end
| 47> %maxcore 3800
| 48> %base "QZ_Si-Si_156_AB"
| 49>
| 50> *xyz 0 1
| 51> Si        -2.091525   -0.583906    0.092311
| 52> Si        -0.542047    1.152367   -0.114210
| 53> H        -2.148736   -1.350874   -1.165076
| 54> H        -3.415349    0.026123    0.354344
| 55> H        -1.719973   -1.451460    1.225197
| 56> S         1.447726    0.144300   -0.210846
| 57> H        -0.523066    2.131513    0.993210
| 58> H        -0.632385    1.868782   -1.404303
| 59> O         1.196035   -0.991951   -1.115399
| 60> O         1.302135   -0.358985    1.366556
| 61> H         2.160549   -0.683857    1.667486
| 62> *
| 63>
| 64>
| 65>
| 66>
| 67>                          ****END OF INPUT****
 Total Charge           Charge          ....    0
 Multiplicity           Mult            ....    1
 Number of Electrons    NEL             ....   66
MP2 TOTAL ENERGY:    -1129.333555042 Eh
FINAL SINGLE POINT ENERGY     -1129.333555041699
MP2 TOTAL ENERGY:    -1129.605183511 Eh
FINAL SINGLE POINT ENERGY     -1129.605183511492

CARTESIAN COORDINATES (ANGSTROEM)
---------------------------------
  Si    -2.091525   -0.583906    0.092311
  Si    -0.542047    1.152367   -0.114210
  H     -2.148736   -1.350874   -1.165076
  H     -3.415349    0.026123    0.354344
  H     -1.719973   -1.451460    1.225197
  S      1.447726    0.144300   -0.210846
  H     -0.523066    2.131513    0.993210
  H     -0.632385    1.868782   -1.404303
  O      1.196035   -0.991951   -1.115399
  O      1.302135   -0.358985    1.366556
  H      2.160549   -0.683857    1.667486

 Multiplicity           Mult            ....    1
 Number of Electrons    NEL             ....   66
 Basis Dimension        Dim             ....  688

ORBITAL ENERGIES
----------------

  NO   OCC          E(Eh)            E(eV)
   0   2.0000     -92.096283     -2506.0673
   1   2.0000     -68.801949     -1872.1962
   2   2.0000     -68.778078     -1871.5466
   3   2.0000     -20.611330      -560.8628
   4   2.0000     -20.525749      -558.5340
   5   2.0000      -9.080525      -247.0937
   6   2.0000      -6.762964      -184.0296
   7   2.0000      -6.761647      -183.9938
   8   2.0000      -6.760580      -183.9647
   9   2.0000      -6.151922      -167.4023
  10   2.0000      -6.128720      -166.7709
  11   2.0000      -4.258040      -115.8672
  12   2.0000      -4.257413      -115.8501
  13   2.0000      -4.257191      -115.8441
  14   2.0000      -4.235068      -115.2421
  15   2.0000      -4.234739      -115.2331
  16   2.0000      -4.234608      -115.2296
  17   2.0000      -1.424136       -38.7527
  18   2.0000      -1.338636       -36.4261
  19   2.0000      -0.920564       -25.0498
  20   2.0000      -0.765403       -20.8277
  21   2.0000      -0.717679       -19.5290
  22   2.0000      -0.694174       -18.8894
  23   2.0000      -0.627278       -17.0691
  24   2.0000      -0.615780       -16.7562
  25   2.0000      -0.571930       -15.5630
  26   2.0000      -0.518827       -14.1180
  27   2.0000      -0.510230       -13.8841
  28   2.0000      -0.491524       -13.3750
  29   2.0000      -0.485469       -13.2103
  30   2.0000      -0.454478       -12.3670
  31   2.0000      -0.429113       -11.6767
  32   2.0000      -0.364414        -9.9162
  33   0.0000       0.022996         0.6258
  34   0.0000       0.028750         0.7823
  35   0.0000       0.030266         0.8236
  36   0.0000       0.041304         1.1239
  37   0.0000       0.045757         1.2451

MULLIKEN ATOMIC CHARGES
-----------------------
   0 Si:    0.371484
   1 Si:    0.928880
   2 H :   -0.100864
   3 H :   -0.171569
   4 H :   -0.111974
   5 S :    1.047878
   6 H :   -0.192752
   7 H :   -0.243155
   8 O :   -1.103863
   9 O :   -0.751451
  10 H :    0.327387
Sum of atomic charges:   -0.0000000

LOEWDIN ATOMIC CHARGES
----------------------
   0 Si:    1.000451
   1 Si:    0.473659
   2 H :   -0.306321
   3 H :   -0.323012
   4 H :   -0.306644
   5 S :    0.197867
   6 H :   -0.304833
   7 H :   -0.313785
   8 O :   -0.018830
   9 O :    0.834132
  10 H :   -0.932684

  Mayer bond orders larger than 0.100000
B(  0-Si,  1-Si) :   0.7464 B(  0-Si,  2-H ) :   0.7753 B(  0-Si,  3-H ) :   0.7713
B(  0-Si,  4-H ) :   0.7768 B(  1-Si,  5-S ) :   0.6249 B(  1-Si,  6-H ) :   0.8592
B(  1-Si,  7-H ) :   0.8485 B(  5-S ,  8-O ) :   1.3198 B(  5-S ,  9-O ) :   0.8093
B(  9-O , 10-H ) :   0.9271

MP2 TOTAL ENERGY:    -1129.694836266 Eh
FINAL SINGLE POINT ENERGY     -1129.694836266071

DIPOLE MOMENT
-------------
                                X             Y             Z
Electronic contribution:      5.91412       0.38080      -0.83783
Nuclear contribution   :     -6.01160       0.47113       1.65167
                        -----------------------------------------
Total Dipole Moment    :     -0.09748       0.85193       0.81384
                        -----------------------------------------
Magnitude (a.u.)       :      1.18221
Magnitude (Debye)      :      3.00493

Rotational constants in cm-1:     0.121798     0.050590     0.048040
Rotational constants in MHz :  3651.424284  1516.651449  1440.192917

                             ****ORCA TERMINATED NORMALLY****
TOTAL RUN TIME: 0 days 0 hours 36 minutes 38 seconds 522 msec
