                         Program Version 5.0.4 -  RELEASE  -
|  1> ! ri-mp2 aug-cc-pvdz aug-cc-pvdz/c tightscf
|  2> %pal nprocs 16 end
|  3> %maxcore 3800
|  4> %base "DZ_P-C_71_AB"
|  5>
|  6> *xyz 0 1
|  7> C        -2.455363   -0.141634    0.607902
|  8> P        -1.510959   -0.736738   -0.870499
|  9> C         0.200385   -0.294295   -0.407028
| 10> C         0.831516    0.870031   -0.833115
| 11> C         0.914684   -1.178195    0.397799
| 12> C         2.212393   -0.896358    0.785884
| 13> C         2.828144    0.267038    0.354736
| 14> C         2.136347    1.146239   -0.460592
| 15> H         3.846014    0.484962    0.649548
| 16> H         2.611789    2.055661   -0.804143
| 17> H         0.296534    1.571748   -1.459702
| 18> H         0.450807   -2.103141    0.719534
| 19> H         2.748995   -1.592750    1.416792
| 20> C        -2.221376    1.293833    1.048341
| 21> H        -2.219781   -0.836130    1.417722
| 22> H        -3.509272   -0.307407    0.371667
| 23> H        -1.176241    1.463201    1.305544
| 24> H        -2.825321    1.538259    1.923962
| 25> H        -2.484987    1.994836    0.255002
| 26> H        -1.754525    0.381877   -1.702015
| 27> *
| 28>
| 29> $new_job
| 30> ! ri-mp2 aug-cc-pvtz aug-cc-pvtz/c tightscf
| 31> %pal nprocs 16 end
| 32> %maxcore 3800
| 33> %base "TZ_P-C_71_AB"
| 34>
| 35> *xyz 0 1
| 36> C        -2.455363   -0.141634    0.607902
| 37> P        -1.510959   -0.736738   -0.870499
| 38> C         0.200385   -0.294295   -0.407028
| 39> C         0.831516    0.870031   -0.833115
| 40> C         0.914684   -1.178195    0.397799
| 41> C         2.212393   -0.896358    0.785884
| 42> C         2.828144    0.267038    0.354736
| 43> C         2.136347    1.146239   -0.460592
| 44> H         3.846014    0.484962    0.649548
| 45> H         2.611789    2.055661   -0.804143
| 46> H         0.296534    1.571748   -1.459702
| 47> H         0.450807   -2.103141    0.719534
| 48> H         2.748995   -1.592750    1.416792
| 49> C        -2.221376    1.293833    1.048341
| 50> H        -2.219781   -0.836130    1.417722
| 51> H        -3.509272   -0.307407    0.371667
| 52> H        -1.176241    1.463201    1.305544
| 53> H        -2.825321    1.538259    1.923962
| 54> H        -2.484987    1.994836    0.255002
| 55> H        -1.754525    0.381877   -1.702015
| 56> *
| 57>
| 58> $new_job
| 59> ! ri-mp2 aug-cc-pvqz aug-cc-pvqz/c tightscf
| 60> %pal nprocs 16 end
| 61> %maxcore 3800
| 62> %base "QZ_P-C_71_AB"
| 63>
| 64> *xyz 0 1
| 65> C        -2.455363   -0.141634    0.607902
| 66> P        -1.510959   -0.736738   -0.870499
| 67> C         0.200385   -0.294295   -0.407028
| 68> C         0.831516    0.870031   -0.833115
| 69> C         0.914684   -1.178195    0.397799
| 70> C         2.212393   -0.896358    0.785884
| 71> C         2.828144    0.267038    0.354736
| 72> C         2.136347    1.146239   -0.460592
| 73> H         3.846014    0.484962    0.649548
| 74> H         2.611789    2.055661   -0.804143
| 75> H         0.296534    1.571748   -1.459702
| 76> H         0.450807   -2.103141    0.719534
| 77> H         2.748995   -1.592750    1.416792
| 78> C        -2.221376    1.293833    1.048341
| 79> H        -2.219781   -0.836130    1.417722
| 80> H        -3.509272   -0.307407    0.371667
| 81> H        -1.176241    1.463201    1.305544
| 82> H        -2.825321    1.538259    1.923962
| 83> H        -2.484987    1.994836    0.255002
| 84> H        -1.754525    0.381877   -1.702015
| 85> *
| 86>
| 87>
| 88>
| 89>
| 90>                          ****END OF INPUT****
 Total Charge           Charge          ....    0
 Multiplicity           Mult            ....    1
 Number of Electrons    NEL             ....   74
MP2 TOTAL ENERGY:     -651.360782951 Eh
FINAL SINGLE POINT ENERGY      -651.360782951350
MP2 TOTAL ENERGY:     -651.685924942 Eh
FINAL SINGLE POINT ENERGY      -651.685924941713

CARTESIAN COORDINATES (ANGSTROEM)
---------------------------------
  C     -2.455363   -0.141634    0.607902
  P     -1.510959   -0.736738   -0.870499
  C      0.200385   -0.294295   -0.407028
  C      0.831516    0.870031   -0.833115
  C      0.914684   -1.178195    0.397799
  C      2.212393   -0.896358    0.785884
  C      2.828144    0.267038    0.354736
  C      2.136347    1.146239   -0.460592
  H      3.846014    0.484962    0.649548
  H      2.611789    2.055661   -0.804143
  H      0.296534    1.571748   -1.459702
  H      0.450807   -2.103141    0.719534
  H      2.748995   -1.592750    1.416792
  C     -2.221376    1.293833    1.048341
  H     -2.219781   -0.836130    1.417722
  H     -3.509272   -0.307407    0.371667
  H     -1.176241    1.463201    1.305544
  H     -2.825321    1.538259    1.923962
  H     -2.484987    1.994836    0.255002
  H     -1.754525    0.381877   -1.702015

 Multiplicity           Mult            ....    1
 Number of Electrons    NEL             ....   74
 Basis Dimension        Dim             .... 1230

ORBITAL ENERGIES
----------------

  NO   OCC          E(Eh)            E(eV)
   0   2.0000     -79.931608     -2175.0496
   1   2.0000     -11.237313      -305.7828
   2   2.0000     -11.236207      -305.7527
   3   2.0000     -11.236039      -305.7482
   4   2.0000     -11.235334      -305.7290
   5   2.0000     -11.234369      -305.7027
   6   2.0000     -11.233826      -305.6880
   7   2.0000     -11.227408      -305.5133
   8   2.0000     -11.214965      -305.1747
   9   2.0000      -7.474022      -203.3785
  10   2.0000      -5.368220      -146.0767
  11   2.0000      -5.367872      -146.0672
  12   2.0000      -5.366896      -146.0407
  13   2.0000      -1.159989       -31.5649
  14   2.0000      -1.046906       -28.4878
  15   2.0000      -1.020918       -27.7806
  16   2.0000      -1.016849       -27.6699
  17   2.0000      -0.884165       -24.0593
  18   2.0000      -0.832347       -22.6493
  19   2.0000      -0.829064       -22.5600
  20   2.0000      -0.761843       -20.7308
  21   2.0000      -0.693741       -18.8777
  22   2.0000      -0.637045       -17.3349
  23   2.0000      -0.628383       -17.0992
  24   2.0000      -0.614558       -16.7230
  25   2.0000      -0.591116       -16.0851
  26   2.0000      -0.579302       -15.7636
  27   2.0000      -0.551438       -15.0054
  28   2.0000      -0.531359       -14.4590
  29   2.0000      -0.510605       -13.8943
  30   2.0000      -0.502963       -13.6863
  31   2.0000      -0.496433       -13.5086
  32   2.0000      -0.471656       -12.8344
  33   2.0000      -0.448413       -12.2019
  34   2.0000      -0.371883       -10.1195
  35   2.0000      -0.342528        -9.3207
  36   2.0000      -0.318397        -8.6640
  37   0.0000       0.023315         0.6344
  38   0.0000       0.028735         0.7819
  39   0.0000       0.028768         0.7828
  40   0.0000       0.036584         0.9955
  41   0.0000       0.039647         1.0788

MULLIKEN ATOMIC CHARGES
-----------------------
   0 C :   -0.561154
   1 P :    0.510867
   2 C :    0.048029
   3 C :   -0.493599
   4 C :   -0.410692
   5 C :   -0.274053
   6 C :   -0.385543
   7 C :   -0.194332
   8 H :    0.358175
   9 H :    0.247109
  10 H :    0.286626
  11 H :    0.321128
  12 H :    0.242850
  13 C :   -0.917388
  14 H :    0.262007
  15 H :    0.300655
  16 H :    0.274150
  17 H :    0.306949
  18 H :    0.217819
  19 H :   -0.139602
Sum of atomic charges:   -0.0000000

LOEWDIN ATOMIC CHARGES
----------------------
   0 C :    0.343984
   1 P :    1.257438
   2 C :   -0.297055
   3 C :    0.247865
   4 C :    0.239787
   5 C :    0.336953
   6 C :    0.334293
   7 C :    0.338434
   8 H :   -0.320893
   9 H :   -0.319716
  10 H :   -0.342568
  11 H :   -0.337206
  12 H :   -0.320061
  13 C :    0.856922
  14 H :   -0.353416
  15 H :   -0.357752
  16 H :   -0.310005
  17 H :   -0.281315
  18 H :   -0.295899
  19 H :   -0.419790

  Mayer bond orders larger than 0.100000
B(  0-C ,  1-P ) :   0.7017 B(  0-C , 13-C ) :   1.0036 B(  0-C , 14-H ) :   0.8966
B(  0-C , 15-H ) :   0.8868 B(  1-P ,  2-C ) :   0.7826 B(  1-P ,  4-C ) :  -0.2208
B(  1-P , 19-H ) :   0.9943 B(  2-C ,  3-C ) :   0.8440 B(  2-C ,  4-C ) :   0.9784
B(  2-C ,  5-C ) :  -0.2935 B(  2-C ,  7-C ) :  -0.3350 B(  2-C , 11-H ) :  -0.1122
B(  2-C , 19-H ) :  -0.1230 B(  3-C ,  5-C ) :   0.1649 B(  3-C ,  6-C ) :   0.1562
B(  3-C ,  7-C ) :   1.3449 B(  3-C ,  9-H ) :  -0.1463 B(  3-C , 10-H ) :   0.9866
B(  4-C ,  5-C ) :   1.3469 B(  4-C ,  6-C ) :   0.1103 B(  4-C ,  7-C ) :   0.1403
B(  4-C , 11-H ) :   0.9356 B(  4-C , 12-H ) :  -0.1340 B(  5-C ,  6-C ) :   1.1210
B(  5-C ,  7-C ) :  -0.1371 B(  5-C , 12-H ) :   1.1294 B(  6-C ,  7-C ) :   1.1011
B(  6-C ,  8-H ) :   0.9682 B(  6-C ,  9-H ) :  -0.1070 B(  6-C , 12-H ) :  -0.1012
B(  7-C ,  9-H ) :   1.1324 B( 13-C , 16-H ) :   0.8883 B( 13-C , 17-H ) :   0.9386
B( 13-C , 18-H ) :   0.9578

MP2 TOTAL ENERGY:     -651.787366608 Eh
FINAL SINGLE POINT ENERGY      -651.787366607932

DIPOLE MOMENT
-------------
                                X             Y             Z
Electronic contribution:      2.72300      -4.95396      -4.55620
Nuclear contribution   :     -2.59243       5.38482       4.95244
                        -----------------------------------------
Total Dipole Moment    :      0.13057       0.43086       0.39624
                        -----------------------------------------
Magnitude (a.u.)       :      0.59975
Magnitude (Debye)      :      1.52443

Rotational constants in cm-1:     0.086751     0.029200     0.027595
Rotational constants in MHz :  2600.735272   875.391723   827.275068

                             ****ORCA TERMINATED NORMALLY****
TOTAL RUN TIME: 0 days 0 hours 58 minutes 52 seconds 190 msec
