                         Program Version 5.0.4 -  RELEASE  -
|  1> ! ri-mp2 aug-cc-pvdz aug-cc-pvdz/c tightscf
|  2> %pal nprocs 16 end
|  3> %maxcore 3800
|  4> %base "DZ_B-B_10_AB"
|  5> %scf
|  6> STABPerform true
|  7> STABRestartUHFifUnstable true
|  8> end
|  9>
| 10> *xyz 0 1
| 11> B        -0.718013    0.759576    0.425658
| 12> B         0.718012    0.759576   -0.425658
| 13> Cl         2.001914   -0.308349    0.082912
| 14> Cl        -2.001914   -0.308350   -0.082911
| 15> H         0.943064    1.444055   -1.371654
| 16> H        -0.943073    1.444073    1.371639
| 17> *
| 18>
| 19> $new_job
| 20> ! ri-mp2 aug-cc-pvtz aug-cc-pvtz/c tightscf
| 21> %pal nprocs 16 end
| 22> %maxcore 3800
| 23> %base "TZ_B-B_10_AB"
| 24>
| 25> *xyz 0 1
| 26> B        -0.718013    0.759576    0.425658
| 27> B         0.718012    0.759576   -0.425658
| 28> Cl         2.001914   -0.308349    0.082912
| 29> Cl        -2.001914   -0.308350   -0.082911
| 30> H         0.943064    1.444055   -1.371654
| 31> H        -0.943073    1.444073    1.371639
| 32> *
| 33>
| 34> $new_job
| 35> ! ri-mp2 aug-cc-pvqz aug-cc-pvqz/c tightscf
| 36> %pal nprocs 16 end
| 37> %maxcore 3800
| 38> %base "QZ_B-B_10_AB"
| 39>
| 40> *xyz 0 1
| 41> B        -0.718013    0.759576    0.425658
| 42> B         0.718012    0.759576   -0.425658
| 43> Cl         2.001914   -0.308349    0.082912
| 44> Cl        -2.001914   -0.308350   -0.082911
| 45> H         0.943064    1.444055   -1.371654
| 46> H        -0.943073    1.444073    1.371639
| 47> *
| 48>
| 49>
| 50>
| 51>
| 52>                          ****END OF INPUT****
 Total Charge           Charge          ....    0
 Multiplicity           Mult            ....    1
 Number of Electrons    NEL             ....   46
MP2 TOTAL ENERGY:     -970.053207272 Eh
FINAL SINGLE POINT ENERGY      -970.053207271795
MP2 TOTAL ENERGY:     -970.216873283 Eh
FINAL SINGLE POINT ENERGY      -970.216873282927

CARTESIAN COORDINATES (ANGSTROEM)
---------------------------------
  B     -0.718013    0.759576    0.425658
  B      0.718012    0.759576   -0.425658
  Cl     2.001914   -0.308349    0.082912
  Cl    -2.001914   -0.308350   -0.082911
  H      0.943064    1.444055   -1.371654
  H     -0.943073    1.444073    1.371639

 Multiplicity           Mult            ....    1
 Number of Electrons    NEL             ....   46
 Basis Dimension        Dim             ....  420

ORBITAL ENERGIES
----------------

  NO   OCC          E(Eh)            E(eV)
   0   2.0000    -104.843417     -2852.9344
   1   2.0000    -104.843417     -2852.9344
   2   2.0000     -10.570896      -287.6487
   3   2.0000     -10.570896      -287.6487
   4   2.0000      -8.037689      -218.7166
   5   2.0000      -8.037689      -218.7166
   6   2.0000      -8.036784      -218.6920
   7   2.0000      -8.036784      -218.6920
   8   2.0000      -8.036349      -218.6802
   9   2.0000      -8.036349      -218.6802
  10   2.0000      -7.657409      -208.3687
  11   2.0000      -7.656576      -208.3460
  12   2.0000      -1.125285       -30.6206
  13   2.0000      -1.117464       -30.4077
  14   2.0000      -0.746241       -20.3062
  15   2.0000      -0.658436       -17.9169
  16   2.0000      -0.567238       -15.4353
  17   2.0000      -0.558736       -15.2040
  18   2.0000      -0.536644       -14.6028
  19   2.0000      -0.491702       -13.3799
  20   2.0000      -0.487787       -13.2733
  21   2.0000      -0.467139       -12.7115
  22   2.0000      -0.410542       -11.1714
  23   0.0000       0.028309         0.7703
  24   0.0000       0.030515         0.8303
  25   0.0000       0.033234         0.9043
  26   0.0000       0.034172         0.9299
  27   0.0000       0.050011         1.3609

MULLIKEN ATOMIC CHARGES
-----------------------
   0 B :    0.408158
   1 B :    0.408159
   2 Cl:   -0.228058
   3 Cl:   -0.228057
   4 H :   -0.180101
   5 H :   -0.180101
Sum of atomic charges:   -0.0000000

LOEWDIN ATOMIC CHARGES
----------------------
   0 B :   -0.986441
   1 B :   -0.986440
   2 Cl:    1.289732
   3 Cl:    1.289733
   4 H :   -0.303292
   5 H :   -0.303292

  Mayer bond orders larger than 0.100000
B(  0-B ,  1-B ) :   1.0207 B(  0-B ,  3-Cl) :   1.1096 B(  0-B ,  5-H ) :   0.9247
B(  1-B ,  2-Cl) :   1.1096 B(  1-B ,  4-H ) :   0.9247

MP2 TOTAL ENERGY:     -970.271994367 Eh
FINAL SINGLE POINT ENERGY      -970.271994366550

DIPOLE MOMENT
-------------
                                X             Y             Z
Electronic contribution:      0.00001      -1.86313       0.00002
Nuclear contribution   :     -0.00001       2.32676      -0.00001
                        -----------------------------------------
Total Dipole Moment    :      0.00000       0.46362       0.00000
                        -----------------------------------------
Magnitude (a.u.)       :      0.46362
Magnitude (Debye)      :      1.17844

Rotational constants in cm-1:     0.534709     0.055216     0.052601
Rotational constants in MHz : 16030.174285  1655.333652  1576.943270

                             ****ORCA TERMINATED NORMALLY****
TOTAL RUN TIME: 0 days 0 hours 9 minutes 41 seconds 638 msec
