                         Program Version 5.0.4 -  RELEASE  -
|  1> ! ri-mp2 aug-cc-pvdz aug-cc-pvdz/c tightscf
|  2> %pal nprocs 16 end
|  3> %maxcore 3800
|  4> %base "DZ_B-B_42_AB"
|  5> %scf
|  6> STABPerform true
|  7> STABRestartUHFifUnstable true
|  8> end
|  9>
| 10> *xyz 0 1
| 11> B        -1.773724    0.954928    0.000010
| 12> B        -1.208447   -0.611755   -0.000001
| 13> O         0.139446   -0.966565   -0.000007
| 14> C         1.065856   -0.070110   -0.000003
| 15> N         1.909752    0.707039    0.000001
| 16> H        -2.020538    1.524941    1.016193
| 17> H        -2.020549    1.524951   -1.016163
| 18> H        -1.927023   -1.561847   -0.000005
| 19> *
| 20>
| 21> $new_job
| 22> ! ri-mp2 aug-cc-pvtz aug-cc-pvtz/c tightscf
| 23> %pal nprocs 16 end
| 24> %maxcore 3800
| 25> %base "TZ_B-B_42_AB"
| 26>
| 27> *xyz 0 1
| 28> B        -1.773724    0.954928    0.000010
| 29> B        -1.208447   -0.611755   -0.000001
| 30> O         0.139446   -0.966565   -0.000007
| 31> C         1.065856   -0.070110   -0.000003
| 32> N         1.909752    0.707039    0.000001
| 33> H        -2.020538    1.524941    1.016193
| 34> H        -2.020549    1.524951   -1.016163
| 35> H        -1.927023   -1.561847   -0.000005
| 36> *
| 37>
| 38> $new_job
| 39> ! ri-mp2 aug-cc-pvqz aug-cc-pvqz/c tightscf
| 40> %pal nprocs 16 end
| 41> %maxcore 3800
| 42> %base "QZ_B-B_42_AB"
| 43>
| 44> *xyz 0 1
| 45> B        -1.773724    0.954928    0.000010
| 46> B        -1.208447   -0.611755   -0.000001
| 47> O         0.139446   -0.966565   -0.000007
| 48> C         1.065856   -0.070110   -0.000003
| 49> N         1.909752    0.707039    0.000001
| 50> H        -2.020538    1.524941    1.016193
| 51> H        -2.020549    1.524951   -1.016163
| 52> H        -1.927023   -1.561847   -0.000005
| 53> *
| 54>
| 55>
| 56>
| 57>
| 58>                          ****END OF INPUT****
 Total Charge           Charge          ....    0
 Multiplicity           Mult            ....    1
 Number of Electrons    NEL             ....   34
MP2 TOTAL ENERGY:     -218.921718403 Eh
FINAL SINGLE POINT ENERGY      -218.921718403262
MP2 TOTAL ENERGY:     -219.109549037 Eh
FINAL SINGLE POINT ENERGY      -219.109549037235

CARTESIAN COORDINATES (ANGSTROEM)
---------------------------------
  B     -1.773724    0.954928    0.000010
  B     -1.208447   -0.611755   -0.000001
  O      0.139446   -0.966565   -0.000007
  C      1.065856   -0.070110   -0.000003
  N      1.909752    0.707039    0.000001
  H     -2.020538    1.524941    1.016193
  H     -2.020549    1.524951   -1.016163
  H     -1.927023   -1.561847   -0.000005

 Multiplicity           Mult            ....    1
 Number of Electrons    NEL             ....   34
 Basis Dimension        Dim             ....  538

ORBITAL ENERGIES
----------------

  NO   OCC          E(Eh)            E(eV)
   0   2.0000     -20.672327      -562.5226
   1   2.0000     -15.576993      -423.8715
   2   2.0000     -11.345754      -308.7337
   3   2.0000      -7.666028      -208.6032
   4   2.0000      -7.621138      -207.3817
   5   2.0000      -1.498625       -40.7797
   6   2.0000      -1.232920       -33.5495
   7   2.0000      -0.899866       -24.4866
   8   2.0000      -0.763706       -20.7815
   9   2.0000      -0.699776       -19.0419
  10   2.0000      -0.682418       -18.5695
  11   2.0000      -0.608338       -16.5537
  12   2.0000      -0.573601       -15.6085
  13   2.0000      -0.520076       -14.1520
  14   2.0000      -0.482343       -13.1252
  15   2.0000      -0.465063       -12.6550
  16   2.0000      -0.461588       -12.5604
  17   0.0000       0.019773         0.5380
  18   0.0000       0.022288         0.6065
  19   0.0000       0.028133         0.7655
  20   0.0000       0.029344         0.7985
  21   0.0000       0.044651         1.2150

MULLIKEN ATOMIC CHARGES
-----------------------
   0 B :    0.341441
   1 B :    0.867700
   2 O :   -0.904099
   3 C :    0.880280
   4 N :   -0.652883
   5 H :   -0.153820
   6 H :   -0.153820
   7 H :   -0.224800
Sum of atomic charges:    0.0000000

LOEWDIN ATOMIC CHARGES
----------------------
   0 B :    0.489514
   1 B :   -0.325630
   2 O :    0.835131
   3 C :   -0.761559
   4 N :    0.375929
   5 H :   -0.207258
   6 H :   -0.207259
   7 H :   -0.198869

  Mayer bond orders larger than 0.100000
B(  0-B ,  1-B ) :   0.9810 B(  0-B ,  5-H ) :   0.9730 B(  0-B ,  6-H ) :   0.9730
B(  1-B ,  2-O ) :   0.5382 B(  1-B ,  7-H ) :   0.9240 B(  2-O ,  3-C ) :   1.1259
B(  3-C ,  4-N ) :   2.6415

MP2 TOTAL ENERGY:     -219.169584833 Eh
FINAL SINGLE POINT ENERGY      -219.169584832549

DIPOLE MOMENT
-------------
                                X             Y             Z
Electronic contribution:      2.02406      -1.70187      -0.00002
Nuclear contribution   :     -3.40213       1.14989       0.00002
                        -----------------------------------------
Total Dipole Moment    :     -1.37808      -0.55199      -0.00000
                        -----------------------------------------
Magnitude (a.u.)       :      1.48451
Magnitude (Debye)      :      3.77334

Rotational constants in cm-1:     0.374212     0.130906     0.099361
Rotational constants in MHz : 11218.599360  3924.474530  2978.757190

                             ****ORCA TERMINATED NORMALLY****
TOTAL RUN TIME: 0 days 0 hours 11 minutes 37 seconds 10 msec
