                         Program Version 5.0.4 -  RELEASE  -
|  1> ! ri-mp2 aug-cc-pvdz aug-cc-pvdz/c tightscf
|  2> %pal nprocs 16 end
|  3> %maxcore 3800
|  4> %base "DZ_P-Si_7_AB"
|  5> %scf
|  6> STABPerform true
|  7> STABRestartUHFifUnstable true
|  8> end
|  9>
| 10> *xyz 0 1
| 11> P        -1.894001   -0.128366    0.000000
| 12> Si         0.366170    0.005387    0.000000
| 13> C         0.972674    1.775044    0.000000
| 14> H         0.620713    2.312799    0.881178
| 15> H         0.620713    2.312799   -0.881178
| 16> C         0.972674   -0.876135   -1.534634
| 17> H         2.064484    1.809141    0.000000
| 18> H         2.063932   -0.876731   -1.571342
| 19> H         0.636325   -1.913464   -1.554369
| 20> H         0.610879   -0.390183   -2.442000
| 21> C         0.972674   -0.876135    1.534634
| 22> H         0.610879   -0.390183    2.442000
| 23> H         2.063932   -0.876731    1.571342
| 24> H         0.636325   -1.913464    1.554369
| 25> H        -2.076335    0.819720   -1.035099
| 26> H        -2.076335    0.819720    1.035099
| 27> *
| 28>
| 29> $new_job
| 30> ! ri-mp2 aug-cc-pvtz aug-cc-pvtz/c tightscf
| 31> %pal nprocs 16 end
| 32> %maxcore 3800
| 33> %base "TZ_P-Si_7_AB"
| 34>
| 35> *xyz 0 1
| 36> P        -1.894001   -0.128366    0.000000
| 37> Si         0.366170    0.005387    0.000000
| 38> C         0.972674    1.775044    0.000000
| 39> H         0.620713    2.312799    0.881178
| 40> H         0.620713    2.312799   -0.881178
| 41> C         0.972674   -0.876135   -1.534634
| 42> H         2.064484    1.809141    0.000000
| 43> H         2.063932   -0.876731   -1.571342
| 44> H         0.636325   -1.913464   -1.554369
| 45> H         0.610879   -0.390183   -2.442000
| 46> C         0.972674   -0.876135    1.534634
| 47> H         0.610879   -0.390183    2.442000
| 48> H         2.063932   -0.876731    1.571342
| 49> H         0.636325   -1.913464    1.554369
| 50> H        -2.076335    0.819720   -1.035099
| 51> H        -2.076335    0.819720    1.035099
| 52> *
| 53>
| 54> $new_job
| 55> ! ri-mp2 aug-cc-pvqz aug-cc-pvqz/c tightscf
| 56> %pal nprocs 16 end
| 57> %maxcore 3800
| 58> %base "QZ_P-Si_7_AB"
| 59>
| 60> *xyz 0 1
| 61> P        -1.894001   -0.128366    0.000000
| 62> Si         0.366170    0.005387    0.000000
| 63> C         0.972674    1.775044    0.000000
| 64> H         0.620713    2.312799    0.881178
| 65> H         0.620713    2.312799   -0.881178
| 66> C         0.972674   -0.876135   -1.534634
| 67> H         2.064484    1.809141    0.000000
| 68> H         2.063932   -0.876731   -1.571342
| 69> H         0.636325   -1.913464   -1.554369
| 70> H         0.610879   -0.390183   -2.442000
| 71> C         0.972674   -0.876135    1.534634
| 72> H         0.610879   -0.390183    2.442000
| 73> H         2.063932   -0.876731    1.571342
| 74> H         0.636325   -1.913464    1.554369
| 75> H        -2.076335    0.819720   -1.035099
| 76> H        -2.076335    0.819720    1.035099
| 77> *
| 78>
| 79>
| 80>
| 81>
| 82>                          ****END OF INPUT****
 Total Charge           Charge          ....    0
 Multiplicity           Mult            ....    1
 Number of Electrons    NEL             ....   58
MP2 TOTAL ENERGY:     -750.426017467 Eh
FINAL SINGLE POINT ENERGY      -750.426017467311
MP2 TOTAL ENERGY:     -750.630586644 Eh
FINAL SINGLE POINT ENERGY      -750.630586643681

CARTESIAN COORDINATES (ANGSTROEM)
---------------------------------
  P     -1.894001   -0.128366    0.000000
  Si     0.366170    0.005387    0.000000
  C      0.972674    1.775044    0.000000
  H      0.620713    2.312799    0.881178
  H      0.620713    2.312799   -0.881178
  C      0.972674   -0.876135   -1.534634
  H      2.064484    1.809141    0.000000
  H      2.063932   -0.876731   -1.571342
  H      0.636325   -1.913464   -1.554369
  H      0.610879   -0.390183   -2.442000
  C      0.972674   -0.876135    1.534634
  H      0.610879   -0.390183    2.442000
  H      2.063932   -0.876731    1.571342
  H      0.636325   -1.913464    1.554369
  H     -2.076335    0.819720   -1.035099
  H     -2.076335    0.819720    1.035099

 Multiplicity           Mult            ....    1
 Number of Electrons    NEL             ....   58
 Basis Dimension        Dim             ....  914

ORBITAL ENERGIES
----------------

  NO   OCC          E(Eh)            E(eV)
   0   2.0000     -79.917027     -2174.6529
   1   2.0000     -68.759368     -1871.0375
   2   2.0000     -11.200668      -304.7857
   3   2.0000     -11.200156      -304.7717
   4   2.0000     -11.200149      -304.7715
   5   2.0000      -7.462263      -203.0585
   6   2.0000      -6.108176      -166.2119
   7   2.0000      -5.356251      -145.7510
   8   2.0000      -5.355833      -145.7396
   9   2.0000      -5.355236      -145.7234
  10   2.0000      -4.214889      -114.6930
  11   2.0000      -4.214277      -114.6763
  12   2.0000      -4.214169      -114.6734
  13   2.0000      -0.974798       -26.5256
  14   2.0000      -0.929114       -25.2825
  15   2.0000      -0.929005       -25.2795
  16   2.0000      -0.832701       -22.6589
  17   2.0000      -0.624113       -16.9830
  18   2.0000      -0.574545       -15.6342
  19   2.0000      -0.568627       -15.4731
  20   2.0000      -0.567114       -15.4320
  21   2.0000      -0.549202       -14.9446
  22   2.0000      -0.547549       -14.8996
  23   2.0000      -0.535514       -14.5721
  24   2.0000      -0.511046       -13.9063
  25   2.0000      -0.448021       -12.1913
  26   2.0000      -0.436382       -11.8745
  27   2.0000      -0.417202       -11.3526
  28   2.0000      -0.349659        -9.5147
  29   0.0000       0.020380         0.5546
  30   0.0000       0.033976         0.9245
  31   0.0000       0.034006         0.9254
  32   0.0000       0.036297         0.9877
  33   0.0000       0.048744         1.3264

MULLIKEN ATOMIC CHARGES
-----------------------
   0 P :   -0.036551
   1 Si:    1.439458
   2 C :   -1.210788
   3 H :    0.280902
   4 H :    0.280902
   5 C :   -1.264136
   6 H :    0.283278
   7 H :    0.284436
   8 H :    0.285074
   9 H :    0.275363
  10 C :   -1.264136
  11 H :    0.275363
  12 H :    0.284436
  13 H :    0.285074
  14 H :   -0.099337
  15 H :   -0.099337
Sum of atomic charges:    0.0000000

LOEWDIN ATOMIC CHARGES
----------------------
   0 P :    1.503909
   1 Si:   -0.112374
   2 C :    0.942951
   3 H :   -0.349372
   4 H :   -0.349372
   5 C :    0.931628
   6 H :   -0.340531
   7 H :   -0.341004
   8 H :   -0.349452
   9 H :   -0.347708
  10 C :    0.931628
  11 H :   -0.347708
  12 H :   -0.341004
  13 H :   -0.349452
  14 H :   -0.541071
  15 H :   -0.541071

  Mayer bond orders larger than 0.100000
B(  0-P ,  1-Si) :   0.7550 B(  0-P , 14-H ) :   0.9331 B(  0-P , 15-H ) :   0.9331
B(  1-Si,  2-C ) :   0.7728 B(  1-Si,  5-C ) :   0.7784 B(  1-Si, 10-C ) :   0.7784
B(  2-C ,  3-H ) :   0.9675 B(  2-C ,  4-H ) :   0.9675 B(  2-C ,  6-H ) :   0.9313
B(  5-C ,  7-H ) :   0.9354 B(  5-C ,  8-H ) :   0.9532 B(  5-C ,  9-H ) :   0.9675
B( 10-C , 11-H ) :   0.9675 B( 10-C , 12-H ) :   0.9354 B( 10-C , 13-H ) :   0.9532

MP2 TOTAL ENERGY:     -750.692209628 Eh
FINAL SINGLE POINT ENERGY      -750.692209627998

DIPOLE MOMENT
-------------
                                X             Y             Z
Electronic contribution:     -7.17798      -1.62653       0.00000
Nuclear contribution   :      7.75260       1.88284      -0.00000
                        -----------------------------------------
Total Dipole Moment    :      0.57462       0.25631       0.00000
                        -----------------------------------------
Magnitude (a.u.)       :      0.62919
Magnitude (Debye)      :      1.59928

Rotational constants in cm-1:     0.103168     0.066422     0.066177
Rotational constants in MHz :  3092.902968  1991.284268  1983.929595

                             ****ORCA TERMINATED NORMALLY****
TOTAL RUN TIME: 0 days 1 hours 11 minutes 54 seconds 511 msec
