                         Program Version 5.0.4 -  RELEASE  -
|  1> ! ri-mp2 aug-cc-pvdz aug-cc-pvdz/c tightscf
|  2> %pal nprocs 16 end
|  3> %maxcore 3800
|  4> %base "DZ_B-P_9_AB"
|  5> %scf
|  6> STABPerform true
|  7> STABRestartUHFifUnstable true
|  8> end
|  9>
| 10> *xyz 0 1
| 11> P         0.761572   -0.019385   -0.613520
| 12> B        -1.084169    0.005569   -0.061629
| 13> O        -1.731041   -1.180767    0.080010
| 14> O        -1.807524    1.149395    0.130449
| 15> C         1.387370   -1.451395    0.363729
| 16> H         1.226302   -1.338382    1.435774
| 17> H         2.452818   -1.582682    0.177623
| 18> C         1.437510    1.408813    0.348854
| 19> H         2.520895    1.432916    0.234465
| 20> H         1.203170    1.367593    1.413077
| 21> H         1.060929    2.347171   -0.061515
| 22> H         0.871860   -2.350530    0.030344
| 23> H        -2.665377   -1.072870    0.291174
| 24> H        -1.314093    1.966185    0.030831
| 25> *
| 26>
| 27> $new_job
| 28> ! ri-mp2 aug-cc-pvtz aug-cc-pvtz/c tightscf
| 29> %pal nprocs 16 end
| 30> %maxcore 3800
| 31> %base "TZ_B-P_9_AB"
| 32>
| 33> *xyz 0 1
| 34> P         0.761572   -0.019385   -0.613520
| 35> B        -1.084169    0.005569   -0.061629
| 36> O        -1.731041   -1.180767    0.080010
| 37> O        -1.807524    1.149395    0.130449
| 38> C         1.387370   -1.451395    0.363729
| 39> H         1.226302   -1.338382    1.435774
| 40> H         2.452818   -1.582682    0.177623
| 41> C         1.437510    1.408813    0.348854
| 42> H         2.520895    1.432916    0.234465
| 43> H         1.203170    1.367593    1.413077
| 44> H         1.060929    2.347171   -0.061515
| 45> H         0.871860   -2.350530    0.030344
| 46> H        -2.665377   -1.072870    0.291174
| 47> H        -1.314093    1.966185    0.030831
| 48> *
| 49>
| 50> $new_job
| 51> ! ri-mp2 aug-cc-pvqz aug-cc-pvqz/c tightscf
| 52> %pal nprocs 16 end
| 53> %maxcore 3800
| 54> %base "QZ_B-P_9_AB"
| 55>
| 56> *xyz 0 1
| 57> P         0.761572   -0.019385   -0.613520
| 58> B        -1.084169    0.005569   -0.061629
| 59> O        -1.731041   -1.180767    0.080010
| 60> O        -1.807524    1.149395    0.130449
| 61> C         1.387370   -1.451395    0.363729
| 62> H         1.226302   -1.338382    1.435774
| 63> H         2.452818   -1.582682    0.177623
| 64> C         1.437510    1.408813    0.348854
| 65> H         2.520895    1.432916    0.234465
| 66> H         1.203170    1.367593    1.413077
| 67> H         1.060929    2.347171   -0.061515
| 68> H         0.871860   -2.350530    0.030344
| 69> H        -2.665377   -1.072870    0.291174
| 70> H        -1.314093    1.966185    0.030831
| 71> *
| 72>
| 73>
| 74>
| 75>
| 76>                          ****END OF INPUT****
 Total Charge           Charge          ....    0
 Multiplicity           Mult            ....    1
 Number of Electrons    NEL             ....   56
MP2 TOTAL ENERGY:     -596.609957577 Eh
FINAL SINGLE POINT ENERGY      -596.609957577497
MP2 TOTAL ENERGY:     -596.888571002 Eh
FINAL SINGLE POINT ENERGY      -596.888571001894

CARTESIAN COORDINATES (ANGSTROEM)
---------------------------------
  P      0.761572   -0.019385   -0.613520
  B     -1.084169    0.005569   -0.061629
  O     -1.731041   -1.180767    0.080010
  O     -1.807524    1.149395    0.130449
  C      1.387370   -1.451395    0.363729
  H      1.226302   -1.338382    1.435774
  H      2.452818   -1.582682    0.177623
  C      1.437510    1.408813    0.348854
  H      2.520895    1.432916    0.234465
  H      1.203170    1.367593    1.413077
  H      1.060929    2.347171   -0.061515
  H      0.871860   -2.350530    0.030344
  H     -2.665377   -1.072870    0.291174
  H     -1.314093    1.966185    0.030831

 Multiplicity           Mult            ....    1
 Number of Electrons    NEL             ....   56
 Basis Dimension        Dim             ....  852

ORBITAL ENERGIES
----------------

  NO   OCC          E(Eh)            E(eV)
   0   2.0000     -79.913315     -2174.5519
   1   2.0000     -20.574754      -559.8675
   2   2.0000     -20.566408      -559.6404
   3   2.0000     -11.227596      -305.5184
   4   2.0000     -11.217964      -305.2563
   5   2.0000      -7.643005      -207.9767
   6   2.0000      -7.457553      -202.9303
   7   2.0000      -5.351995      -145.6352
   8   2.0000      -5.351752      -145.6286
   9   2.0000      -5.351012      -145.6084
  10   2.0000      -1.390186       -37.8289
  11   2.0000      -1.348986       -36.7078
  12   2.0000      -1.001603       -27.2550
  13   2.0000      -0.938528       -25.5386
  14   2.0000      -0.789921       -21.4948
  15   2.0000      -0.753552       -20.5052
  16   2.0000      -0.713619       -19.4186
  17   2.0000      -0.619129       -16.8474
  18   2.0000      -0.591994       -16.1090
  19   2.0000      -0.576378       -15.6840
  20   2.0000      -0.572429       -15.5766
  21   2.0000      -0.569796       -15.5049
  22   2.0000      -0.555943       -15.1280
  23   2.0000      -0.549513       -14.9530
  24   2.0000      -0.506573       -13.7845
  25   2.0000      -0.462926       -12.5969
  26   2.0000      -0.436129       -11.8677
  27   2.0000      -0.326941        -8.8965
  28   0.0000       0.021467         0.5841
  29   0.0000       0.030865         0.8399
  30   0.0000       0.032994         0.8978
  31   0.0000       0.037692         1.0256
  32   0.0000       0.047212         1.2847

MULLIKEN ATOMIC CHARGES
-----------------------
   0 P :    0.558185
   1 B :    1.274788
   2 O :   -0.988192
   3 O :   -1.153975
   4 C :   -1.173031
   5 H :    0.267515
   6 H :    0.363355
   7 C :   -1.119852
   8 H :    0.335290
   9 H :    0.272203
  10 H :    0.322897
  11 H :    0.370372
  12 H :    0.318963
  13 H :    0.351484
Sum of atomic charges:    0.0000000

LOEWDIN ATOMIC CHARGES
----------------------
   0 P :    1.047911
   1 B :   -1.411400
   2 O :    1.291590
   3 O :    1.325210
   4 C :    0.751364
   5 H :   -0.342127
   6 H :   -0.357417
   7 C :    0.749510
   8 H :   -0.356871
   9 H :   -0.340254
  10 H :   -0.364148
  11 H :   -0.365429
  12 H :   -0.798017
  13 H :   -0.829922

  Mayer bond orders larger than 0.100000
B(  0-P ,  1-B ) :   1.0386 B(  0-P ,  4-C ) :   0.8780 B(  0-P ,  7-C ) :   0.8577
B(  1-B ,  2-O ) :   0.4343 B(  1-B ,  3-O ) :   0.4007 B(  2-O ,  3-O ) :  -0.1063
B(  2-O , 12-H ) :   0.9471 B(  3-O , 13-H ) :   0.9178 B(  4-C ,  5-H ) :   0.9132
B(  4-C ,  6-H ) :   0.8770 B(  4-C , 11-H ) :   0.8655 B(  7-C ,  8-H ) :   0.9019
B(  7-C ,  9-H ) :   0.8966 B(  7-C , 10-H ) :   0.9042

MP2 TOTAL ENERGY:     -596.976861214 Eh
FINAL SINGLE POINT ENERGY      -596.976861213806

DIPOLE MOMENT
-------------
                                X             Y             Z
Electronic contribution:     -5.37104      -0.27003      -3.60688
Nuclear contribution   :      5.41323       0.77773       4.16151
                        -----------------------------------------
Total Dipole Moment    :      0.04219       0.50770       0.55464
                        -----------------------------------------
Magnitude (a.u.)       :      0.75310
Magnitude (Debye)      :      1.91423

Rotational constants in cm-1:     0.123783     0.075249     0.052362
Rotational constants in MHz :  3710.931655  2255.908643  1569.777381

                             ****ORCA TERMINATED NORMALLY****
TOTAL RUN TIME: 0 days 0 hours 47 minutes 20 seconds 167 msec
