                         Program Version 5.0.4 -  RELEASE  -
|  1> ! ri-mp2 aug-cc-pvdz aug-cc-pvdz/c tightscf
|  2> %pal nprocs 16 end
|  3> %maxcore 3800
|  4> %base "DZ_B-Cl_42_AB"
|  5> %scf
|  6> STABPerform true
|  7> STABRestartUHFifUnstable true
|  8> end
|  9>
| 10> *xyz 0 1
| 11> Cl        -0.082807    1.636121   -0.000003
| 12> B        -0.402833   -0.063931    0.000003
| 13> C         1.883986   -0.676646   -0.000001
| 14> N         3.010639   -0.468841   -0.000006
| 15> O         0.629888   -0.979050    0.000002
| 16> Cl        -1.999742   -0.724720    0.000004
| 17> *
| 18>
| 19> $new_job
| 20> ! ri-mp2 aug-cc-pvtz aug-cc-pvtz/c tightscf
| 21> %pal nprocs 16 end
| 22> %maxcore 3800
| 23> %base "TZ_B-Cl_42_AB"
| 24>
| 25> *xyz 0 1
| 26> Cl        -0.082807    1.636121   -0.000003
| 27> B        -0.402833   -0.063931    0.000003
| 28> C         1.883986   -0.676646   -0.000001
| 29> N         3.010639   -0.468841   -0.000006
| 30> O         0.629888   -0.979050    0.000002
| 31> Cl        -1.999742   -0.724720    0.000004
| 32> *
| 33>
| 34> $new_job
| 35> ! ri-mp2 aug-cc-pvqz aug-cc-pvqz/c tightscf
| 36> %pal nprocs 16 end
| 37> %maxcore 3800
| 38> %base "QZ_B-Cl_42_AB"
| 39>
| 40> *xyz 0 1
| 41> Cl        -0.082807    1.636121   -0.000003
| 42> B        -0.402833   -0.063931    0.000003
| 43> C         1.883986   -0.676646   -0.000001
| 44> N         3.010639   -0.468841   -0.000006
| 45> O         0.629888   -0.979050    0.000002
| 46> Cl        -1.999742   -0.724720    0.000004
| 47> *
| 48>
| 49>
| 50>
| 51>
| 52>                          ****END OF INPUT****
 Total Charge           Charge          ....    0
 Multiplicity           Mult            ....    1
 Number of Electrons    NEL             ....   60
MP2 TOTAL ENERGY:    -1111.842657280 Eh
FINAL SINGLE POINT ENERGY     -1111.842657279773
MP2 TOTAL ENERGY:    -1112.122927369 Eh
FINAL SINGLE POINT ENERGY     -1112.122927368670

CARTESIAN COORDINATES (ANGSTROEM)
---------------------------------
  Cl    -0.082807    1.636121   -0.000003
  B     -0.402833   -0.063931    0.000003
  C      1.883986   -0.676646   -0.000001
  N      3.010639   -0.468841   -0.000006
  O      0.629888   -0.979050    0.000002
  Cl    -1.999742   -0.724720    0.000004

 Multiplicity           Mult            ....    1
 Number of Electrons    NEL             ....   60
 Basis Dimension        Dim             ....  488

ORBITAL ENERGIES
----------------

  NO   OCC          E(Eh)            E(eV)
   0   2.0000    -104.879307     -2853.9110
   1   2.0000    -104.876461     -2853.8336
   2   2.0000     -20.693732      -563.1051
   3   2.0000     -15.586072      -424.1186
   4   2.0000     -11.356197      -309.0178
   5   2.0000     -10.607106      -288.6340
   6   2.0000     -10.604261      -288.5566
   7   2.0000      -8.073973      -219.7040
   8   2.0000      -8.072732      -219.6702
   9   2.0000      -8.072522      -219.6645
  10   2.0000      -8.071159      -219.6274
  11   2.0000      -8.069916      -219.5936
  12   2.0000      -8.069695      -219.5876
  13   2.0000      -7.791425      -212.0155
  14   2.0000      -1.525166       -41.5019
  15   2.0000      -1.242274       -33.8040
  16   2.0000      -1.180494       -32.1229
  17   2.0000      -1.142925       -31.1006
  18   2.0000      -0.924673       -25.1616
  19   2.0000      -0.751530       -20.4502
  20   2.0000      -0.711262       -19.3544
  21   2.0000      -0.680951       -18.5296
  22   2.0000      -0.598575       -16.2880
  23   2.0000      -0.580729       -15.8024
  24   2.0000      -0.547726       -14.9044
  25   2.0000      -0.528593       -14.3838
  26   2.0000      -0.503773       -13.7084
  27   2.0000      -0.493001       -13.4152
  28   2.0000      -0.481716       -13.1082
  29   2.0000      -0.472380       -12.8541
  30   0.0000       0.026106         0.7104
  31   0.0000       0.035048         0.9537
  32   0.0000       0.035313         0.9609
  33   0.0000       0.039224         1.0673
  34   0.0000       0.071982         1.9587

MULLIKEN ATOMIC CHARGES
-----------------------
   0 Cl:   -0.127807
   1 B :    0.877053
   2 C :    0.880626
   3 N :   -0.619810
   4 O :   -0.911250
   5 Cl:   -0.098812
Sum of atomic charges:    0.0000000

LOEWDIN ATOMIC CHARGES
----------------------
   0 Cl:    1.305172
   1 B :   -2.764954
   2 C :   -0.834892
   3 N :    0.355724
   4 O :    0.677997
   5 Cl:    1.260952

  Mayer bond orders larger than 0.100000
B(  0-Cl,  1-B ) :   1.1245 B(  1-B ,  4-O ) :   0.5681 B(  1-B ,  5-Cl) :   1.1323
B(  2-C ,  3-N ) :   2.6293 B(  2-C ,  4-O ) :   1.1072

MP2 TOTAL ENERGY:    -1112.216254269 Eh
FINAL SINGLE POINT ENERGY     -1112.216254269032

DIPOLE MOMENT
-------------
                                X             Y             Z
Electronic contribution:     -4.28788       1.20240       0.00001
Nuclear contribution   :      3.03412      -1.15712      -0.00000
                        -----------------------------------------
Total Dipole Moment    :     -1.25376       0.04529       0.00001
                        -----------------------------------------
Magnitude (a.u.)       :      1.25457
Magnitude (Debye)      :      3.18887

Rotational constants in cm-1:     0.122647     0.052739     0.036880
Rotational constants in MHz :  3676.854257  1581.074264  1105.640675

                             ****ORCA TERMINATED NORMALLY****
TOTAL RUN TIME: 0 days 0 hours 11 minutes 56 seconds 461 msec
