                         Program Version 5.0.4 -  RELEASE  -
|  1> ! ri-mp2 aug-cc-pvdz aug-cc-pvdz/c tightscf
|  2> %pal nprocs 16 end
|  3> %maxcore 3800
|  4> %base "DZ_B-Si_6_A"
|  5> %scf
|  6> STABPerform true
|  7> STABRestartUHFifUnstable true
|  8> end
|  9>
| 10> *xyz 0 2
| 11> C         0.477714    0.206820    0.002023
| 12> O         0.816973    1.367065    0.028521
| 13> C         1.480044   -0.917171   -0.000102
| 14> H         1.338034   -1.539970   -0.885792
| 15> H         1.326616   -1.557677    0.870593
| 16> H         2.490294   -0.512394    0.011057
| 17> Si        -1.391569   -0.185900   -0.086623
| 18> H        -2.191584    0.972505    0.356820
| 19> H        -1.763728   -1.434282    0.620359
| 20> *
| 21>
| 22> $new_job
| 23> ! ri-mp2 aug-cc-pvtz aug-cc-pvtz/c tightscf
| 24> %pal nprocs 16 end
| 25> %maxcore 3800
| 26> %base "TZ_B-Si_6_A"
| 27>
| 28> *xyz 0 2
| 29> C         0.477714    0.206820    0.002023
| 30> O         0.816973    1.367065    0.028521
| 31> C         1.480044   -0.917171   -0.000102
| 32> H         1.338034   -1.539970   -0.885792
| 33> H         1.326616   -1.557677    0.870593
| 34> H         2.490294   -0.512394    0.011057
| 35> Si        -1.391569   -0.185900   -0.086623
| 36> H        -2.191584    0.972505    0.356820
| 37> H        -1.763728   -1.434282    0.620359
| 38> *
| 39>
| 40> $new_job
| 41> ! ri-mp2 aug-cc-pvqz aug-cc-pvqz/c tightscf
| 42> %pal nprocs 16 end
| 43> %maxcore 3800
| 44> %base "QZ_B-Si_6_A"
| 45>
| 46> *xyz 0 2
| 47> C         0.477714    0.206820    0.002023
| 48> O         0.816973    1.367065    0.028521
| 49> C         1.480044   -0.917171   -0.000102
| 50> H         1.338034   -1.539970   -0.885792
| 51> H         1.326616   -1.557677    0.870593
| 52> H         2.490294   -0.512394    0.011057
| 53> Si        -1.391569   -0.185900   -0.086623
| 54> H        -2.191584    0.972505    0.356820
| 55> H        -1.763728   -1.434282    0.620359
| 56> *
| 57>
| 58>
| 59>
| 60>
| 61>                          ****END OF INPUT****
 Total Charge           Charge          ....    0
 Multiplicity           Mult            ....    2
 Number of Electrons    NEL             ....   39
MP2 TOTAL ENERGY:     -442.968354569 Eh
FINAL SINGLE POINT ENERGY      -442.968354568755
MP2 TOTAL ENERGY:     -443.134135920 Eh
FINAL SINGLE POINT ENERGY      -443.134135920158

CARTESIAN COORDINATES (ANGSTROEM)
---------------------------------
  C      0.477714    0.206820    0.002023
  O      0.816973    1.367065    0.028521
  C      1.480044   -0.917171   -0.000102
  H      1.338034   -1.539970   -0.885792
  H      1.326616   -1.557677    0.870593
  H      2.490294   -0.512394    0.011057
  Si    -1.391569   -0.185900   -0.086623
  H     -2.191584    0.972505    0.356820
  H     -1.763728   -1.434282    0.620359

 Multiplicity           Mult            ....    2
 Number of Electrons    NEL             ....   39
 Basis Dimension        Dim             ....  554

ORBITAL ENERGIES
----------------
                 SPIN UP ORBITALS
  NO   OCC          E(Eh)            E(eV)
   0   1.0000     -68.793157     -1871.9570
   1   1.0000     -20.565727      -559.6219
   2   1.0000     -11.323088      -308.1169
   3   1.0000     -11.238049      -305.8029
   4   1.0000      -6.144535      -167.2013
   5   1.0000      -4.257535      -115.8534
   6   1.0000      -4.247295      -115.5748
   7   1.0000      -4.247156      -115.5710
   8   1.0000      -1.407623       -38.3034
   9   1.0000      -1.017203       -27.6795
  10   1.0000      -0.806969       -21.9588
  11   1.0000      -0.710678       -19.3385
  12   1.0000      -0.631590       -17.1864
  13   1.0000      -0.620681       -16.8896
  14   1.0000      -0.609878       -16.5956
  15   1.0000      -0.546554       -14.8725
  16   1.0000      -0.531588       -14.4653
  17   1.0000      -0.500764       -13.6265
  18   1.0000      -0.403390       -10.9768
  19   1.0000      -0.339283        -9.2324
  20   0.0000       0.021231         0.5777
  21   0.0000       0.034645         0.9427
  22   0.0000       0.038161         1.0384
  23   0.0000       0.039017         1.0617
  24   0.0000       0.049108         1.3363

                 SPIN DOWN ORBITALS
  NO   OCC          E(Eh)            E(eV)
   0   1.0000     -68.787410     -1871.8006
   1   1.0000     -20.556994      -559.3843
   2   1.0000     -11.326763      -308.2169
   3   1.0000     -11.237662      -305.7923
   4   1.0000      -6.135862      -166.9653
   5   1.0000      -4.243336      -115.4670
   6   1.0000      -4.243092      -115.4604
   7   1.0000      -4.234710      -115.2323
   8   1.0000      -1.388816       -37.7916
   9   1.0000      -1.016417       -27.6581
  10   1.0000      -0.790523       -21.5112
  11   1.0000      -0.692023       -18.8309
  12   1.0000      -0.625838       -17.0299
  13   1.0000      -0.612284       -16.6611
  14   1.0000      -0.602926       -16.4065
  15   1.0000      -0.543600       -14.7921
  16   1.0000      -0.495375       -13.4798
  17   1.0000      -0.488091       -13.2816
  18   1.0000      -0.390585       -10.6284
  19   0.0000       0.015712         0.4276
  20   0.0000       0.023146         0.6298
  21   0.0000       0.035459         0.9649
  22   0.0000       0.039183         1.0662
  23   0.0000       0.045131         1.2281

MULLIKEN ATOMIC CHARGES AND SPIN POPULATIONS
--------------------------------------------
   0 C :    0.366837   -0.183851
   1 O :   -0.735267    0.204514
   2 C :   -0.841005    0.020221
   3 H :    0.265997   -0.002093
   4 H :    0.260577   -0.007574
   5 H :    0.317689   -0.000230
   6 Si:    0.797068    0.974076
   7 H :   -0.215047   -0.003282
   8 H :   -0.216851   -0.001781
Sum of atomic charges         :   -0.0000000

LOEWDIN ATOMIC CHARGES AND SPIN POPULATIONS
-------------------------------------------
   0 C :   -0.789430    0.108944
   1 O :    0.614529    0.129032
   2 C :    0.784080    0.000989
   3 H :   -0.319741    0.002474
   4 H :   -0.318471   -0.001051
   5 H :   -0.326694   -0.001507
   6 Si:    1.061236    0.503209
   7 H :   -0.352589    0.125170
   8 H :   -0.352920    0.132740

  Mayer bond orders larger than 0.100000
B(  0-C ,  1-O ) :   1.4477 B(  0-C ,  2-C ) :   0.9607 B(  0-C ,  6-Si) :   0.7932
B(  1-O ,  2-C ) :   0.1173 B(  2-C ,  3-H ) :   0.9301 B(  2-C ,  4-H ) :   0.9264
B(  2-C ,  5-H ) :   0.9318 B(  6-Si,  7-H ) :   0.9072 B(  6-Si,  8-H ) :   0.8677

MP2 TOTAL ENERGY:     -443.187852783 Eh
FINAL SINGLE POINT ENERGY      -443.187852782828

DIPOLE MOMENT
-------------
                                X             Y             Z
Electronic contribution:     -1.48973       2.94788      -0.96855
Nuclear contribution   :      1.29872      -4.04438       0.98005
                        -----------------------------------------
Total Dipole Moment    :     -0.19100      -1.09651       0.01150
                        -----------------------------------------
Magnitude (a.u.)       :      1.11308
Magnitude (Debye)      :      2.82922

Rotational constants in cm-1:     0.328988     0.147121     0.104489
Rotational constants in MHz :  9862.821789  4410.563423  3132.500351

                             ****ORCA TERMINATED NORMALLY****
TOTAL RUN TIME: 0 days 0 hours 35 minutes 35 seconds 860 msec
