                         Program Version 5.0.4 -  RELEASE  -
|  1> ! ri-mp2 aug-cc-pvdz aug-cc-pvdz/c tightscf
|  2> %pal nprocs 16 end
|  3> %maxcore 3800
|  4> %base "DZ_B-F_30_AB"
|  5> %scf
|  6> STABPerform true
|  7> STABRestartUHFifUnstable true
|  8> end
|  9>
| 10> *xyz 0 1
| 11> F        -1.151662    1.125183   -0.000004
| 12> F        -1.151659   -1.125185   -0.000004
| 13> B        -0.470340    0.000000    0.000005
| 14> C         1.048877    0.000002    0.000002
| 15> C         2.246263    0.000002    0.000004
| 16> H         3.310750   -0.000007    0.000005
| 17> *
| 18>
| 19> $new_job
| 20> ! ri-mp2 aug-cc-pvtz aug-cc-pvtz/c tightscf
| 21> %pal nprocs 16 end
| 22> %maxcore 3800
| 23> %base "TZ_B-F_30_AB"
| 24>
| 25> *xyz 0 1
| 26> F        -1.151662    1.125183   -0.000004
| 27> F        -1.151659   -1.125185   -0.000004
| 28> B        -0.470340    0.000000    0.000005
| 29> C         1.048877    0.000002    0.000002
| 30> C         2.246263    0.000002    0.000004
| 31> H         3.310750   -0.000007    0.000005
| 32> *
| 33>
| 34> $new_job
| 35> ! ri-mp2 aug-cc-pvqz aug-cc-pvqz/c tightscf
| 36> %pal nprocs 16 end
| 37> %maxcore 3800
| 38> %base "QZ_B-F_30_AB"
| 39>
| 40> *xyz 0 1
| 41> F        -1.151662    1.125183   -0.000004
| 42> F        -1.151659   -1.125185   -0.000004
| 43> B        -0.470340    0.000000    0.000005
| 44> C         1.048877    0.000002    0.000002
| 45> C         2.246263    0.000002    0.000004
| 46> H         3.310750   -0.000007    0.000005
| 47> *
| 48>
| 49>
| 50>
| 51>
| 52>                          ****END OF INPUT****
 Total Charge           Charge          ....    0
 Multiplicity           Mult            ....    1
 Number of Electrons    NEL             ....   36
MP2 TOTAL ENERGY:     -300.712888895 Eh
FINAL SINGLE POINT ENERGY      -300.712888894596
MP2 TOTAL ENERGY:     -300.976208635 Eh
FINAL SINGLE POINT ENERGY      -300.976208635347

CARTESIAN COORDINATES (ANGSTROEM)
---------------------------------
  F     -1.151662    1.125183   -0.000004
  F     -1.151659   -1.125185   -0.000004
  B     -0.470340    0.000000    0.000005
  C      1.048877    0.000002    0.000002
  C      2.246263    0.000002    0.000004
  H      3.310750   -0.000007    0.000005

 Multiplicity           Mult            ....    1
 Number of Electrons    NEL             ....   36
 Basis Dimension        Dim             ....  446

ORBITAL ENERGIES
----------------

  NO   OCC          E(Eh)            E(eV)
   0   2.0000     -26.320739      -716.2237
   1   2.0000     -26.320722      -716.2233
   2   2.0000     -11.268690      -306.6366
   3   2.0000     -11.238046      -305.8028
   4   2.0000      -7.736219      -210.5132
   5   2.0000      -1.655484       -45.0480
   6   2.0000      -1.623385       -44.1746
   7   2.0000      -1.056233       -28.7416
   8   2.0000      -0.845803       -23.0155
   9   2.0000      -0.793597       -21.5949
  10   2.0000      -0.772779       -21.0284
  11   2.0000      -0.735396       -20.0111
  12   2.0000      -0.723660       -19.6918
  13   2.0000      -0.668095       -18.1798
  14   2.0000      -0.661405       -17.9977
  15   2.0000      -0.627569       -17.0770
  16   2.0000      -0.437147       -11.8954
  17   2.0000      -0.433489       -11.7958
  18   0.0000       0.020257         0.5512
  19   0.0000       0.036981         1.0063
  20   0.0000       0.039056         1.0628
  21   0.0000       0.039945         1.0870
  22   0.0000       0.050895         1.3849

MULLIKEN ATOMIC CHARGES
-----------------------
   0 F :   -0.715517
   1 F :   -0.715516
   2 B :    1.570802
   3 C :   -0.064149
   4 C :   -0.502059
   5 H :    0.426440
Sum of atomic charges:   -0.0000000

LOEWDIN ATOMIC CHARGES
----------------------
   0 F :    0.793661
   1 F :    0.793661
   2 B :   -1.832839
   3 C :    0.145095
   4 C :    0.536234
   5 H :   -0.435812

  Mayer bond orders larger than 0.100000
B(  0-F ,  2-B ) :   0.5505 B(  0-F ,  3-C ) :  -0.1008 B(  1-F ,  2-B ) :   0.5505
B(  1-F ,  3-C ) :  -0.1008 B(  2-B ,  3-C ) :   0.9561 B(  3-C ,  4-C ) :   2.3023
B(  4-C ,  5-H ) :   0.8837

MP2 TOTAL ENERGY:     -301.059572349 Eh
FINAL SINGLE POINT ENERGY      -301.059572349489

DIPOLE MOMENT
-------------
                                X             Y             Z
Electronic contribution:     -4.59920       0.00000       0.00001
Nuclear contribution   :      5.46160      -0.00000       0.00001
                        -----------------------------------------
Total Dipole Moment    :      0.86240      -0.00000       0.00001
                        -----------------------------------------
Magnitude (a.u.)       :      0.86240
Magnitude (Debye)      :      2.19205

Rotational constants in cm-1:     0.350439     0.122890     0.090984
Rotational constants in MHz : 10505.884674  3684.145068  2727.633691

                             ****ORCA TERMINATED NORMALLY****
TOTAL RUN TIME: 0 days 0 hours 6 minutes 11 seconds 885 msec
