                         Program Version 5.0.4 -  RELEASE  -
|  1> ! ri-mp2 aug-cc-pvdz aug-cc-pvdz/c tightscf
|  2> %pal nprocs 16 end
|  3> %maxcore 3800
|  4> %base "DZ_B-P_28_AB"
|  5> %scf
|  6> STABPerform true
|  7> STABRestartUHFifUnstable true
|  8> end
|  9>
| 10> *xyz 0 1
| 11> C         1.302189    1.287440    0.142753
| 12> C         0.853432   -0.137504   -0.027041
| 13> H         2.383282    1.308283    0.260047
| 14> H         0.816325    1.762899    0.993989
| 15> H         1.029590    1.851754   -0.750610
| 16> B        -2.037551    0.724561   -0.412853
| 17> O         1.593972   -1.023397   -0.354810
| 18> P        -0.919565   -0.517154    0.344847
| 19> H        -3.113707    0.386241   -0.781595
| 20> H        -1.728976    1.871360   -0.403949
| 21> H        -1.090774   -1.758475   -0.282122
| 22> *
| 23>
| 24> $new_job
| 25> ! ri-mp2 aug-cc-pvtz aug-cc-pvtz/c tightscf
| 26> %pal nprocs 16 end
| 27> %maxcore 3800
| 28> %base "TZ_B-P_28_AB"
| 29>
| 30> *xyz 0 1
| 31> C         1.302189    1.287440    0.142753
| 32> C         0.853432   -0.137504   -0.027041
| 33> H         2.383282    1.308283    0.260047
| 34> H         0.816325    1.762899    0.993989
| 35> H         1.029590    1.851754   -0.750610
| 36> B        -2.037551    0.724561   -0.412853
| 37> O         1.593972   -1.023397   -0.354810
| 38> P        -0.919565   -0.517154    0.344847
| 39> H        -3.113707    0.386241   -0.781595
| 40> H        -1.728976    1.871360   -0.403949
| 41> H        -1.090774   -1.758475   -0.282122
| 42> *
| 43>
| 44> $new_job
| 45> ! ri-mp2 aug-cc-pvqz aug-cc-pvqz/c tightscf
| 46> %pal nprocs 16 end
| 47> %maxcore 3800
| 48> %base "QZ_B-P_28_AB"
| 49>
| 50> *xyz 0 1
| 51> C         1.302189    1.287440    0.142753
| 52> C         0.853432   -0.137504   -0.027041
| 53> H         2.383282    1.308283    0.260047
| 54> H         0.816325    1.762899    0.993989
| 55> H         1.029590    1.851754   -0.750610
| 56> B        -2.037551    0.724561   -0.412853
| 57> O         1.593972   -1.023397   -0.354810
| 58> P        -0.919565   -0.517154    0.344847
| 59> H        -3.113707    0.386241   -0.781595
| 60> H        -1.728976    1.871360   -0.403949
| 61> H        -1.090774   -1.758475   -0.282122
| 62> *
| 63>
| 64>
| 65>
| 66>
| 67>                          ****END OF INPUT****
 Total Charge           Charge          ....    0
 Multiplicity           Mult            ....    1
 Number of Electrons    NEL             ....   46
MP2 TOTAL ENERGY:     -520.200332769 Eh
FINAL SINGLE POINT ENERGY      -520.200332769217
MP2 TOTAL ENERGY:     -520.399852572 Eh
FINAL SINGLE POINT ENERGY      -520.399852571588

CARTESIAN COORDINATES (ANGSTROEM)
---------------------------------
  C      1.302189    1.287440    0.142753
  C      0.853432   -0.137504   -0.027041
  H      2.383282    1.308283    0.260047
  H      0.816325    1.762899    0.993989
  H      1.029590    1.851754   -0.750610
  B     -2.037551    0.724561   -0.412853
  O      1.593972   -1.023397   -0.354810
  P     -0.919565   -0.517154    0.344847
  H     -3.113707    0.386241   -0.781595
  H     -1.728976    1.871360   -0.403949
  H     -1.090774   -1.758475   -0.282122

 Multiplicity           Mult            ....    1
 Number of Electrons    NEL             ....   46
 Basis Dimension        Dim             ....  680

ORBITAL ENERGIES
----------------

  NO   OCC          E(Eh)            E(eV)
   0   2.0000     -79.942329     -2175.3414
   1   2.0000     -20.559732      -559.4588
   2   2.0000     -11.349223      -308.8280
   3   2.0000     -11.243810      -305.9596
   4   2.0000      -7.625550      -207.5018
   5   2.0000      -7.490265      -203.8205
   6   2.0000      -5.384751      -146.5265
   7   2.0000      -5.384575      -146.5217
   8   2.0000      -5.384311      -146.5146
   9   2.0000      -1.407681       -38.3050
  10   2.0000      -1.030499       -28.0413
  11   2.0000      -0.901306       -24.5258
  12   2.0000      -0.755116       -20.5478
  13   2.0000      -0.690062       -18.7775
  14   2.0000      -0.641258       -17.4495
  15   2.0000      -0.632338       -17.2068
  16   2.0000      -0.615824       -16.7574
  17   2.0000      -0.552038       -15.0217
  18   2.0000      -0.528075       -14.3696
  19   2.0000      -0.520284       -14.1577
  20   2.0000      -0.497038       -13.5251
  21   2.0000      -0.409600       -11.1458
  22   2.0000      -0.360719        -9.8157
  23   0.0000       0.021069         0.5733
  24   0.0000       0.027712         0.7541
  25   0.0000       0.028371         0.7720
  26   0.0000       0.034772         0.9462
  27   0.0000       0.045516         1.2386

MULLIKEN ATOMIC CHARGES
-----------------------
   0 C :   -0.830244
   1 C :    0.510760
   2 H :    0.357236
   3 H :    0.210939
   4 H :    0.273472
   5 B :    0.222163
   6 O :   -0.755229
   7 P :    0.374480
   8 H :   -0.220606
   9 H :   -0.131492
  10 H :   -0.011480
Sum of atomic charges:   -0.0000000

LOEWDIN ATOMIC CHARGES
----------------------
   0 C :    0.795974
   1 C :   -0.884139
   2 H :   -0.315868
   3 H :   -0.320627
   4 H :   -0.308577
   5 B :    0.090730
   6 O :    0.637613
   7 P :    1.274663
   8 H :   -0.264237
   9 H :   -0.256857
  10 H :   -0.448675

  Mayer bond orders larger than 0.100000
B(  0-C ,  1-C ) :   0.9232 B(  0-C ,  2-H ) :   0.8966 B(  0-C ,  3-H ) :   0.9956
B(  0-C ,  4-H ) :   0.8909 B(  0-C ,  6-O ) :   0.1265 B(  1-C ,  6-O ) :   1.3327
B(  1-C ,  7-P ) :   0.8080 B(  5-B ,  7-P ) :   1.2945 B(  5-B ,  8-H ) :   0.9366
B(  5-B ,  9-H ) :   0.9310 B(  7-P , 10-H ) :   0.9788

MP2 TOTAL ENERGY:     -520.464343017 Eh
FINAL SINGLE POINT ENERGY      -520.464343016568

DIPOLE MOMENT
-------------
                                X             Y             Z
Electronic contribution:     -1.32632      -4.35220       0.97687
Nuclear contribution   :      0.82455       5.22618      -0.94951
                        -----------------------------------------
Total Dipole Moment    :     -0.50177       0.87398       0.02735
                        -----------------------------------------
Magnitude (a.u.)       :      1.00815
Magnitude (Debye)      :      2.56251

Rotational constants in cm-1:     0.222963     0.097572     0.073931
Rotational constants in MHz :  6684.268591  2925.133240  2216.390751

                             ****ORCA TERMINATED NORMALLY****
TOTAL RUN TIME: 0 days 0 hours 30 minutes 12 seconds 990 msec
