                         Program Version 5.0.4 -  RELEASE  -
|  1> ! ri-mp2 aug-cc-pvdz aug-cc-pvdz/c tightscf
|  2> %pal nprocs 16 end
|  3> %maxcore 3800
|  4> %base "DZ_B-Si_14_AB"
|  5> %scf
|  6> STABPerform true
|  7> STABRestartUHFifUnstable true
|  8> end
|  9>
| 10> *xyz 0 1
| 11> Si         0.752428   -0.000026   -0.444548
| 12> B        -1.223640    0.000003    0.022664
| 13> O        -2.240400   -0.000053   -0.892587
| 14> O        -1.578109    0.000079    1.335932
| 15> C         1.593944   -1.537165    0.221076
| 16> H         1.156326   -2.444731   -0.196278
| 17> H         1.490067   -1.586804    1.306021
| 18> C         1.593944    1.537190    0.220895
| 19> H         1.490068    1.586957    1.305835
| 20> H         1.156326    2.444708   -0.196565
| 21> H         2.658616    1.537835   -0.017168
| 22> H         2.658615   -1.537837   -0.016986
| 23> H        -1.947510   -0.000109   -1.806572
| 24> H        -2.534721    0.000087    1.465706
| 25> H         0.877173   -0.000113   -1.932229
| 26> *
| 27>
| 28> $new_job
| 29> ! ri-mp2 aug-cc-pvtz aug-cc-pvtz/c tightscf
| 30> %pal nprocs 16 end
| 31> %maxcore 3800
| 32> %base "TZ_B-Si_14_AB"
| 33>
| 34> *xyz 0 1
| 35> Si         0.752428   -0.000026   -0.444548
| 36> B        -1.223640    0.000003    0.022664
| 37> O        -2.240400   -0.000053   -0.892587
| 38> O        -1.578109    0.000079    1.335932
| 39> C         1.593944   -1.537165    0.221076
| 40> H         1.156326   -2.444731   -0.196278
| 41> H         1.490067   -1.586804    1.306021
| 42> C         1.593944    1.537190    0.220895
| 43> H         1.490068    1.586957    1.305835
| 44> H         1.156326    2.444708   -0.196565
| 45> H         2.658616    1.537835   -0.017168
| 46> H         2.658615   -1.537837   -0.016986
| 47> H        -1.947510   -0.000109   -1.806572
| 48> H        -2.534721    0.000087    1.465706
| 49> H         0.877173   -0.000113   -1.932229
| 50> *
| 51>
| 52> $new_job
| 53> ! ri-mp2 aug-cc-pvqz aug-cc-pvqz/c tightscf
| 54> %pal nprocs 16 end
| 55> %maxcore 3800
| 56> %base "QZ_B-Si_14_AB"
| 57>
| 58> *xyz 0 1
| 59> Si         0.752428   -0.000026   -0.444548
| 60> B        -1.223640    0.000003    0.022664
| 61> O        -2.240400   -0.000053   -0.892587
| 62> O        -1.578109    0.000079    1.335932
| 63> C         1.593944   -1.537165    0.221076
| 64> H         1.156326   -2.444731   -0.196278
| 65> H         1.490067   -1.586804    1.306021
| 66> C         1.593944    1.537190    0.220895
| 67> H         1.490068    1.586957    1.305835
| 68> H         1.156326    2.444708   -0.196565
| 69> H         2.658616    1.537835   -0.017168
| 70> H         2.658615   -1.537837   -0.016986
| 71> H        -1.947510   -0.000109   -1.806572
| 72> H        -2.534721    0.000087    1.465706
| 73> H         0.877173   -0.000113   -1.932229
| 74> *
| 75>
| 76>
| 77>
| 78>
| 79>                          ****END OF INPUT****
 Total Charge           Charge          ....    0
 Multiplicity           Mult            ....    1
 Number of Electrons    NEL             ....   56
MP2 TOTAL ENERGY:     -545.368572039 Eh
FINAL SINGLE POINT ENERGY      -545.368572039018
MP2 TOTAL ENERGY:     -545.642128094 Eh
FINAL SINGLE POINT ENERGY      -545.642128093602

CARTESIAN COORDINATES (ANGSTROEM)
---------------------------------
  Si     0.752428   -0.000026   -0.444548
  B     -1.223640    0.000003    0.022664
  O     -2.240400   -0.000053   -0.892587
  O     -1.578109    0.000079    1.335932
  C      1.593944   -1.537165    0.221076
  H      1.156326   -2.444731   -0.196278
  H      1.490067   -1.586804    1.306021
  C      1.593944    1.537190    0.220895
  H      1.490068    1.586957    1.305835
  H      1.156326    2.444708   -0.196565
  H      2.658616    1.537835   -0.017168
  H      2.658615   -1.537837   -0.016986
  H     -1.947510   -0.000109   -1.806572
  H     -2.534721    0.000087    1.465706
  H      0.877173   -0.000113   -1.932229

 Multiplicity           Mult            ....    1
 Number of Electrons    NEL             ....   56
 Basis Dimension        Dim             ....  898

ORBITAL ENERGIES
----------------

  NO   OCC          E(Eh)            E(eV)
   0   2.0000     -68.740980     -1870.5372
   1   2.0000     -20.570523      -559.7524
   2   2.0000     -20.563318      -559.5563
   3   2.0000     -11.196916      -304.6836
   4   2.0000     -11.196909      -304.6834
   5   2.0000      -7.629803      -207.6175
   6   2.0000      -6.092172      -165.7764
   7   2.0000      -4.198716      -114.2529
   8   2.0000      -4.198213      -114.2392
   9   2.0000      -4.198198      -114.2388
  10   2.0000      -1.385428       -37.6994
  11   2.0000      -1.343548       -36.5598
  12   2.0000      -0.954375       -25.9699
  13   2.0000      -0.923449       -25.1283
  14   2.0000      -0.771567       -20.9954
  15   2.0000      -0.735420       -20.0118
  16   2.0000      -0.665420       -18.1070
  17   2.0000      -0.598596       -16.2886
  18   2.0000      -0.573642       -15.6096
  19   2.0000      -0.566779       -15.4228
  20   2.0000      -0.561494       -15.2790
  21   2.0000      -0.558676       -15.2023
  22   2.0000      -0.541554       -14.7364
  23   2.0000      -0.541065       -14.7231
  24   2.0000      -0.501207       -13.6385
  25   2.0000      -0.445359       -12.1188
  26   2.0000      -0.435275       -11.8444
  27   2.0000      -0.397681       -10.8214
  28   0.0000       0.021568         0.5869
  29   0.0000       0.030265         0.8236
  30   0.0000       0.034466         0.9379
  31   0.0000       0.034982         0.9519
  32   0.0000       0.047176         1.2837

MULLIKEN ATOMIC CHARGES
-----------------------
   0 Si:    0.974501
   1 B :    1.295547
   2 O :   -1.132727
   3 O :   -0.977541
   4 C :   -1.041667
   5 H :    0.291637
   6 H :    0.245657
   7 C :   -1.041666
   8 H :    0.245657
   9 H :    0.291636
  10 H :    0.283401
  11 H :    0.283402
  12 H :    0.331712
  13 H :    0.324708
  14 H :   -0.374256
Sum of atomic charges:   -0.0000000

LOEWDIN ATOMIC CHARGES
----------------------
   0 Si:    0.609330
   1 B :   -1.151157
   2 O :    1.308916
   3 O :    1.285385
   4 C :    0.931276
   5 H :   -0.350686
   6 H :   -0.346402
   7 C :    0.931275
   8 H :   -0.346401
   9 H :   -0.350685
  10 H :   -0.349079
  11 H :   -0.349080
  12 H :   -0.822498
  13 H :   -0.804665
  14 H :   -0.195528

  Mayer bond orders larger than 0.100000
B(  0-Si,  1-B ) :   0.7764 B(  0-Si,  2-O ) :  -0.1118 B(  0-Si,  4-C ) :   0.8395
B(  0-Si,  7-C ) :   0.8395 B(  0-Si, 14-H ) :   0.7316 B(  1-B ,  2-O ) :   0.4497
B(  1-B ,  3-O ) :   0.4271 B(  2-O , 12-H ) :   0.9307 B(  3-O , 13-H ) :   0.9409
B(  4-C ,  5-H ) :   0.9404 B(  4-C ,  6-H ) :   0.9456 B(  4-C , 11-H ) :   0.9376
B(  7-C ,  8-H ) :   0.9456 B(  7-C ,  9-H ) :   0.9404 B(  7-C , 10-H ) :   0.9376

MP2 TOTAL ENERGY:     -545.728732214 Eh
FINAL SINGLE POINT ENERGY      -545.728732214185

DIPOLE MOMENT
-------------
                                X             Y             Z
Electronic contribution:     -8.03975      -0.00001      -0.23563
Nuclear contribution   :      7.97488      -0.00001      -0.07335
                        -----------------------------------------
Total Dipole Moment    :     -0.06486      -0.00002      -0.30898
                        -----------------------------------------
Magnitude (a.u.)       :      0.31571
Magnitude (Debye)      :      0.80248

Rotational constants in cm-1:     0.120923     0.055102     0.052055
Rotational constants in MHz :  3625.192842  1651.901511  1560.579409

                             ****ORCA TERMINATED NORMALLY****
TOTAL RUN TIME: 0 days 1 hours 45 minutes 15 seconds 360 msec
