                         Program Version 5.0.4 -  RELEASE  -
|  1> ! ri-mp2 aug-cc-pvdz aug-cc-pvdz/c tightscf
|  2> %pal nprocs 16 end
|  3> %maxcore 3800
|  4> %base "DZ_S-F_23_AB"
|  5>
|  6> *xyz 0 1
|  7> F         1.972405    0.503505    0.000003
|  8> S         0.971269   -0.783006   -0.000001
|  9> C        -0.624184    0.075918    0.000000
| 10> C        -1.634517   -1.069917    0.000000
| 11> H        -1.532158   -1.696467   -0.886776
| 12> H        -2.641874   -0.652054   -0.000002
| 13> H        -1.532160   -1.696465    0.886778
| 14> C        -0.766210    0.927536    1.255213
| 15> H        -1.733642    1.434089    1.251560
| 16> H         0.012199    1.688259    1.299004
| 17> H        -0.698071    0.315199    2.153428
| 18> C        -0.766210    0.927536   -1.255214
| 19> H        -0.698073    0.315199   -2.153429
| 20> H         0.012199    1.688258   -1.299006
| 21> H        -1.733642    1.434090   -1.251559
| 22> *
| 23>
| 24> $new_job
| 25> ! ri-mp2 aug-cc-pvtz aug-cc-pvtz/c tightscf
| 26> %pal nprocs 16 end
| 27> %maxcore 3800
| 28> %base "TZ_S-F_23_AB"
| 29>
| 30> *xyz 0 1
| 31> F         1.972405    0.503505    0.000003
| 32> S         0.971269   -0.783006   -0.000001
| 33> C        -0.624184    0.075918    0.000000
| 34> C        -1.634517   -1.069917    0.000000
| 35> H        -1.532158   -1.696467   -0.886776
| 36> H        -2.641874   -0.652054   -0.000002
| 37> H        -1.532160   -1.696465    0.886778
| 38> C        -0.766210    0.927536    1.255213
| 39> H        -1.733642    1.434089    1.251560
| 40> H         0.012199    1.688259    1.299004
| 41> H        -0.698071    0.315199    2.153428
| 42> C        -0.766210    0.927536   -1.255214
| 43> H        -0.698073    0.315199   -2.153429
| 44> H         0.012199    1.688258   -1.299006
| 45> H        -1.733642    1.434090   -1.251559
| 46> *
| 47>
| 48> $new_job
| 49> ! ri-mp2 aug-cc-pvqz aug-cc-pvqz/c tightscf
| 50> %pal nprocs 16 end
| 51> %maxcore 3800
| 52> %base "QZ_S-F_23_AB"
| 53>
| 54> *xyz 0 1
| 55> F         1.972405    0.503505    0.000003
| 56> S         0.971269   -0.783006   -0.000001
| 57> C        -0.624184    0.075918    0.000000
| 58> C        -1.634517   -1.069917    0.000000
| 59> H        -1.532158   -1.696467   -0.886776
| 60> H        -2.641874   -0.652054   -0.000002
| 61> H        -1.532160   -1.696465    0.886778
| 62> C        -0.766210    0.927536    1.255213
| 63> H        -1.733642    1.434089    1.251560
| 64> H         0.012199    1.688259    1.299004
| 65> H        -0.698071    0.315199    2.153428
| 66> C        -0.766210    0.927536   -1.255214
| 67> H        -0.698073    0.315199   -2.153429
| 68> H         0.012199    1.688258   -1.299006
| 69> H        -1.733642    1.434090   -1.251559
| 70> *
| 71>
| 72>
| 73>
| 74>
| 75>                          ****END OF INPUT****
 Total Charge           Charge          ....    0
 Multiplicity           Mult            ....    1
 Number of Electrons    NEL             ....   58
MP2 TOTAL ENERGY:     -654.640629054 Eh
FINAL SINGLE POINT ENERGY      -654.640629054344
MP2 TOTAL ENERGY:     -654.929687051 Eh
FINAL SINGLE POINT ENERGY      -654.929687051098

CARTESIAN COORDINATES (ANGSTROEM)
---------------------------------
  F      1.972405    0.503505    0.000003
  S      0.971269   -0.783006   -0.000001
  C     -0.624184    0.075918    0.000000
  C     -1.634517   -1.069917    0.000000
  H     -1.532158   -1.696467   -0.886776
  H     -2.641874   -0.652054   -0.000002
  H     -1.532160   -1.696465    0.886778
  C     -0.766210    0.927536    1.255213
  H     -1.733642    1.434089    1.251560
  H      0.012199    1.688259    1.299004
  H     -0.698071    0.315199    2.153428
  C     -0.766210    0.927536   -1.255214
  H     -0.698073    0.315199   -2.153429
  H      0.012199    1.688258   -1.299006
  H     -1.733642    1.434090   -1.251559

 Multiplicity           Mult            ....    1
 Number of Electrons    NEL             ....   58
 Basis Dimension        Dim             ....  898

ORBITAL ENERGIES
----------------

  NO   OCC          E(Eh)            E(eV)
   0   2.0000     -92.012779     -2503.7950
   1   2.0000     -26.294957      -715.5222
   2   2.0000     -11.279050      -306.9186
   3   2.0000     -11.235379      -305.7302
   4   2.0000     -11.224026      -305.4213
   5   2.0000     -11.224010      -305.4209
   6   2.0000      -9.008198      -245.1255
   7   2.0000      -6.689859      -182.0403
   8   2.0000      -6.687587      -181.9785
   9   2.0000      -6.686498      -181.9489
  10   2.0000      -1.593197       -43.3531
  11   2.0000      -1.131782       -30.7974
  12   2.0000      -0.957011       -26.0416
  13   2.0000      -0.949536       -25.8382
  14   2.0000      -0.941944       -25.6316
  15   2.0000      -0.761648       -20.7255
  16   2.0000      -0.684992       -18.6396
  17   2.0000      -0.677939       -18.4477
  18   2.0000      -0.666046       -18.1240
  19   2.0000      -0.622975       -16.9520
  20   2.0000      -0.606847       -16.5131
  21   2.0000      -0.585510       -15.9325
  22   2.0000      -0.557055       -15.1582
  23   2.0000      -0.553519       -15.0620
  24   2.0000      -0.531103       -14.4521
  25   2.0000      -0.493892       -13.4395
  26   2.0000      -0.491169       -13.3654
  27   2.0000      -0.441644       -12.0177
  28   2.0000      -0.358910        -9.7664
  29   0.0000       0.024082         0.6553
  30   0.0000       0.032381         0.8811
  31   0.0000       0.033106         0.9009
  32   0.0000       0.040555         1.1036
  33   0.0000       0.052694         1.4339

MULLIKEN ATOMIC CHARGES
-----------------------
   0 F :   -0.697707
   1 S :    0.381519
   2 C :    1.066670
   3 C :   -1.029533
   4 H :    0.265061
   5 H :    0.284773
   6 H :    0.265060
   7 C :   -1.067354
   8 H :    0.238237
   9 H :    0.265086
  10 H :    0.296109
  11 C :   -1.067354
  12 H :    0.296110
  13 H :    0.265086
  14 H :    0.238237
Sum of atomic charges:    0.0000000

LOEWDIN ATOMIC CHARGES
----------------------
   0 F :    0.121382
   1 S :    0.786869
   2 C :   -0.731927
   3 C :    0.781383
   4 H :   -0.291467
   5 H :   -0.273298
   6 H :   -0.291467
   7 C :    0.818269
   8 H :   -0.276190
   9 H :   -0.298269
  10 H :   -0.294547
  11 C :    0.818269
  12 H :   -0.294547
  13 H :   -0.298270
  14 H :   -0.276190

  Mayer bond orders larger than 0.100000
B(  0-F ,  1-S ) :   0.5765 B(  0-F ,  2-C ) :  -0.2822 B(  1-S ,  2-C ) :   0.5053
B(  1-S ,  3-C ) :   0.1022 B(  1-S ,  7-C ) :   0.1140 B(  1-S , 11-C ) :   0.1140
B(  2-C ,  3-C ) :   0.5748 B(  2-C ,  7-C ) :   0.6477 B(  2-C , 11-C ) :   0.6477
B(  3-C ,  4-H ) :   0.9940 B(  3-C ,  5-H ) :   0.9558 B(  3-C ,  6-H ) :   0.9940
B(  7-C ,  8-H ) :   0.9629 B(  7-C ,  9-H ) :   1.0067 B(  7-C , 10-H ) :   0.9735
B( 11-C , 12-H ) :   0.9735 B( 11-C , 13-H ) :   1.0067 B( 11-C , 14-H ) :   0.9629

MP2 TOTAL ENERGY:     -655.020635605 Eh
FINAL SINGLE POINT ENERGY      -655.020635604843

DIPOLE MOMENT
-------------
                                X             Y             Z
Electronic contribution:     11.54299      -2.37625       0.00000
Nuclear contribution   :    -12.61044       2.37345      -0.00001
                        -----------------------------------------
Total Dipole Moment    :     -1.06745      -0.00281      -0.00000
                        -----------------------------------------
Magnitude (a.u.)       :      1.06745
Magnitude (Debye)      :      2.71324

Rotational constants in cm-1:     0.129108     0.074020     0.068075
Rotational constants in MHz :  3870.546569  2219.050144  2040.842813

                             ****ORCA TERMINATED NORMALLY****
TOTAL RUN TIME: 0 days 0 hours 19 minutes 36 seconds 483 msec
