                         Program Version 5.0.4 -  RELEASE  -
|  1> ! ri-mp2 aug-cc-pvdz aug-cc-pvdz/c tightscf
|  2> %pal nprocs 16 end
|  3> %maxcore 3800
|  4> %base "DZ_B-P_74_AB"
|  5> %scf
|  6> STABPerform true
|  7> STABRestartUHFifUnstable true
|  8> end
|  9>
| 10> *xyz 0 1
| 11> P        -0.252165   -0.114758    0.863719
| 12> B         0.614994    1.546093    0.284814
| 13> Cl         0.955205   -1.435239   -0.203069
| 14> Cl        -1.849890    0.158503   -0.423749
| 15> O         1.720277    1.556281   -0.456067
| 16> H         2.031866    0.673334   -0.708085
| 17> H         0.123058    2.571811    0.632661
| 18> *
| 19>
| 20> $new_job
| 21> ! ri-mp2 aug-cc-pvtz aug-cc-pvtz/c tightscf
| 22> %pal nprocs 16 end
| 23> %maxcore 3800
| 24> %base "TZ_B-P_74_AB"
| 25>
| 26> *xyz 0 1
| 27> P        -0.252165   -0.114758    0.863719
| 28> B         0.614994    1.546093    0.284814
| 29> Cl         0.955205   -1.435239   -0.203069
| 30> Cl        -1.849890    0.158503   -0.423749
| 31> O         1.720277    1.556281   -0.456067
| 32> H         2.031866    0.673334   -0.708085
| 33> H         0.123058    2.571811    0.632661
| 34> *
| 35>
| 36> $new_job
| 37> ! ri-mp2 aug-cc-pvqz aug-cc-pvqz/c tightscf
| 38> %pal nprocs 16 end
| 39> %maxcore 3800
| 40> %base "QZ_B-P_74_AB"
| 41>
| 42> *xyz 0 1
| 43> P        -0.252165   -0.114758    0.863719
| 44> B         0.614994    1.546093    0.284814
| 45> Cl         0.955205   -1.435239   -0.203069
| 46> Cl        -1.849890    0.158503   -0.423749
| 47> O         1.720277    1.556281   -0.456067
| 48> H         2.031866    0.673334   -0.708085
| 49> H         0.123058    2.571811    0.632661
| 50> *
| 51>
| 52>
| 53>
| 54>
| 55>                          ****END OF INPUT****
 Total Charge           Charge          ....    0
 Multiplicity           Mult            ....    1
 Number of Electrons    NEL             ....   64
MP2 TOTAL ENERGY:    -1361.262680140 Eh
FINAL SINGLE POINT ENERGY     -1361.262680140027
MP2 TOTAL ENERGY:    -1361.518235881 Eh
FINAL SINGLE POINT ENERGY     -1361.518235880601

CARTESIAN COORDINATES (ANGSTROEM)
---------------------------------
  P     -0.252165   -0.114758    0.863719
  B      0.614994    1.546093    0.284814
  Cl     0.955205   -1.435239   -0.203069
  Cl    -1.849890    0.158503   -0.423749
  O      1.720277    1.556281   -0.456067
  H      2.031866    0.673334   -0.708085
  H      0.123058    2.571811    0.632661

 Multiplicity           Mult            ....    1
 Number of Electrons    NEL             ....   64
 Basis Dimension        Dim             ....  504

ORBITAL ENERGIES
----------------

  NO   OCC          E(Eh)            E(eV)
   0   2.0000    -104.856086     -2853.2792
   1   2.0000    -104.853782     -2853.2165
   2   2.0000     -80.037052     -2177.9189
   3   2.0000     -20.603999      -560.6633
   4   2.0000     -10.582392      -287.9615
   5   2.0000     -10.579732      -287.8892
   6   2.0000      -8.049154      -219.0286
   7   2.0000      -8.047825      -218.9924
   8   2.0000      -8.047698      -218.9890
   9   2.0000      -8.046546      -218.9577
  10   2.0000      -8.045086      -218.9179
  11   2.0000      -8.044919      -218.9134
  12   2.0000      -7.659395      -208.4227
  13   2.0000      -7.572428      -206.0562
  14   2.0000      -5.465495      -148.7237
  15   2.0000      -5.464597      -148.6992
  16   2.0000      -5.463144      -148.6597
  17   2.0000      -1.403043       -38.1787
  18   2.0000      -1.150010       -31.2934
  19   2.0000      -1.104443       -30.0534
  20   2.0000      -0.831075       -22.6147
  21   2.0000      -0.783009       -21.3068
  22   2.0000      -0.652132       -17.7454
  23   2.0000      -0.618586       -16.8326
  24   2.0000      -0.579191       -15.7606
  25   2.0000      -0.564750       -15.3676
  26   2.0000      -0.533992       -14.5307
  27   2.0000      -0.516519       -14.0552
  28   2.0000      -0.490525       -13.3479
  29   2.0000      -0.467494       -12.7211
  30   2.0000      -0.459898       -12.5145
  31   2.0000      -0.375860       -10.2277
  32   0.0000       0.027659         0.7526
  33   0.0000       0.030503         0.8300
  34   0.0000       0.032730         0.8906
  35   0.0000       0.039083         1.0635
  36   0.0000       0.054734         1.4894

MULLIKEN ATOMIC CHARGES
-----------------------
   0 P :    0.824269
   1 B :    0.817342
   2 Cl:   -0.473511
   3 Cl:   -0.419481
   4 O :   -0.957013
   5 H :    0.429983
   6 H :   -0.221587
Sum of atomic charges:   -0.0000000

LOEWDIN ATOMIC CHARGES
----------------------
   0 P :   -0.473545
   1 B :   -0.931009
   2 Cl:    0.716900
   3 Cl:    0.669093
   4 O :    1.263522
   5 H :   -0.979790
   6 H :   -0.265171

  Mayer bond orders larger than 0.100000
B(  0-P ,  1-B ) :   0.9913 B(  0-P ,  2-Cl) :   0.8011 B(  0-P ,  3-Cl) :   0.8207
B(  1-B ,  4-O ) :   0.7234 B(  1-B ,  6-H ) :   0.9297 B(  4-O ,  5-H ) :   0.8593

MP2 TOTAL ENERGY:    -1361.603362150 Eh
FINAL SINGLE POINT ENERGY     -1361.603362149966

DIPOLE MOMENT
-------------
                                X             Y             Z
Electronic contribution:     -2.66880      -3.59250       0.47260
Nuclear contribution   :      2.94882       3.64134      -0.21881
                        -----------------------------------------
Total Dipole Moment    :      0.28001       0.04885       0.25379
                        -----------------------------------------
Magnitude (a.u.)       :      0.38105
Magnitude (Debye)      :      0.96856

Rotational constants in cm-1:     0.092742     0.068140     0.047203
Rotational constants in MHz :  2780.325525  2042.786609  1415.121225

                             ****ORCA TERMINATED NORMALLY****
TOTAL RUN TIME: 0 days 0 hours 15 minutes 36 seconds 649 msec
