                         Program Version 5.0.4 -  RELEASE  -
|  1> ! ri-mp2 aug-cc-pvdz aug-cc-pvdz/c tightscf
|  2> %pal nprocs 16 end
|  3> %maxcore 3800
|  4> %base "DZ_P-C_5_A"
|  5> %scf
|  6> STABPerform true
|  7> STABRestartUHFifUnstable true
|  8> end
|  9>
| 10> *xyz 0 2
| 11> C        -0.385762    0.000000   -0.177931
| 12> C        -1.066167   -1.300242    0.025155
| 13> H        -0.543184   -2.107859   -0.486304
| 14> H        -2.088689   -1.251999   -0.351327
| 15> C        -1.066167    1.300242    0.025155
| 16> Cl         1.329949    0.000000    0.015474
| 17> H        -2.088689    1.251999   -0.351327
| 18> H        -0.543184    2.107859   -0.486304
| 19> H        -1.118402    1.568708    1.088965
| 20> H        -1.118402   -1.568708    1.088965
| 21> *
| 22>
| 23> $new_job
| 24> ! ri-mp2 aug-cc-pvtz aug-cc-pvtz/c tightscf
| 25> %pal nprocs 16 end
| 26> %maxcore 3800
| 27> %base "TZ_P-C_5_A"
| 28>
| 29> *xyz 0 2
| 30> C        -0.385762    0.000000   -0.177931
| 31> C        -1.066167   -1.300242    0.025155
| 32> H        -0.543184   -2.107859   -0.486304
| 33> H        -2.088689   -1.251999   -0.351327
| 34> C        -1.066167    1.300242    0.025155
| 35> Cl         1.329949    0.000000    0.015474
| 36> H        -2.088689    1.251999   -0.351327
| 37> H        -0.543184    2.107859   -0.486304
| 38> H        -1.118402    1.568708    1.088965
| 39> H        -1.118402   -1.568708    1.088965
| 40> *
| 41>
| 42> $new_job
| 43> ! ri-mp2 aug-cc-pvqz aug-cc-pvqz/c tightscf
| 44> %pal nprocs 16 end
| 45> %maxcore 3800
| 46> %base "QZ_P-C_5_A"
| 47>
| 48> *xyz 0 2
| 49> C        -0.385762    0.000000   -0.177931
| 50> C        -1.066167   -1.300242    0.025155
| 51> H        -0.543184   -2.107859   -0.486304
| 52> H        -2.088689   -1.251999   -0.351327
| 53> C        -1.066167    1.300242    0.025155
| 54> Cl         1.329949    0.000000    0.015474
| 55> H        -2.088689    1.251999   -0.351327
| 56> H        -0.543184    2.107859   -0.486304
| 57> H        -1.118402    1.568708    1.088965
| 58> H        -1.118402   -1.568708    1.088965
| 59> *
| 60>
| 61>
| 62>
| 63>
| 64>                          ****END OF INPUT****
 Total Charge           Charge          ....    0
 Multiplicity           Mult            ....    2
 Number of Electrons    NEL             ....   41
MP2 TOTAL ENERGY:     -577.148757443 Eh
FINAL SINGLE POINT ENERGY      -577.148757443393
MP2 TOTAL ENERGY:     -577.322973593 Eh
FINAL SINGLE POINT ENERGY      -577.322973592920

CARTESIAN COORDINATES (ANGSTROEM)
---------------------------------
  C     -0.385762    0.000000   -0.177931
  C     -1.066167   -1.300242    0.025155
  H     -0.543184   -2.107859   -0.486304
  H     -2.088689   -1.251999   -0.351327
  C     -1.066167    1.300242    0.025155
  Cl     1.329949    0.000000    0.015474
  H     -2.088689    1.251999   -0.351327
  H     -0.543184    2.107859   -0.486304
  H     -1.118402    1.568708    1.088965
  H     -1.118402   -1.568708    1.088965

 Multiplicity           Mult            ....    2
 Number of Electrons    NEL             ....   41
 Basis Dimension        Dim             ....  600

ORBITAL ENERGIES
----------------
                 SPIN UP ORBITALS
  NO   OCC          E(Eh)            E(eV)
   0   1.0000    -104.829160     -2852.5465
   1   1.0000     -11.293105      -307.3010
   2   1.0000     -11.230565      -305.5992
   3   1.0000     -11.230544      -305.5986
   4   1.0000     -10.554967      -287.2152
   5   1.0000      -8.022159      -218.2940
   6   1.0000      -8.020524      -218.2496
   7   1.0000      -8.020379      -218.2456
   8   1.0000      -1.168733       -31.8028
   9   1.0000      -1.025935       -27.9171
  10   1.0000      -0.962130       -26.1809
  11   1.0000      -0.772070       -21.0091
  12   1.0000      -0.636811       -17.3285
  13   1.0000      -0.626940       -17.0599
  14   1.0000      -0.606307       -16.4984
  15   1.0000      -0.559257       -15.2182
  16   1.0000      -0.527992       -14.3674
  17   1.0000      -0.514643       -14.0041
  18   1.0000      -0.487209       -13.2576
  19   1.0000      -0.439898       -11.9702
  20   1.0000      -0.331927        -9.0322
  21   0.0000       0.025721         0.6999
  22   0.0000       0.033559         0.9132
  23   0.0000       0.039671         1.0795
  24   0.0000       0.043183         1.1751
  25   0.0000       0.054927         1.4946

                 SPIN DOWN ORBITALS
  NO   OCC          E(Eh)            E(eV)
   0   1.0000    -104.828960     -2852.5410
   1   1.0000     -11.266480      -306.5765
   2   1.0000     -11.233439      -305.6774
   3   1.0000     -11.233415      -305.6768
   4   1.0000     -10.554721      -287.2086
   5   1.0000      -8.023171      -218.3216
   6   1.0000      -8.020243      -218.2419
   7   1.0000      -8.018596      -218.1971
   8   1.0000      -1.140859       -31.0444
   9   1.0000      -1.013338       -27.5743
  10   1.0000      -0.961345       -26.1595
  11   1.0000      -0.724616       -19.7178
  12   1.0000      -0.619432       -16.8556
  13   1.0000      -0.597911       -16.2700
  14   1.0000      -0.584975       -15.9180
  15   1.0000      -0.548643       -14.9293
  16   1.0000      -0.522659       -14.2223
  17   1.0000      -0.508682       -13.8419
  18   1.0000      -0.457607       -12.4521
  19   1.0000      -0.438877       -11.9424
  20   0.0000       0.025605         0.6967
  21   0.0000       0.033652         0.9157
  22   0.0000       0.039133         1.0649
  23   0.0000       0.043222         1.1761
  24   0.0000       0.055005         1.4968

MULLIKEN ATOMIC CHARGES AND SPIN POPULATIONS
--------------------------------------------
   0 C :    0.141872    1.107079
   1 C :   -0.741052   -0.155434
   2 H :    0.298841    0.020153
   3 H :    0.245180    0.008249
   4 C :   -0.741051   -0.155434
   5 Cl:   -0.234857   -0.008504
   6 H :    0.245180    0.008249
   7 H :    0.298841    0.020154
   8 H :    0.243523    0.077744
   9 H :    0.243522    0.077744
Sum of atomic charges         :    0.0000000

LOEWDIN ATOMIC CHARGES AND SPIN POPULATIONS
-------------------------------------------
   0 C :   -0.769155    0.496323
   1 C :    0.753834    0.128862
   2 H :   -0.338677    0.013956
   3 H :   -0.317803    0.011070
   4 C :    0.753834    0.128862
   5 Cl:    1.179822    0.139955
   6 H :   -0.317803    0.011070
   7 H :   -0.338677    0.013956
   8 H :   -0.302687    0.027973
   9 H :   -0.302687    0.027973

  Mayer bond orders larger than 0.100000
B(  0-C ,  1-C ) :   0.8167 B(  0-C ,  4-C ) :   0.8167 B(  0-C ,  5-Cl) :   0.8624
B(  1-C ,  2-H ) :   0.9632 B(  1-C ,  3-H ) :   0.9608 B(  1-C ,  9-H ) :   0.9130
B(  4-C ,  6-H ) :   0.9608 B(  4-C ,  7-H ) :   0.9632 B(  4-C ,  8-H ) :   0.9130

MP2 TOTAL ENERGY:     -577.377660693 Eh
FINAL SINGLE POINT ENERGY      -577.377660693158

DIPOLE MOMENT
-------------
                                X             Y             Z
Electronic contribution:      8.56867       0.00000      -0.43940
Nuclear contribution   :     -9.33861      -0.00000       0.47723
                        -----------------------------------------
Total Dipole Moment    :     -0.76994       0.00000       0.03782
                        -----------------------------------------
Magnitude (a.u.)       :      0.77086
Magnitude (Debye)      :      1.95938

Rotational constants in cm-1:     0.275428     0.158879     0.105176
Rotational constants in MHz :  8257.136383  4763.062925  3153.102827

                             ****ORCA TERMINATED NORMALLY****
TOTAL RUN TIME: 0 days 0 hours 55 minutes 1 seconds 771 msec
