                         Program Version 5.0.4 -  RELEASE  -
|  1> ! ri-mp2 aug-cc-pvdz aug-cc-pvdz/c tightscf
|  2> %pal nprocs 16 end
|  3> %maxcore 3800
|  4> %base "DZ_P-F_5_AB"
|  5>
|  6> *xyz 0 1
|  7> F        -1.796632    2.120346   -0.373956
|  8> S        -1.440174   -0.676929    0.376977
|  9> O        -1.765473   -1.925675   -0.265005
| 10> O        -1.811273   -0.416366    1.740222
| 11> P        -2.479695    0.764356   -0.873695
| 12> C         0.287540   -0.380331    0.211927
| 13> C         1.002720   -1.038898   -0.775811
| 14> C         2.353346   -0.787455   -0.906555
| 15> C         2.998625    0.119847   -0.070997
| 16> C         2.257857    0.764203    0.913067
| 17> C         0.905781    0.521462    1.061623
| 18> C         4.459606    0.408271   -0.243685
| 19> H         0.502247   -1.754587   -1.413021
| 20> H         2.921529   -1.309629   -1.665817
| 21> H         2.749203    1.461931    1.578864
| 22> H         0.332440    1.009041    1.836982
| 23> H         5.003752   -0.480484   -0.560873
| 24> H         4.904363    0.772314    0.681044
| 25> H         4.610643    1.174680   -1.006854
| 26> H        -1.595161    0.502871   -1.950089
| 27> *
| 28>
| 29> $new_job
| 30> ! ri-mp2 aug-cc-pvtz aug-cc-pvtz/c tightscf
| 31> %pal nprocs 16 end
| 32> %maxcore 3800
| 33> %base "TZ_P-F_5_AB"
| 34>
| 35> *xyz 0 1
| 36> F        -1.796632    2.120346   -0.373956
| 37> S        -1.440174   -0.676929    0.376977
| 38> O        -1.765473   -1.925675   -0.265005
| 39> O        -1.811273   -0.416366    1.740222
| 40> P        -2.479695    0.764356   -0.873695
| 41> C         0.287540   -0.380331    0.211927
| 42> C         1.002720   -1.038898   -0.775811
| 43> C         2.353346   -0.787455   -0.906555
| 44> C         2.998625    0.119847   -0.070997
| 45> C         2.257857    0.764203    0.913067
| 46> C         0.905781    0.521462    1.061623
| 47> C         4.459606    0.408271   -0.243685
| 48> H         0.502247   -1.754587   -1.413021
| 49> H         2.921529   -1.309629   -1.665817
| 50> H         2.749203    1.461931    1.578864
| 51> H         0.332440    1.009041    1.836982
| 52> H         5.003752   -0.480484   -0.560873
| 53> H         4.904363    0.772314    0.681044
| 54> H         4.610643    1.174680   -1.006854
| 55> H        -1.595161    0.502871   -1.950089
| 56> *
| 57>
| 58> $new_job
| 59> ! ri-mp2 aug-cc-pvqz aug-cc-pvqz/c tightscf
| 60> %pal nprocs 16 end
| 61> %maxcore 3800
| 62> %base "QZ_P-F_5_AB"
| 63>
| 64> *xyz 0 1
| 65> F        -1.796632    2.120346   -0.373956
| 66> S        -1.440174   -0.676929    0.376977
| 67> O        -1.765473   -1.925675   -0.265005
| 68> O        -1.811273   -0.416366    1.740222
| 69> P        -2.479695    0.764356   -0.873695
| 70> C         0.287540   -0.380331    0.211927
| 71> C         1.002720   -1.038898   -0.775811
| 72> C         2.353346   -0.787455   -0.906555
| 73> C         2.998625    0.119847   -0.070997
| 74> C         2.257857    0.764203    0.913067
| 75> C         0.905781    0.521462    1.061623
| 76> C         4.459606    0.408271   -0.243685
| 77> H         0.502247   -1.754587   -1.413021
| 78> H         2.921529   -1.309629   -1.665817
| 79> H         2.749203    1.461931    1.578864
| 80> H         0.332440    1.009041    1.836982
| 81> H         5.003752   -0.480484   -0.560873
| 82> H         4.904363    0.772314    0.681044
| 83> H         4.610643    1.174680   -1.006854
| 84> H        -1.595161    0.502871   -1.950089
| 85> *
| 86>
| 87>
| 88>
| 89>
| 90>                          ****END OF INPUT****
 Total Charge           Charge          ....    0
 Multiplicity           Mult            ....    1
 Number of Electrons    NEL             ....  106
MP2 TOTAL ENERGY:    -1258.994284833 Eh
FINAL SINGLE POINT ENERGY     -1258.994284833005
MP2 TOTAL ENERGY:    -1259.578273039 Eh
FINAL SINGLE POINT ENERGY     -1259.578273038953

CARTESIAN COORDINATES (ANGSTROEM)
---------------------------------
  F     -1.796632    2.120346   -0.373956
  S     -1.440174   -0.676929    0.376977
  O     -1.765473   -1.925675   -0.265005
  O     -1.811273   -0.416366    1.740222
  P     -2.479695    0.764356   -0.873695
  C      0.287540   -0.380331    0.211927
  C      1.002720   -1.038898   -0.775811
  C      2.353346   -0.787455   -0.906555
  C      2.998625    0.119847   -0.070997
  C      2.257857    0.764203    0.913067
  C      0.905781    0.521462    1.061623
  C      4.459606    0.408271   -0.243685
  H      0.502247   -1.754587   -1.413021
  H      2.921529   -1.309629   -1.665817
  H      2.749203    1.461931    1.578864
  H      0.332440    1.009041    1.836982
  H      5.003752   -0.480484   -0.560873
  H      4.904363    0.772314    0.681044
  H      4.610643    1.174680   -1.006854
  H     -1.595161    0.502871   -1.950089

 Multiplicity           Mult            ....    1
 Number of Electrons    NEL             ....  106
 Basis Dimension        Dim             .... 1336

ORBITAL ENERGIES
----------------

  NO   OCC          E(Eh)            E(eV)
   0   2.0000     -92.171021     -2508.1010
   1   2.0000     -80.047298     -2178.1977
   2   2.0000     -26.327064      -716.3958
   3   2.0000     -20.551650      -559.2388
   4   2.0000     -20.548671      -559.1578
   5   2.0000     -11.274130      -306.7847
   6   2.0000     -11.272453      -306.7390
   7   2.0000     -11.267837      -306.6134
   8   2.0000     -11.267243      -306.5973
   9   2.0000     -11.252121      -306.1858
  10   2.0000     -11.251345      -306.1647
  11   2.0000     -11.242685      -305.9290
  12   2.0000      -9.142833      -248.7891
  13   2.0000      -7.581338      -206.2987
  14   2.0000      -6.827845      -185.7951
  15   2.0000      -6.827495      -185.7856
  16   2.0000      -6.827207      -185.7778
  17   2.0000      -5.474731      -148.9750
  18   2.0000      -5.473809      -148.9499
  19   2.0000      -5.472726      -148.9204
  20   2.0000      -1.634434       -44.4752
  21   2.0000      -1.460981       -39.7553
  22   2.0000      -1.351071       -36.7645
  23   2.0000      -1.194181       -32.4953
  24   2.0000      -1.090176       -29.6652
  25   2.0000      -1.048095       -28.5201
  26   2.0000      -0.987766       -26.8785
  27   2.0000      -0.934570       -25.4309
  28   2.0000      -0.863518       -23.4975
  29   2.0000      -0.862372       -23.4663
  30   2.0000      -0.803623       -21.8677
  31   2.0000      -0.743653       -20.2358
  32   2.0000      -0.724237       -19.7075
  33   2.0000      -0.715497       -19.4697
  34   2.0000      -0.695438       -18.9238
  35   2.0000      -0.678901       -18.4738
  36   2.0000      -0.660700       -17.9785
  37   2.0000      -0.639377       -17.3983
  38   2.0000      -0.634609       -17.2686
  39   2.0000      -0.623017       -16.9532
  40   2.0000      -0.617574       -16.8051
  41   2.0000      -0.600278       -16.3344
  42   2.0000      -0.564694       -15.3661
  43   2.0000      -0.538707       -14.6590
  44   2.0000      -0.528756       -14.3882
  45   2.0000      -0.518074       -14.0975
  46   2.0000      -0.514413       -13.9979
  47   2.0000      -0.500106       -13.6086
  48   2.0000      -0.485291       -13.2054
  49   2.0000      -0.459489       -12.5033
  50   2.0000      -0.406204       -11.0534
  51   2.0000      -0.366347        -9.9688
  52   2.0000      -0.358612        -9.7583
  53   0.0000       0.017359         0.4724
  54   0.0000       0.025291         0.6882
  55   0.0000       0.028471         0.7747
  56   0.0000       0.032836         0.8935
  57   0.0000       0.038797         1.0557

MULLIKEN ATOMIC CHARGES
-----------------------
   0 F :   -0.683613
   1 S :    2.577912
   2 O :   -1.317919
   3 O :   -1.348323
   4 P :    1.019504
   5 C :   -0.500262
   6 C :   -0.268713
   7 C :   -0.228397
   8 C :    0.359338
   9 C :   -0.243740
  10 C :   -0.266069
  11 C :   -0.848181
  12 H :    0.310789
  13 H :    0.240849
  14 H :    0.214445
  15 H :    0.334984
  16 H :    0.238046
  17 H :    0.238566
  18 H :    0.280333
  19 H :   -0.109549
Sum of atomic charges:   -0.0000000

LOEWDIN ATOMIC CHARGES
----------------------
   0 F :    0.247512
   1 S :   -0.466647
   2 O :    0.249485
   3 O :    0.248200
   4 P :    0.582076
   5 C :   -0.319764
   6 C :    0.276555
   7 C :    0.362765
   8 C :   -0.066012
   9 C :    0.366379
  10 C :    0.282220
  11 C :    0.919404
  12 H :   -0.343683
  13 H :   -0.312506
  14 H :   -0.313497
  15 H :   -0.338935
  16 H :   -0.291957
  17 H :   -0.297187
  18 H :   -0.272840
  19 H :   -0.511565

  Mayer bond orders larger than 0.100000
B(  0-F ,  4-P ) :   0.4722 B(  1-S ,  2-O ) :   0.9580 B(  1-S ,  3-O ) :   0.8611
B(  1-S ,  4-P ) :   0.7319 B(  1-S ,  5-C ) :   1.0770 B(  1-S ,  6-C ) :  -0.1510
B(  1-S , 10-C ) :  -0.1441 B(  3-O , 10-C ) :   0.1155 B(  4-P , 19-H ) :   0.9370
B(  5-C ,  6-C ) :   0.8558 B(  5-C ,  7-C ) :  -0.2276 B(  5-C ,  9-C ) :  -0.2183
B(  5-C , 10-C ) :   0.8693 B(  5-C , 12-H ) :  -0.1139 B(  5-C , 15-H ) :  -0.1268
B(  6-C ,  7-C ) :   1.3273 B(  6-C ,  9-C ) :   0.1552 B(  6-C , 12-H ) :   0.9331
B(  6-C , 13-H ) :  -0.1396 B(  7-C ,  8-C ) :   0.9373 B(  7-C ,  9-C ) :  -0.1700
B(  7-C , 10-C ) :   0.1393 B(  7-C , 13-H ) :   1.0647 B(  8-C ,  9-C ) :   0.9720
B(  8-C , 11-C ) :   0.7186 B(  8-C , 13-H ) :  -0.1312 B(  8-C , 14-H ) :  -0.1203
B(  8-C , 16-H ) :  -0.1173 B(  8-C , 17-H ) :  -0.1181 B(  9-C , 10-C ) :   1.3335
B(  9-C , 14-H ) :   1.0945 B( 10-C , 14-H ) :  -0.1495 B( 10-C , 15-H ) :   0.9295
B( 11-C , 16-H ) :   1.0360 B( 11-C , 17-H ) :   1.0391 B( 11-C , 18-H ) :   0.9362

MP2 TOTAL ENERGY:    -1259.768258559 Eh
FINAL SINGLE POINT ENERGY     -1259.768258559125

DIPOLE MOMENT
-------------
                                X             Y             Z
Electronic contribution:    -20.92632       2.31215       0.08671
Nuclear contribution   :     22.74244      -1.41157      -1.24246
                        -----------------------------------------
Total Dipole Moment    :      1.81611       0.90058      -1.15575
                        -----------------------------------------
Magnitude (a.u.)       :      2.33347
Magnitude (Debye)      :      5.93121

Rotational constants in cm-1:     0.046318     0.014741     0.013685
Rotational constants in MHz :  1388.564324   441.914693   410.251113

                             ****ORCA TERMINATED NORMALLY****
TOTAL RUN TIME: 0 days 1 hours 7 minutes 36 seconds 421 msec
