                         Program Version 5.0.4 -  RELEASE  -
|  1> ! ri-mp2 aug-cc-pvdz aug-cc-pvdz/c tightscf
|  2> %pal nprocs 16 end
|  3> %maxcore 3800
|  4> %base "DZ_B-B_20_A"
|  5> %scf
|  6> STABPerform true
|  7> STABRestartUHFifUnstable true
|  8> end
|  9>
| 10> *xyz 0 2
| 11> B        -0.000000    0.536105   -0.000000
| 12> O         0.000000   -0.041442    1.214445
| 13> H        -0.000000   -1.008723    1.244936
| 14> O         0.000000   -0.041442   -1.214445
| 15> H        -0.000000   -1.008723   -1.244936
| 16> *
| 17>
| 18> $new_job
| 19> ! ri-mp2 aug-cc-pvtz aug-cc-pvtz/c tightscf
| 20> %pal nprocs 16 end
| 21> %maxcore 3800
| 22> %base "TZ_B-B_20_A"
| 23>
| 24> *xyz 0 2
| 25> B        -0.000000    0.536105   -0.000000
| 26> O         0.000000   -0.041442    1.214445
| 27> H        -0.000000   -1.008723    1.244936
| 28> O         0.000000   -0.041442   -1.214445
| 29> H        -0.000000   -1.008723   -1.244936
| 30> *
| 31>
| 32> $new_job
| 33> ! ri-mp2 aug-cc-pvqz aug-cc-pvqz/c tightscf
| 34> %pal nprocs 16 end
| 35> %maxcore 3800
| 36> %base "QZ_B-B_20_A"
| 37>
| 38> *xyz 0 2
| 39> B        -0.000000    0.536105   -0.000000
| 40> O         0.000000   -0.041442    1.214445
| 41> H        -0.000000   -1.008723    1.244936
| 42> O         0.000000   -0.041442   -1.214445
| 43> H        -0.000000   -1.008723   -1.244936
| 44> *
| 45>
| 46>
| 47>
| 48>
| 49>                          ****END OF INPUT****
 Total Charge           Charge          ....    0
 Multiplicity           Mult            ....    2
 Number of Electrons    NEL             ....   23
MP2 TOTAL ENERGY:     -176.101605442 Eh
FINAL SINGLE POINT ENERGY      -176.101605441629
MP2 TOTAL ENERGY:     -176.254943851 Eh
FINAL SINGLE POINT ENERGY      -176.254943850640

CARTESIAN COORDINATES (ANGSTROEM)
---------------------------------
  B     -0.000000    0.536105   -0.000000
  O      0.000000   -0.041442    1.214445
  H     -0.000000   -1.008723    1.244936
  O      0.000000   -0.041442   -1.214445
  H     -0.000000   -1.008723   -1.244936

 Multiplicity           Mult            ....    2
 Number of Electrons    NEL             ....   23
 Basis Dimension        Dim             ....  332

ORBITAL ENERGIES
----------------
                 SPIN UP ORBITALS
  NO   OCC          E(Eh)            E(eV)
   0   1.0000     -20.587124      -560.2041
   1   1.0000     -20.587104      -560.2036
   2   1.0000      -7.668627      -208.6740
   3   1.0000      -1.403729       -38.1974
   4   1.0000      -1.368263       -37.2323
   5   1.0000      -0.793631       -21.5958
   6   1.0000      -0.759593       -20.6696
   7   1.0000      -0.652172       -17.7465
   8   1.0000      -0.590177       -16.0595
   9   1.0000      -0.553012       -15.0482
  10   1.0000      -0.519492       -14.1361
  11   1.0000      -0.349649        -9.5144
  12   0.0000       0.018046         0.4910
  13   0.0000       0.040383         1.0989
  14   0.0000       0.042077         1.1450
  15   0.0000       0.042155         1.1471
  16   0.0000       0.058988         1.6051

                 SPIN DOWN ORBITALS
  NO   OCC          E(Eh)            E(eV)
   0   1.0000     -20.585678      -560.1648
   1   1.0000     -20.585658      -560.1642
   2   1.0000      -7.647049      -208.0868
   3   1.0000      -1.397358       -38.0240
   4   1.0000      -1.363958       -37.1152
   5   1.0000      -0.768888       -20.9225
   6   1.0000      -0.749741       -20.4015
   7   1.0000      -0.643234       -17.5033
   8   1.0000      -0.587993       -16.0001
   9   1.0000      -0.549582       -14.9549
  10   1.0000      -0.524819       -14.2811
  11   0.0000       0.013407         0.3648
  12   0.0000       0.039907         1.0859
  13   0.0000       0.040878         1.1124
  14   0.0000       0.042802         1.1647
  15   0.0000       0.059149         1.6095

MULLIKEN ATOMIC CHARGES AND SPIN POPULATIONS
--------------------------------------------
   0 B :    1.068121    1.059664
   1 O :   -0.874400   -0.075145
   2 H :    0.340340    0.045313
   3 O :   -0.874400   -0.075145
   4 H :    0.340340    0.045313
Sum of atomic charges         :    0.0000000

LOEWDIN ATOMIC CHARGES AND SPIN POPULATIONS
-------------------------------------------
   0 B :   -0.791521    0.608120
   1 O :    1.218009    0.161218
   2 H :   -0.822249    0.034722
   3 O :    1.218009    0.161218
   4 H :   -0.822249    0.034722

  Mayer bond orders larger than 0.100000
B(  0-B ,  1-O ) :   0.5969 B(  0-B ,  3-O ) :   0.5969 B(  1-O ,  2-H ) :   0.9232
B(  3-O ,  4-H ) :   0.9232

MP2 TOTAL ENERGY:     -176.305587531 Eh
FINAL SINGLE POINT ENERGY      -176.305587531045

DIPOLE MOMENT
-------------
                                X             Y             Z
Electronic contribution:      0.00000       1.07467       0.00000
Nuclear contribution   :      0.00000      -2.36172      -0.00000
                        -----------------------------------------
Total Dipole Moment    :      0.00000      -1.28705       0.00000
                        -----------------------------------------
Magnitude (a.u.)       :      1.28705
Magnitude (Debye)      :      3.27142

Rotational constants in cm-1:     3.317900     0.335025     0.304298
Rotational constants in MHz : 99468.143578 10043.784955  9122.628533

                             ****ORCA TERMINATED NORMALLY****
TOTAL RUN TIME: 0 days 0 hours 7 minutes 5 seconds 965 msec
