                         Program Version 5.0.4 -  RELEASE  -
|  1> ! ri-mp2 aug-cc-pvdz aug-cc-pvdz/c tightscf
|  2> %pal nprocs 16 end
|  3> %maxcore 3800
|  4> %base "DZ_P-Si_33_A"
|  5> %scf
|  6> STABPerform true
|  7> STABRestartUHFifUnstable true
|  8> end
|  9>
| 10> *xyz 0 2
| 11> Si        -1.163612   -0.137112   -0.114340
| 12> C         0.550977    0.619983    0.099727
| 13> N         1.593462   -0.373753   -0.133762
| 14> H         0.594947    1.103444    1.087861
| 15> H         0.658113    1.420782   -0.635351
| 16> H         1.527225   -1.142415    0.519507
| 17> H         2.518003    0.025709   -0.045757
| 18> H        -2.209415    0.809928    0.350694
| 19> H        -1.258395   -1.401501    0.661778
| 20> *
| 21>
| 22> $new_job
| 23> ! ri-mp2 aug-cc-pvtz aug-cc-pvtz/c tightscf
| 24> %pal nprocs 16 end
| 25> %maxcore 3800
| 26> %base "TZ_P-Si_33_A"
| 27>
| 28> *xyz 0 2
| 29> Si        -1.163612   -0.137112   -0.114340
| 30> C         0.550977    0.619983    0.099727
| 31> N         1.593462   -0.373753   -0.133762
| 32> H         0.594947    1.103444    1.087861
| 33> H         0.658113    1.420782   -0.635351
| 34> H         1.527225   -1.142415    0.519507
| 35> H         2.518003    0.025709   -0.045757
| 36> H        -2.209415    0.809928    0.350694
| 37> H        -1.258395   -1.401501    0.661778
| 38> *
| 39>
| 40> $new_job
| 41> ! ri-mp2 aug-cc-pvqz aug-cc-pvqz/c tightscf
| 42> %pal nprocs 16 end
| 43> %maxcore 3800
| 44> %base "QZ_P-Si_33_A"
| 45>
| 46> *xyz 0 2
| 47> Si        -1.163612   -0.137112   -0.114340
| 48> C         0.550977    0.619983    0.099727
| 49> N         1.593462   -0.373753   -0.133762
| 50> H         0.594947    1.103444    1.087861
| 51> H         0.658113    1.420782   -0.635351
| 52> H         1.527225   -1.142415    0.519507
| 53> H         2.518003    0.025709   -0.045757
| 54> H        -2.209415    0.809928    0.350694
| 55> H        -1.258395   -1.401501    0.661778
| 56> *
| 57>
| 58>
| 59>
| 60>
| 61>                          ****END OF INPUT****
 Total Charge           Charge          ....    0
 Multiplicity           Mult            ....    2
 Number of Electrons    NEL             ....   33
MP2 TOTAL ENERGY:     -385.124904561 Eh
FINAL SINGLE POINT ENERGY      -385.124904560636
MP2 TOTAL ENERGY:     -385.248285910 Eh
FINAL SINGLE POINT ENERGY      -385.248285909607

CARTESIAN COORDINATES (ANGSTROEM)
---------------------------------
  Si    -1.163612   -0.137112   -0.114340
  C      0.550977    0.619983    0.099727
  N      1.593462   -0.373753   -0.133762
  H      0.594947    1.103444    1.087861
  H      0.658113    1.420782   -0.635351
  H      1.527225   -1.142415    0.519507
  H      2.518003    0.025709   -0.045757
  H     -2.209415    0.809928    0.350694
  H     -1.258395   -1.401501    0.661778

 Multiplicity           Mult            ....    2
 Number of Electrons    NEL             ....   33
 Basis Dimension        Dim             ....  520

ORBITAL ENERGIES
----------------
                 SPIN UP ORBITALS
  NO   OCC          E(Eh)            E(eV)
   0   1.0000     -68.772175     -1871.3860
   1   1.0000     -15.546278      -423.0357
   2   1.0000     -11.243466      -305.9503
   3   1.0000      -6.122884      -166.6121
   4   1.0000      -4.235369      -115.2502
   5   1.0000      -4.225719      -114.9876
   6   1.0000      -4.225347      -114.9775
   7   1.0000      -1.177912       -32.0526
   8   1.0000      -0.902521       -24.5589
   9   1.0000      -0.708116       -19.2688
  10   1.0000      -0.651156       -17.7189
  11   1.0000      -0.618944       -16.8423
  12   1.0000      -0.562875       -15.3166
  13   1.0000      -0.480877       -13.0853
  14   1.0000      -0.454959       -12.3801
  15   1.0000      -0.394461       -10.7338
  16   1.0000      -0.322940        -8.7877
  17   0.0000       0.023751         0.6463
  18   0.0000       0.033963         0.9242
  19   0.0000       0.036766         1.0004
  20   0.0000       0.038183         1.0390
  21   0.0000       0.052032         1.4159

                 SPIN DOWN ORBITALS
  NO   OCC          E(Eh)            E(eV)
   0   1.0000     -68.766420     -1871.2294
   1   1.0000     -15.546460      -423.0407
   2   1.0000     -11.242998      -305.9375
   3   1.0000      -6.113984      -166.3700
   4   1.0000      -4.221891      -114.8835
   5   1.0000      -4.221486      -114.8725
   6   1.0000      -4.213004      -114.6417
   7   1.0000      -1.177603       -32.0442
   8   1.0000      -0.897023       -24.4093
   9   1.0000      -0.686295       -18.6750
  10   1.0000      -0.632228       -17.2038
  11   1.0000      -0.613340       -16.6898
  12   1.0000      -0.559128       -15.2147
  13   1.0000      -0.471985       -12.8434
  14   1.0000      -0.450090       -12.2476
  15   1.0000      -0.389669       -10.6034
  16   0.0000       0.023801         0.6477
  17   0.0000       0.030467         0.8290
  18   0.0000       0.035003         0.9525
  19   0.0000       0.037121         1.0101
  20   0.0000       0.050518         1.3747

MULLIKEN ATOMIC CHARGES AND SPIN POPULATIONS
--------------------------------------------
   0 Si:    0.661114    0.962421
   1 C :   -0.519620   -0.010089
   2 N :   -0.707780   -0.000866
   3 H :    0.233435    0.019105
   4 H :    0.297891    0.002632
   5 H :    0.269486    0.000387
   6 H :    0.234936   -0.000957
   7 H :   -0.237835    0.014675
   8 H :   -0.231626    0.012693
Sum of atomic charges         :    0.0000000

LOEWDIN ATOMIC CHARGES AND SPIN POPULATIONS
-------------------------------------------
   0 Si:    1.086026    0.548053
   1 C :    0.228240    0.139508
   2 N :    1.180977    0.014432
   3 H :   -0.356808    0.017503
   4 H :   -0.390144    0.017594
   5 H :   -0.548289    0.002116
   6 H :   -0.516381    0.000459
   7 H :   -0.347981    0.129976
   8 H :   -0.335640    0.130359

  Mayer bond orders larger than 0.100000
B(  0-Si,  1-C ) :   0.8398 B(  0-Si,  7-H ) :   0.8903 B(  0-Si,  8-H ) :   0.8820
B(  1-C ,  2-N ) :   0.9230 B(  1-C ,  3-H ) :   0.9308 B(  1-C ,  4-H ) :   0.9134
B(  2-N ,  5-H ) :   0.9033 B(  2-N ,  6-H ) :   0.9432

MP2 TOTAL ENERGY:     -385.286935695 Eh
FINAL SINGLE POINT ENERGY      -385.286935695250

DIPOLE MOMENT
-------------
                                X             Y             Z
Electronic contribution:     -1.60992      -0.56733      -1.54245
Nuclear contribution   :      1.96841       0.84701       2.00388
                        -----------------------------------------
Total Dipole Moment    :      0.35849       0.27968       0.46143
                        -----------------------------------------
Magnitude (a.u.)       :      0.64781
Magnitude (Debye)      :      1.64660

Rotational constants in cm-1:     0.967740     0.175101     0.156641
Rotational constants in MHz : 29012.120729  5249.395923  4695.965497

                             ****ORCA TERMINATED NORMALLY****
TOTAL RUN TIME: 0 days 0 hours 30 minutes 16 seconds 128 msec
