                         Program Version 5.0.4 -  RELEASE  -
|  1> ! ri-mp2 aug-cc-pvdz aug-cc-pvdz/c tightscf
|  2> %pal nprocs 16 end
|  3> %maxcore 3800
|  4> %base "DZ_B-Si_41_AB"
|  5> %scf
|  6> STABPerform true
|  7> STABRestartUHFifUnstable true
|  8> end
|  9>
| 10> *xyz 0 1
| 11> C        -1.199809    0.441751   -0.135720
| 12> B        -0.006367   -0.545519   -0.132708
| 13> Si         1.911817    0.038937    0.047732
| 14> C        -2.596208   -0.109050    0.136421
| 15> H        -1.142927    0.810241   -1.178760
| 16> H        -1.002477    1.341088    0.454764
| 17> H        -2.812565   -0.962106   -0.507337
| 18> H        -3.370350    0.641723   -0.027339
| 19> H        -2.685328   -0.450934    1.168348
| 20> H        -0.223954   -1.712772   -0.286655
| 21> H         2.090088    1.510202   -0.017833
| 22> H         2.779545   -0.576028   -0.985990
| 23> H         2.410467   -0.415139    1.371894
| 24> *
| 25>
| 26> $new_job
| 27> ! ri-mp2 aug-cc-pvtz aug-cc-pvtz/c tightscf
| 28> %pal nprocs 16 end
| 29> %maxcore 3800
| 30> %base "TZ_B-Si_41_AB"
| 31>
| 32> *xyz 0 1
| 33> C        -1.199809    0.441751   -0.135720
| 34> B        -0.006367   -0.545519   -0.132708
| 35> Si         1.911817    0.038937    0.047732
| 36> C        -2.596208   -0.109050    0.136421
| 37> H        -1.142927    0.810241   -1.178760
| 38> H        -1.002477    1.341088    0.454764
| 39> H        -2.812565   -0.962106   -0.507337
| 40> H        -3.370350    0.641723   -0.027339
| 41> H        -2.685328   -0.450934    1.168348
| 42> H        -0.223954   -1.712772   -0.286655
| 43> H         2.090088    1.510202   -0.017833
| 44> H         2.779545   -0.576028   -0.985990
| 45> H         2.410467   -0.415139    1.371894
| 46> *
| 47>
| 48> $new_job
| 49> ! ri-mp2 aug-cc-pvqz aug-cc-pvqz/c tightscf
| 50> %pal nprocs 16 end
| 51> %maxcore 3800
| 52> %base "QZ_B-Si_41_AB"
| 53>
| 54> *xyz 0 1
| 55> C        -1.199809    0.441751   -0.135720
| 56> B        -0.006367   -0.545519   -0.132708
| 57> Si         1.911817    0.038937    0.047732
| 58> C        -2.596208   -0.109050    0.136421
| 59> H        -1.142927    0.810241   -1.178760
| 60> H        -1.002477    1.341088    0.454764
| 61> H        -2.812565   -0.962106   -0.507337
| 62> H        -3.370350    0.641723   -0.027339
| 63> H        -2.685328   -0.450934    1.168348
| 64> H        -0.223954   -1.712772   -0.286655
| 65> H         2.090088    1.510202   -0.017833
| 66> H         2.779545   -0.576028   -0.985990
| 67> H         2.410467   -0.415139    1.371894
| 68> *
| 69>
| 70>
| 71>
| 72>
| 73>                          ****END OF INPUT****
 Total Charge           Charge          ....    0
 Multiplicity           Mult            ....    1
 Number of Electrons    NEL             ....   40
MP2 TOTAL ENERGY:     -395.067340730 Eh
FINAL SINGLE POINT ENERGY      -395.067340729762
MP2 TOTAL ENERGY:     -395.206947524 Eh
FINAL SINGLE POINT ENERGY      -395.206947524175

CARTESIAN COORDINATES (ANGSTROEM)
---------------------------------
  C     -1.199809    0.441751   -0.135720
  B     -0.006367   -0.545519   -0.132708
  Si     1.911817    0.038937    0.047732
  C     -2.596208   -0.109050    0.136421
  H     -1.142927    0.810241   -1.178760
  H     -1.002477    1.341088    0.454764
  H     -2.812565   -0.962106   -0.507337
  H     -3.370350    0.641723   -0.027339
  H     -2.685328   -0.450934    1.168348
  H     -0.223954   -1.712772   -0.286655
  H      2.090088    1.510202   -0.017833
  H      2.779545   -0.576028   -0.985990
  H      2.410467   -0.415139    1.371894

 Multiplicity           Mult            ....    1
 Number of Electrons    NEL             ....   40
 Basis Dimension        Dim             ....  738

ORBITAL ENERGIES
----------------

  NO   OCC          E(Eh)            E(eV)
   0   2.0000     -68.748740     -1870.7483
   1   2.0000     -11.215497      -305.1892
   2   2.0000     -11.208281      -304.9928
   3   2.0000      -7.598557      -206.7673
   4   2.0000      -6.100631      -166.0066
   5   2.0000      -4.206908      -114.4758
   6   2.0000      -4.206749      -114.4714
   7   2.0000      -4.206377      -114.4613
   8   2.0000      -1.028187       -27.9784
   9   2.0000      -0.860183       -23.4068
  10   2.0000      -0.727102       -19.7854
  11   2.0000      -0.646270       -17.5859
  12   2.0000      -0.601474       -16.3669
  13   2.0000      -0.557659       -15.1747
  14   2.0000      -0.532557       -14.4916
  15   2.0000      -0.495174       -13.4744
  16   2.0000      -0.476546       -12.9675
  17   2.0000      -0.472835       -12.8665
  18   2.0000      -0.448437       -12.2026
  19   2.0000      -0.396823       -10.7981
  20   0.0000       0.023734         0.6458
  21   0.0000       0.031465         0.8562
  22   0.0000       0.032104         0.8736
  23   0.0000       0.032481         0.8839
  24   0.0000       0.045079         1.2267

MULLIKEN ATOMIC CHARGES
-----------------------
   0 C :   -0.446932
   1 B :    0.426213
   2 Si:    0.196148
   3 C :   -0.840862
   4 H :    0.244089
   5 H :    0.297653
   6 H :    0.250382
   7 H :    0.251261
   8 H :    0.233957
   9 H :   -0.307136
  10 H :   -0.107733
  11 H :   -0.103768
  12 H :   -0.093272
Sum of atomic charges:    0.0000000

LOEWDIN ATOMIC CHARGES
----------------------
   0 C :    0.543030
   1 B :   -0.115681
   2 Si:    1.201222
   3 C :    0.898484
   4 H :   -0.301470
   5 H :   -0.309643
   6 H :   -0.295414
   7 H :   -0.282543
   8 H :   -0.284561
   9 H :   -0.191215
  10 H :   -0.284224
  11 H :   -0.291556
  12 H :   -0.286430

  Mayer bond orders larger than 0.100000
B(  0-C ,  1-B ) :   1.0812 B(  0-C ,  3-C ) :   0.9204 B(  0-C ,  4-H ) :   0.8507
B(  0-C ,  5-H ) :   0.8692 B(  1-B ,  2-Si) :   0.4996 B(  1-B ,  9-H ) :   0.8797
B(  2-Si, 10-H ) :   0.6401 B(  2-Si, 11-H ) :   0.6590 B(  2-Si, 12-H ) :   0.6654
B(  3-C ,  6-H ) :   0.9300 B(  3-C ,  7-H ) :   0.9876 B(  3-C ,  8-H ) :   0.9466

MP2 TOTAL ENERGY:     -395.249755431 Eh
FINAL SINGLE POINT ENERGY      -395.249755431250

DIPOLE MOMENT
-------------
                                X             Y             Z
Electronic contribution:      3.82854      -0.56144      -0.16783
Nuclear contribution   :     -4.24549       0.65062       0.09927
                        -----------------------------------------
Total Dipole Moment    :     -0.41694       0.08918      -0.06857
                        -----------------------------------------
Magnitude (a.u.)       :      0.43185
Magnitude (Debye)      :      1.09768

Rotational constants in cm-1:     0.751343     0.066186     0.064017
Rotational constants in MHz : 22524.710891  1984.192295  1919.181473

                             ****ORCA TERMINATED NORMALLY****
TOTAL RUN TIME: 0 days 0 hours 37 minutes 13 seconds 45 msec
