                         Program Version 5.0.4 -  RELEASE  -
|  1> ! ri-mp2 aug-cc-pvdz aug-cc-pvdz/c tightscf
|  2> %pal nprocs 16 end
|  3> %maxcore 3800
|  4> %base "DZ_Si-Si_73_AB"
|  5> %scf
|  6> STABPerform true
|  7> STABRestartUHFifUnstable true
|  8> end
|  9>
| 10> *xyz 0 1
| 11> Si        -2.853688   -0.305353    0.000000
| 12> Si        -0.902777    0.965572   -0.000002
| 13> C         0.504664   -0.346082   -0.000002
| 14> H        -0.792566    1.845388    1.189889
| 15> H        -0.792567    1.845385   -1.189896
| 16> O         0.124560   -1.511282    0.000002
| 17> N         1.817434   -0.012512    0.000000
| 18> H        -2.913833   -1.146136   -1.212357
| 19> C         2.294334    1.347325    0.000001
| 20> H         1.464094    2.048370   -0.000001
| 21> H         2.904520    1.543341   -0.885361
| 22> H         2.904516    1.543342    0.885365
| 23> H        -4.025622    0.603757   -0.000002
| 24> H        -2.913833   -1.146131    1.212361
| 25> C         2.829967   -1.046286    0.000002
| 26> H         2.338095   -2.013474    0.000000
| 27> H         3.462700   -0.959411    0.886382
| 28> H         3.462706   -0.959409   -0.886373
| 29> *
| 30>
| 31> $new_job
| 32> ! ri-mp2 aug-cc-pvtz aug-cc-pvtz/c tightscf
| 33> %pal nprocs 16 end
| 34> %maxcore 3800
| 35> %base "TZ_Si-Si_73_AB"
| 36>
| 37> *xyz 0 1
| 38> Si        -2.853688   -0.305353    0.000000
| 39> Si        -0.902777    0.965572   -0.000002
| 40> C         0.504664   -0.346082   -0.000002
| 41> H        -0.792566    1.845388    1.189889
| 42> H        -0.792567    1.845385   -1.189896
| 43> O         0.124560   -1.511282    0.000002
| 44> N         1.817434   -0.012512    0.000000
| 45> H        -2.913833   -1.146136   -1.212357
| 46> C         2.294334    1.347325    0.000001
| 47> H         1.464094    2.048370   -0.000001
| 48> H         2.904520    1.543341   -0.885361
| 49> H         2.904516    1.543342    0.885365
| 50> H        -4.025622    0.603757   -0.000002
| 51> H        -2.913833   -1.146131    1.212361
| 52> C         2.829967   -1.046286    0.000002
| 53> H         2.338095   -2.013474    0.000000
| 54> H         3.462700   -0.959411    0.886382
| 55> H         3.462706   -0.959409   -0.886373
| 56> *
| 57>
| 58> $new_job
| 59> ! ri-mp2 aug-cc-pvqz aug-cc-pvqz/c tightscf
| 60> %pal nprocs 16 end
| 61> %maxcore 3800
| 62> %base "QZ_Si-Si_73_AB"
| 63>
| 64> *xyz 0 1
| 65> Si        -2.853688   -0.305353    0.000000
| 66> Si        -0.902777    0.965572   -0.000002
| 67> C         0.504664   -0.346082   -0.000002
| 68> H        -0.792566    1.845388    1.189889
| 69> H        -0.792567    1.845385   -1.189896
| 70> O         0.124560   -1.511282    0.000002
| 71> N         1.817434   -0.012512    0.000000
| 72> H        -2.913833   -1.146136   -1.212357
| 73> C         2.294334    1.347325    0.000001
| 74> H         1.464094    2.048370   -0.000001
| 75> H         2.904520    1.543341   -0.885361
| 76> H         2.904516    1.543342    0.885365
| 77> H        -4.025622    0.603757   -0.000002
| 78> H        -2.913833   -1.146131    1.212361
| 79> C         2.829967   -1.046286    0.000002
| 80> H         2.338095   -2.013474    0.000000
| 81> H         3.462700   -0.959411    0.886382
| 82> H         3.462706   -0.959409   -0.886373
| 83> *
| 84>
| 85>
| 86>
| 87>
| 88>                          ****END OF INPUT****
 Total Charge           Charge          ....    0
 Multiplicity           Mult            ....    1
 Number of Electrons    NEL             ....   72
MP2 TOTAL ENERGY:     -828.225050587 Eh
FINAL SINGLE POINT ENERGY      -828.225050587078
MP2 TOTAL ENERGY:     -828.519198218 Eh
FINAL SINGLE POINT ENERGY      -828.519198218211

CARTESIAN COORDINATES (ANGSTROEM)
---------------------------------
  Si    -2.853688   -0.305353    0.000000
  Si    -0.902777    0.965572   -0.000002
  C      0.504664   -0.346082   -0.000002
  H     -0.792566    1.845388    1.189889
  H     -0.792567    1.845385   -1.189896
  O      0.124560   -1.511282    0.000002
  N      1.817434   -0.012512    0.000000
  H     -2.913833   -1.146136   -1.212357
  C      2.294334    1.347325    0.000001
  H      1.464094    2.048370   -0.000001
  H      2.904520    1.543341   -0.885361
  H      2.904516    1.543342    0.885365
  H     -4.025622    0.603757   -0.000002
  H     -2.913833   -1.146131    1.212361
  C      2.829967   -1.046286    0.000002
  H      2.338095   -2.013474    0.000000
  H      3.462700   -0.959411    0.886382
  H      3.462706   -0.959409   -0.886373

 Multiplicity           Mult            ....    1
 Number of Electrons    NEL             ....   72
 Basis Dimension        Dim             .... 1074

ORBITAL ENERGIES
----------------

  NO   OCC          E(Eh)            E(eV)
   0   2.0000     -68.776138     -1871.4939
   1   2.0000     -68.760682     -1871.0733
   2   2.0000     -20.518417      -558.3345
   3   2.0000     -15.591037      -424.2537
   4   2.0000     -11.331738      -308.3523
   5   2.0000     -11.273883      -306.7780
   6   2.0000     -11.255305      -306.2724
   7   2.0000      -6.126986      -166.7238
   8   2.0000      -6.111356      -166.2985
   9   2.0000      -4.232983      -115.1853
  10   2.0000      -4.232968      -115.1849
  11   2.0000      -4.232772      -115.1796
  12   2.0000      -4.217569      -114.7659
  13   2.0000      -4.217408      -114.7615
  14   2.0000      -4.217327      -114.7593
  15   2.0000      -1.379632       -37.5417
  16   2.0000      -1.253831       -34.1185
  17   2.0000      -0.985492       -26.8166
  18   2.0000      -0.946718       -25.7615
  19   2.0000      -0.792582       -21.5673
  20   2.0000      -0.738295       -20.0900
  21   2.0000      -0.692204       -18.8358
  22   2.0000      -0.661980       -18.0134
  23   2.0000      -0.659479       -17.9453
  24   2.0000      -0.637040       -17.3347
  25   2.0000      -0.570573       -15.5261
  26   2.0000      -0.566945       -15.4273
  27   2.0000      -0.550280       -14.9739
  28   2.0000      -0.540474       -14.7070
  29   2.0000      -0.539467       -14.6796
  30   2.0000      -0.493339       -13.4244
  31   2.0000      -0.473454       -12.8833
  32   2.0000      -0.471243       -12.8232
  33   2.0000      -0.404486       -11.0066
  34   2.0000      -0.396529       -10.7901
  35   2.0000      -0.377110       -10.2617
  36   0.0000       0.020599         0.5605
  37   0.0000       0.030156         0.8206
  38   0.0000       0.032237         0.8772
  39   0.0000       0.033327         0.9069
  40   0.0000       0.041677         1.1341

MULLIKEN ATOMIC CHARGES
-----------------------
   0 Si:    0.460878
   1 Si:    0.780925
   2 C :    0.970191
   3 H :   -0.195023
   4 H :   -0.195024
   5 O :   -0.947630
   6 N :   -0.465876
   7 H :   -0.115456
   8 C :   -0.954530
   9 H :    0.296204
  10 H :    0.328206
  11 H :    0.328206
  12 H :   -0.228398
  13 H :   -0.115456
  14 C :   -0.864758
  15 H :    0.344923
  16 H :    0.286309
  17 H :    0.286309
Sum of atomic charges:    0.0000000

LOEWDIN ATOMIC CHARGES
----------------------
   0 Si:    1.026874
   1 Si:    0.661227
   2 C :   -0.887753
   3 H :   -0.249645
   4 H :   -0.249644
   5 O :    0.631131
   6 N :    0.341682
   7 H :   -0.301426
   8 C :    0.729610
   9 H :   -0.385027
  10 H :   -0.268829
  11 H :   -0.268830
  12 H :   -0.321996
  13 H :   -0.301426
  14 C :    0.756344
  15 H :   -0.361960
  16 H :   -0.275166
  17 H :   -0.275167

  Mayer bond orders larger than 0.100000
B(  0-Si,  1-Si) :   0.7624 B(  0-Si,  7-H ) :   0.7582 B(  0-Si, 12-H ) :   0.7352
B(  0-Si, 13-H ) :   0.7582 B(  1-Si,  2-C ) :   0.7267 B(  1-Si,  3-H ) :   0.8139
B(  1-Si,  4-H ) :   0.8139 B(  2-C ,  5-O ) :   1.2104 B(  2-C ,  6-N ) :   1.2712
B(  5-O ,  6-N ) :   0.1919 B(  6-N ,  8-C ) :   0.8413 B(  6-N , 14-C ) :   0.8270
B(  8-C ,  9-H ) :   0.9177 B(  8-C , 10-H ) :   0.9294 B(  8-C , 11-H ) :   0.9294
B( 14-C , 15-H ) :   0.8710 B( 14-C , 16-H ) :   0.9689 B( 14-C , 17-H ) :   0.9689

MP2 TOTAL ENERGY:     -828.613539823 Eh
FINAL SINGLE POINT ENERGY      -828.613539823375

DIPOLE MOMENT
-------------
                                X             Y             Z
Electronic contribution:     -4.42328      -2.07595      -0.00001
Nuclear contribution   :      5.41588       3.18634       0.00001
                        -----------------------------------------
Total Dipole Moment    :      0.99259       1.11039      -0.00000
                        -----------------------------------------
Magnitude (a.u.)       :      1.48937
Magnitude (Debye)      :      3.78567

Rotational constants in cm-1:     0.124419     0.030487     0.025143
Rotational constants in MHz :  3729.976577   913.968008   753.758907

                             ****ORCA TERMINATED NORMALLY****
TOTAL RUN TIME: 0 days 2 hours 51 minutes 5 seconds 684 msec
