                         Program Version 5.0.4 -  RELEASE  -
|  1> ! ri-mp2 aug-cc-pvdz aug-cc-pvdz/c tightscf
|  2> %pal nprocs 16 end
|  3> %maxcore 3800
|  4> %base "DZ_B-Si_26_AB"
|  5>
|  6> *xyz 0 1
|  7> C        -0.578475   -1.551119    1.546604
|  8> Si        -0.129558   -0.629584   -0.000010
|  9> H        -0.433218   -0.937356    2.435612
| 10> H         0.057912   -2.432541    1.643821
| 11> H        -1.618022   -1.876566    1.515058
| 12> C        -0.578463   -1.551104   -1.546636
| 13> H        -0.433209   -0.937329   -2.435636
| 14> H        -1.618008   -1.876560   -1.515097
| 15> H         0.057933   -2.432519   -1.643861
| 16> B         1.688955    0.264746    0.000007
| 17> N        -1.354477    0.825392    0.000003
| 18> O        -0.929375    1.979664    0.000059
| 19> O        -2.537863    0.563445   -0.000041
| 20> O         2.779411   -0.546934   -0.000022
| 21> O         1.836575    1.605662    0.000046
| 22> H         3.611673   -0.057621   -0.000010
| 23> H         0.976950    2.061845    0.000057
| 24> *
| 25>
| 26> $new_job
| 27> ! ri-mp2 aug-cc-pvtz aug-cc-pvtz/c tightscf
| 28> %pal nprocs 16 end
| 29> %maxcore 3800
| 30> %base "TZ_B-Si_26_AB"
| 31>
| 32> *xyz 0 1
| 33> C        -0.578475   -1.551119    1.546604
| 34> Si        -0.129558   -0.629584   -0.000010
| 35> H        -0.433218   -0.937356    2.435612
| 36> H         0.057912   -2.432541    1.643821
| 37> H        -1.618022   -1.876566    1.515058
| 38> C        -0.578463   -1.551104   -1.546636
| 39> H        -0.433209   -0.937329   -2.435636
| 40> H        -1.618008   -1.876560   -1.515097
| 41> H         0.057933   -2.432519   -1.643861
| 42> B         1.688955    0.264746    0.000007
| 43> N        -1.354477    0.825392    0.000003
| 44> O        -0.929375    1.979664    0.000059
| 45> O        -2.537863    0.563445   -0.000041
| 46> O         2.779411   -0.546934   -0.000022
| 47> O         1.836575    1.605662    0.000046
| 48> H         3.611673   -0.057621   -0.000010
| 49> H         0.976950    2.061845    0.000057
| 50> *
| 51>
| 52> $new_job
| 53> ! ri-mp2 aug-cc-pvqz aug-cc-pvqz/c tightscf
| 54> %pal nprocs 16 end
| 55> %maxcore 3800
| 56> %base "QZ_B-Si_26_AB"
| 57>
| 58> *xyz 0 1
| 59> C        -0.578475   -1.551119    1.546604
| 60> Si        -0.129558   -0.629584   -0.000010
| 61> H        -0.433218   -0.937356    2.435612
| 62> H         0.057912   -2.432541    1.643821
| 63> H        -1.618022   -1.876566    1.515058
| 64> C        -0.578463   -1.551104   -1.546636
| 65> H        -0.433209   -0.937329   -2.435636
| 66> H        -1.618008   -1.876560   -1.515097
| 67> H         0.057933   -2.432519   -1.643861
| 68> B         1.688955    0.264746    0.000007
| 69> N        -1.354477    0.825392    0.000003
| 70> O        -0.929375    1.979664    0.000059
| 71> O        -2.537863    0.563445   -0.000041
| 72> O         2.779411   -0.546934   -0.000022
| 73> O         1.836575    1.605662    0.000046
| 74> H         3.611673   -0.057621   -0.000010
| 75> H         0.976950    2.061845    0.000057
| 76> *
| 77>
| 78>
| 79>
| 80>
| 81>                          ****END OF INPUT****
 Total Charge           Charge          ....    0
 Multiplicity           Mult            ....    1
 Number of Electrons    NEL             ....   78
MP2 TOTAL ENERGY:     -749.483651969 Eh
FINAL SINGLE POINT ENERGY      -749.483651968652
MP2 TOTAL ENERGY:     -749.918851557 Eh
FINAL SINGLE POINT ENERGY      -749.918851556708

CARTESIAN COORDINATES (ANGSTROEM)
---------------------------------
  C     -0.578475   -1.551119    1.546604
  Si    -0.129558   -0.629584   -0.000010
  H     -0.433218   -0.937356    2.435612
  H      0.057912   -2.432541    1.643821
  H     -1.618022   -1.876566    1.515058
  C     -0.578463   -1.551104   -1.546636
  H     -0.433209   -0.937329   -2.435636
  H     -1.618008   -1.876560   -1.515097
  H      0.057933   -2.432519   -1.643861
  B      1.688955    0.264746    0.000007
  N     -1.354477    0.825392    0.000003
  O     -0.929375    1.979664    0.000059
  O     -2.537863    0.563445   -0.000041
  O      2.779411   -0.546934   -0.000022
  O      1.836575    1.605662    0.000046
  H      3.611673   -0.057621   -0.000010
  H      0.976950    2.061845    0.000057

 Multiplicity           Mult            ....    1
 Number of Electrons    NEL             ....   78
 Basis Dimension        Dim             .... 1092

ORBITAL ENERGIES
----------------

  NO   OCC          E(Eh)            E(eV)
   0   2.0000     -68.805302     -1872.2874
   1   2.0000     -20.603722      -560.6558
   2   2.0000     -20.597292      -560.4808
   3   2.0000     -20.581597      -560.0537
   4   2.0000     -20.569806      -559.7329
   5   2.0000     -15.809778      -430.2059
   6   2.0000     -11.227831      -305.5248
   7   2.0000     -11.227823      -305.5246
   8   2.0000      -7.650370      -208.1771
   9   2.0000      -6.154902      -167.4834
  10   2.0000      -4.261958      -115.9738
  11   2.0000      -4.260083      -115.9228
  12   2.0000      -4.259960      -115.9194
  13   2.0000      -1.595234       -43.4085
  14   2.0000      -1.397613       -38.0310
  15   2.0000      -1.390987       -37.8507
  16   2.0000      -1.355354       -36.8811
  17   2.0000      -1.000278       -27.2190
  18   2.0000      -0.957633       -26.0585
  19   2.0000      -0.932769       -25.3819
  20   2.0000      -0.793374       -21.5888
  21   2.0000      -0.782369       -21.2893
  22   2.0000      -0.738986       -20.1088
  23   2.0000      -0.720762       -19.6129
  24   2.0000      -0.702062       -19.1041
  25   2.0000      -0.647977       -17.6324
  26   2.0000      -0.609413       -16.5830
  27   2.0000      -0.590926       -16.0799
  28   2.0000      -0.586905       -15.9705
  29   2.0000      -0.583687       -15.8829
  30   2.0000      -0.580084       -15.7849
  31   2.0000      -0.572429       -15.5766
  32   2.0000      -0.570805       -15.5324
  33   2.0000      -0.510713       -13.8972
  34   2.0000      -0.498029       -13.5521
  35   2.0000      -0.475312       -12.9339
  36   2.0000      -0.459026       -12.4907
  37   2.0000      -0.455267       -12.3884
  38   2.0000      -0.429130       -11.6772
  39   0.0000       0.018337         0.4990
  40   0.0000       0.026398         0.7183
  41   0.0000       0.029856         0.8124
  42   0.0000       0.036988         1.0065
  43   0.0000       0.045159         1.2288

MULLIKEN ATOMIC CHARGES
-----------------------
   0 C :   -1.145798
   1 Si:    1.420264
   2 H :    0.297516
   3 H :    0.304750
   4 H :    0.310694
   5 C :   -1.145791
   6 H :    0.297514
   7 H :    0.310690
   8 H :    0.304748
   9 B :    1.283558
  10 N :    0.703871
  11 O :   -0.720747
  12 O :   -0.626946
  13 O :   -1.045073
  14 O :   -1.231999
  15 H :    0.312334
  16 H :    0.370414
Sum of atomic charges:    0.0000000

LOEWDIN ATOMIC CHARGES
----------------------
   0 C :    0.977351
   1 Si:    0.189044
   2 H :   -0.335128
   3 H :   -0.334632
   4 H :   -0.340704
   5 C :    0.977351
   6 H :   -0.335129
   7 H :   -0.340704
   8 H :   -0.334632
   9 B :   -1.133501
  10 N :   -0.786432
  11 O :    0.541869
  12 O :    0.475334
  13 O :    1.293452
  14 O :    1.323838
  15 H :   -0.795025
  16 H :   -1.042353

  Mayer bond orders larger than 0.100000
B(  0-C ,  1-Si) :   0.8461 B(  0-C ,  2-H ) :   0.9517 B(  0-C ,  3-H ) :   0.9093
B(  0-C ,  4-H ) :   0.9000 B(  1-Si,  5-C ) :   0.8461 B(  1-Si,  9-B ) :   0.8683
B(  1-Si, 10-N ) :   0.3595 B(  1-Si, 13-O ) :  -0.1158 B(  1-Si, 14-O ) :  -0.1807
B(  5-C ,  6-H ) :   0.9517 B(  5-C ,  7-H ) :   0.9000 B(  5-C ,  8-H ) :   0.9093
B(  9-B , 13-O ) :   0.3578 B(  9-B , 14-O ) :   0.5456 B( 10-N , 11-O ) :   1.0508
B( 10-N , 12-O ) :   1.2799 B( 11-O , 12-O ) :   0.1378 B( 13-O , 14-O ) :  -0.1270
B( 13-O , 15-H ) :   0.9664 B( 14-O , 16-H ) :   0.8667

MP2 TOTAL ENERGY:     -750.061015998 Eh
FINAL SINGLE POINT ENERGY      -750.061015997811

DIPOLE MOMENT
-------------
                                X             Y             Z
Electronic contribution:      1.57399       7.21639       0.00005
Nuclear contribution   :     -0.72852      -8.45806      -0.00006
                        -----------------------------------------
Total Dipole Moment    :      0.84547      -1.24167      -0.00001
                        -----------------------------------------
Magnitude (a.u.)       :      1.50219
Magnitude (Debye)      :      3.81826

Rotational constants in cm-1:     0.056809     0.036717     0.028243
Rotational constants in MHz :  1703.097879  1100.737049   846.705964

                             ****ORCA TERMINATED NORMALLY****
TOTAL RUN TIME: 0 days 0 hours 28 minutes 50 seconds 978 msec
