                         Program Version 5.0.4 -  RELEASE  -
|  1> ! ri-mp2 aug-cc-pvdz aug-cc-pvdz/c tightscf
|  2> %pal nprocs 16 end
|  3> %maxcore 3800
|  4> %base "DZ_Si-Si_117_AB"
|  5> %scf
|  6> STABPerform true
|  7> STABRestartUHFifUnstable true
|  8> end
|  9>
| 10> *xyz 0 1
| 11> Si         0.898544   -1.601278   -0.749257
| 12> Si        -0.898541   -1.601280    0.749256
| 13> S        -2.632671   -0.692495   -0.143339
| 14> H        -0.530190   -0.912082    2.003089
| 15> H        -1.336090   -2.977907    1.077569
| 16> S        -1.842686    1.122820   -0.722622
| 17> S         2.632673   -0.692492    0.143339
| 18> H         0.530192   -0.912079   -2.003088
| 19> H         1.336093   -2.977905   -1.077571
| 20> S         1.842684    1.122821    0.722622
| 21> C        -1.916688    2.086680    0.798731
| 22> H        -1.589227    3.092083    0.533043
| 23> H        -1.244478    1.681149    1.550625
| 24> H        -2.934873    2.129336    1.176687
| 25> C         1.916684    2.086682   -0.798730
| 26> H         1.589220    3.092084   -0.533042
| 27> H         1.244476    1.681149   -1.550625
| 28> H         2.934869    2.129341   -1.176686
| 29> *
| 30>
| 31> $new_job
| 32> ! ri-mp2 aug-cc-pvtz aug-cc-pvtz/c tightscf
| 33> %pal nprocs 16 end
| 34> %maxcore 3800
| 35> %base "TZ_Si-Si_117_AB"
| 36>
| 37> *xyz 0 1
| 38> Si         0.898544   -1.601278   -0.749257
| 39> Si        -0.898541   -1.601280    0.749256
| 40> S        -2.632671   -0.692495   -0.143339
| 41> H        -0.530190   -0.912082    2.003089
| 42> H        -1.336090   -2.977907    1.077569
| 43> S        -1.842686    1.122820   -0.722622
| 44> S         2.632673   -0.692492    0.143339
| 45> H         0.530192   -0.912079   -2.003088
| 46> H         1.336093   -2.977905   -1.077571
| 47> S         1.842684    1.122821    0.722622
| 48> C        -1.916688    2.086680    0.798731
| 49> H        -1.589227    3.092083    0.533043
| 50> H        -1.244478    1.681149    1.550625
| 51> H        -2.934873    2.129336    1.176687
| 52> C         1.916684    2.086682   -0.798730
| 53> H         1.589220    3.092084   -0.533042
| 54> H         1.244476    1.681149   -1.550625
| 55> H         2.934869    2.129341   -1.176686
| 56> *
| 57>
| 58> $new_job
| 59> ! ri-mp2 aug-cc-pvqz aug-cc-pvqz/c tightscf
| 60> %pal nprocs 16 end
| 61> %maxcore 3800
| 62> %base "QZ_Si-Si_117_AB"
| 63>
| 64> *xyz 0 1
| 65> Si         0.898544   -1.601278   -0.749257
| 66> Si        -0.898541   -1.601280    0.749256
| 67> S        -2.632671   -0.692495   -0.143339
| 68> H        -0.530190   -0.912082    2.003089
| 69> H        -1.336090   -2.977907    1.077569
| 70> S        -1.842686    1.122820   -0.722622
| 71> S         2.632673   -0.692492    0.143339
| 72> H         0.530192   -0.912079   -2.003088
| 73> H         1.336093   -2.977905   -1.077571
| 74> S         1.842684    1.122821    0.722622
| 75> C        -1.916688    2.086680    0.798731
| 76> H        -1.589227    3.092083    0.533043
| 77> H        -1.244478    1.681149    1.550625
| 78> H        -2.934873    2.129336    1.176687
| 79> C         1.916684    2.086682   -0.798730
| 80> H         1.589220    3.092084   -0.533042
| 81> H         1.244476    1.681149   -1.550625
| 82> H         2.934869    2.129341   -1.176686
| 83> *
| 84>
| 85>
| 86>
| 87>
| 88>                          ****END OF INPUT****
 Total Charge           Charge          ....    0
 Multiplicity           Mult            ....    1
 Number of Electrons    NEL             ....  114
MP2 TOTAL ENERGY:    -2250.695501606 Eh
FINAL SINGLE POINT ENERGY     -2250.695501605665
MP2 TOTAL ENERGY:    -2251.061070468 Eh
FINAL SINGLE POINT ENERGY     -2251.061070468378

CARTESIAN COORDINATES (ANGSTROEM)
---------------------------------
  Si     0.898544   -1.601278   -0.749257
  Si    -0.898541   -1.601280    0.749256
  S     -2.632671   -0.692495   -0.143339
  H     -0.530190   -0.912082    2.003089
  H     -1.336090   -2.977907    1.077569
  S     -1.842686    1.122820   -0.722622
  S      2.632673   -0.692492    0.143339
  H      0.530192   -0.912079   -2.003088
  H      1.336093   -2.977905   -1.077571
  S      1.842684    1.122821    0.722622
  C     -1.916688    2.086680    0.798731
  H     -1.589227    3.092083    0.533043
  H     -1.244478    1.681149    1.550625
  H     -2.934873    2.129336    1.176687
  C      1.916684    2.086682   -0.798730
  H      1.589220    3.092084   -0.533042
  H      1.244476    1.681149   -1.550625
  H      2.934869    2.129341   -1.176686

 Multiplicity           Mult            ....    1
 Number of Electrons    NEL             ....  114
 Basis Dimension        Dim             .... 1124

ORBITAL ENERGIES
----------------

  NO   OCC          E(Eh)            E(eV)
   0   2.0000     -91.980249     -2502.9098
   1   2.0000     -91.980249     -2502.9098
   2   2.0000     -91.967491     -2502.5627
   3   2.0000     -91.967491     -2502.5627
   4   2.0000     -68.796269     -1872.0416
   5   2.0000     -68.796267     -1872.0416
   6   2.0000     -11.260996      -306.4273
   7   2.0000     -11.260996      -306.4273
   8   2.0000      -8.980470      -244.3710
   9   2.0000      -8.980470      -244.3710
  10   2.0000      -8.969821      -244.0812
  11   2.0000      -8.969821      -244.0812
  12   2.0000      -6.661892      -181.2793
  13   2.0000      -6.661892      -181.2793
  14   2.0000      -6.660674      -181.2461
  15   2.0000      -6.660673      -181.2461
  16   2.0000      -6.659791      -181.2221
  17   2.0000      -6.659791      -181.2221
  18   2.0000      -6.651090      -180.9853
  19   2.0000      -6.651089      -180.9853
  20   2.0000      -6.650011      -180.9560
  21   2.0000      -6.650010      -180.9560
  22   2.0000      -6.649374      -180.9387
  23   2.0000      -6.649374      -180.9387
  24   2.0000      -6.144396      -167.1975
  25   2.0000      -6.144249      -167.1935
  26   2.0000      -4.250753      -115.6689
  27   2.0000      -4.250691      -115.6672
  28   2.0000      -4.250433      -115.6602
  29   2.0000      -4.250128      -115.6519
  30   2.0000      -4.249981      -115.6478
  31   2.0000      -4.249608      -115.6377
  32   2.0000      -1.079845       -29.3841
  33   2.0000      -1.076052       -29.2809
  34   2.0000      -0.965928       -26.2842
  35   2.0000      -0.962378       -26.1876
  36   2.0000      -0.825798       -22.4711
  37   2.0000      -0.822108       -22.3707
  38   2.0000      -0.730351       -19.8739
  39   2.0000      -0.662627       -18.0310
  40   2.0000      -0.608733       -16.5645
  41   2.0000      -0.604848       -16.4587
  42   2.0000      -0.604059       -16.4373
  43   2.0000      -0.597506       -16.2590
  44   2.0000      -0.538553       -14.6548
  45   2.0000      -0.527219       -14.3464
  46   2.0000      -0.514195       -13.9919
  47   2.0000      -0.512866       -13.9558
  48   2.0000      -0.483870       -13.1668
  49   2.0000      -0.482172       -13.1206
  50   2.0000      -0.457143       -12.4395
  51   2.0000      -0.446225       -12.1424
  52   2.0000      -0.427142       -11.6231
  53   2.0000      -0.376912       -10.2563
  54   2.0000      -0.366324        -9.9682
  55   2.0000      -0.347033        -9.4432
  56   2.0000      -0.346268        -9.4224
  57   0.0000       0.023423         0.6374
  58   0.0000       0.028392         0.7726
  59   0.0000       0.028907         0.7866
  60   0.0000       0.035835         0.9751
  61   0.0000       0.040594         1.1046

MULLIKEN ATOMIC CHARGES
-----------------------
   0 Si:    1.086701
   1 Si:    1.086702
   2 S :   -0.442426
   3 H :   -0.186980
   4 H :   -0.508033
   5 S :    0.044555
   6 S :   -0.442426
   7 H :   -0.186980
   8 H :   -0.508033
   9 S :    0.044555
  10 C :   -1.113259
  11 H :    0.339718
  12 H :    0.334381
  13 H :    0.445342
  14 C :   -1.113258
  15 H :    0.339718
  16 H :    0.334381
  17 H :    0.445342
Sum of atomic charges:    0.0000000

LOEWDIN ATOMIC CHARGES
----------------------
   0 Si:    0.096229
   1 Si:    0.096229
   2 S :    0.591863
   3 H :   -0.304486
   4 H :   -0.322324
   5 S :    0.693650
   6 S :    0.591863
   7 H :   -0.304486
   8 H :   -0.322324
   9 S :    0.693650
  10 C :    0.442841
  11 H :   -0.394059
  12 H :   -0.419889
  13 H :   -0.383826
  14 C :    0.442841
  15 H :   -0.394059
  16 H :   -0.419889
  17 H :   -0.383825

  Mayer bond orders larger than 0.100000
B(  0-Si,  1-Si) :   0.8200 B(  0-Si,  6-S ) :   0.6893 B(  0-Si,  7-H ) :   0.8242
B(  0-Si,  8-H ) :   0.5787 B(  1-Si,  2-S ) :   0.6893 B(  1-Si,  3-H ) :   0.8242
B(  1-Si,  4-H ) :   0.5787 B(  2-S ,  5-S ) :   1.0607 B(  5-S , 10-C ) :   1.0221
B(  6-S ,  9-S ) :   1.0607 B(  9-S , 14-C ) :   1.0221 B( 10-C , 11-H ) :   0.8503
B( 10-C , 12-H ) :   0.8636 B( 10-C , 13-H ) :   0.8136 B( 14-C , 15-H ) :   0.8503
B( 14-C , 16-H ) :   0.8636 B( 14-C , 17-H ) :   0.8136

MP2 TOTAL ENERGY:    -2251.178070765 Eh
FINAL SINGLE POINT ENERGY     -2251.178070764558

DIPOLE MOMENT
-------------
                                X             Y             Z
Electronic contribution:      0.00001      -5.49539      -0.00000
Nuclear contribution   :     -0.00001       6.06794       0.00000
                        -----------------------------------------
Total Dipole Moment    :      0.00000       0.57255      -0.00000
                        -----------------------------------------
Magnitude (a.u.)       :      0.57255
Magnitude (Debye)      :      1.45532

Rotational constants in cm-1:     0.032823     0.018209     0.013599
Rotational constants in MHz :   984.007320   545.897031   407.694699

                             ****ORCA TERMINATED NORMALLY****
TOTAL RUN TIME: 0 days 4 hours 42 minutes 17 seconds 935 msec
