                         Program Version 5.0.4 -  RELEASE  -
|  1> ! ri-mp2 aug-cc-pvdz aug-cc-pvdz/c tightscf
|  2> %pal nprocs 16 end
|  3> %maxcore 3800
|  4> %base "DZ_B-Cl_8_AB"
|  5> %scf
|  6> STABPerform true
|  7> STABRestartUHFifUnstable true
|  8> end
|  9>
| 10> *xyz 0 1
| 11> Cl         2.118762   -0.806645   -0.700853
| 12> Cl         0.992680    1.477112    0.908038
| 13> B         0.757111    0.092388   -0.099860
| 14> C        -0.690027   -0.420395   -0.476295
| 15> Cl        -1.229200   -1.362532    0.945767
| 16> Cl        -1.821008    0.878508   -0.878268
| 17> H        -0.686360   -1.109102   -1.312547
| 18> *
| 19>
| 20> $new_job
| 21> ! ri-mp2 aug-cc-pvtz aug-cc-pvtz/c tightscf
| 22> %pal nprocs 16 end
| 23> %maxcore 3800
| 24> %base "TZ_B-Cl_8_AB"
| 25>
| 26> *xyz 0 1
| 27> Cl         2.118762   -0.806645   -0.700853
| 28> Cl         0.992680    1.477112    0.908038
| 29> B         0.757111    0.092388   -0.099860
| 30> C        -0.690027   -0.420395   -0.476295
| 31> Cl        -1.229200   -1.362532    0.945767
| 32> Cl        -1.821008    0.878508   -0.878268
| 33> H        -0.686360   -1.109102   -1.312547
| 34> *
| 35>
| 36> $new_job
| 37> ! ri-mp2 aug-cc-pvqz aug-cc-pvqz/c tightscf
| 38> %pal nprocs 16 end
| 39> %maxcore 3800
| 40> %base "QZ_B-Cl_8_AB"
| 41>
| 42> *xyz 0 1
| 43> Cl         2.118762   -0.806645   -0.700853
| 44> Cl         0.992680    1.477112    0.908038
| 45> B         0.757111    0.092388   -0.099860
| 46> C        -0.690027   -0.420395   -0.476295
| 47> Cl        -1.229200   -1.362532    0.945767
| 48> Cl        -1.821008    0.878508   -0.878268
| 49> H        -0.686360   -1.109102   -1.312547
| 50> *
| 51>
| 52>
| 53>
| 54>
| 55>                          ****END OF INPUT****
 Total Charge           Charge          ....    0
 Multiplicity           Mult            ....    1
 Number of Electrons    NEL             ....   80
MP2 TOTAL ENERGY:    -1902.056341058 Eh
FINAL SINGLE POINT ENERGY     -1902.056341058365
MP2 TOTAL ENERGY:    -1902.351498789 Eh
FINAL SINGLE POINT ENERGY     -1902.351498788746

CARTESIAN COORDINATES (ANGSTROEM)
---------------------------------
  Cl     2.118762   -0.806645   -0.700853
  Cl     0.992680    1.477112    0.908038
  B      0.757111    0.092388   -0.099860
  C     -0.690027   -0.420395   -0.476295
  Cl    -1.229200   -1.362532    0.945767
  Cl    -1.821008    0.878508   -0.878268
  H     -0.686360   -1.109102   -1.312547

 Multiplicity           Mult            ....    1
 Number of Electrons    NEL             ....   80
 Basis Dimension        Dim             ....  542

ORBITAL ENERGIES
----------------

  NO   OCC          E(Eh)            E(eV)
   0   2.0000    -104.862492     -2853.4535
   1   2.0000    -104.860596     -2853.4019
   2   2.0000    -104.858307     -2853.3396
   3   2.0000    -104.856907     -2853.3015
   4   2.0000     -11.363615      -309.2197
   5   2.0000     -10.590298      -288.1766
   6   2.0000     -10.586196      -288.0650
   7   2.0000     -10.586022      -288.0603
   8   2.0000     -10.582517      -287.9649
   9   2.0000      -8.057114      -219.2452
  10   2.0000      -8.056017      -219.2154
  11   2.0000      -8.055741      -219.2079
  12   2.0000      -8.053041      -219.1344
  13   2.0000      -8.053019      -219.1338
  14   2.0000      -8.051905      -219.1035
  15   2.0000      -8.051631      -219.0960
  16   2.0000      -8.051191      -219.0840
  17   2.0000      -8.051091      -219.0813
  18   2.0000      -8.049564      -219.0398
  19   2.0000      -8.047726      -218.9898
  20   2.0000      -8.047627      -218.9871
  21   2.0000      -7.739518      -210.6030
  22   2.0000      -1.208504       -32.8851
  23   2.0000      -1.159464       -31.5506
  24   2.0000      -1.122162       -30.5356
  25   2.0000      -1.106667       -30.1140
  26   2.0000      -0.907361       -24.6906
  27   2.0000      -0.721079       -19.6216
  28   2.0000      -0.657624       -17.8949
  29   2.0000      -0.621981       -16.9250
  30   2.0000      -0.603972       -16.4349
  31   2.0000      -0.577938       -15.7265
  32   2.0000      -0.535381       -14.5685
  33   2.0000      -0.509401       -13.8615
  34   2.0000      -0.492779       -13.4092
  35   2.0000      -0.478230       -13.0133
  36   2.0000      -0.470827       -12.8118
  37   2.0000      -0.468358       -12.7447
  38   2.0000      -0.457322       -12.4444
  39   2.0000      -0.443189       -12.0598
  40   0.0000       0.026001         0.7075
  41   0.0000       0.037504         1.0205
  42   0.0000       0.038228         1.0402
  43   0.0000       0.040407         1.0995
  44   0.0000       0.054446         1.4815

MULLIKEN ATOMIC CHARGES
-----------------------
   0 Cl:   -0.196973
   1 Cl:   -0.173917
   2 B :    0.582906
   3 C :   -0.101772
   4 Cl:   -0.266154
   5 Cl:   -0.265028
   6 H :    0.420938
Sum of atomic charges:    0.0000000

LOEWDIN ATOMIC CHARGES
----------------------
   0 Cl:    1.282593
   1 Cl:    1.269804
   2 B :   -2.776872
   3 C :   -1.372201
   4 Cl:    1.107308
   5 Cl:    1.098241
   6 H :   -0.608873

  Mayer bond orders larger than 0.100000
B(  0-Cl,  2-B ) :   1.0809 B(  1-Cl,  2-B ) :   1.1052 B(  2-B ,  3-C ) :   0.9198
B(  3-C ,  4-Cl) :   0.7999 B(  3-C ,  5-Cl) :   0.8054 B(  3-C ,  6-H ) :   0.7384

MP2 TOTAL ENERGY:    -1902.450970096 Eh
FINAL SINGLE POINT ENERGY     -1902.450970096331

DIPOLE MOMENT
-------------
                                X             Y             Z
Electronic contribution:      1.45741       1.12150       1.10529
Nuclear contribution   :     -1.25541      -1.31549      -1.47402
                        -----------------------------------------
Total Dipole Moment    :      0.20200      -0.19399      -0.36873
                        -----------------------------------------
Magnitude (a.u.)       :      0.46303
Magnitude (Debye)      :      1.17694

Rotational constants in cm-1:     0.054859     0.034556     0.029334
Rotational constants in MHz :  1644.618740  1035.972715   879.405987

                             ****ORCA TERMINATED NORMALLY****
TOTAL RUN TIME: 0 days 0 hours 25 minutes 41 seconds 875 msec
