                         Program Version 5.0.4 -  RELEASE  -
|  1> ! ri-mp2 aug-cc-pvdz aug-cc-pvdz/c tightscf
|  2> %pal nprocs 16 end
|  3> %maxcore 3800
|  4> %base "DZ_B-F_73_A"
|  5> %scf
|  6> STABPerform true
|  7> STABRestartUHFifUnstable true
|  8> end
|  9>
| 10> *xyz 0 2
| 11> B        -0.783357    0.668500    0.000001
| 12> F        -1.491625   -0.451861   -0.000006
| 13> O         0.540398    0.709171    0.000004
| 14> C         1.373336   -0.455766    0.000002
| 15> H         2.000860   -0.424065   -0.887857
| 16> H         0.776531   -1.366370   -0.000024
| 17> H         2.000825   -0.424094    0.887887
| 18> *
| 19>
| 20> $new_job
| 21> ! ri-mp2 aug-cc-pvtz aug-cc-pvtz/c tightscf
| 22> %pal nprocs 16 end
| 23> %maxcore 3800
| 24> %base "TZ_B-F_73_A"
| 25>
| 26> *xyz 0 2
| 27> B        -0.783357    0.668500    0.000001
| 28> F        -1.491625   -0.451861   -0.000006
| 29> O         0.540398    0.709171    0.000004
| 30> C         1.373336   -0.455766    0.000002
| 31> H         2.000860   -0.424065   -0.887857
| 32> H         0.776531   -1.366370   -0.000024
| 33> H         2.000825   -0.424094    0.887887
| 34> *
| 35>
| 36> $new_job
| 37> ! ri-mp2 aug-cc-pvqz aug-cc-pvqz/c tightscf
| 38> %pal nprocs 16 end
| 39> %maxcore 3800
| 40> %base "QZ_B-F_73_A"
| 41>
| 42> *xyz 0 2
| 43> B        -0.783357    0.668500    0.000001
| 44> F        -1.491625   -0.451861   -0.000006
| 45> O         0.540398    0.709171    0.000004
| 46> C         1.373336   -0.455766    0.000002
| 47> H         2.000860   -0.424065   -0.887857
| 48> H         0.776531   -1.366370   -0.000024
| 49> H         2.000825   -0.424094    0.887887
| 50> *
| 51>
| 52>
| 53>
| 54>
| 55>                          ****END OF INPUT****
 Total Charge           Charge          ....    0
 Multiplicity           Mult            ....    2
 Number of Electrons    NEL             ....   31
MP2 TOTAL ENERGY:     -239.267704776 Eh
FINAL SINGLE POINT ENERGY      -239.267704776122
MP2 TOTAL ENERGY:     -239.480941873 Eh
FINAL SINGLE POINT ENERGY      -239.480941872900

CARTESIAN COORDINATES (ANGSTROEM)
---------------------------------
  B     -0.783357    0.668500    0.000001
  F     -1.491625   -0.451861   -0.000006
  O      0.540398    0.709171    0.000004
  C      1.373336   -0.455766    0.000002
  H      2.000860   -0.424065   -0.887857
  H      0.776531   -1.366370   -0.000024
  H      2.000825   -0.424094    0.887887

 Multiplicity           Mult            ....    2
 Number of Electrons    NEL             ....   31
 Basis Dimension        Dim             ....  458

ORBITAL ENERGIES
----------------
                 SPIN UP ORBITALS
  NO   OCC          E(Eh)            E(eV)
   0   1.0000     -26.307199      -715.8553
   1   1.0000     -20.587407      -560.2118
   2   1.0000     -11.295853      -307.3758
   3   1.0000      -7.695362      -209.4014
   4   1.0000      -1.625934       -44.2439
   5   1.0000      -1.400252       -38.1028
   6   1.0000      -0.968887       -26.3648
   7   1.0000      -0.793028       -21.5794
   8   1.0000      -0.735297       -20.0085
   9   1.0000      -0.695363       -18.9218
  10   1.0000      -0.691653       -18.8208
  11   1.0000      -0.642414       -17.4810
  12   1.0000      -0.629321       -17.1247
  13   1.0000      -0.524387       -14.2693
  14   1.0000      -0.494605       -13.4589
  15   1.0000      -0.370621       -10.0851
  16   0.0000       0.024583         0.6689
  17   0.0000       0.034542         0.9399
  18   0.0000       0.039557         1.0764
  19   0.0000       0.041008         1.1159
  20   0.0000       0.056806         1.5458

                 SPIN DOWN ORBITALS
  NO   OCC          E(Eh)            E(eV)
   0   1.0000     -26.303501      -715.7546
   1   1.0000     -20.586193      -560.1788
   2   1.0000     -11.294595      -307.3416
   3   1.0000      -7.672743      -208.7860
   4   1.0000      -1.614790       -43.9407
   5   1.0000      -1.395704       -37.9790
   6   1.0000      -0.960280       -26.1306
   7   1.0000      -0.780385       -21.2354
   8   1.0000      -0.720078       -19.5943
   9   1.0000      -0.689370       -18.7587
  10   1.0000      -0.670796       -18.2533
  11   1.0000      -0.644648       -17.5418
  12   1.0000      -0.624177       -16.9847
  13   1.0000      -0.520753       -14.1704
  14   1.0000      -0.497458       -13.5365
  15   0.0000       0.023358         0.6356
  16   0.0000       0.034594         0.9414
  17   0.0000       0.035216         0.9583
  18   0.0000       0.040818         1.1107
  19   0.0000       0.057318         1.5597

MULLIKEN ATOMIC CHARGES AND SPIN POPULATIONS
--------------------------------------------
   0 B :    1.033211    1.080522
   1 F :   -0.681873   -0.022326
   2 O :   -0.769712   -0.102309
   3 C :   -0.459058    0.045472
   4 H :    0.289712   -0.001958
   5 H :    0.298011    0.002557
   6 H :    0.289710   -0.001958
Sum of atomic charges         :    0.0000000

LOEWDIN ATOMIC CHARGES AND SPIN POPULATIONS
-------------------------------------------
   0 B :   -1.092761    0.621297
   1 F :    0.707222    0.156969
   2 O :    0.783611    0.161649
   3 C :    0.568432    0.040914
   4 H :   -0.312126    0.005086
   5 H :   -0.342252    0.008999
   6 H :   -0.312125    0.005086

  Mayer bond orders larger than 0.100000
B(  0-B ,  1-F ) :   0.4977 B(  0-B ,  2-O ) :   0.7674 B(  2-O ,  3-C ) :   0.7806
B(  3-C ,  4-H ) :   0.9089 B(  3-C ,  5-H ) :   0.9003 B(  3-C ,  6-H ) :   0.9089

MP2 TOTAL ENERGY:     -239.548181534 Eh
FINAL SINGLE POINT ENERGY      -239.548181534099

DIPOLE MOMENT
-------------
                                X             Y             Z
Electronic contribution:     -5.93056       1.76068      -0.00001
Nuclear contribution   :      6.59414      -2.19685       0.00001
                        -----------------------------------------
Total Dipole Moment    :      0.66357      -0.43616       0.00000
                        -----------------------------------------
Magnitude (a.u.)       :      0.79408
Magnitude (Debye)      :      2.01840

Rotational constants in cm-1:     0.738303     0.196266     0.159718
Rotational constants in MHz : 22133.759500  5883.903816  4788.223454

                             ****ORCA TERMINATED NORMALLY****
TOTAL RUN TIME: 0 days 0 hours 11 minutes 15 seconds 413 msec
