                         Program Version 5.0.4 -  RELEASE  -
|  1> ! ri-mp2 aug-cc-pvdz aug-cc-pvdz/c tightscf
|  2> %pal nprocs 16 end
|  3> %maxcore 3800
|  4> %base "DZ_Si-Cl_3_AB"
|  5> %scf
|  6> STABPerform true
|  7> STABRestartUHFifUnstable true
|  8> end
|  9>
| 10> *xyz 0 1
| 11> Si         2.777979   -0.688554    0.311678
| 12> C         1.088125   -1.111420   -0.334976
| 13> Cl         3.252885    1.257500   -0.195114
| 14> C        -0.044211   -0.250006    0.221340
| 15> H         0.909385   -2.166803   -0.099709
| 16> H         1.111889   -1.045618   -1.426656
| 17> C        -1.411455   -0.634575   -0.324547
| 18> H         0.150818    0.801090   -0.006807
| 19> H        -0.060324   -0.323816    1.313110
| 20> C        -2.540574    0.222048    0.225501
| 21> H        -1.608601   -1.687143   -0.096557
| 22> H        -1.395850   -0.558517   -1.416523
| 23> C        -3.908906   -0.156756   -0.320514
| 24> H        -2.340069    1.274276   -0.001314
| 25> H        -2.554371    0.145940    1.317816
| 26> C        -5.030678    0.705628    0.236024
| 27> H        -4.107667   -1.208330   -0.093821
| 28> H        -3.893883   -0.079715   -1.411582
| 29> H        -5.087646    0.621812    1.323015
| 30> H        -5.999570    0.414409   -0.170642
| 31> H        -4.872138    1.758604   -0.004501
| 32> H         3.815754   -1.558966   -0.274256
| 33> H         2.827714   -0.774485    1.784912
| 34> *
| 35>
| 36> $new_job
| 37> ! ri-mp2 aug-cc-pvtz aug-cc-pvtz/c tightscf
| 38> %pal nprocs 16 end
| 39> %maxcore 3800
| 40> %base "TZ_Si-Cl_3_AB"
| 41>
| 42> *xyz 0 1
| 43> Si         2.777979   -0.688554    0.311678
| 44> C         1.088125   -1.111420   -0.334976
| 45> Cl         3.252885    1.257500   -0.195114
| 46> C        -0.044211   -0.250006    0.221340
| 47> H         0.909385   -2.166803   -0.099709
| 48> H         1.111889   -1.045618   -1.426656
| 49> C        -1.411455   -0.634575   -0.324547
| 50> H         0.150818    0.801090   -0.006807
| 51> H        -0.060324   -0.323816    1.313110
| 52> C        -2.540574    0.222048    0.225501
| 53> H        -1.608601   -1.687143   -0.096557
| 54> H        -1.395850   -0.558517   -1.416523
| 55> C        -3.908906   -0.156756   -0.320514
| 56> H        -2.340069    1.274276   -0.001314
| 57> H        -2.554371    0.145940    1.317816
| 58> C        -5.030678    0.705628    0.236024
| 59> H        -4.107667   -1.208330   -0.093821
| 60> H        -3.893883   -0.079715   -1.411582
| 61> H        -5.087646    0.621812    1.323015
| 62> H        -5.999570    0.414409   -0.170642
| 63> H        -4.872138    1.758604   -0.004501
| 64> H         3.815754   -1.558966   -0.274256
| 65> H         2.827714   -0.774485    1.784912
| 66> *
| 67>
| 68> $new_job
| 69> ! ri-mp2 aug-cc-pvqz aug-cc-pvqz/c tightscf
| 70> %pal nprocs 16 end
| 71> %maxcore 3800
| 72> %base "QZ_Si-Cl_3_AB"
| 73>
| 74> *xyz 0 1
| 75> Si         2.777979   -0.688554    0.311678
| 76> C         1.088125   -1.111420   -0.334976
| 77> Cl         3.252885    1.257500   -0.195114
| 78> C        -0.044211   -0.250006    0.221340
| 79> H         0.909385   -2.166803   -0.099709
| 80> H         1.111889   -1.045618   -1.426656
| 81> C        -1.411455   -0.634575   -0.324547
| 82> H         0.150818    0.801090   -0.006807
| 83> H        -0.060324   -0.323816    1.313110
| 84> C        -2.540574    0.222048    0.225501
| 85> H        -1.608601   -1.687143   -0.096557
| 86> H        -1.395850   -0.558517   -1.416523
| 87> C        -3.908906   -0.156756   -0.320514
| 88> H        -2.340069    1.274276   -0.001314
| 89> H        -2.554371    0.145940    1.317816
| 90> C        -5.030678    0.705628    0.236024
| 91> H        -4.107667   -1.208330   -0.093821
| 92> H        -3.893883   -0.079715   -1.411582
| 93> H        -5.087646    0.621812    1.323015
| 94> H        -5.999570    0.414409   -0.170642
| 95> H        -4.872138    1.758604   -0.004501
| 96> H         3.815754   -1.558966   -0.274256
| 97> H         2.827714   -0.774485    1.784912
| 98> *
| 99>
|100>
|101>
|102>
|103>                          ****END OF INPUT****
 Total Charge           Charge          ....    0
 Multiplicity           Mult            ....    1
 Number of Electrons    NEL             ....   82
MP2 TOTAL ENERGY:     -985.620820581 Eh
FINAL SINGLE POINT ENERGY      -985.620820580804
MP2 TOTAL ENERGY:     -985.951706958 Eh
FINAL SINGLE POINT ENERGY      -985.951706957750

CARTESIAN COORDINATES (ANGSTROEM)
---------------------------------
  Si     2.777979   -0.688554    0.311678
  C      1.088125   -1.111420   -0.334976
  Cl     3.252885    1.257500   -0.195114
  C     -0.044211   -0.250006    0.221340
  H      0.909385   -2.166803   -0.099709
  H      1.111889   -1.045618   -1.426656
  C     -1.411455   -0.634575   -0.324547
  H      0.150818    0.801090   -0.006807
  H     -0.060324   -0.323816    1.313110
  C     -2.540574    0.222048    0.225501
  H     -1.608601   -1.687143   -0.096557
  H     -1.395850   -0.558517   -1.416523
  C     -3.908906   -0.156756   -0.320514
  H     -2.340069    1.274276   -0.001314
  H     -2.554371    0.145940    1.317816
  C     -5.030678    0.705628    0.236024
  H     -4.107667   -1.208330   -0.093821
  H     -3.893883   -0.079715   -1.411582
  H     -5.087646    0.621812    1.323015
  H     -5.999570    0.414409   -0.170642
  H     -4.872138    1.758604   -0.004501
  H      3.815754   -1.558966   -0.274256
  H      2.827714   -0.774485    1.784912

 Multiplicity           Mult            ....    1
 Number of Electrons    NEL             ....   82
 Basis Dimension        Dim             .... 1338

ORBITAL ENERGIES
----------------

  NO   OCC          E(Eh)            E(eV)
   0   2.0000    -104.818097     -2852.2454
   1   2.0000     -68.803302     -1872.2330
   2   2.0000     -11.226504      -305.4887
   3   2.0000     -11.217812      -305.2522
   4   2.0000     -11.217275      -305.2376
   5   2.0000     -11.215802      -305.1975
   6   2.0000     -11.214380      -305.1588
   7   2.0000     -11.209491      -305.0258
   8   2.0000     -10.545628      -286.9611
   9   2.0000      -8.012435      -218.0294
  10   2.0000      -8.011364      -218.0003
  11   2.0000      -8.011357      -218.0001
  12   2.0000      -6.149458      -167.3353
  13   2.0000      -4.256489      -115.8249
  14   2.0000      -4.255435      -115.7963
  15   2.0000      -4.254992      -115.7842
  16   2.0000      -1.097076       -29.8530
  17   2.0000      -1.087232       -29.5851
  18   2.0000      -1.045505       -28.4496
  19   2.0000      -0.970240       -26.4016
  20   2.0000      -0.881074       -23.9752
  21   2.0000      -0.808604       -22.0032
  22   2.0000      -0.791455       -21.5366
  23   2.0000      -0.698342       -19.0028
  24   2.0000      -0.660932       -17.9849
  25   2.0000      -0.621853       -16.9215
  26   2.0000      -0.593457       -16.1488
  27   2.0000      -0.578076       -15.7302
  28   2.0000      -0.567462       -15.4414
  29   2.0000      -0.544506       -14.8168
  30   2.0000      -0.520872       -14.1737
  31   2.0000      -0.513289       -13.9673
  32   2.0000      -0.511481       -13.9181
  33   2.0000      -0.501023       -13.6335
  34   2.0000      -0.482698       -13.1349
  35   2.0000      -0.475400       -12.9363
  36   2.0000      -0.466929       -12.7058
  37   2.0000      -0.463800       -12.6207
  38   2.0000      -0.459330       -12.4990
  39   2.0000      -0.441118       -12.0034
  40   2.0000      -0.417753       -11.3676
  41   0.0000       0.023929         0.6511
  42   0.0000       0.026932         0.7328
  43   0.0000       0.030950         0.8422
  44   0.0000       0.032583         0.8866
  45   0.0000       0.039006         1.0614

MULLIKEN ATOMIC CHARGES
-----------------------
   0 Si:    1.225295
   1 C :   -0.634465
   2 Cl:   -0.685351
   3 C :   -0.452047
   4 H :    0.223820
   5 H :    0.194762
   6 C :   -0.358891
   7 H :    0.271197
   8 H :    0.263758
   9 C :   -0.253629
  10 H :    0.258095
  11 H :    0.244461
  12 C :   -0.501792
  13 H :    0.236343
  14 H :    0.239250
  15 C :   -0.909050
  16 H :    0.224689
  17 H :    0.225034
  18 H :    0.222689
  19 H :    0.268409
  20 H :    0.223096
  21 H :   -0.298291
  22 H :   -0.227381
Sum of atomic charges:    0.0000000

LOEWDIN ATOMIC CHARGES
----------------------
   0 Si:    0.021403
   1 C :    0.452743
   2 Cl:    0.901909
   3 C :    0.427413
   4 H :   -0.336380
   5 H :   -0.341825
   6 C :    0.514948
   7 H :   -0.296529
   8 H :   -0.279457
   9 C :    0.508320
  10 H :   -0.264085
  11 H :   -0.263973
  12 C :    0.504600
  13 H :   -0.264548
  14 H :   -0.264773
  15 C :    0.925593
  16 H :   -0.271063
  17 H :   -0.270942
  18 H :   -0.284248
  19 H :   -0.283178
  20 H :   -0.284110
  21 H :   -0.281127
  22 H :   -0.270688

  Mayer bond orders larger than 0.100000
B(  0-Si,  1-C ) :   0.9627 B(  0-Si,  2-Cl) :   0.3424 B(  0-Si,  3-C ) :  -0.1008
B(  0-Si, 21-H ) :   0.8072 B(  0-Si, 22-H ) :   0.8293 B(  1-C ,  3-C ) :   1.0521
B(  1-C ,  4-H ) :   0.8983 B(  1-C ,  5-H ) :   0.9278 B(  3-C ,  6-C ) :   1.1280
B(  3-C ,  7-H ) :   0.8313 B(  3-C ,  8-H ) :   0.8377 B(  6-C ,  9-C ) :   1.0395
B(  6-C , 10-H ) :   0.8247 B(  6-C , 11-H ) :   0.8385 B(  9-C , 12-C ) :   0.9727
B(  9-C , 13-H ) :   0.8543 B(  9-C , 14-H ) :   0.8558 B(  9-C , 15-C ) :  -0.1375
B( 12-C , 15-C ) :   1.0533 B( 12-C , 16-H ) :   0.8820 B( 12-C , 17-H ) :   0.8805
B( 12-C , 19-H ) :  -0.1000 B( 15-C , 18-H ) :   0.9567 B( 15-C , 19-H ) :   1.0260
B( 15-C , 20-H ) :   0.9565

MP2 TOTAL ENERGY:     -986.054159938 Eh
FINAL SINGLE POINT ENERGY      -986.054159938412

DIPOLE MOMENT
-------------
                                X             Y             Z
Electronic contribution:     28.00161       5.64171      -0.99241
Nuclear contribution   :    -28.53413      -6.27810       1.01837
                        -----------------------------------------
Total Dipole Moment    :     -0.53252      -0.63639       0.02596
                        -----------------------------------------
Magnitude (a.u.)       :      0.83021
Magnitude (Debye)      :      2.11022

Rotational constants in cm-1:     0.120372     0.012261     0.011497
Rotational constants in MHz :  3608.649476   367.565641   344.683025

                             ****ORCA TERMINATED NORMALLY****
TOTAL RUN TIME: 0 days 7 hours 35 minutes 31 seconds 824 msec
