                         Program Version 5.0.4 -  RELEASE  -
|  1> ! ri-mp2 aug-cc-pvdz aug-cc-pvdz/c tightscf
|  2> %pal nprocs 16 end
|  3> %maxcore 3800
|  4> %base "DZ_P-C_65_A"
|  5> %scf
|  6> STABPerform true
|  7> STABRestartUHFifUnstable true
|  8> end
|  9>
| 10> *xyz 0 2
| 11> C         0.000016    0.000010    0.238965
| 12> Cl        -1.436113    0.874557   -0.028116
| 13> Cl        -0.039338   -1.680986   -0.028116
| 14> Cl         1.475445    0.806425   -0.028109
| 15> *
| 16>
| 17> $new_job
| 18> ! ri-mp2 aug-cc-pvtz aug-cc-pvtz/c tightscf
| 19> %pal nprocs 16 end
| 20> %maxcore 3800
| 21> %base "TZ_P-C_65_A"
| 22>
| 23> *xyz 0 2
| 24> C         0.000016    0.000010    0.238965
| 25> Cl        -1.436113    0.874557   -0.028116
| 26> Cl        -0.039338   -1.680986   -0.028116
| 27> Cl         1.475445    0.806425   -0.028109
| 28> *
| 29>
| 30> $new_job
| 31> ! ri-mp2 aug-cc-pvqz aug-cc-pvqz/c tightscf
| 32> %pal nprocs 16 end
| 33> %maxcore 3800
| 34> %base "QZ_P-C_65_A"
| 35>
| 36> *xyz 0 2
| 37> C         0.000016    0.000010    0.238965
| 38> Cl        -1.436113    0.874557   -0.028116
| 39> Cl        -0.039338   -1.680986   -0.028116
| 40> Cl         1.475445    0.806425   -0.028109
| 41> *
| 42>
| 43>
| 44>
| 45>
| 46>                          ****END OF INPUT****
 Total Charge           Charge          ....    0
 Multiplicity           Mult            ....    2
 Number of Electrons    NEL             ....   57
MP2 TOTAL ENERGY:    -1416.881637541 Eh
FINAL SINGLE POINT ENERGY     -1416.881637541377
MP2 TOTAL ENERGY:    -1417.097224985 Eh
FINAL SINGLE POINT ENERGY     -1417.097224984798

CARTESIAN COORDINATES (ANGSTROEM)
---------------------------------
  C      0.000016    0.000010    0.238965
  Cl    -1.436113    0.874557   -0.028116
  Cl    -0.039338   -1.680986   -0.028116
  Cl     1.475445    0.806425   -0.028109

 Multiplicity           Mult            ....    2
 Number of Electrons    NEL             ....   57
 Basis Dimension        Dim             ....  332

ORBITAL ENERGIES
----------------
                 SPIN UP ORBITALS
  NO   OCC          E(Eh)            E(eV)
   0   1.0000    -104.877533     -2853.8628
   1   1.0000    -104.877529     -2853.8627
   2   1.0000    -104.877529     -2853.8626
   3   1.0000     -11.422748      -310.8288
   4   1.0000     -10.602894      -288.5194
   5   1.0000     -10.602891      -288.5193
   6   1.0000     -10.602877      -288.5189
   7   1.0000      -8.070230      -219.6021
   8   1.0000      -8.070226      -219.6020
   9   1.0000      -8.070224      -219.6020
  10   1.0000      -8.068128      -219.5449
  11   1.0000      -8.068123      -219.5448
  12   1.0000      -8.068123      -219.5448
  13   1.0000      -8.067903      -219.5388
  14   1.0000      -8.067899      -219.5387
  15   1.0000      -8.067899      -219.5387
  16   1.0000      -1.268692       -34.5229
  17   1.0000      -1.135368       -30.8949
  18   1.0000      -1.135361       -30.8947
  19   1.0000      -0.841963       -22.9110
  20   1.0000      -0.652541       -17.7565
  21   1.0000      -0.652537       -17.7564
  22   1.0000      -0.651502       -17.7283
  23   1.0000      -0.512450       -13.9445
  24   1.0000      -0.512447       -13.9444
  25   1.0000      -0.490859       -13.3569
  26   1.0000      -0.490855       -13.3568
  27   1.0000      -0.462126       -12.5751
  28   1.0000      -0.369894       -10.0653
  29   0.0000       0.042646         1.1605
  30   0.0000       0.056810         1.5459
  31   0.0000       0.056811         1.5459
  32   0.0000       0.083136         2.2623
  33   0.0000       0.090433         2.4608

                 SPIN DOWN ORBITALS
  NO   OCC          E(Eh)            E(eV)
   0   1.0000    -104.877101     -2853.8510
   1   1.0000    -104.877097     -2853.8509
   2   1.0000    -104.877097     -2853.8509
   3   1.0000     -11.392966      -310.0184
   4   1.0000     -10.602389      -288.5057
   5   1.0000     -10.602386      -288.5056
   6   1.0000     -10.602369      -288.5051
   7   1.0000      -8.070861      -219.6193
   8   1.0000      -8.070857      -219.6192
   9   1.0000      -8.070854      -219.6191
  10   1.0000      -8.067610      -219.5308
  11   1.0000      -8.067606      -219.5307
  12   1.0000      -8.067605      -219.5307
  13   1.0000      -8.065663      -219.4779
  14   1.0000      -8.065660      -219.4778
  15   1.0000      -8.065657      -219.4777
  16   1.0000      -1.239160       -33.7193
  17   1.0000      -1.130914       -30.7737
  18   1.0000      -1.130907       -30.7735
  19   1.0000      -0.783793       -21.3281
  20   1.0000      -0.639703       -17.4072
  21   1.0000      -0.639700       -17.4071
  22   1.0000      -0.559943       -15.2368
  23   1.0000      -0.501776       -13.6540
  24   1.0000      -0.501773       -13.6539
  25   1.0000      -0.478613       -13.0237
  26   1.0000      -0.478611       -13.0237
  27   1.0000      -0.460626       -12.5343
  28   0.0000       0.040719         1.1080
  29   0.0000       0.057280         1.5587
  30   0.0000       0.057281         1.5587
  31   0.0000       0.073081         1.9886
  32   0.0000       0.084229         2.2920

MULLIKEN ATOMIC CHARGES AND SPIN POPULATIONS
--------------------------------------------
   0 C :   -0.125151    1.020048
   1 Cl:    0.041707   -0.006686
   2 Cl:    0.041708   -0.006686
   3 Cl:    0.041736   -0.006677
Sum of atomic charges         :    0.0000000

LOEWDIN ATOMIC CHARGES AND SPIN POPULATIONS
-------------------------------------------
   0 C :   -2.659466    0.562132
   1 Cl:    0.886477    0.145950
   2 Cl:    0.886477    0.145950
   3 Cl:    0.886512    0.145968

  Mayer bond orders larger than 0.100000
B(  0-C ,  1-Cl) :   0.9919 B(  0-C ,  2-Cl) :   0.9919 B(  0-C ,  3-Cl) :   0.9919

MP2 TOTAL ENERGY:    -1417.170000961 Eh
FINAL SINGLE POINT ENERGY     -1417.170000960937

DIPOLE MOMENT
-------------
                                X             Y             Z
Electronic contribution:      0.00004       0.00002      -0.09973
Nuclear contribution   :      0.00001       0.00000       0.10912
                        -----------------------------------------
Total Dipole Moment    :      0.00004       0.00002       0.00939
                        -----------------------------------------
Magnitude (a.u.)       :      0.00939
Magnitude (Debye)      :      0.02388

Rotational constants in cm-1:     0.111550     0.111549     0.056060
Rotational constants in MHz :  3344.183751  3344.167413  1680.649070

                             ****ORCA TERMINATED NORMALLY****
TOTAL RUN TIME: 0 days 0 hours 6 minutes 4 seconds 774 msec
