                         Program Version 5.0.4 -  RELEASE  -
|  1> ! ri-mp2 aug-cc-pvdz aug-cc-pvdz/c tightscf
|  2> %pal nprocs 16 end
|  3> %maxcore 3800
|  4> %base "DZ_B-F_55_AB"
|  5> %scf
|  6> STABPerform true
|  7> STABRestartUHFifUnstable true
|  8> end
|  9>
| 10> *xyz 0 1
| 11> F         2.708491   -0.831705    0.204399
| 12> B         1.658193   -0.089584   -0.061246
| 13> F         1.830189    1.122687   -0.532785
| 14> O         0.430000   -0.653199    0.111786
| 15> C        -0.725081    0.050257    0.188903
| 16> O        -0.821986    1.154095    0.626445
| 17> O        -1.702077   -0.712987   -0.260472
| 18> C        -3.008023   -0.129787   -0.192140
| 19> H        -3.046575    0.777209   -0.791653
| 20> H        -3.259481    0.107434    0.839439
| 21> H        -3.681899   -0.881648   -0.588733
| 22> *
| 23>
| 24> $new_job
| 25> ! ri-mp2 aug-cc-pvtz aug-cc-pvtz/c tightscf
| 26> %pal nprocs 16 end
| 27> %maxcore 3800
| 28> %base "TZ_B-F_55_AB"
| 29>
| 30> *xyz 0 1
| 31> F         2.708491   -0.831705    0.204399
| 32> B         1.658193   -0.089584   -0.061246
| 33> F         1.830189    1.122687   -0.532785
| 34> O         0.430000   -0.653199    0.111786
| 35> C        -0.725081    0.050257    0.188903
| 36> O        -0.821986    1.154095    0.626445
| 37> O        -1.702077   -0.712987   -0.260472
| 38> C        -3.008023   -0.129787   -0.192140
| 39> H        -3.046575    0.777209   -0.791653
| 40> H        -3.259481    0.107434    0.839439
| 41> H        -3.681899   -0.881648   -0.588733
| 42> *
| 43>
| 44> $new_job
| 45> ! ri-mp2 aug-cc-pvqz aug-cc-pvqz/c tightscf
| 46> %pal nprocs 16 end
| 47> %maxcore 3800
| 48> %base "QZ_B-F_55_AB"
| 49>
| 50> *xyz 0 1
| 51> F         2.708491   -0.831705    0.204399
| 52> B         1.658193   -0.089584   -0.061246
| 53> F         1.830189    1.122687   -0.532785
| 54> O         0.430000   -0.653199    0.111786
| 55> C        -0.725081    0.050257    0.188903
| 56> O        -0.821986    1.154095    0.626445
| 57> O        -1.702077   -0.712987   -0.260472
| 58> C        -3.008023   -0.129787   -0.192140
| 59> H        -3.046575    0.777209   -0.791653
| 60> H        -3.259481    0.107434    0.839439
| 61> H        -3.681899   -0.881648   -0.588733
| 62> *
| 63>
| 64>
| 65>
| 66>
| 67>                          ****END OF INPUT****
 Total Charge           Charge          ....    0
 Multiplicity           Mult            ....    1
 Number of Electrons    NEL             ....   62
MP2 TOTAL ENERGY:     -527.222455293 Eh
FINAL SINGLE POINT ENERGY      -527.222455293113
MP2 TOTAL ENERGY:     -527.679932136 Eh
FINAL SINGLE POINT ENERGY      -527.679932135684

CARTESIAN COORDINATES (ANGSTROEM)
---------------------------------
  F      2.708491   -0.831705    0.204399
  B      1.658193   -0.089584   -0.061246
  F      1.830189    1.122687   -0.532785
  O      0.430000   -0.653199    0.111786
  C     -0.725081    0.050257    0.188903
  O     -0.821986    1.154095    0.626445
  O     -1.702077   -0.712987   -0.260472
  C     -3.008023   -0.129787   -0.192140
  H     -3.046575    0.777209   -0.791653
  H     -3.259481    0.107434    0.839439
  H     -3.681899   -0.881648   -0.588733

 Multiplicity           Mult            ....    1
 Number of Electrons    NEL             ....   62
 Basis Dimension        Dim             ....  778

ORBITAL ENERGIES
----------------

  NO   OCC          E(Eh)            E(eV)
   0   2.0000     -26.326349      -716.3764
   1   2.0000     -26.324883      -716.3365
   2   2.0000     -20.632356      -561.4349
   3   2.0000     -20.631759      -561.4187
   4   2.0000     -20.567824      -559.6790
   5   2.0000     -11.457994      -311.7879
   6   2.0000     -11.304797      -307.6192
   7   2.0000      -7.758284      -211.1137
   8   2.0000      -1.662726       -45.2451
   9   2.0000      -1.631171       -44.3864
  10   2.0000      -1.535589       -41.7855
  11   2.0000      -1.429220       -38.8911
  12   2.0000      -1.397243       -38.0209
  13   2.0000      -1.013380       -27.5755
  14   2.0000      -0.889168       -24.1955
  15   2.0000      -0.824826       -22.4446
  16   2.0000      -0.795987       -21.6599
  17   2.0000      -0.780732       -21.2448
  18   2.0000      -0.743904       -20.2426
  19   2.0000      -0.729142       -19.8410
  20   2.0000      -0.716513       -19.4973
  21   2.0000      -0.705066       -19.1858
  22   2.0000      -0.675796       -18.3893
  23   2.0000      -0.668947       -18.2030
  24   2.0000      -0.637867       -17.3572
  25   2.0000      -0.626324       -17.0431
  26   2.0000      -0.611523       -16.6404
  27   2.0000      -0.559419       -15.2226
  28   2.0000      -0.539365       -14.6769
  29   2.0000      -0.498460       -13.5638
  30   2.0000      -0.493729       -13.4351
  31   0.0000       0.022436         0.6105
  32   0.0000       0.035232         0.9587
  33   0.0000       0.037761         1.0275
  34   0.0000       0.038814         1.0562
  35   0.0000       0.047742         1.2991

MULLIKEN ATOMIC CHARGES
-----------------------
   0 F :   -0.756261
   1 B :    1.896997
   2 F :   -0.714586
   3 O :   -0.809933
   4 C :    1.334760
   5 O :   -0.671877
   6 O :   -0.628711
   7 C :   -0.669845
   8 H :    0.293742
   9 H :    0.289255
  10 H :    0.436459
Sum of atomic charges:   -0.0000000

LOEWDIN ATOMIC CHARGES
----------------------
   0 F :    0.804677
   1 B :   -2.125872
   2 F :    0.832467
   3 O :    0.832668
   4 C :   -1.519489
   5 O :    0.710627
   6 O :    0.822118
   7 C :    0.587925
   8 H :   -0.312664
   9 H :   -0.313225
  10 H :   -0.319233

  Mayer bond orders larger than 0.100000
B(  0-F ,  1-B ) :   0.4632 B(  1-B ,  2-F ) :   0.5383 B(  1-B ,  3-O ) :   0.5933
B(  2-F ,  3-O ) :  -0.1199 B(  3-O ,  4-C ) :   0.9157 B(  4-C ,  5-O ) :   1.6220
B(  4-C ,  6-O ) :   1.0319 B(  6-O ,  7-C ) :   0.8633 B(  7-C ,  8-H ) :   0.9115
B(  7-C ,  9-H ) :   0.9158 B(  7-C , 10-H ) :   0.8173

MP2 TOTAL ENERGY:     -527.827921289 Eh
FINAL SINGLE POINT ENERGY      -527.827921289388

DIPOLE MOMENT
-------------
                                X             Y             Z
Electronic contribution:     13.88101      -0.16729      -0.11645
Nuclear contribution   :    -14.89200      -0.20264      -0.15020
                        -----------------------------------------
Total Dipole Moment    :     -1.01099      -0.36993      -0.26665
                        -----------------------------------------
Magnitude (a.u.)       :      1.10908
Magnitude (Debye)      :      2.81905

Rotational constants in cm-1:     0.184401     0.036976     0.032754
Rotational constants in MHz :  5528.205798  1108.499921   981.951034

                             ****ORCA TERMINATED NORMALLY****
TOTAL RUN TIME: 0 days 0 hours 45 minutes 50 seconds 468 msec
