                         Program Version 5.0.4 -  RELEASE  -
|  1> ! ri-mp2 aug-cc-pvdz aug-cc-pvdz/c tightscf
|  2> %pal nprocs 16 end
|  3> %maxcore 3800
|  4> %base "DZ_P-N_82_A"
|  5> %scf
|  6> STABPerform true
|  7> STABRestartUHFifUnstable true
|  8> end
|  9>
| 10> *xyz 0 2
| 11> C        -0.467839    0.129044    0.000001
| 12> P         1.366247   -0.147246   -0.000003
| 13> O        -1.037812    1.183003   -0.000003
| 14> O        -1.117501   -1.051471    0.000003
| 15> H        -2.069052   -0.861022    0.000000
| 16> H         1.624894    1.243193    0.000036
| 17> *
| 18>
| 19> $new_job
| 20> ! ri-mp2 aug-cc-pvtz aug-cc-pvtz/c tightscf
| 21> %pal nprocs 16 end
| 22> %maxcore 3800
| 23> %base "TZ_P-N_82_A"
| 24>
| 25> *xyz 0 2
| 26> C        -0.467839    0.129044    0.000001
| 27> P         1.366247   -0.147246   -0.000003
| 28> O        -1.037812    1.183003   -0.000003
| 29> O        -1.117501   -1.051471    0.000003
| 30> H        -2.069052   -0.861022    0.000000
| 31> H         1.624894    1.243193    0.000036
| 32> *
| 33>
| 34> $new_job
| 35> ! ri-mp2 aug-cc-pvqz aug-cc-pvqz/c tightscf
| 36> %pal nprocs 16 end
| 37> %maxcore 3800
| 38> %base "QZ_P-N_82_A"
| 39>
| 40> *xyz 0 2
| 41> C        -0.467839    0.129044    0.000001
| 42> P         1.366247   -0.147246   -0.000003
| 43> O        -1.037812    1.183003   -0.000003
| 44> O        -1.117501   -1.051471    0.000003
| 45> H        -2.069052   -0.861022    0.000000
| 46> H         1.624894    1.243193    0.000036
| 47> *
| 48>
| 49>
| 50>
| 51>
| 52>                          ****END OF INPUT****
 Total Charge           Charge          ....    0
 Multiplicity           Mult            ....    2
 Number of Electrons    NEL             ....   39
MP2 TOTAL ENERGY:     -530.137523170 Eh
FINAL SINGLE POINT ENERGY      -530.137523170429
MP2 TOTAL ENERGY:     -530.332158053 Eh
FINAL SINGLE POINT ENERGY      -530.332158053404

CARTESIAN COORDINATES (ANGSTROEM)
---------------------------------
  C     -0.467839    0.129044    0.000001
  P      1.366247   -0.147246   -0.000003
  O     -1.037812    1.183003   -0.000003
  O     -1.117501   -1.051471    0.000003
  H     -2.069052   -0.861022    0.000000
  H      1.624894    1.243193    0.000036

 Multiplicity           Mult            ....    2
 Number of Electrons    NEL             ....   39
 Basis Dimension        Dim             ....  416

ORBITAL ENERGIES
----------------
                 SPIN UP ORBITALS
  NO   OCC          E(Eh)            E(eV)
   0   1.0000     -79.982831     -2176.4435
   1   1.0000     -20.621608      -561.1425
   2   1.0000     -20.570180      -559.7431
   3   1.0000     -11.393961      -310.0454
   4   1.0000      -7.526114      -204.7960
   5   1.0000      -5.430496      -147.7713
   6   1.0000      -5.416786      -147.3982
   7   1.0000      -5.414977      -147.3490
   8   1.0000      -1.480392       -40.2835
   9   1.0000      -1.382749       -37.6265
  10   1.0000      -0.946403       -25.7529
  11   1.0000      -0.811467       -22.0811
  12   1.0000      -0.719716       -19.5845
  13   1.0000      -0.666063       -18.1245
  14   1.0000      -0.648787       -17.6544
  15   1.0000      -0.567613       -15.4455
  16   1.0000      -0.516005       -14.0412
  17   1.0000      -0.503889       -13.7115
  18   1.0000      -0.420046       -11.4300
  19   1.0000      -0.397651       -10.8206
  20   0.0000       0.025105         0.6831
  21   0.0000       0.035623         0.9693
  22   0.0000       0.053262         1.4493
  23   0.0000       0.065434         1.7806
  24   0.0000       0.065770         1.7897

                 SPIN DOWN ORBITALS
  NO   OCC          E(Eh)            E(eV)
   0   1.0000     -79.975904     -2176.2550
   1   1.0000     -20.622017      -561.1536
   2   1.0000     -20.563987      -559.5745
   3   1.0000     -11.397424      -310.1397
   4   1.0000      -7.517610      -204.5646
   5   1.0000      -5.411936      -147.2663
   6   1.0000      -5.411614      -147.2575
   7   1.0000      -5.397902      -146.8844
   8   1.0000      -1.477866       -40.2148
   9   1.0000      -1.373393       -37.3719
  10   1.0000      -0.915450       -24.9107
  11   1.0000      -0.785257       -21.3679
  12   1.0000      -0.715433       -19.4679
  13   1.0000      -0.655918       -17.8484
  14   1.0000      -0.640211       -17.4210
  15   1.0000      -0.563680       -15.3385
  16   1.0000      -0.489296       -13.3144
  17   1.0000      -0.485177       -13.2023
  18   1.0000      -0.407616       -11.0918
  19   0.0000       0.000569         0.0155
  20   0.0000       0.025637         0.6976
  21   0.0000       0.035998         0.9796
  22   0.0000       0.053801         1.4640
  23   0.0000       0.065981         1.7954

MULLIKEN ATOMIC CHARGES AND SPIN POPULATIONS
--------------------------------------------
   0 C :    0.526524   -0.150207
   1 P :    0.420858    1.078980
   2 O :   -0.631046    0.132648
   3 O :   -0.589590   -0.003924
   4 H :    0.316978   -0.003020
   5 H :   -0.043724   -0.054477
Sum of atomic charges         :    0.0000000

LOEWDIN ATOMIC CHARGES AND SPIN POPULATIONS
-------------------------------------------
   0 C :   -1.430801    0.161762
   1 P :    1.229903    0.578951
   2 O :    0.572493    0.092696
   3 O :    1.105148   -0.001677
   4 H :   -0.838090   -0.002850
   5 H :   -0.638652    0.171117

  Mayer bond orders larger than 0.100000
B(  0-C ,  1-P ) :   0.7908 B(  0-C ,  2-O ) :   1.6605 B(  0-C ,  3-O ) :   0.9869
B(  1-P ,  5-H ) :   0.9573 B(  3-O ,  4-H ) :   0.8875

MP2 TOTAL ENERGY:     -530.397468075 Eh
FINAL SINGLE POINT ENERGY      -530.397468074927

DIPOLE MOMENT
-------------
                                X             Y             Z
Electronic contribution:      1.79512      -0.84813      -0.00003
Nuclear contribution   :     -1.69256       0.49891       0.00004
                        -----------------------------------------
Total Dipole Moment    :      0.10256      -0.34922       0.00001
                        -----------------------------------------
Magnitude (a.u.)       :      0.36397
Magnitude (Debye)      :      0.92515

Rotational constants in cm-1:     0.392056     0.160783     0.114022
Rotational constants in MHz : 11753.537754  4820.141303  3418.294308

                             ****ORCA TERMINATED NORMALLY****
TOTAL RUN TIME: 0 days 0 hours 15 minutes 36 seconds 311 msec
