                         Program Version 5.0.4 -  RELEASE  -
|  1> ! ri-mp2 aug-cc-pvdz aug-cc-pvdz/c tightscf
|  2> %pal nprocs 16 end
|  3> %maxcore 3800
|  4> %base "DZ_P-C_46_AB"
|  5> %scf
|  6> STABPerform true
|  7> STABRestartUHFifUnstable true
|  8> end
|  9>
| 10> *xyz 0 1
| 11> P         1.933124   -0.002422   -0.185338
| 12> C         0.293550   -0.712925    0.316847
| 13> H         0.309607   -1.755918   -0.007906
| 14> H         0.182186   -0.720176    1.402629
| 15> C        -0.900799   -0.006631   -0.325575
| 16> C        -2.188143   -0.762760   -0.021271
| 17> H        -2.381590   -0.779653    1.053958
| 18> H        -2.133019   -1.796206   -0.366383
| 19> C        -1.009324    1.445430    0.122456
| 20> H        -3.044835   -0.291674   -0.505341
| 21> H        -0.749250   -0.015438   -1.410032
| 22> H        -1.879297    1.926967   -0.325397
| 23> H        -1.115963    1.506678    1.208478
| 24> H        -0.130808    2.026564   -0.159962
| 25> H         2.746480   -0.881164    0.567097
| 26> H         2.027925    1.037665    0.768184
| 27> *
| 28>
| 29> $new_job
| 30> ! ri-mp2 aug-cc-pvtz aug-cc-pvtz/c tightscf
| 31> %pal nprocs 16 end
| 32> %maxcore 3800
| 33> %base "TZ_P-C_46_AB"
| 34>
| 35> *xyz 0 1
| 36> P         1.933124   -0.002422   -0.185338
| 37> C         0.293550   -0.712925    0.316847
| 38> H         0.309607   -1.755918   -0.007906
| 39> H         0.182186   -0.720176    1.402629
| 40> C        -0.900799   -0.006631   -0.325575
| 41> C        -2.188143   -0.762760   -0.021271
| 42> H        -2.381590   -0.779653    1.053958
| 43> H        -2.133019   -1.796206   -0.366383
| 44> C        -1.009324    1.445430    0.122456
| 45> H        -3.044835   -0.291674   -0.505341
| 46> H        -0.749250   -0.015438   -1.410032
| 47> H        -1.879297    1.926967   -0.325397
| 48> H        -1.115963    1.506678    1.208478
| 49> H        -0.130808    2.026564   -0.159962
| 50> H         2.746480   -0.881164    0.567097
| 51> H         2.027925    1.037665    0.768184
| 52> *
| 53>
| 54> $new_job
| 55> ! ri-mp2 aug-cc-pvqz aug-cc-pvqz/c tightscf
| 56> %pal nprocs 16 end
| 57> %maxcore 3800
| 58> %base "QZ_P-C_46_AB"
| 59>
| 60> *xyz 0 1
| 61> P         1.933124   -0.002422   -0.185338
| 62> C         0.293550   -0.712925    0.316847
| 63> H         0.309607   -1.755918   -0.007906
| 64> H         0.182186   -0.720176    1.402629
| 65> C        -0.900799   -0.006631   -0.325575
| 66> C        -2.188143   -0.762760   -0.021271
| 67> H        -2.381590   -0.779653    1.053958
| 68> H        -2.133019   -1.796206   -0.366383
| 69> C        -1.009324    1.445430    0.122456
| 70> H        -3.044835   -0.291674   -0.505341
| 71> H        -0.749250   -0.015438   -1.410032
| 72> H        -1.879297    1.926967   -0.325397
| 73> H        -1.115963    1.506678    1.208478
| 74> H        -0.130808    2.026564   -0.159962
| 75> H         2.746480   -0.881164    0.567097
| 76> H         2.027925    1.037665    0.768184
| 77> *
| 78>
| 79>
| 80>
| 81>
| 82>                          ****END OF INPUT****
 Total Charge           Charge          ....    0
 Multiplicity           Mult            ....    1
 Number of Electrons    NEL             ....   50
MP2 TOTAL ENERGY:     -499.366827422 Eh
FINAL SINGLE POINT ENERGY      -499.366827421610
MP2 TOTAL ENERGY:     -499.567112236 Eh
FINAL SINGLE POINT ENERGY      -499.567112235657

CARTESIAN COORDINATES (ANGSTROEM)
---------------------------------
  P      1.933124   -0.002422   -0.185338
  C      0.293550   -0.712925    0.316847
  H      0.309607   -1.755918   -0.007906
  H      0.182186   -0.720176    1.402629
  C     -0.900799   -0.006631   -0.325575
  C     -2.188143   -0.762760   -0.021271
  H     -2.381590   -0.779653    1.053958
  H     -2.133019   -1.796206   -0.366383
  C     -1.009324    1.445430    0.122456
  H     -3.044835   -0.291674   -0.505341
  H     -0.749250   -0.015438   -1.410032
  H     -1.879297    1.926967   -0.325397
  H     -1.115963    1.506678    1.208478
  H     -0.130808    2.026564   -0.159962
  H      2.746480   -0.881164    0.567097
  H      2.027925    1.037665    0.768184

 Multiplicity           Mult            ....    1
 Number of Electrons    NEL             ....   50
 Basis Dimension        Dim             ....  910

ORBITAL ENERGIES
----------------

  NO   OCC          E(Eh)            E(eV)
   0   2.0000     -79.930623     -2175.0228
   1   2.0000     -11.230326      -305.5927
   2   2.0000     -11.226539      -305.4897
   3   2.0000     -11.212472      -305.1069
   4   2.0000     -11.212184      -305.0990
   5   2.0000      -7.473694      -203.3696
   6   2.0000      -5.367716      -146.0630
   7   2.0000      -5.367486      -146.0567
   8   2.0000      -5.366506      -146.0301
   9   2.0000      -1.094322       -29.7780
  10   2.0000      -0.955780       -26.0081
  11   2.0000      -0.934255       -25.4224
  12   2.0000      -0.813614       -22.1396
  13   2.0000      -0.757318       -20.6077
  14   2.0000      -0.640302       -17.4235
  15   2.0000      -0.606184       -16.4951
  16   2.0000      -0.580051       -15.7840
  17   2.0000      -0.553812       -15.0700
  18   2.0000      -0.538546       -14.6546
  19   2.0000      -0.512604       -13.9487
  20   2.0000      -0.501674       -13.6512
  21   2.0000      -0.468983       -12.7617
  22   2.0000      -0.464810       -12.6481
  23   2.0000      -0.443960       -12.0808
  24   2.0000      -0.357533        -9.7290
  25   0.0000       0.026045         0.7087
  26   0.0000       0.031600         0.8599
  27   0.0000       0.033369         0.9080
  28   0.0000       0.035857         0.9757
  29   0.0000       0.049246         1.3400

MULLIKEN ATOMIC CHARGES
-----------------------
   0 P :    0.233634
   1 C :   -0.725463
   2 H :    0.262004
   3 H :    0.238137
   4 C :    0.343164
   5 C :   -0.922450
   6 H :    0.180944
   7 H :    0.244415
   8 C :   -0.921637
   9 H :    0.258534
  10 H :    0.276475
  11 H :    0.298367
  12 H :    0.189685
  13 H :    0.268293
  14 H :   -0.148587
  15 H :   -0.075516
Sum of atomic charges:    0.0000000

LOEWDIN ATOMIC CHARGES
----------------------
   0 P :    1.523668
   1 C :    0.283912
   2 H :   -0.355133
   3 H :   -0.333514
   4 C :   -0.001242
   5 C :    0.911699
   6 H :   -0.276454
   7 H :   -0.277051
   8 C :    0.884838
   9 H :   -0.276240
  10 H :   -0.294132
  11 H :   -0.273893
  12 H :   -0.273186
  13 H :   -0.309946
  14 H :   -0.471451
  15 H :   -0.461876

  Mayer bond orders larger than 0.100000
B(  0-P ,  1-C ) :   0.7876 B(  0-P , 14-H ) :   0.9630 B(  0-P , 15-H ) :   0.9345
B(  1-C ,  2-H ) :   0.9640 B(  1-C ,  3-H ) :   0.9519 B(  1-C ,  4-C ) :   0.6638
B(  4-C ,  5-C ) :   0.6506 B(  4-C ,  8-C ) :   0.6962 B(  4-C , 10-H ) :   0.8755
B(  5-C ,  6-H ) :   0.9995 B(  5-C ,  7-H ) :   0.9992 B(  5-C ,  8-C ) :   0.1053
B(  5-C ,  9-H ) :   1.0218 B(  8-C , 11-H ) :   0.9610 B(  8-C , 12-H ) :   0.9924
B(  8-C , 13-H ) :   0.9796

MP2 TOTAL ENERGY:     -499.627439241 Eh
FINAL SINGLE POINT ENERGY      -499.627439240741

DIPOLE MOMENT
-------------
                                X             Y             Z
Electronic contribution:      7.97411      -0.41703      -2.19269
Nuclear contribution   :     -8.34720       0.27091       2.50307
                        -----------------------------------------
Total Dipole Moment    :     -0.37309      -0.14612       0.31038
                        -----------------------------------------
Magnitude (a.u.)       :      0.50683
Magnitude (Debye)      :      1.28827

Rotational constants in cm-1:     0.242778     0.069036     0.058057
Rotational constants in MHz :  7278.288966  2069.657071  1740.497071

                             ****ORCA TERMINATED NORMALLY****
TOTAL RUN TIME: 0 days 1 hours 15 minutes 36 seconds 742 msec
