                         Program Version 5.0.4 -  RELEASE  -
|  1> ! ri-mp2 aug-cc-pvdz aug-cc-pvdz/c tightscf
|  2> %pal nprocs 16 end
|  3> %maxcore 3800
|  4> %base "DZ_B-F_34_A"
|  5> %scf
|  6> STABPerform true
|  7> STABRestartUHFifUnstable true
|  8> end
|  9>
| 10> *xyz 0 2
| 11> F        -2.505436   -0.280946    0.307360
| 12> B        -1.489531   -0.412586   -0.489199
| 13> C        -0.048993    0.165399   -0.152655
| 14> O         0.009946    1.380311   -0.045493
| 15> N         1.012927   -0.659025   -0.064342
| 16> C         2.358460   -0.177203    0.165183
| 17> H         0.869847   -1.632560   -0.271617
| 18> H         2.294789    0.809082    0.616255
| 19> H         2.920434   -0.094785   -0.767035
| 20> H         2.884652   -0.848781    0.841326
| 21> *
| 22>
| 23> $new_job
| 24> ! ri-mp2 aug-cc-pvtz aug-cc-pvtz/c tightscf
| 25> %pal nprocs 16 end
| 26> %maxcore 3800
| 27> %base "TZ_B-F_34_A"
| 28>
| 29> *xyz 0 2
| 30> F        -2.505436   -0.280946    0.307360
| 31> B        -1.489531   -0.412586   -0.489199
| 32> C        -0.048993    0.165399   -0.152655
| 33> O         0.009946    1.380311   -0.045493
| 34> N         1.012927   -0.659025   -0.064342
| 35> C         2.358460   -0.177203    0.165183
| 36> H         0.869847   -1.632560   -0.271617
| 37> H         2.294789    0.809082    0.616255
| 38> H         2.920434   -0.094785   -0.767035
| 39> H         2.884652   -0.848781    0.841326
| 40> *
| 41>
| 42> $new_job
| 43> ! ri-mp2 aug-cc-pvqz aug-cc-pvqz/c tightscf
| 44> %pal nprocs 16 end
| 45> %maxcore 3800
| 46> %base "QZ_B-F_34_A"
| 47>
| 48> *xyz 0 2
| 49> F        -2.505436   -0.280946    0.307360
| 50> B        -1.489531   -0.412586   -0.489199
| 51> C        -0.048993    0.165399   -0.152655
| 52> O         0.009946    1.380311   -0.045493
| 53> N         1.012927   -0.659025   -0.064342
| 54> C         2.358460   -0.177203    0.165183
| 55> H         0.869847   -1.632560   -0.271617
| 56> H         2.294789    0.809082    0.616255
| 57> H         2.920434   -0.094785   -0.767035
| 58> H         2.884652   -0.848781    0.841326
| 59> *
| 60>
| 61>
| 62>
| 63>
| 64>                          ****END OF INPUT****
 Total Charge           Charge          ....    0
 Multiplicity           Mult            ....    2
 Number of Electrons    NEL             ....   45
MP2 TOTAL ENERGY:     -332.444472463 Eh
FINAL SINGLE POINT ENERGY      -332.444472462630
MP2 TOTAL ENERGY:     -332.731403121 Eh
FINAL SINGLE POINT ENERGY      -332.731403121257

CARTESIAN COORDINATES (ANGSTROEM)
---------------------------------
  F     -2.505436   -0.280946    0.307360
  B     -1.489531   -0.412586   -0.489199
  C     -0.048993    0.165399   -0.152655
  O      0.009946    1.380311   -0.045493
  N      1.012927   -0.659025   -0.064342
  C      2.358460   -0.177203    0.165183
  H      0.869847   -1.632560   -0.271617
  H      2.294789    0.809082    0.616255
  H      2.920434   -0.094785   -0.767035
  H      2.884652   -0.848781    0.841326

 Multiplicity           Mult            ....    2
 Number of Electrons    NEL             ....   45
 Basis Dimension        Dim             ....  664

ORBITAL ENERGIES
----------------
                 SPIN UP ORBITALS
  NO   OCC          E(Eh)            E(eV)
   0   1.0000     -26.334415      -716.5959
   1   1.0000     -20.532037      -558.7051
   2   1.0000     -15.600904      -424.5222
   3   1.0000     -11.345558      -308.7283
   4   1.0000     -11.268505      -306.6316
   5   1.0000      -7.704081      -209.6387
   6   1.0000      -1.653548       -44.9953
   7   1.0000      -1.393468       -37.9182
   8   1.0000      -1.247279       -33.9402
   9   1.0000      -0.976897       -26.5827
  10   1.0000      -0.841692       -22.9036
  11   1.0000      -0.804279       -21.8855
  12   1.0000      -0.762855       -20.7583
  13   1.0000      -0.715941       -19.4817
  14   1.0000      -0.702913       -19.1272
  15   1.0000      -0.654989       -17.8231
  16   1.0000      -0.636338       -17.3156
  17   1.0000      -0.600991       -16.3538
  18   1.0000      -0.561213       -15.2714
  19   1.0000      -0.551067       -14.9953
  20   1.0000      -0.456089       -12.4108
  21   1.0000      -0.409533       -11.1440
  22   1.0000      -0.360684        -9.8147
  23   0.0000       0.017240         0.4691
  24   0.0000       0.030369         0.8264
  25   0.0000       0.033226         0.9041
  26   0.0000       0.039753         1.0817
  27   0.0000       0.047135         1.2826

                 SPIN DOWN ORBITALS
  NO   OCC          E(Eh)            E(eV)
   0   1.0000     -26.331110      -716.5059
   1   1.0000     -20.530558      -558.6649
   2   1.0000     -15.600689      -424.5163
   3   1.0000     -11.342148      -308.6355
   4   1.0000     -11.268541      -306.6326
   5   1.0000      -7.685325      -209.1283
   6   1.0000      -1.644507       -44.7493
   7   1.0000      -1.389415       -37.8079
   8   1.0000      -1.245850       -33.9013
   9   1.0000      -0.973872       -26.5004
  10   1.0000      -0.824881       -22.4461
  11   1.0000      -0.799277       -21.7494
  12   1.0000      -0.744383       -20.2557
  13   1.0000      -0.703364       -19.1395
  14   1.0000      -0.689485       -18.7618
  15   1.0000      -0.652523       -17.7560
  16   1.0000      -0.634173       -17.2567
  17   1.0000      -0.590169       -16.0593
  18   1.0000      -0.560483       -15.2515
  19   1.0000      -0.542461       -14.7611
  20   1.0000      -0.430285       -11.7087
  21   1.0000      -0.403195       -10.9715
  22   0.0000       0.014918         0.4059
  23   0.0000       0.028946         0.7877
  24   0.0000       0.032756         0.8913
  25   0.0000       0.039505         1.0750
  26   0.0000       0.047427         1.2905

MULLIKEN ATOMIC CHARGES AND SPIN POPULATIONS
--------------------------------------------
   0 F :   -0.696299   -0.015530
   1 B :    0.935185    0.989399
   2 C :    0.713310    0.003104
   3 O :   -0.814345    0.031135
   4 N :   -0.532560   -0.003242
   5 C :   -0.719799   -0.003167
   6 H :    0.248870   -0.002686
   7 H :    0.306843    0.000431
   8 H :    0.274809    0.000915
   9 H :    0.283986   -0.000359
Sum of atomic charges         :    0.0000000

LOEWDIN ATOMIC CHARGES AND SPIN POPULATIONS
-------------------------------------------
   0 F :    0.733830    0.151383
   1 B :   -0.714836    0.581640
   2 C :   -0.811477    0.180436
   3 O :    0.663012    0.040574
   4 N :    0.766114    0.029352
   5 C :    0.781939    0.002547
   6 H :   -0.512656    0.012144
   7 H :   -0.337547    0.000665
   8 H :   -0.279079    0.001218
   9 H :   -0.289298    0.000041

  Mayer bond orders larger than 0.100000
B(  0-F ,  1-B ) :   0.4365 B(  1-B ,  2-C ) :   0.8725 B(  2-C ,  3-O ) :   1.4149
B(  2-C ,  4-N ) :   1.2159 B(  3-O ,  4-N ) :   0.1700 B(  4-N ,  5-C ) :   0.8187
B(  4-N ,  6-H ) :   0.9855 B(  5-C ,  7-H ) :   0.9178 B(  5-C ,  8-H ) :   0.9485
B(  5-C ,  9-H ) :   0.9530

MP2 TOTAL ENERGY:     -332.824120907 Eh
FINAL SINGLE POINT ENERGY      -332.824120906902

DIPOLE MOMENT
-------------
                                X             Y             Z
Electronic contribution:    -11.33030      -0.35006      -0.61011
Nuclear contribution   :     12.16745      -1.09574       0.48907
                        -----------------------------------------
Total Dipole Moment    :      0.83715      -1.44580      -0.12104
                        -----------------------------------------
Magnitude (a.u.)       :      1.67505
Magnitude (Debye)      :      4.25765

Rotational constants in cm-1:     0.327693     0.066733     0.058050
Rotational constants in MHz :  9823.991271  2000.613463  1740.308688

                             ****ORCA TERMINATED NORMALLY****
TOTAL RUN TIME: 0 days 0 hours 58 minutes 3 seconds 911 msec
