                         Program Version 5.0.4 -  RELEASE  -
|  1> ! ri-mp2 aug-cc-pvdz aug-cc-pvdz/c tightscf
|  2> %pal nprocs 16 end
|  3> %maxcore 3800
|  4> %base "DZ_Si-Cl_95_AB"
|  5> %scf
|  6> STABPerform true
|  7> STABRestartUHFifUnstable true
|  8> end
|  9>
| 10> *xyz 0 1
| 11> Si         0.000002   -0.000003    0.499960
| 12> Cl        -1.134266   -1.541966   -0.175689
| 13> Cl        -0.768258    1.753281   -0.175700
| 14> Cl         1.902522   -0.211313   -0.175677
| 15> H        -0.000007   -0.000002    1.960685
| 16> *
| 17>
| 18> $new_job
| 19> ! ri-mp2 aug-cc-pvtz aug-cc-pvtz/c tightscf
| 20> %pal nprocs 16 end
| 21> %maxcore 3800
| 22> %base "TZ_Si-Cl_95_AB"
| 23>
| 24> *xyz 0 1
| 25> Si         0.000002   -0.000003    0.499960
| 26> Cl        -1.134266   -1.541966   -0.175689
| 27> Cl        -0.768258    1.753281   -0.175700
| 28> Cl         1.902522   -0.211313   -0.175677
| 29> H        -0.000007   -0.000002    1.960685
| 30> *
| 31>
| 32> $new_job
| 33> ! ri-mp2 aug-cc-pvqz aug-cc-pvqz/c tightscf
| 34> %pal nprocs 16 end
| 35> %maxcore 3800
| 36> %base "QZ_Si-Cl_95_AB"
| 37>
| 38> *xyz 0 1
| 39> Si         0.000002   -0.000003    0.499960
| 40> Cl        -1.134266   -1.541966   -0.175689
| 41> Cl        -0.768258    1.753281   -0.175700
| 42> Cl         1.902522   -0.211313   -0.175677
| 43> H        -0.000007   -0.000002    1.960685
| 44> *
| 45>
| 46>
| 47>
| 48>
| 49>                          ****END OF INPUT****
 Total Charge           Charge          ....    0
 Multiplicity           Mult            ....    1
 Number of Electrons    NEL             ....   66
MP2 TOTAL ENERGY:    -1668.719290921 Eh
FINAL SINGLE POINT ENERGY     -1668.719290920763
MP2 TOTAL ENERGY:    -1668.946065283 Eh
FINAL SINGLE POINT ENERGY     -1668.946065282962

CARTESIAN COORDINATES (ANGSTROEM)
---------------------------------
  Si     0.000002   -0.000003    0.499960
  Cl    -1.134266   -1.541966   -0.175689
  Cl    -0.768258    1.753281   -0.175700
  Cl     1.902522   -0.211313   -0.175677
  H     -0.000007   -0.000002    1.960685

 Multiplicity           Mult            ....    1
 Number of Electrons    NEL             ....   66
 Basis Dimension        Dim             ....  382

ORBITAL ENERGIES
----------------

  NO   OCC          E(Eh)            E(eV)
   0   2.0000    -104.852363     -2853.1779
   1   2.0000    -104.852363     -2853.1778
   2   2.0000    -104.852362     -2853.1778
   3   2.0000     -68.903363     -1874.9558
   4   2.0000     -10.579979      -287.8959
   5   2.0000     -10.579978      -287.8958
   6   2.0000     -10.579969      -287.8956
   7   2.0000      -8.046748      -218.9631
   8   2.0000      -8.046747      -218.9631
   9   2.0000      -8.046745      -218.9631
  10   2.0000      -8.045541      -218.9303
  11   2.0000      -8.045541      -218.9303
  12   2.0000      -8.045540      -218.9303
  13   2.0000      -8.045533      -218.9301
  14   2.0000      -8.045533      -218.9301
  15   2.0000      -8.045532      -218.9300
  16   2.0000      -6.239469      -169.7846
  17   2.0000      -4.346856      -118.2840
  18   2.0000      -4.346856      -118.2840
  19   2.0000      -4.345563      -118.2488
  20   2.0000      -1.153058       -31.3763
  21   2.0000      -1.110652       -30.2224
  22   2.0000      -1.110651       -30.2223
  23   2.0000      -0.727317       -19.7913
  24   2.0000      -0.587277       -15.9806
  25   2.0000      -0.579775       -15.7765
  26   2.0000      -0.579774       -15.7764
  27   2.0000      -0.508204       -13.8289
  28   2.0000      -0.508203       -13.8289
  29   2.0000      -0.482787       -13.1373
  30   2.0000      -0.482786       -13.1373
  31   2.0000      -0.476105       -12.9555
  32   2.0000      -0.467478       -12.7207
  33   0.0000       0.032888         0.8949
  34   0.0000       0.040369         1.0985
  35   0.0000       0.042137         1.1466
  36   0.0000       0.042137         1.1466
  37   0.0000       0.066868         1.8196

MULLIKEN ATOMIC CHARGES
-----------------------
   0 Si:    1.718818
   1 Cl:   -0.506950
   2 Cl:   -0.506952
   3 Cl:   -0.506950
   4 H :   -0.197966
Sum of atomic charges:   -0.0000000

LOEWDIN ATOMIC CHARGES
----------------------
   0 Si:   -2.062038
   1 Cl:    0.823233
   2 Cl:    0.823225
   3 Cl:    0.823233
   4 H :   -0.407652

  Mayer bond orders larger than 0.100000
B(  0-Si,  1-Cl) :   0.6870 B(  0-Si,  2-Cl) :   0.6870 B(  0-Si,  3-Cl) :   0.6870
B(  0-Si,  4-H ) :   0.9607

MP2 TOTAL ENERGY:    -1669.023311717 Eh
FINAL SINGLE POINT ENERGY     -1669.023311716607

DIPOLE MOMENT
-------------
                                X             Y             Z
Electronic contribution:      0.00002      -0.00001      -2.08191
Nuclear contribution   :     -0.00000      -0.00000       2.45647
                        -----------------------------------------
Total Dipole Moment    :      0.00001      -0.00002       0.37456
                        -----------------------------------------
Magnitude (a.u.)       :      0.37456
Magnitude (Debye)      :      0.95206

Rotational constants in cm-1:     0.080664     0.080663     0.043255
Rotational constants in MHz :  2418.241448  2418.215570  1296.764686

                             ****ORCA TERMINATED NORMALLY****
TOTAL RUN TIME: 0 days 0 hours 6 minutes 14 seconds 178 msec
