                         Program Version 5.0.4 -  RELEASE  -
|  1> ! ri-mp2 aug-cc-pvdz aug-cc-pvdz/c tightscf
|  2> %pal nprocs 16 end
|  3> %maxcore 3800
|  4> %base "DZ_P-C_25_AB"
|  5> %scf
|  6> STABPerform true
|  7> STABRestartUHFifUnstable true
|  8> end
|  9>
| 10> *xyz 0 1
| 11> C        -1.428718   -0.946743    0.002724
| 12> C        -0.480578    0.221971    0.004342
| 13> H        -2.439532   -0.597864   -0.196281
| 14> H        -1.397839   -1.434599    0.978849
| 15> H        -1.130527   -1.687595   -0.740745
| 16> P         1.344819   -0.160721   -0.116911
| 17> O        -0.858001    1.362469    0.008113
| 18> H         1.362680   -1.238927    0.795761
| 19> H         1.752720    0.818677    0.808777
| 20> *
| 21>
| 22> $new_job
| 23> ! ri-mp2 aug-cc-pvtz aug-cc-pvtz/c tightscf
| 24> %pal nprocs 16 end
| 25> %maxcore 3800
| 26> %base "TZ_P-C_25_AB"
| 27>
| 28> *xyz 0 1
| 29> C        -1.428718   -0.946743    0.002724
| 30> C        -0.480578    0.221971    0.004342
| 31> H        -2.439532   -0.597864   -0.196281
| 32> H        -1.397839   -1.434599    0.978849
| 33> H        -1.130527   -1.687595   -0.740745
| 34> P         1.344819   -0.160721   -0.116911
| 35> O        -0.858001    1.362469    0.008113
| 36> H         1.362680   -1.238927    0.795761
| 37> H         1.752720    0.818677    0.808777
| 38> *
| 39>
| 40> $new_job
| 41> ! ri-mp2 aug-cc-pvqz aug-cc-pvqz/c tightscf
| 42> %pal nprocs 16 end
| 43> %maxcore 3800
| 44> %base "QZ_P-C_25_AB"
| 45>
| 46> *xyz 0 1
| 47> C        -1.428718   -0.946743    0.002724
| 48> C        -0.480578    0.221971    0.004342
| 49> H        -2.439532   -0.597864   -0.196281
| 50> H        -1.397839   -1.434599    0.978849
| 51> H        -1.130527   -1.687595   -0.740745
| 52> P         1.344819   -0.160721   -0.116911
| 53> O        -0.858001    1.362469    0.008113
| 54> H         1.362680   -1.238927    0.795761
| 55> H         1.752720    0.818677    0.808777
| 56> *
| 57>
| 58>
| 59>
| 60>
| 61>                          ****END OF INPUT****
 Total Charge           Charge          ....    0
 Multiplicity           Mult            ....    1
 Number of Electrons    NEL             ....   40
MP2 TOTAL ENERGY:     -494.860056158 Eh
FINAL SINGLE POINT ENERGY      -494.860056158015
MP2 TOTAL ENERGY:     -495.037763840 Eh
FINAL SINGLE POINT ENERGY      -495.037763839799

CARTESIAN COORDINATES (ANGSTROEM)
---------------------------------
  C     -1.428718   -0.946743    0.002724
  C     -0.480578    0.221971    0.004342
  H     -2.439532   -0.597864   -0.196281
  H     -1.397839   -1.434599    0.978849
  H     -1.130527   -1.687595   -0.740745
  P      1.344819   -0.160721   -0.116911
  O     -0.858001    1.362469    0.008113
  H      1.362680   -1.238927    0.795761
  H      1.752720    0.818677    0.808777

 Multiplicity           Mult            ....    1
 Number of Electrons    NEL             ....   40
 Basis Dimension        Dim             ....  554

ORBITAL ENERGIES
----------------

  NO   OCC          E(Eh)            E(eV)
   0   2.0000     -79.956160     -2175.7177
   1   2.0000     -20.558693      -559.4305
   2   2.0000     -11.342776      -308.6526
   3   2.0000     -11.243193      -305.9428
   4   2.0000      -7.500276      -204.0929
   5   2.0000      -5.394078      -146.7803
   6   2.0000      -5.393947      -146.7768
   7   2.0000      -5.393113      -146.7541
   8   2.0000      -1.404812       -38.2269
   9   2.0000      -1.028250       -27.9801
  10   2.0000      -0.893862       -24.3232
  11   2.0000      -0.738167       -20.0865
  12   2.0000      -0.642957       -17.4957
  13   2.0000      -0.635195       -17.2845
  14   2.0000      -0.614126       -16.7112
  15   2.0000      -0.559847       -15.2342
  16   2.0000      -0.530324       -14.4309
  17   2.0000      -0.516492       -14.0544
  18   2.0000      -0.426654       -11.6098
  19   2.0000      -0.374509       -10.1909
  20   0.0000       0.022033         0.5995
  21   0.0000       0.034365         0.9351
  22   0.0000       0.039407         1.0723
  23   0.0000       0.043523         1.1843
  24   0.0000       0.055450         1.5089

MULLIKEN ATOMIC CHARGES
-----------------------
   0 C :   -0.822306
   1 C :    0.485766
   2 H :    0.319529
   3 H :    0.263596
   4 H :    0.232137
   5 P :    0.358117
   6 O :   -0.735473
   7 H :   -0.059851
   8 H :   -0.041515
Sum of atomic charges:   -0.0000000

LOEWDIN ATOMIC CHARGES
----------------------
   0 C :    0.787959
   1 C :   -0.926720
   2 H :   -0.323719
   3 H :   -0.312487
   4 H :   -0.321689
   5 P :    1.472754
   6 O :    0.622448
   7 H :   -0.498034
   8 H :   -0.500511

  Mayer bond orders larger than 0.100000
B(  0-C ,  1-C ) :   0.9682 B(  0-C ,  2-H ) :   0.9186 B(  0-C ,  3-H ) :   0.8953
B(  0-C ,  4-H ) :   0.9710 B(  0-C ,  6-O ) :   0.1193 B(  1-C ,  5-P ) :   0.7461
B(  1-C ,  6-O ) :   1.4245 B(  5-P ,  7-H ) :   0.9125 B(  5-P ,  8-H ) :   0.9334

MP2 TOTAL ENERGY:     -495.095304591 Eh
FINAL SINGLE POINT ENERGY      -495.095304590810

DIPOLE MOMENT
-------------
                                X             Y             Z
Electronic contribution:      3.22745       2.79029      -1.45003
Nuclear contribution   :     -3.10905      -3.91819       1.73675
                        -----------------------------------------
Total Dipole Moment    :      0.11840      -1.12790       0.28671
                        -----------------------------------------
Magnitude (a.u.)       :      1.16978
Magnitude (Debye)      :      2.97334

Rotational constants in cm-1:     0.324986     0.149301     0.106407
Rotational constants in MHz :  9742.837013  4475.930475  3189.994600

                             ****ORCA TERMINATED NORMALLY****
TOTAL RUN TIME: 0 days 0 hours 13 minutes 50 seconds 165 msec
