                         Program Version 5.0.4 -  RELEASE  -
|  1> ! ri-mp2 aug-cc-pvdz aug-cc-pvdz/c tightscf
|  2> %pal nprocs 16 end
|  3> %maxcore 3800
|  4> %base "DZ_P-Cl_4_AB"
|  5>
|  6> *xyz 0 1
|  7> Cl        -1.752119    2.184863   -0.131588
|  8> S        -1.242233   -1.019294    0.342391
|  9> O        -1.457249   -2.246960   -0.380230
| 10> O        -1.620638   -0.886690    1.720596
| 11> P        -2.449587    0.379702   -0.813365
| 12> C         0.448155   -0.556627    0.186359
| 13> C         1.019627    0.266741    1.141018
| 14> C         2.343048    0.639230    0.999849
| 15> C         3.100353    0.201097   -0.079597
| 16> C         2.500432   -0.626750   -1.024986
| 17> C         1.180532   -1.007935   -0.900771
| 18> C         4.543469    0.584692   -0.212231
| 19> H         0.431871    0.596769    1.985190
| 20> H         2.796554    1.281996    1.743247
| 21> H         3.080366   -0.980588   -1.867903
| 22> H         0.718568   -1.664488   -1.624836
| 23> H         4.768143    1.487378    0.353375
| 24> H         4.813265    0.755066   -1.253951
| 25> H         5.187226   -0.212160    0.165956
| 26> H        -1.581012    0.273049   -1.922633
| 27> *
| 28>
| 29> $new_job
| 30> ! ri-mp2 aug-cc-pvtz aug-cc-pvtz/c tightscf
| 31> %pal nprocs 16 end
| 32> %maxcore 3800
| 33> %base "TZ_P-Cl_4_AB"
| 34>
| 35> *xyz 0 1
| 36> Cl        -1.752119    2.184863   -0.131588
| 37> S        -1.242233   -1.019294    0.342391
| 38> O        -1.457249   -2.246960   -0.380230
| 39> O        -1.620638   -0.886690    1.720596
| 40> P        -2.449587    0.379702   -0.813365
| 41> C         0.448155   -0.556627    0.186359
| 42> C         1.019627    0.266741    1.141018
| 43> C         2.343048    0.639230    0.999849
| 44> C         3.100353    0.201097   -0.079597
| 45> C         2.500432   -0.626750   -1.024986
| 46> C         1.180532   -1.007935   -0.900771
| 47> C         4.543469    0.584692   -0.212231
| 48> H         0.431871    0.596769    1.985190
| 49> H         2.796554    1.281996    1.743247
| 50> H         3.080366   -0.980588   -1.867903
| 51> H         0.718568   -1.664488   -1.624836
| 52> H         4.768143    1.487378    0.353375
| 53> H         4.813265    0.755066   -1.253951
| 54> H         5.187226   -0.212160    0.165956
| 55> H        -1.581012    0.273049   -1.922633
| 56> *
| 57>
| 58> $new_job
| 59> ! ri-mp2 aug-cc-pvqz aug-cc-pvqz/c tightscf
| 60> %pal nprocs 16 end
| 61> %maxcore 3800
| 62> %base "QZ_P-Cl_4_AB"
| 63>
| 64> *xyz 0 1
| 65> Cl        -1.752119    2.184863   -0.131588
| 66> S        -1.242233   -1.019294    0.342391
| 67> O        -1.457249   -2.246960   -0.380230
| 68> O        -1.620638   -0.886690    1.720596
| 69> P        -2.449587    0.379702   -0.813365
| 70> C         0.448155   -0.556627    0.186359
| 71> C         1.019627    0.266741    1.141018
| 72> C         2.343048    0.639230    0.999849
| 73> C         3.100353    0.201097   -0.079597
| 74> C         2.500432   -0.626750   -1.024986
| 75> C         1.180532   -1.007935   -0.900771
| 76> C         4.543469    0.584692   -0.212231
| 77> H         0.431871    0.596769    1.985190
| 78> H         2.796554    1.281996    1.743247
| 79> H         3.080366   -0.980588   -1.867903
| 80> H         0.718568   -1.664488   -1.624836
| 81> H         4.768143    1.487378    0.353375
| 82> H         4.813265    0.755066   -1.253951
| 83> H         5.187226   -0.212160    0.165956
| 84> H        -1.581012    0.273049   -1.922633
| 85> *
| 86>
| 87>
| 88>
| 89>
| 90>                          ****END OF INPUT****
 Total Charge           Charge          ....    0
 Multiplicity           Mult            ....    1
 Number of Electrons    NEL             ....  114
MP2 TOTAL ENERGY:    -1618.999260892 Eh
FINAL SINGLE POINT ENERGY     -1618.999260891828
MP2 TOTAL ENERGY:    -1619.558620805 Eh
FINAL SINGLE POINT ENERGY     -1619.558620804965

CARTESIAN COORDINATES (ANGSTROEM)
---------------------------------
  Cl    -1.752119    2.184863   -0.131588
  S     -1.242233   -1.019294    0.342391
  O     -1.457249   -2.246960   -0.380230
  O     -1.620638   -0.886690    1.720596
  P     -2.449587    0.379702   -0.813365
  C      0.448155   -0.556627    0.186359
  C      1.019627    0.266741    1.141018
  C      2.343048    0.639230    0.999849
  C      3.100353    0.201097   -0.079597
  C      2.500432   -0.626750   -1.024986
  C      1.180532   -1.007935   -0.900771
  C      4.543469    0.584692   -0.212231
  H      0.431871    0.596769    1.985190
  H      2.796554    1.281996    1.743247
  H      3.080366   -0.980588   -1.867903
  H      0.718568   -1.664488   -1.624836
  H      4.768143    1.487378    0.353375
  H      4.813265    0.755066   -1.253951
  H      5.187226   -0.212160    0.165956
  H     -1.581012    0.273049   -1.922633

 Multiplicity           Mult            ....    1
 Number of Electrons    NEL             ....  114
 Basis Dimension        Dim             .... 1340

ORBITAL ENERGIES
----------------

  NO   OCC          E(Eh)            E(eV)
   0   2.0000    -104.857542     -2853.3188
   1   2.0000     -92.173631     -2508.1720
   2   2.0000     -80.034026     -2177.8366
   3   2.0000     -20.551762      -559.2419
   4   2.0000     -20.549834      -559.1894
   5   2.0000     -11.274329      -306.7901
   6   2.0000     -11.272604      -306.7431
   7   2.0000     -11.268346      -306.6273
   8   2.0000     -11.267170      -306.5953
   9   2.0000     -11.252159      -306.1868
  10   2.0000     -11.251094      -306.1578
  11   2.0000     -11.242724      -305.9301
  12   2.0000     -10.583675      -287.9964
  13   2.0000      -9.145106      -248.8510
  14   2.0000      -8.050544      -219.0664
  15   2.0000      -8.049036      -219.0254
  16   2.0000      -8.048904      -219.0218
  17   2.0000      -7.571307      -206.0257
  18   2.0000      -6.830163      -185.8582
  19   2.0000      -6.829749      -185.8469
  20   2.0000      -6.829457      -185.8390
  21   2.0000      -5.464189      -148.6881
  22   2.0000      -5.463458      -148.6682
  23   2.0000      -5.462536      -148.6431
  24   2.0000      -1.462474       -39.7959
  25   2.0000      -1.352199       -36.7952
  26   2.0000      -1.194448       -32.5026
  27   2.0000      -1.136822       -30.9345
  28   2.0000      -1.089689       -29.6519
  29   2.0000      -1.048260       -28.5246
  30   2.0000      -0.985266       -26.8104
  31   2.0000      -0.920054       -25.0359
  32   2.0000      -0.862990       -23.4831
  33   2.0000      -0.848038       -23.0763
  34   2.0000      -0.793012       -21.5790
  35   2.0000      -0.728434       -19.8217
  36   2.0000      -0.680416       -18.5151
  37   2.0000      -0.672461       -18.2986
  38   2.0000      -0.659015       -17.9327
  39   2.0000      -0.641130       -17.4460
  40   2.0000      -0.635133       -17.2829
  41   2.0000      -0.618007       -16.8168
  42   2.0000      -0.600488       -16.3401
  43   2.0000      -0.585294       -15.9267
  44   2.0000      -0.564850       -15.3704
  45   2.0000      -0.539112       -14.6700
  46   2.0000      -0.536561       -14.6006
  47   2.0000      -0.518163       -14.0999
  48   2.0000      -0.514651       -14.0044
  49   2.0000      -0.508950       -13.8492
  50   2.0000      -0.507219       -13.8021
  51   2.0000      -0.492666       -13.4061
  52   2.0000      -0.483570       -13.1586
  53   2.0000      -0.440400       -11.9839
  54   2.0000      -0.398587       -10.8461
  55   2.0000      -0.365874        -9.9559
  56   2.0000      -0.358727        -9.7614
  57   0.0000       0.017642         0.4801
  58   0.0000       0.024852         0.6763
  59   0.0000       0.029712         0.8085
  60   0.0000       0.033443         0.9100
  61   0.0000       0.038866         1.0576

MULLIKEN ATOMIC CHARGES
-----------------------
   0 Cl:   -0.454271
   1 S :    2.625662
   2 O :   -1.330822
   3 O :   -1.343299
   4 P :    0.703925
   5 C :   -0.458343
   6 C :   -0.219273
   7 C :   -0.241153
   8 C :    0.361281
   9 C :   -0.257299
  10 C :   -0.299029
  11 C :   -0.842882
  12 H :    0.325613
  13 H :    0.200578
  14 H :    0.234037
  15 H :    0.326082
  16 H :    0.222387
  17 H :    0.224565
  18 H :    0.288962
  19 H :   -0.066721
Sum of atomic charges:    0.0000000

LOEWDIN ATOMIC CHARGES
----------------------
   0 Cl:    0.701191
   1 S :   -0.524524
   2 O :    0.250982
   3 O :    0.248158
   4 P :    0.311081
   5 C :   -0.342589
   6 C :    0.256342
   7 C :    0.364503
   8 C :   -0.066228
   9 C :    0.362575
  10 C :    0.273038
  11 C :    0.919487
  12 H :   -0.349144
  13 H :   -0.314014
  14 H :   -0.311674
  15 H :   -0.341433
  16 H :   -0.298698
  17 H :   -0.290302
  18 H :   -0.272594
  19 H :   -0.576156

  Mayer bond orders larger than 0.100000
B(  0-Cl,  4-P ) :   0.8160 B(  1-S ,  2-O ) :   0.9757 B(  1-S ,  3-O ) :   0.8266
B(  1-S ,  4-P ) :   0.7713 B(  1-S ,  5-C ) :   1.0409 B(  1-S ,  6-C ) :  -0.1183
B(  1-S , 10-C ) :  -0.1625 B(  4-P , 19-H ) :   0.9030 B(  5-C ,  6-C ) :   0.8875
B(  5-C ,  7-C ) :  -0.2331 B(  5-C ,  9-C ) :  -0.2340 B(  5-C , 10-C ) :   0.8880
B(  5-C , 12-H ) :  -0.1225 B(  5-C , 15-H ) :  -0.1152 B(  6-C ,  7-C ) :   1.3408
B(  6-C ,  8-C ) :  -0.1062 B(  6-C ,  9-C ) :   0.1404 B(  6-C , 12-H ) :   0.9266
B(  6-C , 13-H ) :  -0.1541 B(  7-C ,  8-C ) :   0.9818 B(  7-C ,  9-C ) :  -0.1625
B(  7-C , 10-C ) :   0.1675 B(  7-C , 13-H ) :   1.1094 B(  8-C ,  9-C ) :   0.9478
B(  8-C , 11-C ) :   0.7065 B(  8-C , 13-H ) :  -0.1191 B(  8-C , 14-H ) :  -0.1265
B(  8-C , 16-H ) :  -0.1093 B(  8-C , 17-H ) :  -0.1062 B(  9-C , 10-C ) :   1.4004
B(  9-C , 14-H ) :   1.0687 B( 10-C , 14-H ) :  -0.1281 B( 10-C , 15-H ) :   0.9092
B( 11-C , 16-H ) :   1.0494 B( 11-C , 17-H ) :   1.0344 B( 11-C , 18-H ) :   0.9603

MP2 TOTAL ENERGY:    -1619.740609147 Eh
FINAL SINGLE POINT ENERGY     -1619.740609147461

DIPOLE MOMENT
-------------
                                X             Y             Z
Electronic contribution:    -22.33008       3.01815       0.36564
Nuclear contribution   :     24.08529      -1.89295      -1.39265
                        -----------------------------------------
Total Dipole Moment    :      1.75521       1.12520      -1.02701
                        -----------------------------------------
Magnitude (a.u.)       :      2.32413
Magnitude (Debye)      :      5.90747

Rotational constants in cm-1:     0.034832     0.014145     0.012146
Rotational constants in MHz :  1044.235065   424.048779   364.137197

                             ****ORCA TERMINATED NORMALLY****
TOTAL RUN TIME: 0 days 1 hours 20 minutes 16 seconds 143 msec
