                         Program Version 5.0.4 -  RELEASE  -
|  1> ! ri-mp2 aug-cc-pvdz aug-cc-pvdz/c tightscf
|  2> %pal nprocs 16 end
|  3> %maxcore 3800
|  4> %base "DZ_B-P_25_AB"
|  5>
|  6> *xyz 0 1
|  7> P        -0.092396    0.149088   -1.005232
|  8> N        -1.365942   -0.745022   -0.035235
|  9> B         1.483033   -0.474175   -0.038907
| 10> O        -2.402025   -0.182043    0.223110
| 11> O        -1.145518   -1.921388    0.234770
| 12> O         2.551346    0.355606   -0.125445
| 13> O         1.546450   -1.657130    0.591119
| 14> C        -0.341837    1.853731   -0.379838
| 15> C        -0.226742    2.085364    1.118845
| 16> H        -1.308911    2.184435   -0.758335
| 17> H         0.413867    2.430915   -0.920787
| 18> H        -0.390984    3.137984    1.351734
| 19> H         0.763458    1.815326    1.484525
| 20> H        -0.971036    1.508387    1.665487
| 21> H         0.692141   -2.123420    0.579147
| 22> H         3.343290    0.001146    0.295406
| 23> *
| 24>
| 25> $new_job
| 26> ! ri-mp2 aug-cc-pvtz aug-cc-pvtz/c tightscf
| 27> %pal nprocs 16 end
| 28> %maxcore 3800
| 29> %base "TZ_B-P_25_AB"
| 30>
| 31> *xyz 0 1
| 32> P        -0.092396    0.149088   -1.005232
| 33> N        -1.365942   -0.745022   -0.035235
| 34> B         1.483033   -0.474175   -0.038907
| 35> O        -2.402025   -0.182043    0.223110
| 36> O        -1.145518   -1.921388    0.234770
| 37> O         2.551346    0.355606   -0.125445
| 38> O         1.546450   -1.657130    0.591119
| 39> C        -0.341837    1.853731   -0.379838
| 40> C        -0.226742    2.085364    1.118845
| 41> H        -1.308911    2.184435   -0.758335
| 42> H         0.413867    2.430915   -0.920787
| 43> H        -0.390984    3.137984    1.351734
| 44> H         0.763458    1.815326    1.484525
| 45> H        -0.971036    1.508387    1.665487
| 46> H         0.692141   -2.123420    0.579147
| 47> H         3.343290    0.001146    0.295406
| 48> *
| 49>
| 50> $new_job
| 51> ! ri-mp2 aug-cc-pvqz aug-cc-pvqz/c tightscf
| 52> %pal nprocs 16 end
| 53> %maxcore 3800
| 54> %base "QZ_B-P_25_AB"
| 55>
| 56> *xyz 0 1
| 57> P        -0.092396    0.149088   -1.005232
| 58> N        -1.365942   -0.745022   -0.035235
| 59> B         1.483033   -0.474175   -0.038907
| 60> O        -2.402025   -0.182043    0.223110
| 61> O        -1.145518   -1.921388    0.234770
| 62> O         2.551346    0.355606   -0.125445
| 63> O         1.546450   -1.657130    0.591119
| 64> C        -0.341837    1.853731   -0.379838
| 65> C        -0.226742    2.085364    1.118845
| 66> H        -1.308911    2.184435   -0.758335
| 67> H         0.413867    2.430915   -0.920787
| 68> H        -0.390984    3.137984    1.351734
| 69> H         0.763458    1.815326    1.484525
| 70> H        -0.971036    1.508387    1.665487
| 71> H         0.692141   -2.123420    0.579147
| 72> H         3.343290    0.001146    0.295406
| 73> *
| 74>
| 75>
| 76>
| 77>
| 78>                          ****END OF INPUT****
 Total Charge           Charge          ....    0
 Multiplicity           Mult            ....    1
 Number of Electrons    NEL             ....   78
MP2 TOTAL ENERGY:     -800.699961189 Eh
FINAL SINGLE POINT ENERGY      -800.699961189106
MP2 TOTAL ENERGY:     -801.137339487 Eh
FINAL SINGLE POINT ENERGY      -801.137339487382

CARTESIAN COORDINATES (ANGSTROEM)
---------------------------------
  P     -0.092396    0.149088   -1.005232
  N     -1.365942   -0.745022   -0.035235
  B      1.483033   -0.474175   -0.038907
  O     -2.402025   -0.182043    0.223110
  O     -1.145518   -1.921388    0.234770
  O      2.551346    0.355606   -0.125445
  O      1.546450   -1.657130    0.591119
  C     -0.341837    1.853731   -0.379838
  C     -0.226742    2.085364    1.118845
  H     -1.308911    2.184435   -0.758335
  H      0.413867    2.430915   -0.920787
  H     -0.390984    3.137984    1.351734
  H      0.763458    1.815326    1.484525
  H     -0.971036    1.508387    1.665487
  H      0.692141   -2.123420    0.579147
  H      3.343290    0.001146    0.295406

 Multiplicity           Mult            ....    1
 Number of Electrons    NEL             ....   78
 Basis Dimension        Dim             .... 1046

ORBITAL ENERGIES
----------------

  NO   OCC          E(Eh)            E(eV)
   0   2.0000     -79.988574     -2176.5998
   1   2.0000     -20.613332      -560.9173
   2   2.0000     -20.603791      -560.6576
   3   2.0000     -20.593153      -560.3682
   4   2.0000     -20.580938      -560.0358
   5   2.0000     -15.839097      -431.0037
   6   2.0000     -11.259836      -306.3957
   7   2.0000     -11.234854      -305.7159
   8   2.0000      -7.674380      -208.8305
   9   2.0000      -7.531184      -204.9339
  10   2.0000      -5.425522      -147.6360
  11   2.0000      -5.423876      -147.5912
  12   2.0000      -5.423336      -147.5765
  13   2.0000      -1.612707       -43.8840
  14   2.0000      -1.412613       -38.4392
  15   2.0000      -1.405124       -38.2354
  16   2.0000      -1.369640       -37.2698
  17   2.0000      -1.074161       -29.2294
  18   2.0000      -0.992878       -27.0176
  19   2.0000      -0.889123       -24.1943
  20   2.0000      -0.823322       -22.4037
  21   2.0000      -0.801011       -21.7966
  22   2.0000      -0.756808       -20.5938
  23   2.0000      -0.733681       -19.9645
  24   2.0000      -0.722590       -19.6627
  25   2.0000      -0.695112       -18.9150
  26   2.0000      -0.636631       -17.3236
  27   2.0000      -0.630841       -17.1660
  28   2.0000      -0.603841       -16.4313
  29   2.0000      -0.594193       -16.1688
  30   2.0000      -0.582917       -15.8620
  31   2.0000      -0.550691       -14.9851
  32   2.0000      -0.526891       -14.3374
  33   2.0000      -0.522560       -14.2196
  34   2.0000      -0.507319       -13.8048
  35   2.0000      -0.473168       -12.8756
  36   2.0000      -0.468516       -12.7490
  37   2.0000      -0.463681       -12.6174
  38   2.0000      -0.386316       -10.5122
  39   0.0000       0.018968         0.5162
  40   0.0000       0.028856         0.7852
  41   0.0000       0.031903         0.8681
  42   0.0000       0.036753         1.0001
  43   0.0000       0.044842         1.2202

MULLIKEN ATOMIC CHARGES
-----------------------
   0 P :    0.641340
   1 N :    0.761924
   2 B :    1.438565
   3 O :   -0.628384
   4 O :   -0.675043
   5 O :   -0.996799
   6 O :   -1.208793
   7 C :   -0.596665
   8 C :   -0.929805
   9 H :    0.311090
  10 H :    0.299805
  11 H :    0.334436
  12 H :    0.297244
  13 H :    0.259487
  14 H :    0.365800
  15 H :    0.325798
Sum of atomic charges:   -0.0000000

LOEWDIN ATOMIC CHARGES
----------------------
   0 P :    0.963982
   1 N :   -0.980770
   2 B :   -1.428104
   3 O :    0.482459
   4 O :    0.537226
   5 O :    1.304335
   6 O :    1.330803
   7 C :    0.339615
   8 C :    0.870652
   9 H :   -0.355583
  10 H :   -0.349597
  11 H :   -0.272606
  12 H :   -0.306629
  13 H :   -0.313221
  14 H :   -1.044852
  15 H :   -0.777708

  Mayer bond orders larger than 0.100000
B(  0-P ,  1-N ) :   0.6244 B(  0-P ,  2-B ) :   0.9944 B(  0-P ,  7-C ) :   0.8462
B(  1-N ,  3-O ) :   1.2641 B(  1-N ,  4-O ) :   1.1092 B(  2-B ,  5-O ) :   0.3635
B(  2-B ,  6-O ) :   0.4816 B(  3-O ,  4-O ) :   0.1135 B(  5-O ,  6-O ) :  -0.1082
B(  5-O , 15-H ) :   0.9492 B(  6-O , 14-H ) :   0.8650 B(  7-C ,  8-C ) :   0.9458
B(  7-C ,  9-H ) :   0.8697 B(  7-C , 10-H ) :   0.8786 B(  8-C , 11-H ) :   0.9091
B(  8-C , 12-H ) :   0.9406 B(  8-C , 13-H ) :   0.9294

MP2 TOTAL ENERGY:     -801.281010252 Eh
FINAL SINGLE POINT ENERGY      -801.281010251628

DIPOLE MOMENT
-------------
                                X             Y             Z
Electronic contribution:     -0.32150      -7.86524      -4.64886
Nuclear contribution   :      1.39381       8.87185       4.56392
                        -----------------------------------------
Total Dipole Moment    :      1.07231       1.00660      -0.08494
                        -----------------------------------------
Magnitude (a.u.)       :      1.47320
Magnitude (Debye)      :      3.74457

Rotational constants in cm-1:     0.055405     0.043505     0.029910
Rotational constants in MHz :  1660.985751  1304.235665   896.671132

                             ****ORCA TERMINATED NORMALLY****
TOTAL RUN TIME: 0 days 0 hours 30 minutes 26 seconds 232 msec
