                         Program Version 5.0.4 -  RELEASE  -
|  1> ! ri-mp2 aug-cc-pvdz aug-cc-pvdz/c tightscf
|  2> %pal nprocs 16 end
|  3> %maxcore 3800
|  4> %base "DZ_B-F_17_A"
|  5> %scf
|  6> STABPerform true
|  7> STABRestartUHFifUnstable true
|  8> end
|  9>
| 10> *xyz 0 2
| 11> F         2.067342   -0.213685    0.041488
| 12> B         0.891515   -0.788151    0.117638
| 13> C        -0.426291   -0.065962   -0.320931
| 14> C        -1.706103   -0.772539    0.114577
| 15> H        -1.713739   -1.816872   -0.196372
| 16> H        -2.584663   -0.284310   -0.310839
| 17> H        -1.810855   -0.752203    1.200689
| 18> C        -0.419944    1.414912    0.076444
| 19> H        -0.361875   -0.120390   -1.419589
| 20> H        -0.469461    1.527831    1.160983
| 21> H        -1.286633    1.926651   -0.344992
| 22> H         0.477594    1.924740   -0.272001
| 23> *
| 24>
| 25> $new_job
| 26> ! ri-mp2 aug-cc-pvtz aug-cc-pvtz/c tightscf
| 27> %pal nprocs 16 end
| 28> %maxcore 3800
| 29> %base "TZ_B-F_17_A"
| 30>
| 31> *xyz 0 2
| 32> F         2.067342   -0.213685    0.041488
| 33> B         0.891515   -0.788151    0.117638
| 34> C        -0.426291   -0.065962   -0.320931
| 35> C        -1.706103   -0.772539    0.114577
| 36> H        -1.713739   -1.816872   -0.196372
| 37> H        -2.584663   -0.284310   -0.310839
| 38> H        -1.810855   -0.752203    1.200689
| 39> C        -0.419944    1.414912    0.076444
| 40> H        -0.361875   -0.120390   -1.419589
| 41> H        -0.469461    1.527831    1.160983
| 42> H        -1.286633    1.926651   -0.344992
| 43> H         0.477594    1.924740   -0.272001
| 44> *
| 45>
| 46> $new_job
| 47> ! ri-mp2 aug-cc-pvqz aug-cc-pvqz/c tightscf
| 48> %pal nprocs 16 end
| 49> %maxcore 3800
| 50> %base "QZ_B-F_17_A"
| 51>
| 52> *xyz 0 2
| 53> F         2.067342   -0.213685    0.041488
| 54> B         0.891515   -0.788151    0.117638
| 55> C        -0.426291   -0.065962   -0.320931
| 56> C        -1.706103   -0.772539    0.114577
| 57> H        -1.713739   -1.816872   -0.196372
| 58> H        -2.584663   -0.284310   -0.310839
| 59> H        -1.810855   -0.752203    1.200689
| 60> C        -0.419944    1.414912    0.076444
| 61> H        -0.361875   -0.120390   -1.419589
| 62> H        -0.469461    1.527831    1.160983
| 63> H        -1.286633    1.926651   -0.344992
| 64> H         0.477594    1.924740   -0.272001
| 65> *
| 66>
| 67>
| 68>
| 69>
| 70>                          ****END OF INPUT****
 Total Charge           Charge          ....    0
 Multiplicity           Mult            ....    2
 Number of Electrons    NEL             ....   39
MP2 TOTAL ENERGY:     -242.537144806 Eh
FINAL SINGLE POINT ENERGY      -242.537144806222
MP2 TOTAL ENERGY:     -242.759622439 Eh
FINAL SINGLE POINT ENERGY      -242.759622439260

CARTESIAN COORDINATES (ANGSTROEM)
---------------------------------
  F      2.067342   -0.213685    0.041488
  B      0.891515   -0.788151    0.117638
  C     -0.426291   -0.065962   -0.320931
  C     -1.706103   -0.772539    0.114577
  H     -1.713739   -1.816872   -0.196372
  H     -2.584663   -0.284310   -0.310839
  H     -1.810855   -0.752203    1.200689
  C     -0.419944    1.414912    0.076444
  H     -0.361875   -0.120390   -1.419589
  H     -0.469461    1.527831    1.160983
  H     -1.286633    1.926651   -0.344992
  H      0.477594    1.924740   -0.272001

 Multiplicity           Mult            ....    2
 Number of Electrons    NEL             ....   39
 Basis Dimension        Dim             ....  722

ORBITAL ENERGIES
----------------
                 SPIN UP ORBITALS
  NO   OCC          E(Eh)            E(eV)
   0   1.0000     -26.310176      -715.9363
   1   1.0000     -11.222978      -305.3928
   2   1.0000     -11.221685      -305.3576
   3   1.0000     -11.218552      -305.2723
   4   1.0000      -7.668902      -208.6814
   5   1.0000      -1.628473       -44.3130
   6   1.0000      -1.071740       -29.1635
   7   1.0000      -0.938040       -25.5254
   8   1.0000      -0.836053       -22.7502
   9   1.0000      -0.777931       -21.1686
  10   1.0000      -0.708285       -19.2734
  11   1.0000      -0.682830       -18.5808
  12   1.0000      -0.634861       -17.2754
  13   1.0000      -0.610911       -16.6237
  14   1.0000      -0.563487       -15.3333
  15   1.0000      -0.542438       -14.7605
  16   1.0000      -0.498905       -13.5759
  17   1.0000      -0.490346       -13.3430
  18   1.0000      -0.480018       -13.0619
  19   1.0000      -0.336078        -9.1452
  20   0.0000       0.024389         0.6637
  21   0.0000       0.031409         0.8547
  22   0.0000       0.034056         0.9267
  23   0.0000       0.035147         0.9564
  24   0.0000       0.050391         1.3712

                 SPIN DOWN ORBITALS
  NO   OCC          E(Eh)            E(eV)
   0   1.0000     -26.306848      -715.8457
   1   1.0000     -11.221449      -305.3512
   2   1.0000     -11.219632      -305.3017
   3   1.0000     -11.218474      -305.2702
   4   1.0000      -7.650584      -208.1830
   5   1.0000      -1.619170       -44.0599
   6   1.0000      -1.065774       -29.0012
   7   1.0000      -0.936863       -25.4933
   8   1.0000      -0.824013       -22.4225
   9   1.0000      -0.766847       -20.8670
  10   1.0000      -0.684290       -18.6205
  11   1.0000      -0.679201       -18.4820
  12   1.0000      -0.626207       -17.0400
  13   1.0000      -0.605074       -16.4649
  14   1.0000      -0.560193       -15.2436
  15   1.0000      -0.541763       -14.7421
  16   1.0000      -0.489571       -13.3219
  17   1.0000      -0.486891       -13.2490
  18   1.0000      -0.461063       -12.5462
  19   0.0000       0.022215         0.6045
  20   0.0000       0.032076         0.8728
  21   0.0000       0.032967         0.8971
  22   0.0000       0.034572         0.9407
  23   0.0000       0.050422         1.3721

MULLIKEN ATOMIC CHARGES AND SPIN POPULATIONS
--------------------------------------------
   0 F :   -0.768339   -0.023095
   1 B :    0.764770    1.014706
   2 C :   -0.031167    0.007860
   3 C :   -0.869652   -0.017729
   4 H :    0.274415   -0.003859
   5 H :    0.258023   -0.002379
   6 H :    0.227928   -0.002994
   7 C :   -0.900311    0.026638
   8 H :    0.273702   -0.005500
   9 H :    0.236163    0.000126
  10 H :    0.259954    0.006249
  11 H :    0.274512   -0.000023
Sum of atomic charges         :   -0.0000000

LOEWDIN ATOMIC CHARGES AND SPIN POPULATIONS
-------------------------------------------
   0 F :    0.764074    0.148158
   1 B :   -0.640171    0.560340
   2 C :    0.135669    0.168068
   3 C :    0.868417    0.041870
   4 H :   -0.289920    0.014285
   5 H :   -0.278687    0.000515
   6 H :   -0.284384    0.006910
   7 C :    0.882472    0.026340
   8 H :   -0.317393    0.022047
   9 H :   -0.276335    0.002861
  10 H :   -0.276221    0.004810
  11 H :   -0.287520    0.003795

  Mayer bond orders larger than 0.100000
B(  0-F ,  1-B ) :   0.3037 B(  1-B ,  2-C ) :   0.8989 B(  2-C ,  3-C ) :   0.8086
B(  2-C ,  7-C ) :   0.8620 B(  2-C ,  8-H ) :   0.8481 B(  3-C ,  4-H ) :   0.9592
B(  3-C ,  5-H ) :   0.9714 B(  3-C ,  6-H ) :   0.9592 B(  7-C ,  9-H ) :   0.9388
B(  7-C , 10-H ) :   0.9655 B(  7-C , 11-H ) :   0.9471

MP2 TOTAL ENERGY:     -242.827936614 Eh
FINAL SINGLE POINT ENERGY      -242.827936613829

DIPOLE MOMENT
-------------
                                X             Y             Z
Electronic contribution:     10.03188      -3.08946       0.17505
Nuclear contribution   :    -10.55985       3.26709      -0.31940
                        -----------------------------------------
Total Dipole Moment    :     -0.52798       0.17763      -0.14436
                        -----------------------------------------
Magnitude (a.u.)       :      0.57546
Magnitude (Debye)      :      1.46270

Rotational constants in cm-1:     0.284721     0.112566     0.086298
Rotational constants in MHz :  8535.722801  3374.640392  2587.151078

                             ****ORCA TERMINATED NORMALLY****
TOTAL RUN TIME: 0 days 1 hours 24 minutes 39 seconds 970 msec
