                         Program Version 5.0.4 -  RELEASE  -
|  1> ! ri-mp2 aug-cc-pvdz aug-cc-pvdz/c tightscf
|  2> %pal nprocs 16 end
|  3> %maxcore 3800
|  4> %base "DZ_P-Si_25_AB"
|  5> %scf
|  6> STABPerform true
|  7> STABRestartUHFifUnstable true
|  8> end
|  9>
| 10> *xyz 0 1
| 11> P        -1.944410    0.000001   -0.454375
| 12> Si        -0.038602   -0.000001    0.750888
| 13> C         1.225836   -1.198871    0.040456
| 14> C         1.225836    1.198870    0.040461
| 15> C         1.755614    0.000001   -0.798398
| 16> H         1.952399    1.502378    0.795485
| 17> H         0.926706    2.079151   -0.522992
| 18> H         1.284630    0.000003   -1.781509
| 19> H         2.834745    0.000002   -0.953510
| 20> H         0.926706   -2.079149   -0.523000
| 21> H         1.952399   -1.502381    0.795480
| 22> H        -2.555708    1.034357    0.293527
| 23> H        -2.555708   -1.034358    0.293523
| 24> H        -0.303311   -0.000004    2.211074
| 25> *
| 26>
| 27> $new_job
| 28> ! ri-mp2 aug-cc-pvtz aug-cc-pvtz/c tightscf
| 29> %pal nprocs 16 end
| 30> %maxcore 3800
| 31> %base "TZ_P-Si_25_AB"
| 32>
| 33> *xyz 0 1
| 34> P        -1.944410    0.000001   -0.454375
| 35> Si        -0.038602   -0.000001    0.750888
| 36> C         1.225836   -1.198871    0.040456
| 37> C         1.225836    1.198870    0.040461
| 38> C         1.755614    0.000001   -0.798398
| 39> H         1.952399    1.502378    0.795485
| 40> H         0.926706    2.079151   -0.522992
| 41> H         1.284630    0.000003   -1.781509
| 42> H         2.834745    0.000002   -0.953510
| 43> H         0.926706   -2.079149   -0.523000
| 44> H         1.952399   -1.502381    0.795480
| 45> H        -2.555708    1.034357    0.293527
| 46> H        -2.555708   -1.034358    0.293523
| 47> H        -0.303311   -0.000004    2.211074
| 48> *
| 49>
| 50> $new_job
| 51> ! ri-mp2 aug-cc-pvqz aug-cc-pvqz/c tightscf
| 52> %pal nprocs 16 end
| 53> %maxcore 3800
| 54> %base "QZ_P-Si_25_AB"
| 55>
| 56> *xyz 0 1
| 57> P        -1.944410    0.000001   -0.454375
| 58> Si        -0.038602   -0.000001    0.750888
| 59> C         1.225836   -1.198871    0.040456
| 60> C         1.225836    1.198870    0.040461
| 61> C         1.755614    0.000001   -0.798398
| 62> H         1.952399    1.502378    0.795485
| 63> H         0.926706    2.079151   -0.522992
| 64> H         1.284630    0.000003   -1.781509
| 65> H         2.834745    0.000002   -0.953510
| 66> H         0.926706   -2.079149   -0.523000
| 67> H         1.952399   -1.502381    0.795480
| 68> H        -2.555708    1.034357    0.293527
| 69> H        -2.555708   -1.034358    0.293523
| 70> H        -0.303311   -0.000004    2.211074
| 71> *
| 72>
| 73>
| 74>
| 75>
| 76>                          ****END OF INPUT****
 Total Charge           Charge          ....    0
 Multiplicity           Mult            ....    1
 Number of Electrons    NEL             ....   56
MP2 TOTAL ENERGY:     -749.184268783 Eh
FINAL SINGLE POINT ENERGY      -749.184268782749
MP2 TOTAL ENERGY:     -749.379653562 Eh
FINAL SINGLE POINT ENERGY      -749.379653562107

CARTESIAN COORDINATES (ANGSTROEM)
---------------------------------
  P     -1.944410    0.000001   -0.454375
  Si    -0.038602   -0.000001    0.750888
  C      1.225836   -1.198871    0.040456
  C      1.225836    1.198870    0.040461
  C      1.755614    0.000001   -0.798398
  H      1.952399    1.502378    0.795485
  H      0.926706    2.079151   -0.522992
  H      1.284630    0.000003   -1.781509
  H      2.834745    0.000002   -0.953510
  H      0.926706   -2.079149   -0.523000
  H      1.952399   -1.502381    0.795480
  H     -2.555708    1.034357    0.293527
  H     -2.555708   -1.034358    0.293523
  H     -0.303311   -0.000004    2.211074

 Multiplicity           Mult            ....    1
 Number of Electrons    NEL             ....   56
 Basis Dimension        Dim             ....  822

ORBITAL ENERGIES
----------------

  NO   OCC          E(Eh)            E(eV)
   0   2.0000     -79.927462     -2174.9368
   1   2.0000     -68.769175     -1871.3044
   2   2.0000     -11.229214      -305.5625
   3   2.0000     -11.204165      -304.8808
   4   2.0000     -11.204146      -304.8803
   5   2.0000      -7.472457      -203.3359
   6   2.0000      -6.117925      -166.4772
   7   2.0000      -5.366335      -146.0254
   8   2.0000      -5.365999      -146.0163
   9   2.0000      -5.365380      -145.9994
  10   2.0000      -4.224252      -114.9478
  11   2.0000      -4.223913      -114.9385
  12   2.0000      -4.223465      -114.9263
  13   2.0000      -1.070977       -29.1428
  14   2.0000      -0.898828       -24.4583
  15   2.0000      -0.850636       -23.1470
  16   2.0000      -0.801156       -21.8006
  17   2.0000      -0.664450       -18.0806
  18   2.0000      -0.629384       -17.1264
  19   2.0000      -0.584367       -15.9014
  20   2.0000      -0.545225       -14.8363
  21   2.0000      -0.523259       -14.2386
  22   2.0000      -0.487762       -13.2727
  23   2.0000      -0.476130       -12.9562
  24   2.0000      -0.456025       -12.4091
  25   2.0000      -0.417224       -11.3532
  26   2.0000      -0.390306       -10.6208
  27   2.0000      -0.359909        -9.7936
  28   0.0000       0.022885         0.6227
  29   0.0000       0.032859         0.8941
  30   0.0000       0.033708         0.9172
  31   0.0000       0.034708         0.9445
  32   0.0000       0.048755         1.3267

MULLIKEN ATOMIC CHARGES
-----------------------
   0 P :   -0.005314
   1 Si:    1.254666
   2 C :   -0.913856
   3 C :   -0.913855
   4 C :   -0.532155
   5 H :    0.233832
   6 H :    0.304438
   7 H :    0.268252
   8 H :    0.345209
   9 H :    0.304438
  10 H :    0.233832
  11 H :   -0.068771
  12 H :   -0.068771
  13 H :   -0.441945
Sum of atomic charges:    0.0000000

LOEWDIN ATOMIC CHARGES
----------------------
   0 P :    1.481950
   1 Si:    0.249767
   2 C :    0.535532
   3 C :    0.535531
   4 C :    0.389990
   5 H :   -0.331615
   6 H :   -0.321874
   7 H :   -0.296582
   8 H :   -0.262860
   9 H :   -0.321875
  10 H :   -0.331615
  11 H :   -0.554462
  12 H :   -0.554462
  13 H :   -0.217426

  Mayer bond orders larger than 0.100000
B(  0-P ,  1-Si) :   0.9770 B(  0-P , 11-H ) :   0.9092 B(  0-P , 12-H ) :   0.9092
B(  1-Si,  2-C ) :   0.7739 B(  1-Si,  3-C ) :   0.7739 B(  1-Si, 13-H ) :   0.7856
B(  2-C ,  4-C ) :   0.9967 B(  2-C ,  9-H ) :   0.9237 B(  2-C , 10-H ) :   0.9456
B(  3-C ,  4-C ) :   0.9967 B(  3-C ,  5-H ) :   0.9456 B(  3-C ,  6-H ) :   0.9237
B(  4-C ,  7-H ) :   0.9125 B(  4-C ,  8-H ) :   0.8033

MP2 TOTAL ENERGY:     -749.439643463 Eh
FINAL SINGLE POINT ENERGY      -749.439643463331

DIPOLE MOMENT
-------------
                                X             Y             Z
Electronic contribution:     -6.14024       0.00000      -0.71939
Nuclear contribution   :      6.37808      -0.00000       1.00485
                        -----------------------------------------
Total Dipole Moment    :      0.23784       0.00000       0.28546
                        -----------------------------------------
Magnitude (a.u.)       :      0.37156
Magnitude (Debye)      :      0.94442

Rotational constants in cm-1:     0.185809     0.064028     0.061872
Rotational constants in MHz :  5570.399334  1919.504557  1854.888680

                             ****ORCA TERMINATED NORMALLY****
TOTAL RUN TIME: 0 days 1 hours 1 minutes 37 seconds 899 msec
