                         Program Version 5.0.4 -  RELEASE  -
|  1> ! ri-mp2 aug-cc-pvdz aug-cc-pvdz/c tightscf
|  2> %pal nprocs 16 end
|  3> %maxcore 3800
|  4> %base "DZ_B-F_50_A"
|  5> %scf
|  6> STABPerform true
|  7> STABRestartUHFifUnstable true
|  8> end
|  9>
| 10> *xyz 0 2
| 11> F         1.990355   -1.115875   -1.086168
| 12> B         0.712992   -1.241244   -0.874494
| 13> C        -0.153329   -0.075262   -0.154919
| 14> O        -1.516766   -0.237427   -0.329513
| 15> O         0.233732    1.090992   -0.788432
| 16> O         0.071005   -0.033275    1.235628
| 17> C        -2.084146   -1.384406    0.273155
| 18> H        -3.111596   -1.438521   -0.077600
| 19> H        -2.066470   -1.308240    1.359862
| 20> H        -1.551312   -2.289534   -0.034375
| 21> C        -0.522626    2.256476   -0.471276
| 22> H         0.029522    3.092512   -0.892482
| 23> H        -0.613893    2.380609    0.608056
| 24> H        -1.515786    2.205151   -0.913588
| 25> C         1.398657    0.228474    1.654394
| 26> H         1.352324    0.394519    2.727638
| 27> H         1.801377    1.115433    1.164263
| 28> H         2.062574   -0.616851    1.456622
| 29> *
| 30>
| 31> $new_job
| 32> ! ri-mp2 aug-cc-pvtz aug-cc-pvtz/c tightscf
| 33> %pal nprocs 16 end
| 34> %maxcore 3800
| 35> %base "TZ_B-F_50_A"
| 36>
| 37> *xyz 0 2
| 38> F         1.990355   -1.115875   -1.086168
| 39> B         0.712992   -1.241244   -0.874494
| 40> C        -0.153329   -0.075262   -0.154919
| 41> O        -1.516766   -0.237427   -0.329513
| 42> O         0.233732    1.090992   -0.788432
| 43> O         0.071005   -0.033275    1.235628
| 44> C        -2.084146   -1.384406    0.273155
| 45> H        -3.111596   -1.438521   -0.077600
| 46> H        -2.066470   -1.308240    1.359862
| 47> H        -1.551312   -2.289534   -0.034375
| 48> C        -0.522626    2.256476   -0.471276
| 49> H         0.029522    3.092512   -0.892482
| 50> H        -0.613893    2.380609    0.608056
| 51> H        -1.515786    2.205151   -0.913588
| 52> C         1.398657    0.228474    1.654394
| 53> H         1.352324    0.394519    2.727638
| 54> H         1.801377    1.115433    1.164263
| 55> H         2.062574   -0.616851    1.456622
| 56> *
| 57>
| 58> $new_job
| 59> ! ri-mp2 aug-cc-pvqz aug-cc-pvqz/c tightscf
| 60> %pal nprocs 16 end
| 61> %maxcore 3800
| 62> %base "QZ_B-F_50_A"
| 63>
| 64> *xyz 0 2
| 65> F         1.990355   -1.115875   -1.086168
| 66> B         0.712992   -1.241244   -0.874494
| 67> C        -0.153329   -0.075262   -0.154919
| 68> O        -1.516766   -0.237427   -0.329513
| 69> O         0.233732    1.090992   -0.788432
| 70> O         0.071005   -0.033275    1.235628
| 71> C        -2.084146   -1.384406    0.273155
| 72> H        -3.111596   -1.438521   -0.077600
| 73> H        -2.066470   -1.308240    1.359862
| 74> H        -1.551312   -2.289534   -0.034375
| 75> C        -0.522626    2.256476   -0.471276
| 76> H         0.029522    3.092512   -0.892482
| 77> H        -0.613893    2.380609    0.608056
| 78> H        -1.515786    2.205151   -0.913588
| 79> C         1.398657    0.228474    1.654394
| 80> H         1.352324    0.394519    2.727638
| 81> H         1.801377    1.115433    1.164263
| 82> H         2.062574   -0.616851    1.456622
| 83> *
| 84>
| 85>
| 86>
| 87>
| 88>                          ****END OF INPUT****
 Total Charge           Charge          ....    0
 Multiplicity           Mult            ....    2
 Number of Electrons    NEL             ....   71
MP2 TOTAL ENERGY:     -506.873683257 Eh
FINAL SINGLE POINT ENERGY      -506.873683257235
MP2 TOTAL ENERGY:     -507.320501535 Eh
FINAL SINGLE POINT ENERGY      -507.320501534663

CARTESIAN COORDINATES (ANGSTROEM)
---------------------------------
  F      1.990355   -1.115875   -1.086168
  B      0.712992   -1.241244   -0.874494
  C     -0.153329   -0.075262   -0.154919
  O     -1.516766   -0.237427   -0.329513
  O      0.233732    1.090992   -0.788432
  O      0.071005   -0.033275    1.235628
  C     -2.084146   -1.384406    0.273155
  H     -3.111596   -1.438521   -0.077600
  H     -2.066470   -1.308240    1.359862
  H     -1.551312   -2.289534   -0.034375
  C     -0.522626    2.256476   -0.471276
  H      0.029522    3.092512   -0.892482
  H     -0.613893    2.380609    0.608056
  H     -1.515786    2.205151   -0.913588
  C      1.398657    0.228474    1.654394
  H      1.352324    0.394519    2.727638
  H      1.801377    1.115433    1.164263
  H      2.062574   -0.616851    1.456622

 Multiplicity           Mult            ....    2
 Number of Electrons    NEL             ....   71
 Basis Dimension        Dim             .... 1134

ORBITAL ENERGIES
----------------
                 SPIN UP ORBITALS
  NO   OCC          E(Eh)            E(eV)
   0   1.0000     -26.323530      -716.2997
   1   1.0000     -20.569361      -559.7208
   2   1.0000     -20.568799      -559.7055
   3   1.0000     -20.565411      -559.6133
   4   1.0000     -11.382362      -309.7298
   5   1.0000     -11.276936      -306.8610
   6   1.0000     -11.271956      -306.7255
   7   1.0000     -11.268772      -306.6389
   8   1.0000      -7.686520      -209.1609
   9   1.0000      -1.643539       -44.7230
  10   1.0000      -1.466136       -39.8956
  11   1.0000      -1.361182       -37.0396
  12   1.0000      -1.359403       -36.9912
  13   1.0000      -0.998656       -27.1748
  14   1.0000      -0.944417       -25.6989
  15   1.0000      -0.934273       -25.4229
  16   1.0000      -0.839432       -22.8421
  17   1.0000      -0.793672       -21.5969
  18   1.0000      -0.738442       -20.0940
  19   1.0000      -0.723423       -19.6853
  20   1.0000      -0.714952       -19.4548
  21   1.0000      -0.694887       -18.9088
  22   1.0000      -0.691404       -18.8141
  23   1.0000      -0.643177       -17.5017
  24   1.0000      -0.627107       -17.0644
  25   1.0000      -0.605936       -16.4884
  26   1.0000      -0.593972       -16.1628
  27   1.0000      -0.586900       -15.9704
  28   1.0000      -0.561470       -15.2784
  29   1.0000      -0.532085       -14.4788
  30   1.0000      -0.507437       -13.8081
  31   1.0000      -0.490549       -13.3485
  32   1.0000      -0.459003       -12.4901
  33   1.0000      -0.454964       -12.3802
  34   1.0000      -0.451247       -12.2790
  35   1.0000      -0.350117        -9.5272
  36   0.0000       0.023299         0.6340
  37   0.0000       0.031500         0.8571
  38   0.0000       0.032562         0.8861
  39   0.0000       0.033756         0.9185
  40   0.0000       0.045080         1.2267

                 SPIN DOWN ORBITALS
  NO   OCC          E(Eh)            E(eV)
   0   1.0000     -26.320234      -716.2100
   1   1.0000     -20.568965      -559.7100
   2   1.0000     -20.568449      -559.6959
   3   1.0000     -20.565909      -559.6268
   4   1.0000     -11.378457      -309.6235
   5   1.0000     -11.276932      -306.8609
   6   1.0000     -11.271570      -306.7150
   7   1.0000     -11.268507      -306.6317
   8   1.0000      -7.667433      -208.6414
   9   1.0000      -1.634465       -44.4761
  10   1.0000      -1.464383       -39.8479
  11   1.0000      -1.360551       -37.0225
  12   1.0000      -1.358940       -36.9786
  13   1.0000      -0.994282       -27.0558
  14   1.0000      -0.943005       -25.6605
  15   1.0000      -0.932992       -25.3880
  16   1.0000      -0.825696       -22.4683
  17   1.0000      -0.784897       -21.3581
  18   1.0000      -0.724462       -19.7136
  19   1.0000      -0.716906       -19.5080
  20   1.0000      -0.711852       -19.3705
  21   1.0000      -0.692038       -18.8313
  22   1.0000      -0.675535       -18.3822
  23   1.0000      -0.641972       -17.4690
  24   1.0000      -0.625221       -17.0131
  25   1.0000      -0.605753       -16.4834
  26   1.0000      -0.593558       -16.1515
  27   1.0000      -0.586751       -15.9663
  28   1.0000      -0.551375       -15.0037
  29   1.0000      -0.530093       -14.4246
  30   1.0000      -0.505631       -13.7589
  31   1.0000      -0.487938       -13.2775
  32   1.0000      -0.455273       -12.3886
  33   1.0000      -0.454029       -12.3548
  34   1.0000      -0.429255       -11.6806
  35   0.0000       0.021744         0.5917
  36   0.0000       0.030773         0.8374
  37   0.0000       0.032936         0.8962
  38   0.0000       0.033304         0.9062
  39   0.0000       0.045904         1.2491

MULLIKEN ATOMIC CHARGES AND SPIN POPULATIONS
--------------------------------------------
   0 F :   -0.813115   -0.021547
   1 B :    0.863521    1.074460
   2 C :    1.975125   -0.051331
   3 O :   -0.952591   -0.014417
   4 O :   -0.929547    0.002502
   5 O :   -0.864119    0.007601
   6 C :   -0.740831    0.012138
   7 H :    0.403866    0.000364
   8 H :    0.303918    0.001088
   9 H :    0.277165   -0.023757
  10 C :   -0.795469    0.009342
  11 H :    0.425396    0.000281
  12 H :    0.268301   -0.000725
  13 H :    0.329554   -0.000584
  14 C :   -0.789149    0.003955
  15 H :    0.409118   -0.000217
  16 H :    0.345748    0.001153
  17 H :    0.283109   -0.000306
Sum of atomic charges         :   -0.0000000

LOEWDIN ATOMIC CHARGES AND SPIN POPULATIONS
-------------------------------------------
   0 F :    0.780878    0.147786
   1 B :   -0.742139    0.548399
   2 C :   -1.374893    0.160403
   3 O :    0.826347    0.010497
   4 O :    0.830538    0.018615
   5 O :    0.841814    0.017399
   6 C :    0.561804    0.032347
   7 H :   -0.315676    0.002417
   8 H :   -0.317084    0.002444
   9 H :   -0.342273    0.042377
  10 C :    0.589678    0.004391
  11 H :   -0.319347    0.001411
  12 H :   -0.316462    0.000909
  13 H :   -0.317951    0.001040
  14 C :    0.567657    0.006486
  15 H :   -0.314732    0.000343
  16 H :   -0.318137    0.000519
  17 H :   -0.320021    0.002218

  Mayer bond orders larger than 0.100000
B(  0-F ,  1-B ) :   0.2699 B(  1-B ,  2-C ) :   0.6391 B(  2-C ,  3-O ) :   0.3898
B(  2-C ,  4-O ) :   0.4782 B(  2-C ,  5-O ) :   0.3326 B(  2-C ,  6-C ) :  -0.1230
B(  2-C , 10-C ) :  -0.1132 B(  2-C , 14-C ) :  -0.1293 B(  3-O ,  6-C ) :   0.9461
B(  4-O , 10-C ) :   0.8946 B(  5-O , 14-C ) :   0.9521 B(  6-C ,  7-H ) :   0.8707
B(  6-C ,  8-H ) :   0.8844 B(  6-C ,  9-H ) :   0.9201 B( 10-C , 11-H ) :   0.8435
B( 10-C , 12-H ) :   0.9298 B( 10-C , 13-H ) :   0.8903 B( 14-C , 15-H ) :   0.8637
B( 14-C , 16-H ) :   0.8803 B( 14-C , 17-H ) :   0.9113

MP2 TOTAL ENERGY:     -507.461867338 Eh
FINAL SINGLE POINT ENERGY      -507.461867337828

DIPOLE MOMENT
-------------
                                X             Y             Z
Electronic contribution:      5.98892      -5.53517      -6.54064
Nuclear contribution   :     -6.10037       5.58416       7.09367
                        -----------------------------------------
Total Dipole Moment    :     -0.11145       0.04899       0.55303
                        -----------------------------------------
Magnitude (a.u.)       :      0.56627
Magnitude (Debye)      :      1.43934

Rotational constants in cm-1:     0.057882     0.048752     0.041803
Rotational constants in MHz :  1735.270668  1461.539833  1253.216917

                             ****ORCA TERMINATED NORMALLY****
TOTAL RUN TIME: 0 days 7 hours 21 minutes 40 seconds 682 msec
