                         Program Version 5.0.4 -  RELEASE  -
|  1> ! ri-mp2 aug-cc-pvdz aug-cc-pvdz/c tightscf
|  2> %pal nprocs 16 end
|  3> %maxcore 3800
|  4> %base "DZ_B-Cl_9_AB"
|  5> %scf
|  6> STABPerform true
|  7> STABRestartUHFifUnstable true
|  8> end
|  9>
| 10> *xyz 0 1
| 11> Cl        -2.199671    1.526291   -0.000109
| 12> Cl        -2.159867   -1.481005   -0.000095
| 13> B        -1.318467    0.035781   -0.000126
| 14> Si         0.692809    0.010769   -0.000023
| 15> Cl         1.347657   -0.976503   -1.658756
| 16> Cl         1.481857    1.885798   -0.001367
| 17> Cl         1.347261   -0.973974    1.660383
| 18> *
| 19>
| 20> $new_job
| 21> ! ri-mp2 aug-cc-pvtz aug-cc-pvtz/c tightscf
| 22> %pal nprocs 16 end
| 23> %maxcore 3800
| 24> %base "TZ_B-Cl_9_AB"
| 25>
| 26> *xyz 0 1
| 27> Cl        -2.199671    1.526291   -0.000109
| 28> Cl        -2.159867   -1.481005   -0.000095
| 29> B        -1.318467    0.035781   -0.000126
| 30> Si         0.692809    0.010769   -0.000023
| 31> Cl         1.347657   -0.976503   -1.658756
| 32> Cl         1.481857    1.885798   -0.001367
| 33> Cl         1.347261   -0.973974    1.660383
| 34> *
| 35>
| 36> $new_job
| 37> ! ri-mp2 aug-cc-pvqz aug-cc-pvqz/c tightscf
| 38> %pal nprocs 16 end
| 39> %maxcore 3800
| 40> %base "QZ_B-Cl_9_AB"
| 41>
| 42> *xyz 0 1
| 43> Cl        -2.199671    1.526291   -0.000109
| 44> Cl        -2.159867   -1.481005   -0.000095
| 45> B        -1.318467    0.035781   -0.000126
| 46> Si         0.692809    0.010769   -0.000023
| 47> Cl         1.347657   -0.976503   -1.658756
| 48> Cl         1.481857    1.885798   -0.001367
| 49> Cl         1.347261   -0.973974    1.660383
| 50> *
| 51>
| 52>
| 53>
| 54>
| 55>                          ****END OF INPUT****
 Total Charge           Charge          ....    0
 Multiplicity           Mult            ....    1
 Number of Electrons    NEL             ....  104
MP2 TOTAL ENERGY:    -2612.285789267 Eh
FINAL SINGLE POINT ENERGY     -2612.285789266732
MP2 TOTAL ENERGY:    -2612.646630343 Eh
FINAL SINGLE POINT ENERGY     -2612.646630342708

CARTESIAN COORDINATES (ANGSTROEM)
---------------------------------
  Cl    -2.199671    1.526291   -0.000109
  Cl    -2.159867   -1.481005   -0.000095
  B     -1.318467    0.035781   -0.000126
  Si     0.692809    0.010769   -0.000023
  Cl     1.347657   -0.976503   -1.658756
  Cl     1.481857    1.885798   -0.001367
  Cl     1.347261   -0.973974    1.660383

 Multiplicity           Mult            ....    1
 Number of Electrons    NEL             ....  104
 Basis Dimension        Dim             ....  584

ORBITAL ENERGIES
----------------

  NO   OCC          E(Eh)            E(eV)
   0   2.0000    -104.866274     -2853.5564
   1   2.0000    -104.865362     -2853.5316
   2   2.0000    -104.853476     -2853.2081
   3   2.0000    -104.853474     -2853.2081
   4   2.0000    -104.852375     -2853.1782
   5   2.0000     -68.901959     -1874.9176
   6   2.0000     -10.593984      -288.2770
   7   2.0000     -10.593061      -288.2518
   8   2.0000     -10.581019      -287.9242
   9   2.0000     -10.581013      -287.9240
  10   2.0000     -10.579966      -287.8955
  11   2.0000      -8.060739      -219.3439
  12   2.0000      -8.059823      -219.3189
  13   2.0000      -8.059698      -219.3155
  14   2.0000      -8.059349      -219.3060
  15   2.0000      -8.058759      -219.2900
  16   2.0000      -8.058445      -219.2814
  17   2.0000      -8.047766      -218.9908
  18   2.0000      -8.047763      -218.9908
  19   2.0000      -8.046726      -218.9626
  20   2.0000      -8.046574      -218.9584
  21   2.0000      -8.046572      -218.9584
  22   2.0000      -8.046558      -218.9580
  23   2.0000      -8.046556      -218.9579
  24   2.0000      -8.045527      -218.9299
  25   2.0000      -8.045511      -218.9295
  26   2.0000      -7.736218      -210.5132
  27   2.0000      -6.238874      -169.7684
  28   2.0000      -4.346016      -118.2611
  29   2.0000      -4.346008      -118.2609
  30   2.0000      -4.344546      -118.2211
  31   2.0000      -1.170747       -31.8576
  32   2.0000      -1.151642       -31.3378
  33   2.0000      -1.125911       -30.6376
  34   2.0000      -1.111309       -30.2402
  35   2.0000      -1.110125       -30.2080
  36   2.0000      -0.753204       -20.4957
  37   2.0000      -0.679760       -18.4972
  38   2.0000      -0.604661       -16.4537
  39   2.0000      -0.597051       -16.2466
  40   2.0000      -0.582733       -15.8570
  41   2.0000      -0.574911       -15.6441
  42   2.0000      -0.541036       -14.7223
  43   2.0000      -0.516828       -14.0636
  44   2.0000      -0.509840       -13.8734
  45   2.0000      -0.507937       -13.8217
  46   2.0000      -0.490054       -13.3351
  47   2.0000      -0.487821       -13.2743
  48   2.0000      -0.482115       -13.1190
  49   2.0000      -0.470396       -12.8001
  50   2.0000      -0.468049       -12.7363
  51   2.0000      -0.431420       -11.7395
  52   0.0000       0.029010         0.7894
  53   0.0000       0.029453         0.8015
  54   0.0000       0.035284         0.9601
  55   0.0000       0.040149         1.0925
  56   0.0000       0.040213         1.0942

MULLIKEN ATOMIC CHARGES
-----------------------
   0 Cl:   -0.193188
   1 Cl:   -0.189585
   2 B :    0.254338
   3 Si:    1.914508
   4 Cl:   -0.593197
   5 Cl:   -0.599685
   6 Cl:   -0.593191
Sum of atomic charges:   -0.0000000

LOEWDIN ATOMIC CHARGES
----------------------
   0 Cl:    1.215540
   1 Cl:    1.217745
   2 B :   -2.581021
   3 Si:   -2.489652
   4 Cl:    0.879677
   5 Cl:    0.878031
   6 Cl:    0.879679

  Mayer bond orders larger than 0.100000
B(  0-Cl,  2-B ) :   1.0644 B(  1-Cl,  2-B ) :   1.1124 B(  2-B ,  3-Si) :   0.8992
B(  3-Si,  4-Cl) :   0.5015 B(  3-Si,  5-Cl) :   0.5661 B(  3-Si,  6-Cl) :   0.5015

MP2 TOTAL ENERGY:    -2612.770261959 Eh
FINAL SINGLE POINT ENERGY     -2612.770261959031

DIPOLE MOMENT
-------------
                                X             Y             Z
Electronic contribution:     -1.46425       0.04471      -0.00016
Nuclear contribution   :      1.15825      -0.00157       0.00002
                        -----------------------------------------
Total Dipole Moment    :     -0.30600       0.04313      -0.00013
                        -----------------------------------------
Magnitude (a.u.)       :      0.30902
Magnitude (Debye)      :      0.78548

Rotational constants in cm-1:     0.030696     0.021863     0.018133
Rotational constants in MHz :   920.254636   655.422721   543.609995

                             ****ORCA TERMINATED NORMALLY****
TOTAL RUN TIME: 0 days 0 hours 35 minutes 1 seconds 829 msec
