                         Program Version 5.0.4 -  RELEASE  -
|  1> ! ri-mp2 aug-cc-pvdz aug-cc-pvdz/c tightscf
|  2> %pal nprocs 16 end
|  3> %maxcore 3800
|  4> %base "DZ_S-F_14_AB"
|  5> %scf
|  6> STABPerform true
|  7> STABRestartUHFifUnstable true
|  8> end
|  9>
| 10> *xyz 0 1
| 11> F         1.509802   -0.724444   -0.000057
| 12> S         0.592771    0.624101    0.000032
| 13> P        -1.287542   -0.291543   -0.000004
| 14> H        -1.879708    0.453810   -1.042567
| 15> H        -1.879705    0.453718    1.042626
| 16> *
| 17>
| 18> $new_job
| 19> ! ri-mp2 aug-cc-pvtz aug-cc-pvtz/c tightscf
| 20> %pal nprocs 16 end
| 21> %maxcore 3800
| 22> %base "TZ_S-F_14_AB"
| 23>
| 24> *xyz 0 1
| 25> F         1.509802   -0.724444   -0.000057
| 26> S         0.592771    0.624101    0.000032
| 27> P        -1.287542   -0.291543   -0.000004
| 28> H        -1.879708    0.453810   -1.042567
| 29> H        -1.879705    0.453718    1.042626
| 30> *
| 31>
| 32> $new_job
| 33> ! ri-mp2 aug-cc-pvqz aug-cc-pvqz/c tightscf
| 34> %pal nprocs 16 end
| 35> %maxcore 3800
| 36> %base "QZ_S-F_14_AB"
| 37>
| 38> *xyz 0 1
| 39> F         1.509802   -0.724444   -0.000057
| 40> S         0.592771    0.624101    0.000032
| 41> P        -1.287542   -0.291543   -0.000004
| 42> H        -1.879708    0.453810   -1.042567
| 43> H        -1.879705    0.453718    1.042626
| 44> *
| 45>
| 46>
| 47>
| 48>
| 49>                          ****END OF INPUT****
 Total Charge           Charge          ....    0
 Multiplicity           Mult            ....    1
 Number of Electrons    NEL             ....   42
MP2 TOTAL ENERGY:     -839.325968190 Eh
FINAL SINGLE POINT ENERGY      -839.325968190384
MP2 TOTAL ENERGY:     -839.507796991 Eh
FINAL SINGLE POINT ENERGY      -839.507796990663

CARTESIAN COORDINATES (ANGSTROEM)
---------------------------------
  F      1.509802   -0.724444   -0.000057
  S      0.592771    0.624101    0.000032
  P     -1.287542   -0.291543   -0.000004
  H     -1.879708    0.453810   -1.042567
  H     -1.879705    0.453718    1.042626

 Multiplicity           Mult            ....    1
 Number of Electrons    NEL             ....   42
 Basis Dimension        Dim             ....  340

ORBITAL ENERGIES
----------------

  NO   OCC          E(Eh)            E(eV)
   0   2.0000     -92.037075     -2504.4561
   1   2.0000     -79.986399     -2176.5406
   2   2.0000     -26.307501      -715.8635
   3   2.0000      -9.031783      -245.7673
   4   2.0000      -7.527878      -204.8440
   5   2.0000      -6.713157      -182.6743
   6   2.0000      -6.711395      -182.6263
   7   2.0000      -6.710203      -182.5939
   8   2.0000      -5.421552      -147.5279
   9   2.0000      -5.420966      -147.5120
  10   2.0000      -5.420635      -147.5030
  11   2.0000      -1.604557       -43.6622
  12   2.0000      -1.002292       -27.2738
  13   2.0000      -0.834337       -22.7035
  14   2.0000      -0.689671       -18.7669
  15   2.0000      -0.688880       -18.7454
  16   2.0000      -0.651992       -17.7416
  17   2.0000      -0.564645       -15.3648
  18   2.0000      -0.495960       -13.4958
  19   2.0000      -0.399121       -10.8606
  20   2.0000      -0.385793       -10.4980
  21   0.0000       0.024474         0.6660
  22   0.0000       0.041048         1.1170
  23   0.0000       0.043776         1.1912
  24   0.0000       0.059676         1.6239
  25   0.0000       0.069579         1.8933

MULLIKEN ATOMIC CHARGES
-----------------------
   0 F :   -0.574552
   1 S :    0.328017
   2 P :    0.334885
   3 H :   -0.044175
   4 H :   -0.044175
Sum of atomic charges:   -0.0000000

LOEWDIN ATOMIC CHARGES
----------------------
   0 F :   -0.025107
   1 S :    0.244908
   2 P :    0.953585
   3 H :   -0.586693
   4 H :   -0.586693

  Mayer bond orders larger than 0.100000
B(  0-F ,  1-S ) :   0.6254 B(  1-S ,  2-P ) :   1.0068 B(  2-P ,  3-H ) :   0.8884
B(  2-P ,  4-H ) :   0.8884

MP2 TOTAL ENERGY:     -839.568232258 Eh
FINAL SINGLE POINT ENERGY      -839.568232257881

DIPOLE MOMENT
-------------
                                X             Y             Z
Electronic contribution:      2.93261      -1.31576      -0.00008
Nuclear contribution   :     -3.79393       1.76568       0.00011
                        -----------------------------------------
Total Dipole Moment    :     -0.86133       0.44992       0.00003
                        -----------------------------------------
Magnitude (a.u.)       :      0.97176
Magnitude (Debye)      :      2.47001

Rotational constants in cm-1:     0.609850     0.146519     0.121880
Rotational constants in MHz : 18282.848204  4392.522056  3653.857078

                             ****ORCA TERMINATED NORMALLY****
TOTAL RUN TIME: 0 days 0 hours 3 minutes 29 seconds 613 msec
