                         Program Version 5.0.4 -  RELEASE  -
|  1> ! ri-mp2 aug-cc-pvdz aug-cc-pvdz/c tightscf
|  2> %pal nprocs 16 end
|  3> %maxcore 3800
|  4> %base "DZ_Si-Si_103_AB"
|  5>
|  6> *xyz 0 1
|  7> Si        -1.048143   -0.867881   -0.525609
|  8> Si         1.048143   -0.867881    0.525609
|  9> N         1.943307    0.674069   -0.004489
| 10> O         1.388491    1.281462   -0.882698
| 11> H         1.930601   -1.965338    0.072024
| 12> H         1.006967   -0.854505    2.000254
| 13> N        -1.943307    0.674069    0.004489
| 14> H        -1.930601   -1.965338   -0.072024
| 15> H        -1.006966   -0.854505   -2.000254
| 16> O        -1.388492    1.281462    0.882698
| 17> *
| 18>
| 19> $new_job
| 20> ! ri-mp2 aug-cc-pvtz aug-cc-pvtz/c tightscf
| 21> %pal nprocs 16 end
| 22> %maxcore 3800
| 23> %base "TZ_Si-Si_103_AB"
| 24>
| 25> *xyz 0 1
| 26> Si        -1.048143   -0.867881   -0.525609
| 27> Si         1.048143   -0.867881    0.525609
| 28> N         1.943307    0.674069   -0.004489
| 29> O         1.388491    1.281462   -0.882698
| 30> H         1.930601   -1.965338    0.072024
| 31> H         1.006967   -0.854505    2.000254
| 32> N        -1.943307    0.674069    0.004489
| 33> H        -1.930601   -1.965338   -0.072024
| 34> H        -1.006966   -0.854505   -2.000254
| 35> O        -1.388492    1.281462    0.882698
| 36> *
| 37>
| 38> $new_job
| 39> ! ri-mp2 aug-cc-pvqz aug-cc-pvqz/c tightscf
| 40> %pal nprocs 16 end
| 41> %maxcore 3800
| 42> %base "QZ_Si-Si_103_AB"
| 43>
| 44> *xyz 0 1
| 45> Si        -1.048143   -0.867881   -0.525609
| 46> Si         1.048143   -0.867881    0.525609
| 47> N         1.943307    0.674069   -0.004489
| 48> O         1.388491    1.281462   -0.882698
| 49> H         1.930601   -1.965338    0.072024
| 50> H         1.006967   -0.854505    2.000254
| 51> N        -1.943307    0.674069    0.004489
| 52> H        -1.930601   -1.965338   -0.072024
| 53> H        -1.006966   -0.854505   -2.000254
| 54> O        -1.388492    1.281462    0.882698
| 55> *
| 56>
| 57>
| 58>
| 59>
| 60>                          ****END OF INPUT****
 Total Charge           Charge          ....    0
 Multiplicity           Mult            ....    1
 Number of Electrons    NEL             ....   62
MP2 TOTAL ENERGY:     -839.580557441 Eh
FINAL SINGLE POINT ENERGY      -839.580557441439
MP2 TOTAL ENERGY:     -839.859948768 Eh
FINAL SINGLE POINT ENERGY      -839.859948767750

CARTESIAN COORDINATES (ANGSTROEM)
---------------------------------
  Si    -1.048143   -0.867881   -0.525609
  Si     1.048143   -0.867881    0.525609
  N      1.943307    0.674069   -0.004489
  O      1.388491    1.281462   -0.882698
  H      1.930601   -1.965338    0.072024
  H      1.006967   -0.854505    2.000254
  N     -1.943307    0.674069    0.004489
  H     -1.930601   -1.965338   -0.072024
  H     -1.006966   -0.854505   -2.000254
  O     -1.388492    1.281462    0.882698

 Multiplicity           Mult            ....    1
 Number of Electrons    NEL             ....   62
 Basis Dimension        Dim             ....  672

ORBITAL ENERGIES
----------------

  NO   OCC          E(Eh)            E(eV)
   0   2.0000     -68.815272     -1872.5587
   1   2.0000     -68.815270     -1872.5587
   2   2.0000     -20.644368      -561.7618
   3   2.0000     -20.644367      -561.7618
   4   2.0000     -15.682165      -426.7334
   5   2.0000     -15.682165      -426.7334
   6   2.0000      -6.164656      -167.7488
   7   2.0000      -6.164511      -167.7449
   8   2.0000      -4.270843      -116.2156
   9   2.0000      -4.270493      -116.2060
  10   2.0000      -4.270485      -116.2058
  11   2.0000      -4.270372      -116.2027
  12   2.0000      -4.270249      -116.1994
  13   2.0000      -4.270004      -116.1927
  14   2.0000      -1.520504       -41.3750
  15   2.0000      -1.518756       -41.3274
  16   2.0000      -0.963832       -26.2272
  17   2.0000      -0.960623       -26.1399
  18   2.0000      -0.789357       -21.4795
  19   2.0000      -0.737766       -20.0756
  20   2.0000      -0.675125       -18.3711
  21   2.0000      -0.671171       -18.2635
  22   2.0000      -0.651325       -17.7235
  23   2.0000      -0.620714       -16.8905
  24   2.0000      -0.602306       -16.3896
  25   2.0000      -0.594978       -16.1902
  26   2.0000      -0.518782       -14.1168
  27   2.0000      -0.509923       -13.8757
  28   2.0000      -0.454085       -12.3563
  29   2.0000      -0.383316       -10.4306
  30   2.0000      -0.372150       -10.1267
  31   0.0000       0.021523         0.5857
  32   0.0000       0.027929         0.7600
  33   0.0000       0.035540         0.9671
  34   0.0000       0.037994         1.0339
  35   0.0000       0.048002         1.3062

MULLIKEN ATOMIC CHARGES
-----------------------
   0 Si:    0.938209
   1 Si:    0.938209
   2 N :   -0.139187
   3 O :   -0.416687
   4 H :   -0.216472
   5 H :   -0.165864
   6 N :   -0.139187
   7 H :   -0.216472
   8 H :   -0.165864
   9 O :   -0.416686
Sum of atomic charges:    0.0000000

LOEWDIN ATOMIC CHARGES
----------------------
   0 Si:    0.512077
   1 Si:    0.512077
   2 N :   -0.197008
   3 O :    0.268968
   4 H :   -0.297115
   5 H :   -0.286923
   6 N :   -0.197008
   7 H :   -0.297115
   8 H :   -0.286923
   9 O :    0.268969

  Mayer bond orders larger than 0.100000
B(  0-Si,  1-Si) :   0.8488 B(  0-Si,  6-N ) :   0.5407 B(  0-Si,  7-H ) :   0.8693
B(  0-Si,  8-H ) :   0.8825 B(  1-Si,  2-N ) :   0.5407 B(  1-Si,  4-H ) :   0.8693
B(  1-Si,  5-H ) :   0.8825 B(  2-N ,  3-O ) :   1.7055 B(  6-N ,  9-O ) :   1.7055

MP2 TOTAL ENERGY:     -839.954281366 Eh
FINAL SINGLE POINT ENERGY      -839.954281366490

DIPOLE MOMENT
-------------
                                X             Y             Z
Electronic contribution:     -0.00000       3.71391       0.00000
Nuclear contribution   :      0.00000      -5.31371       0.00000
                        -----------------------------------------
Total Dipole Moment    :     -0.00000      -1.59979       0.00000
                        -----------------------------------------
Magnitude (a.u.)       :      1.59979
Magnitude (Debye)      :      4.06635

Rotational constants in cm-1:     0.102149     0.058681     0.047428
Rotational constants in MHz :  3062.335961  1759.197955  1421.847749

                             ****ORCA TERMINATED NORMALLY****
TOTAL RUN TIME: 0 days 0 hours 7 minutes 30 seconds 726 msec
