                         Program Version 5.0.4 -  RELEASE  -
|  1> ! ri-mp2 aug-cc-pvdz aug-cc-pvdz/c tightscf
|  2> %pal nprocs 16 end
|  3> %maxcore 3800
|  4> %base "DZ_P-F_16_AB"
|  5> %scf
|  6> STABPerform true
|  7> STABRestartUHFifUnstable true
|  8> end
|  9>
| 10> *xyz 0 1
| 11> F         2.478123   -0.970305   -0.652059
| 12> P         1.050120   -1.706536   -0.624226
| 13> C         0.648921   -1.566861    1.132910
| 14> C         0.059384   -0.440550    0.323214
| 15> C         0.687203    0.909581    0.487812
| 16> O         1.316638    1.245485    1.451632
| 17> O         0.498313    1.674561   -0.583736
| 18> C         1.047885    2.990321   -0.509718
| 19> C        -1.396047   -0.560359    0.057819
| 20> O        -1.931262   -1.626732   -0.111710
| 21> O        -2.039523    0.601969    0.053430
| 22> C        -3.444240    0.533711   -0.203301
| 23> H         1.452821   -1.268913    1.793486
| 24> H        -0.050921   -2.288388    1.531222
| 25> H         2.126697    2.941697   -0.375310
| 26> H         0.608860    3.537127    0.322803
| 27> H         0.799717    3.465850   -1.453145
| 28> H        -3.940047   -0.063617    0.559191
| 29> H        -3.796054    1.559843   -0.176054
| 30> H        -3.627946    0.089865   -1.179618
| 31> *
| 32>
| 33> $new_job
| 34> ! ri-mp2 aug-cc-pvtz aug-cc-pvtz/c tightscf
| 35> %pal nprocs 16 end
| 36> %maxcore 3800
| 37> %base "TZ_P-F_16_AB"
| 38>
| 39> *xyz 0 1
| 40> F         2.478123   -0.970305   -0.652059
| 41> P         1.050120   -1.706536   -0.624226
| 42> C         0.648921   -1.566861    1.132910
| 43> C         0.059384   -0.440550    0.323214
| 44> C         0.687203    0.909581    0.487812
| 45> O         1.316638    1.245485    1.451632
| 46> O         0.498313    1.674561   -0.583736
| 47> C         1.047885    2.990321   -0.509718
| 48> C        -1.396047   -0.560359    0.057819
| 49> O        -1.931262   -1.626732   -0.111710
| 50> O        -2.039523    0.601969    0.053430
| 51> C        -3.444240    0.533711   -0.203301
| 52> H         1.452821   -1.268913    1.793486
| 53> H        -0.050921   -2.288388    1.531222
| 54> H         2.126697    2.941697   -0.375310
| 55> H         0.608860    3.537127    0.322803
| 56> H         0.799717    3.465850   -1.453145
| 57> H        -3.940047   -0.063617    0.559191
| 58> H        -3.796054    1.559843   -0.176054
| 59> H        -3.627946    0.089865   -1.179618
| 60> *
| 61>
| 62> $new_job
| 63> ! ri-mp2 aug-cc-pvqz aug-cc-pvqz/c tightscf
| 64> %pal nprocs 16 end
| 65> %maxcore 3800
| 66> %base "QZ_P-F_16_AB"
| 67>
| 68> *xyz 0 1
| 69> F         2.478123   -0.970305   -0.652059
| 70> P         1.050120   -1.706536   -0.624226
| 71> C         0.648921   -1.566861    1.132910
| 72> C         0.059384   -0.440550    0.323214
| 73> C         0.687203    0.909581    0.487812
| 74> O         1.316638    1.245485    1.451632
| 75> O         0.498313    1.674561   -0.583736
| 76> C         1.047885    2.990321   -0.509718
| 77> C        -1.396047   -0.560359    0.057819
| 78> O        -1.931262   -1.626732   -0.111710
| 79> O        -2.039523    0.601969    0.053430
| 80> C        -3.444240    0.533711   -0.203301
| 81> H         1.452821   -1.268913    1.793486
| 82> H        -0.050921   -2.288388    1.531222
| 83> H         2.126697    2.941697   -0.375310
| 84> H         0.608860    3.537127    0.322803
| 85> H         0.799717    3.465850   -1.453145
| 86> H        -3.940047   -0.063617    0.559191
| 87> H        -3.796054    1.559843   -0.176054
| 88> H        -3.627946    0.089865   -1.179618
| 89> *
| 90>
| 91>
| 92>
| 93>
| 94>                          ****END OF INPUT****
 Total Charge           Charge          ....    0
 Multiplicity           Mult            ....    1
 Number of Electrons    NEL             ....  100
MP2 TOTAL ENERGY:     -973.531669865 Eh
FINAL SINGLE POINT ENERGY      -973.531669865310
MP2 TOTAL ENERGY:     -974.118763714 Eh
FINAL SINGLE POINT ENERGY      -974.118763713829

CARTESIAN COORDINATES (ANGSTROEM)
---------------------------------
  F      2.478123   -0.970305   -0.652059
  P      1.050120   -1.706536   -0.624226
  C      0.648921   -1.566861    1.132910
  C      0.059384   -0.440550    0.323214
  C      0.687203    0.909581    0.487812
  O      1.316638    1.245485    1.451632
  O      0.498313    1.674561   -0.583736
  C      1.047885    2.990321   -0.509718
  C     -1.396047   -0.560359    0.057819
  O     -1.931262   -1.626732   -0.111710
  O     -2.039523    0.601969    0.053430
  C     -3.444240    0.533711   -0.203301
  H      1.452821   -1.268913    1.793486
  H     -0.050921   -2.288388    1.531222
  H      2.126697    2.941697   -0.375310
  H      0.608860    3.537127    0.322803
  H      0.799717    3.465850   -1.453145
  H     -3.940047   -0.063617    0.559191
  H     -3.796054    1.559843   -0.176054
  H     -3.627946    0.089865   -1.179618

 Multiplicity           Mult            ....    1
 Number of Electrons    NEL             ....  100
 Basis Dimension        Dim             .... 1332

ORBITAL ENERGIES
----------------

  NO   OCC          E(Eh)            E(eV)
   0   2.0000     -80.026210     -2177.6239
   1   2.0000     -26.307555      -715.8650
   2   2.0000     -20.617265      -561.0243
   3   2.0000     -20.608404      -560.7832
   4   2.0000     -20.553397      -559.2864
   5   2.0000     -20.551981      -559.2478
   6   2.0000     -11.399722      -310.2022
   7   2.0000     -11.393274      -310.0268
   8   2.0000     -11.294543      -307.3401
   9   2.0000     -11.288156      -307.1663
  10   2.0000     -11.281915      -306.9965
  11   2.0000     -11.258906      -306.3704
  12   2.0000      -7.560023      -205.7187
  13   2.0000      -5.453388      -148.3942
  14   2.0000      -5.451917      -148.3542
  15   2.0000      -5.451425      -148.3408
  16   2.0000      -1.615404       -43.9574
  17   2.0000      -1.486590       -40.4522
  18   2.0000      -1.475464       -40.1494
  19   2.0000      -1.379143       -37.5284
  20   2.0000      -1.373768       -37.3821
  21   2.0000      -1.149917       -31.2908
  22   2.0000      -1.010393       -27.4942
  23   2.0000      -0.989774       -26.9331
  24   2.0000      -0.901135       -24.5211
  25   2.0000      -0.829325       -22.5671
  26   2.0000      -0.822278       -22.3753
  27   2.0000      -0.776602       -21.1324
  28   2.0000      -0.759857       -20.6768
  29   2.0000      -0.722496       -19.6601
  30   2.0000      -0.697498       -18.9799
  31   2.0000      -0.692523       -18.8445
  32   2.0000      -0.687697       -18.7132
  33   2.0000      -0.682096       -18.5608
  34   2.0000      -0.676143       -18.3988
  35   2.0000      -0.671635       -18.2761
  36   2.0000      -0.630377       -17.1534
  37   2.0000      -0.618707       -16.8359
  38   2.0000      -0.583002       -15.8643
  39   2.0000      -0.570822       -15.5329
  40   2.0000      -0.557575       -15.1724
  41   2.0000      -0.548888       -14.9360
  42   2.0000      -0.537277       -14.6201
  43   2.0000      -0.533282       -14.5113
  44   2.0000      -0.492166       -13.3925
  45   2.0000      -0.479416       -13.0456
  46   2.0000      -0.469156       -12.7664
  47   2.0000      -0.457335       -12.4447
  48   2.0000      -0.411324       -11.1927
  49   2.0000      -0.401169       -10.9164
  50   0.0000       0.021991         0.5984
  51   0.0000       0.029395         0.7999
  52   0.0000       0.032342         0.8801
  53   0.0000       0.036139         0.9834
  54   0.0000       0.044661         1.2153

MULLIKEN ATOMIC CHARGES
-----------------------
   0 F :   -0.766885
   1 P :    1.246479
   2 C :   -0.920465
   3 C :   -0.572426
   4 C :    1.729453
   5 O :   -0.946034
   6 O :   -0.769696
   7 C :   -0.832477
   8 C :    1.425951
   9 O :   -0.917407
  10 O :   -0.768103
  11 C :   -0.796901
  12 H :    0.314694
  13 H :    0.375795
  14 H :    0.330195
  15 H :    0.363364
  16 H :    0.426596
  17 H :    0.341608
  18 H :    0.402181
  19 H :    0.334080
Sum of atomic charges:    0.0000000

LOEWDIN ATOMIC CHARGES
----------------------
   0 F :    0.304505
   1 P :    0.581750
   2 C :    0.337024
   3 C :   -0.622591
   4 C :   -1.199199
   5 O :    0.751659
   6 O :    0.848412
   7 C :    0.586550
   8 C :   -1.188412
   9 O :    0.742470
  10 O :    0.857831
  11 C :    0.593861
  12 H :   -0.354016
  13 H :   -0.350342
  14 H :   -0.314179
  15 H :   -0.312341
  16 H :   -0.319290
  17 H :   -0.312777
  18 H :   -0.318713
  19 H :   -0.312202

  Mayer bond orders larger than 0.100000
B(  0-F ,  1-P ) :   0.4742 B(  0-F ,  4-C ) :  -0.1142 B(  1-P ,  2-C ) :   1.0032
B(  1-P ,  3-C ) :   0.4003 B(  1-P ,  8-C ) :   0.1097 B(  2-C ,  3-C ) :   1.0099
B(  2-C , 12-H ) :   0.9032 B(  2-C , 13-H ) :   0.9020 B(  3-C ,  4-C ) :   1.0387
B(  3-C ,  5-O ) :   0.2801 B(  3-C ,  8-C ) :   1.2322 B(  3-C ,  9-O ) :   0.3395
B(  4-C ,  5-O ) :   0.8440 B(  4-C ,  6-O ) :   0.8314 B(  4-C ,  7-C ) :  -0.1273
B(  5-O ,  6-O ) :   0.1188 B(  6-O ,  7-C ) :   0.9640 B(  7-C , 14-H ) :   0.9055
B(  7-C , 15-H ) :   0.8703 B(  7-C , 16-H ) :   0.8410 B(  8-C ,  9-O ) :   0.9960
B(  8-C , 10-O ) :   0.8466 B(  8-C , 11-C ) :  -0.1529 B(  9-O , 10-O ) :   0.1284
B( 10-O , 11-C ) :   0.9306 B( 11-C , 17-H ) :   0.8947 B( 11-C , 18-H ) :   0.8650
B( 11-C , 19-H ) :   0.8986

MP2 TOTAL ENERGY:     -974.309657716 Eh
FINAL SINGLE POINT ENERGY      -974.309657716134

DIPOLE MOMENT
-------------
                                X             Y             Z
Electronic contribution:      8.91074      -9.62209      -2.45800
Nuclear contribution   :     -9.58720      10.24374       2.20011
                        -----------------------------------------
Total Dipole Moment    :     -0.67646       0.62166      -0.25789
                        -----------------------------------------
Magnitude (a.u.)       :      0.95424
Magnitude (Debye)      :      2.42548

Rotational constants in cm-1:     0.032641     0.026272     0.017302
Rotational constants in MHz :   978.538929   787.628828   518.712009

                             ****ORCA TERMINATED NORMALLY****
TOTAL RUN TIME: 0 days 9 hours 23 minutes 16 seconds 718 msec
