                         Program Version 5.0.4 -  RELEASE  -
|  1> ! ri-mp2 aug-cc-pvdz aug-cc-pvdz/c tightscf
|  2> %pal nprocs 16 end
|  3> %maxcore 3800
|  4> %base "DZ_Si-Cl_36_AB"
|  5> %scf
|  6> STABPerform true
|  7> STABRestartUHFifUnstable true
|  8> end
|  9>
| 10> *xyz 0 1
| 11> Si        -0.462340   -0.000001    0.000000
| 12> C         1.460562   -0.000016    0.000039
| 13> Cl        -1.077828    1.286029    1.426296
| 14> Cl        -1.077844   -1.878231    0.400535
| 15> Cl        -1.077709    0.592236   -1.826907
| 16> F         1.950994    1.221523   -0.259993
| 17> F         1.950995   -0.835983   -0.927827
| 18> F         1.950996   -0.385593    1.187937
| 19> *
| 20>
| 21> $new_job
| 22> ! ri-mp2 aug-cc-pvtz aug-cc-pvtz/c tightscf
| 23> %pal nprocs 16 end
| 24> %maxcore 3800
| 25> %base "TZ_Si-Cl_36_AB"
| 26>
| 27> *xyz 0 1
| 28> Si        -0.462340   -0.000001    0.000000
| 29> C         1.460562   -0.000016    0.000039
| 30> Cl        -1.077828    1.286029    1.426296
| 31> Cl        -1.077844   -1.878231    0.400535
| 32> Cl        -1.077709    0.592236   -1.826907
| 33> F         1.950994    1.221523   -0.259993
| 34> F         1.950995   -0.835983   -0.927827
| 35> F         1.950996   -0.385593    1.187937
| 36> *
| 37>
| 38> $new_job
| 39> ! ri-mp2 aug-cc-pvqz aug-cc-pvqz/c tightscf
| 40> %pal nprocs 16 end
| 41> %maxcore 3800
| 42> %base "QZ_Si-Cl_36_AB"
| 43>
| 44> *xyz 0 1
| 45> Si        -0.462340   -0.000001    0.000000
| 46> C         1.460562   -0.000016    0.000039
| 47> Cl        -1.077828    1.286029    1.426296
| 48> Cl        -1.077844   -1.878231    0.400535
| 49> Cl        -1.077709    0.592236   -1.826907
| 50> F         1.950994    1.221523   -0.259993
| 51> F         1.950995   -0.835983   -0.927827
| 52> F         1.950996   -0.385593    1.187937
| 53> *
| 54>
| 55>
| 56>
| 57>
| 58>                          ****END OF INPUT****
 Total Charge           Charge          ....    0
 Multiplicity           Mult            ....    1
 Number of Electrons    NEL             ....   98
MP2 TOTAL ENERGY:    -2005.100662700 Eh
FINAL SINGLE POINT ENERGY     -2005.100662699782
MP2 TOTAL ENERGY:    -2005.605237322 Eh
FINAL SINGLE POINT ENERGY     -2005.605237322411

CARTESIAN COORDINATES (ANGSTROEM)
---------------------------------
  Si    -0.462340   -0.000001    0.000000
  C      1.460562   -0.000016    0.000039
  Cl    -1.077828    1.286029    1.426296
  Cl    -1.077844   -1.878231    0.400535
  Cl    -1.077709    0.592236   -1.826907
  F      1.950994    1.221523   -0.259993
  F      1.950995   -0.835983   -0.927827
  F      1.950996   -0.385593    1.187937

 Multiplicity           Mult            ....    1
 Number of Electrons    NEL             ....   98
 Basis Dimension        Dim             ....  656

ORBITAL ENERGIES
----------------

  NO   OCC          E(Eh)            E(eV)
   0   2.0000    -104.870964     -2853.6840
   1   2.0000    -104.870964     -2853.6840
   2   2.0000    -104.870963     -2853.6840
   3   2.0000     -68.928745     -1875.6465
   4   2.0000     -26.349171      -716.9974
   5   2.0000     -26.349171      -716.9974
   6   2.0000     -26.349141      -716.9966
   7   2.0000     -11.506878      -313.1181
   8   2.0000     -10.598497      -288.3998
   9   2.0000     -10.598497      -288.3998
  10   2.0000     -10.598488      -288.3995
  11   2.0000      -8.065277      -219.4674
  12   2.0000      -8.065277      -219.4673
  13   2.0000      -8.065275      -219.4673
  14   2.0000      -8.064006      -219.4328
  15   2.0000      -8.064005      -219.4327
  16   2.0000      -8.064004      -219.4327
  17   2.0000      -8.063992      -219.4324
  18   2.0000      -8.063991      -219.4324
  19   2.0000      -8.063990      -219.4323
  20   2.0000      -6.264775      -170.4732
  21   2.0000      -4.372277      -118.9757
  22   2.0000      -4.372277      -118.9757
  23   2.0000      -4.371139      -118.9447
  24   2.0000      -1.740231       -47.3541
  25   2.0000      -1.646135       -44.7936
  26   2.0000      -1.646134       -44.7936
  27   2.0000      -1.174611       -31.9628
  28   2.0000      -1.130303       -30.7571
  29   2.0000      -1.130303       -30.7571
  30   2.0000      -0.986527       -26.8448
  31   2.0000      -0.849437       -23.1144
  32   2.0000      -0.832368       -22.6499
  33   2.0000      -0.832368       -22.6499
  34   2.0000      -0.722276       -19.6541
  35   2.0000      -0.722275       -19.6541
  36   2.0000      -0.710010       -19.3203
  37   2.0000      -0.677905       -18.4467
  38   2.0000      -0.677904       -18.4467
  39   2.0000      -0.661689       -18.0055
  40   2.0000      -0.598651       -16.2901
  41   2.0000      -0.598651       -16.2901
  42   2.0000      -0.577092       -15.7035
  43   2.0000      -0.525590       -14.3020
  44   2.0000      -0.525590       -14.3020
  45   2.0000      -0.500772       -13.6267
  46   2.0000      -0.500772       -13.6267
  47   2.0000      -0.492720       -13.4076
  48   2.0000      -0.484814       -13.1925
  49   0.0000       0.033253         0.9049
  50   0.0000       0.041078         1.1178
  51   0.0000       0.041078         1.1178
  52   0.0000       0.041870         1.1393
  53   0.0000       0.074710         2.0330

MULLIKEN ATOMIC CHARGES
-----------------------
   0 Si:    2.103335
   1 C :    1.486221
   2 Cl:   -0.576608
   3 Cl:   -0.576609
   4 Cl:   -0.576605
   5 F :   -0.619910
   6 F :   -0.619910
   7 F :   -0.619914
Sum of atomic charges:   -0.0000000

LOEWDIN ATOMIC CHARGES
----------------------
   0 Si:   -2.479825
   1 C :   -2.316895
   2 Cl:    0.923233
   3 Cl:    0.923232
   4 Cl:    0.923237
   5 F :    0.675673
   6 F :    0.675672
   7 F :    0.675673

  Mayer bond orders larger than 0.100000
B(  0-Si,  1-C ) :   0.7572 B(  0-Si,  2-Cl) :   0.5965 B(  0-Si,  3-Cl) :   0.5965
B(  0-Si,  4-Cl) :   0.5965 B(  1-C ,  5-F ) :   0.5400 B(  1-C ,  6-F ) :   0.5400
B(  1-C ,  7-F ) :   0.5400

MP2 TOTAL ENERGY:    -2005.774163332 Eh
FINAL SINGLE POINT ENERGY     -2005.774163332119

DIPOLE MOMENT
-------------
                                X             Y             Z
Electronic contribution:      0.42478      -0.00001       0.00002
Nuclear contribution   :     -1.01902       0.00000      -0.00001
                        -----------------------------------------
Total Dipole Moment    :     -0.59424      -0.00000       0.00001
                        -----------------------------------------
Magnitude (a.u.)       :      0.59424
Magnitude (Debye)      :      1.51045

Rotational constants in cm-1:     0.035034     0.027514     0.027514
Rotational constants in MHz :  1050.303549   824.842421   824.840716

                             ****ORCA TERMINATED NORMALLY****
TOTAL RUN TIME: 0 days 0 hours 34 minutes 34 seconds 187 msec
