                         Program Version 5.0.4 -  RELEASE  -
|  1> ! ri-mp2 aug-cc-pvdz aug-cc-pvdz/c tightscf
|  2> %pal nprocs 16 end
|  3> %maxcore 3800
|  4> %base "DZ_P-C_31_AB"
|  5>
|  6> *xyz 0 1
|  7> P         1.931238   -0.374245   -0.483382
|  8> C         3.515784   -0.296872    0.446015
|  9> C        -0.669541   -0.218661    0.526914
| 10> C         1.784601    1.383871   -0.993548
| 11> H         2.529596    1.598962   -1.759610
| 12> H         1.929234    2.073337   -0.159055
| 13> H         0.800665    1.557853   -1.427148
| 14> H         3.528920    0.510492    1.181006
| 15> H         4.339521   -0.147540   -0.252101
| 16> H         3.686871   -1.243015    0.959783
| 17> C        -1.344045    0.977847    0.733314
| 18> C        -1.339149   -1.251287   -0.121536
| 19> C        -2.646013   -1.093411   -0.545405
| 20> C        -3.308667    0.104782   -0.332339
| 21> C        -2.652464    1.140593    0.308783
| 22> H        -3.160494    2.080210    0.482362
| 23> H        -0.837805    1.792371    1.236648
| 24> H        -3.150372   -1.909815   -1.045545
| 25> H        -4.331107    0.228602   -0.663320
| 26> H        -0.824350   -2.187234   -0.299519
| 27> C         0.757889   -0.381549    0.956476
| 28> H         0.894323   -1.338280    1.464766
| 29> H         1.036055    0.405854    1.660422
| 30> *
| 31>
| 32> $new_job
| 33> ! ri-mp2 aug-cc-pvtz aug-cc-pvtz/c tightscf
| 34> %pal nprocs 16 end
| 35> %maxcore 3800
| 36> %base "TZ_P-C_31_AB"
| 37>
| 38> *xyz 0 1
| 39> P         1.931238   -0.374245   -0.483382
| 40> C         3.515784   -0.296872    0.446015
| 41> C        -0.669541   -0.218661    0.526914
| 42> C         1.784601    1.383871   -0.993548
| 43> H         2.529596    1.598962   -1.759610
| 44> H         1.929234    2.073337   -0.159055
| 45> H         0.800665    1.557853   -1.427148
| 46> H         3.528920    0.510492    1.181006
| 47> H         4.339521   -0.147540   -0.252101
| 48> H         3.686871   -1.243015    0.959783
| 49> C        -1.344045    0.977847    0.733314
| 50> C        -1.339149   -1.251287   -0.121536
| 51> C        -2.646013   -1.093411   -0.545405
| 52> C        -3.308667    0.104782   -0.332339
| 53> C        -2.652464    1.140593    0.308783
| 54> H        -3.160494    2.080210    0.482362
| 55> H        -0.837805    1.792371    1.236648
| 56> H        -3.150372   -1.909815   -1.045545
| 57> H        -4.331107    0.228602   -0.663320
| 58> H        -0.824350   -2.187234   -0.299519
| 59> C         0.757889   -0.381549    0.956476
| 60> H         0.894323   -1.338280    1.464766
| 61> H         1.036055    0.405854    1.660422
| 62> *
| 63>
| 64> $new_job
| 65> ! ri-mp2 aug-cc-pvqz aug-cc-pvqz/c tightscf
| 66> %pal nprocs 16 end
| 67> %maxcore 3800
| 68> %base "QZ_P-C_31_AB"
| 69>
| 70> *xyz 0 1
| 71> P         1.931238   -0.374245   -0.483382
| 72> C         3.515784   -0.296872    0.446015
| 73> C        -0.669541   -0.218661    0.526914
| 74> C         1.784601    1.383871   -0.993548
| 75> H         2.529596    1.598962   -1.759610
| 76> H         1.929234    2.073337   -0.159055
| 77> H         0.800665    1.557853   -1.427148
| 78> H         3.528920    0.510492    1.181006
| 79> H         4.339521   -0.147540   -0.252101
| 80> H         3.686871   -1.243015    0.959783
| 81> C        -1.344045    0.977847    0.733314
| 82> C        -1.339149   -1.251287   -0.121536
| 83> C        -2.646013   -1.093411   -0.545405
| 84> C        -3.308667    0.104782   -0.332339
| 85> C        -2.652464    1.140593    0.308783
| 86> H        -3.160494    2.080210    0.482362
| 87> H        -0.837805    1.792371    1.236648
| 88> H        -3.150372   -1.909815   -1.045545
| 89> H        -4.331107    0.228602   -0.663320
| 90> H        -0.824350   -2.187234   -0.299519
| 91> C         0.757889   -0.381549    0.956476
| 92> H         0.894323   -1.338280    1.464766
| 93> H         1.036055    0.405854    1.660422
| 94> *
| 95>
| 96>
| 97>
| 98>
| 99>                          ****END OF INPUT****
 Total Charge           Charge          ....    0
 Multiplicity           Mult            ....    1
 Number of Electrons    NEL             ....   82
MP2 TOTAL ENERGY:     -690.559227353 Eh
FINAL SINGLE POINT ENERGY      -690.559227352875
MP2 TOTAL ENERGY:     -690.925028813 Eh
FINAL SINGLE POINT ENERGY      -690.925028813278

CARTESIAN COORDINATES (ANGSTROEM)
---------------------------------
  P      1.931238   -0.374245   -0.483382
  C      3.515784   -0.296872    0.446015
  C     -0.669541   -0.218661    0.526914
  C      1.784601    1.383871   -0.993548
  H      2.529596    1.598962   -1.759610
  H      1.929234    2.073337   -0.159055
  H      0.800665    1.557853   -1.427148
  H      3.528920    0.510492    1.181006
  H      4.339521   -0.147540   -0.252101
  H      3.686871   -1.243015    0.959783
  C     -1.344045    0.977847    0.733314
  C     -1.339149   -1.251287   -0.121536
  C     -2.646013   -1.093411   -0.545405
  C     -3.308667    0.104782   -0.332339
  C     -2.652464    1.140593    0.308783
  H     -3.160494    2.080210    0.482362
  H     -0.837805    1.792371    1.236648
  H     -3.150372   -1.909815   -1.045545
  H     -4.331107    0.228602   -0.663320
  H     -0.824350   -2.187234   -0.299519
  C      0.757889   -0.381549    0.956476
  H      0.894323   -1.338280    1.464766
  H      1.036055    0.405854    1.660422

 Multiplicity           Mult            ....    1
 Number of Electrons    NEL             ....   82
 Basis Dimension        Dim             .... 1402

ORBITAL ENERGIES
----------------

  NO   OCC          E(Eh)            E(eV)
   0   2.0000     -79.926985     -2174.9238
   1   2.0000     -11.239177      -305.8336
   2   2.0000     -11.230129      -305.5873
   3   2.0000     -11.229591      -305.5727
   4   2.0000     -11.227753      -305.5227
   5   2.0000     -11.226387      -305.4855
   6   2.0000     -11.225899      -305.4723
   7   2.0000     -11.224899      -305.4450
   8   2.0000     -11.218012      -305.2576
   9   2.0000     -11.214793      -305.1700
  10   2.0000      -7.468505      -203.2284
  11   2.0000      -5.362584      -145.9233
  12   2.0000      -5.362543      -145.9222
  13   2.0000      -5.361372      -145.8903
  14   2.0000      -1.159119       -31.5412
  15   2.0000      -1.058762       -28.8104
  16   2.0000      -1.014736       -27.6124
  17   2.0000      -1.003320       -27.3017
  18   2.0000      -0.935702       -25.4617
  19   2.0000      -0.927237       -25.2314
  20   2.0000      -0.827791       -22.5253
  21   2.0000      -0.802186       -21.8286
  22   2.0000      -0.719349       -19.5745
  23   2.0000      -0.691413       -18.8143
  24   2.0000      -0.641103       -17.4453
  25   2.0000      -0.632413       -17.2088
  26   2.0000      -0.593040       -16.1375
  27   2.0000      -0.586568       -15.9613
  28   2.0000      -0.584148       -15.8955
  29   2.0000      -0.580699       -15.8016
  30   2.0000      -0.552379       -15.0310
  31   2.0000      -0.548710       -14.9311
  32   2.0000      -0.540488       -14.7074
  33   2.0000      -0.515203       -14.0194
  34   2.0000      -0.493829       -13.4378
  35   2.0000      -0.487244       -13.2586
  36   2.0000      -0.454784       -12.3753
  37   2.0000      -0.453524       -12.3410
  38   2.0000      -0.341168        -9.2837
  39   2.0000      -0.329930        -8.9779
  40   2.0000      -0.319403        -8.6914
  41   0.0000       0.024887         0.6772
  42   0.0000       0.027406         0.7458
  43   0.0000       0.029486         0.8023
  44   0.0000       0.032883         0.8948
  45   0.0000       0.038838         1.0568

MULLIKEN ATOMIC CHARGES
-----------------------
   0 P :    0.669619
   1 C :   -1.238102
   2 C :    0.599218
   3 C :   -1.239428
   4 H :    0.347062
   5 H :    0.282716
   6 H :    0.370409
   7 H :    0.286073
   8 H :    0.356162
   9 H :    0.336870
  10 C :   -0.616503
  11 C :   -0.578297
  12 C :   -0.357488
  13 C :   -0.340821
  14 C :   -0.208993
  15 H :    0.233112
  16 H :    0.225667
  17 H :    0.237885
  18 H :    0.336693
  19 H :    0.283533
  20 C :   -0.507006
  21 H :    0.399691
  22 H :    0.121928
Sum of atomic charges:    0.0000000

LOEWDIN ATOMIC CHARGES
----------------------
   0 P :    0.976151
   1 C :    0.782722
   2 C :   -0.166622
   3 C :    0.786864
   4 H :   -0.352171
   5 H :   -0.341046
   6 H :   -0.357105
   7 H :   -0.347368
   8 H :   -0.357085
   9 H :   -0.355443
  10 C :    0.326788
  11 C :    0.320987
  12 C :    0.343312
  13 C :    0.333809
  14 C :    0.342213
  15 H :   -0.319889
  16 H :   -0.316185
  17 H :   -0.319414
  18 H :   -0.324078
  19 H :   -0.316533
  20 C :    0.356713
  21 H :   -0.340329
  22 H :   -0.356292

  Mayer bond orders larger than 0.100000
B(  0-P ,  1-C ) :   0.9032 B(  0-P ,  3-C ) :   0.9134 B(  0-P , 20-C ) :   0.6992
B(  1-C ,  7-H ) :   0.8959 B(  1-C ,  8-H ) :   0.8883 B(  1-C ,  9-H ) :   0.9013
B(  2-C , 10-C ) :   0.9266 B(  2-C , 11-C ) :   1.0715 B(  2-C , 12-C ) :  -0.3407
B(  2-C , 14-C ) :  -0.4502 B(  2-C , 20-C ) :   0.7338 B(  3-C ,  4-H ) :   0.9386
B(  3-C ,  5-H ) :   0.8776 B(  3-C ,  6-H ) :   0.8662 B( 10-C , 12-C ) :   0.1635
B( 10-C , 13-C ) :   0.1372 B( 10-C , 14-C ) :   1.3324 B( 10-C , 15-H ) :  -0.1646
B( 10-C , 16-H ) :   1.0195 B( 10-C , 20-C ) :  -0.2000 B( 11-C , 12-C ) :   1.3776
B( 11-C , 13-C ) :   0.1127 B( 11-C , 14-C ) :   0.1256 B( 11-C , 17-H ) :  -0.1562
B( 11-C , 19-H ) :   0.9580 B( 11-C , 20-C ) :  -0.2285 B( 12-C , 13-C ) :   1.1109
B( 12-C , 17-H ) :   1.1516 B( 13-C , 14-C ) :   1.1031 B( 13-C , 15-H ) :  -0.1078
B( 13-C , 17-H ) :  -0.1013 B( 13-C , 18-H ) :   0.9937 B( 14-C , 15-H ) :   1.1681
B( 20-C , 21-H ) :   0.8892 B( 20-C , 22-H ) :   1.0472

MP2 TOTAL ENERGY:     -691.037893864 Eh
FINAL SINGLE POINT ENERGY      -691.037893863804

DIPOLE MOMENT
-------------
                                X             Y             Z
Electronic contribution:     -4.46355      -3.47741      -1.52454
Nuclear contribution   :      4.65699       3.82353       1.86110
                        -----------------------------------------
Total Dipole Moment    :      0.19343       0.34612       0.33656
                        -----------------------------------------
Magnitude (a.u.)       :      0.52008
Magnitude (Debye)      :      1.32195

Rotational constants in cm-1:     0.091301     0.020546     0.019232
Rotational constants in MHz :  2737.139988   615.967834   576.547675

                             ****ORCA TERMINATED NORMALLY****
TOTAL RUN TIME: 0 days 1 hours 9 minutes 20 seconds 430 msec
