                         Program Version 5.0.4 -  RELEASE  -
|  1> ! ri-mp2 aug-cc-pvdz aug-cc-pvdz/c tightscf
|  2> %pal nprocs 16 end
|  3> %maxcore 3800
|  4> %base "DZ_Si-F_5_A"
|  5> %scf
|  6> STABPerform true
|  7> STABRestartUHFifUnstable true
|  8> end
|  9>
| 10> *xyz 0 2
| 11> C        -0.484664    0.019164    0.391246
| 12> Si         1.387772   -0.129859    0.001693
| 13> F        -0.998561    1.139400   -0.212358
| 14> H        -0.731024    0.086871    1.453592
| 15> F        -1.162571   -1.053760   -0.119307
| 16> H         2.092228    1.012647    0.625089
| 17> H         1.568165   -0.167231   -1.464883
| 18> *
| 19>
| 20> $new_job
| 21> ! ri-mp2 aug-cc-pvtz aug-cc-pvtz/c tightscf
| 22> %pal nprocs 16 end
| 23> %maxcore 3800
| 24> %base "TZ_Si-F_5_A"
| 25>
| 26> *xyz 0 2
| 27> C        -0.484664    0.019164    0.391246
| 28> Si         1.387772   -0.129859    0.001693
| 29> F        -0.998561    1.139400   -0.212358
| 30> H        -0.731024    0.086871    1.453592
| 31> F        -1.162571   -1.053760   -0.119307
| 32> H         2.092228    1.012647    0.625089
| 33> H         1.568165   -0.167231   -1.464883
| 34> *
| 35>
| 36> $new_job
| 37> ! ri-mp2 aug-cc-pvqz aug-cc-pvqz/c tightscf
| 38> %pal nprocs 16 end
| 39> %maxcore 3800
| 40> %base "QZ_Si-F_5_A"
| 41>
| 42> *xyz 0 2
| 43> C        -0.484664    0.019164    0.391246
| 44> Si         1.387772   -0.129859    0.001693
| 45> F        -0.998561    1.139400   -0.212358
| 46> H        -0.731024    0.086871    1.453592
| 47> F        -1.162571   -1.053760   -0.119307
| 48> H         2.092228    1.012647    0.625089
| 49> H         1.568165   -0.167231   -1.464883
| 50> *
| 51>
| 52>
| 53>
| 54>
| 55>                          ****END OF INPUT****
 Total Charge           Charge          ....    0
 Multiplicity           Mult            ....    2
 Number of Electrons    NEL             ....   41
MP2 TOTAL ENERGY:     -528.028047242 Eh
FINAL SINGLE POINT ENERGY      -528.028047242317
MP2 TOTAL ENERGY:     -528.260690271 Eh
FINAL SINGLE POINT ENERGY      -528.260690270552

CARTESIAN COORDINATES (ANGSTROEM)
---------------------------------
  C     -0.484664    0.019164    0.391246
  Si     1.387772   -0.129859    0.001693
  F     -0.998561    1.139400   -0.212358
  H     -0.731024    0.086871    1.453592
  F     -1.162571   -1.053760   -0.119307
  H      2.092228    1.012647    0.625089
  H      1.568165   -0.167231   -1.464883

 Multiplicity           Mult            ....    2
 Number of Electrons    NEL             ....   41
 Basis Dimension        Dim             ....  462

ORBITAL ENERGIES
----------------
                 SPIN UP ORBITALS
  NO   OCC          E(Eh)            E(eV)
   0   1.0000     -68.803501     -1872.2384
   1   1.0000     -26.306935      -715.8481
   2   1.0000     -26.306443      -715.8347
   3   1.0000     -11.394121      -310.0498
   4   1.0000      -6.154515      -167.4729
   5   1.0000      -4.267319      -116.1196
   6   1.0000      -4.257080      -115.8410
   7   1.0000      -4.257051      -115.8402
   8   1.0000      -1.653753       -45.0009
   9   1.0000      -1.595027       -43.4029
  10   1.0000      -0.958714       -26.0879
  11   1.0000      -0.786388       -21.3987
  12   1.0000      -0.767358       -20.8809
  13   1.0000      -0.748953       -20.3800
  14   1.0000      -0.686244       -18.6737
  15   1.0000      -0.666630       -18.1399
  16   1.0000      -0.629951       -17.1418
  17   1.0000      -0.600154       -16.3310
  18   1.0000      -0.511746       -13.9253
  19   1.0000      -0.472468       -12.8565
  20   1.0000      -0.360133        -9.7997
  21   0.0000       0.023264         0.6331
  22   0.0000       0.033826         0.9205
  23   0.0000       0.041737         1.1357
  24   0.0000       0.044504         1.2110
  25   0.0000       0.054985         1.4962

                 SPIN DOWN ORBITALS
  NO   OCC          E(Eh)            E(eV)
   0   1.0000     -68.797583     -1872.0774
   1   1.0000     -26.307110      -715.8529
   2   1.0000     -26.304918      -715.7932
   3   1.0000     -11.393500      -310.0329
   4   1.0000      -6.145389      -167.2245
   5   1.0000      -4.253119      -115.7333
   6   1.0000      -4.253086      -115.7323
   7   1.0000      -4.244241      -115.4917
   8   1.0000      -1.651994       -44.9530
   9   1.0000      -1.592944       -43.3462
  10   1.0000      -0.954288       -25.9675
  11   1.0000      -0.772701       -21.0263
  12   1.0000      -0.763101       -20.7650
  13   1.0000      -0.746036       -20.3007
  14   1.0000      -0.665808       -18.1175
  15   1.0000      -0.657196       -17.8832
  16   1.0000      -0.628664       -17.1068
  17   1.0000      -0.596611       -16.2346
  18   1.0000      -0.502797       -13.6818
  19   1.0000      -0.464685       -12.6447
  20   0.0000       0.013073         0.3557
  21   0.0000       0.027597         0.7509
  22   0.0000       0.034504         0.9389
  23   0.0000       0.042385         1.1534
  24   0.0000       0.055747         1.5169

MULLIKEN ATOMIC CHARGES AND SPIN POPULATIONS
--------------------------------------------
   0 C :    0.630401    0.007061
   1 Si:    0.672901    0.964246
   2 F :   -0.614317    0.011237
   3 H :    0.309194    0.000148
   4 F :   -0.610389   -0.005137
   5 H :   -0.200278    0.011212
   6 H :   -0.187513    0.011233
Sum of atomic charges         :   -0.0000000

LOEWDIN ATOMIC CHARGES AND SPIN POPULATIONS
-------------------------------------------
   0 C :   -1.183387    0.141232
   1 Si:    1.061588    0.556414
   2 F :    0.666869    0.025771
   3 H :   -0.498153    0.011462
   4 F :    0.666245    0.006454
   5 H :   -0.360052    0.130949
   6 H :   -0.353109    0.127718

  Mayer bond orders larger than 0.100000
B(  0-C ,  1-Si) :   0.8183 B(  0-C ,  2-F ) :   0.5463 B(  0-C ,  3-H ) :   0.8541
B(  0-C ,  4-F ) :   0.5846 B(  1-Si,  5-H ) :   0.9037 B(  1-Si,  6-H ) :   0.8987

MP2 TOTAL ENERGY:     -528.337210528 Eh
FINAL SINGLE POINT ENERGY      -528.337210528114

DIPOLE MOMENT
-------------
                                X             Y             Z
Electronic contribution:     -4.02644      -0.83358      -0.36409
Nuclear contribution   :      4.72677       0.81218       0.89348
                        -----------------------------------------
Total Dipole Moment    :      0.70033      -0.02140       0.52940
                        -----------------------------------------
Magnitude (a.u.)       :      0.87817
Magnitude (Debye)      :      2.23212

Rotational constants in cm-1:     0.307428     0.144918     0.108033
Rotational constants in MHz :  9216.474413  4344.541280  3238.739888

                             ****ORCA TERMINATED NORMALLY****
TOTAL RUN TIME: 0 days 0 hours 20 minutes 43 seconds 921 msec
