                         Program Version 5.0.4 -  RELEASE  -
|  1> ! ri-mp2 aug-cc-pvdz aug-cc-pvdz/c tightscf
|  2> %pal nprocs 16 end
|  3> %maxcore 3800
|  4> %base "DZ_S-S_32_AB"
|  5> %scf
|  6> STABPerform true
|  7> STABRestartUHFifUnstable true
|  8> end
|  9>
| 10> *xyz 0 1
| 11> S        -1.710228    0.044628   -0.593584
| 12> S        -0.470255   -0.241134    1.009138
| 13> C         1.215045   -0.055525    0.321539
| 14> C         1.480320    1.348867   -0.186848
| 15> H         0.856104    1.565073   -1.054858
| 16> H         2.522423    1.447092   -0.496044
| 17> H         1.275565    2.095285    0.579510
| 18> C         1.539784   -1.119617   -0.710332
| 19> H         1.811486   -0.231115    1.222152
| 20> H         0.899149   -1.010481   -1.585973
| 21> H         1.398655   -2.120462   -0.305519
| 22> H         2.575975   -1.020846   -1.039120
| 23> H        -1.862525    1.377198   -0.515157
| 24> *
| 25>
| 26> $new_job
| 27> ! ri-mp2 aug-cc-pvtz aug-cc-pvtz/c tightscf
| 28> %pal nprocs 16 end
| 29> %maxcore 3800
| 30> %base "TZ_S-S_32_AB"
| 31>
| 32> *xyz 0 1
| 33> S        -1.710228    0.044628   -0.593584
| 34> S        -0.470255   -0.241134    1.009138
| 35> C         1.215045   -0.055525    0.321539
| 36> C         1.480320    1.348867   -0.186848
| 37> H         0.856104    1.565073   -1.054858
| 38> H         2.522423    1.447092   -0.496044
| 39> H         1.275565    2.095285    0.579510
| 40> C         1.539784   -1.119617   -0.710332
| 41> H         1.811486   -0.231115    1.222152
| 42> H         0.899149   -1.010481   -1.585973
| 43> H         1.398655   -2.120462   -0.305519
| 44> H         2.575975   -1.020846   -1.039120
| 45> H        -1.862525    1.377198   -0.515157
| 46> *
| 47>
| 48> $new_job
| 49> ! ri-mp2 aug-cc-pvqz aug-cc-pvqz/c tightscf
| 50> %pal nprocs 16 end
| 51> %maxcore 3800
| 52> %base "QZ_S-S_32_AB"
| 53>
| 54> *xyz 0 1
| 55> S        -1.710228    0.044628   -0.593584
| 56> S        -0.470255   -0.241134    1.009138
| 57> C         1.215045   -0.055525    0.321539
| 58> C         1.480320    1.348867   -0.186848
| 59> H         0.856104    1.565073   -1.054858
| 60> H         2.522423    1.447092   -0.496044
| 61> H         1.275565    2.095285    0.579510
| 62> C         1.539784   -1.119617   -0.710332
| 63> H         1.811486   -0.231115    1.222152
| 64> H         0.899149   -1.010481   -1.585973
| 65> H         1.398655   -2.120462   -0.305519
| 66> H         2.575975   -1.020846   -1.039120
| 67> H        -1.862525    1.377198   -0.515157
| 68> *
| 69>
| 70>
| 71>
| 72>
| 73>                          ****END OF INPUT****
 Total Charge           Charge          ....    0
 Multiplicity           Mult            ....    1
 Number of Electrons    NEL             ....   58
MP2 TOTAL ENERGY:     -914.088052110 Eh
FINAL SINGLE POINT ENERGY      -914.088052109980
MP2 TOTAL ENERGY:     -914.311588193 Eh
FINAL SINGLE POINT ENERGY      -914.311588193305

CARTESIAN COORDINATES (ANGSTROEM)
---------------------------------
  S     -1.710228    0.044628   -0.593584
  S     -0.470255   -0.241134    1.009138
  C      1.215045   -0.055525    0.321539
  C      1.480320    1.348867   -0.186848
  H      0.856104    1.565073   -1.054858
  H      2.522423    1.447092   -0.496044
  H      1.275565    2.095285    0.579510
  C      1.539784   -1.119617   -0.710332
  H      1.811486   -0.231115    1.222152
  H      0.899149   -1.010481   -1.585973
  H      1.398655   -2.120462   -0.305519
  H      2.575975   -1.020846   -1.039120
  H     -1.862525    1.377198   -0.515157

 Multiplicity           Mult            ....    1
 Number of Electrons    NEL             ....   58
 Basis Dimension        Dim             ....  776

ORBITAL ENERGIES
----------------

  NO   OCC          E(Eh)            E(eV)
   0   2.0000     -91.976603     -2502.8106
   1   2.0000     -91.969744     -2502.6240
   2   2.0000     -11.268889      -306.6421
   3   2.0000     -11.223758      -305.4140
   4   2.0000     -11.220943      -305.3374
   5   2.0000      -8.977534      -244.2911
   6   2.0000      -8.970316      -244.0947
   7   2.0000      -6.658889      -181.1976
   8   2.0000      -6.657913      -181.1710
   9   2.0000      -6.657010      -181.1465
  10   2.0000      -6.651715      -181.0024
  11   2.0000      -6.650320      -180.9644
  12   2.0000      -6.649611      -180.9451
  13   2.0000      -1.110950       -30.2305
  14   2.0000      -1.020239       -27.7621
  15   2.0000      -0.945492       -25.7281
  16   2.0000      -0.885818       -24.1043
  17   2.0000      -0.767418       -20.8825
  18   2.0000      -0.638547       -17.3757
  19   2.0000      -0.612342       -16.6627
  20   2.0000      -0.583056       -15.8658
  21   2.0000      -0.563704       -15.3392
  22   2.0000      -0.542705       -14.7678
  23   2.0000      -0.510543       -13.8926
  24   2.0000      -0.500952       -13.6316
  25   2.0000      -0.472802       -12.8656
  26   2.0000      -0.450520       -12.2593
  27   2.0000      -0.368211       -10.0195
  28   2.0000      -0.357032        -9.7153
  29   0.0000       0.025092         0.6828
  30   0.0000       0.031655         0.8614
  31   0.0000       0.034426         0.9368
  32   0.0000       0.037948         1.0326
  33   0.0000       0.051691         1.4066

MULLIKEN ATOMIC CHARGES
-----------------------
   0 S :   -0.241851
   1 S :   -0.102810
   2 C :    0.106901
   3 C :   -0.949822
   4 H :    0.244195
   5 H :    0.308046
   6 H :    0.295792
   7 C :   -0.933634
   8 H :    0.313539
   9 H :    0.258933
  10 H :    0.304383
  11 H :    0.282784
  12 H :    0.113544
Sum of atomic charges:    0.0000000

LOEWDIN ATOMIC CHARGES
----------------------
   0 S :    1.053907
   1 S :    0.781240
   2 C :   -0.355948
   3 C :    0.804009
   4 H :   -0.326807
   5 H :   -0.282592
   6 H :   -0.299008
   7 C :    0.803203
   8 H :   -0.392004
   9 H :   -0.330643
  10 H :   -0.299776
  11 H :   -0.283378
  12 H :   -0.872203

  Mayer bond orders larger than 0.100000
B(  0-S ,  1-S ) :   1.1735 B(  0-S ,  2-C ) :  -0.1093 B(  0-S , 12-H ) :   0.9792
B(  1-S ,  2-C ) :   0.7931 B(  2-C ,  3-C ) :   0.8651 B(  2-C ,  7-C ) :   0.8547
B(  2-C ,  8-H ) :   0.7969 B(  3-C ,  4-H ) :   0.9497 B(  3-C ,  5-H ) :   0.9083
B(  3-C ,  6-H ) :   0.9588 B(  7-C ,  9-H ) :   0.9506 B(  7-C , 10-H ) :   0.9506
B(  7-C , 11-H ) :   0.9297

MP2 TOTAL ENERGY:     -914.381047576 Eh
FINAL SINGLE POINT ENERGY      -914.381047576270

DIPOLE MOMENT
-------------
                                X             Y             Z
Electronic contribution:     -8.90565      -1.72797       3.01048
Nuclear contribution   :      9.60684       2.12166      -3.22892
                        -----------------------------------------
Total Dipole Moment    :      0.70119       0.39369      -0.21843
                        -----------------------------------------
Magnitude (a.u.)       :      0.83329
Magnitude (Debye)      :      2.11805

Rotational constants in cm-1:     0.146457     0.066461     0.065622
Rotational constants in MHz :  4390.660656  1992.443519  1967.297572

                             ****ORCA TERMINATED NORMALLY****
TOTAL RUN TIME: 0 days 1 hours 2 minutes 22 seconds 654 msec
