                         Program Version 5.0.4 -  RELEASE  -
|  1> ! ri-mp2 aug-cc-pvdz aug-cc-pvdz/c tightscf
|  2> %pal nprocs 16 end
|  3> %maxcore 3800
|  4> %base "DZ_B-S_31_AB"
|  5>
|  6> *xyz 0 1
|  7> Cl         4.092345   -0.003206    0.001765
|  8> S        -2.987396    1.465209    0.315701
|  9> S        -2.815032   -1.551918   -0.351622
| 10> B        -1.983746    0.005717    0.002808
| 11> C        -0.429152    0.013586    0.003970
| 12> C         0.291897   -1.104673    0.427382
| 13> H        -0.236960   -1.984325    0.770508
| 14> C         1.673716   -1.116123    0.437897
| 15> H         2.219046   -1.984237    0.779254
| 16> C         2.359823    0.001842    0.000917
| 17> C         1.681679    1.124264   -0.438871
| 18> H         2.233607    1.986076   -0.785593
| 19> C         0.300302    1.123069   -0.426488
| 20> H        -0.218976    2.003261   -0.782954
| 21> H        -1.999616    2.302598    0.656898
| 22> H        -4.078982   -1.161909   -0.136284
| 23> *
| 24>
| 25> $new_job
| 26> ! ri-mp2 aug-cc-pvtz aug-cc-pvtz/c tightscf
| 27> %pal nprocs 16 end
| 28> %maxcore 3800
| 29> %base "TZ_B-S_31_AB"
| 30>
| 31> *xyz 0 1
| 32> Cl         4.092345   -0.003206    0.001765
| 33> S        -2.987396    1.465209    0.315701
| 34> S        -2.815032   -1.551918   -0.351622
| 35> B        -1.983746    0.005717    0.002808
| 36> C        -0.429152    0.013586    0.003970
| 37> C         0.291897   -1.104673    0.427382
| 38> H        -0.236960   -1.984325    0.770508
| 39> C         1.673716   -1.116123    0.437897
| 40> H         2.219046   -1.984237    0.779254
| 41> C         2.359823    0.001842    0.000917
| 42> C         1.681679    1.124264   -0.438871
| 43> H         2.233607    1.986076   -0.785593
| 44> C         0.300302    1.123069   -0.426488
| 45> H        -0.218976    2.003261   -0.782954
| 46> H        -1.999616    2.302598    0.656898
| 47> H        -4.078982   -1.161909   -0.136284
| 48> *
| 49>
| 50> $new_job
| 51> ! ri-mp2 aug-cc-pvqz aug-cc-pvqz/c tightscf
| 52> %pal nprocs 16 end
| 53> %maxcore 3800
| 54> %base "QZ_B-S_31_AB"
| 55>
| 56> *xyz 0 1
| 57> Cl         4.092345   -0.003206    0.001765
| 58> S        -2.987396    1.465209    0.315701
| 59> S        -2.815032   -1.551918   -0.351622
| 60> B        -1.983746    0.005717    0.002808
| 61> C        -0.429152    0.013586    0.003970
| 62> C         0.291897   -1.104673    0.427382
| 63> H        -0.236960   -1.984325    0.770508
| 64> C         1.673716   -1.116123    0.437897
| 65> H         2.219046   -1.984237    0.779254
| 66> C         2.359823    0.001842    0.000917
| 67> C         1.681679    1.124264   -0.438871
| 68> H         2.233607    1.986076   -0.785593
| 69> C         0.300302    1.123069   -0.426488
| 70> H        -0.218976    2.003261   -0.782954
| 71> H        -1.999616    2.302598    0.656898
| 72> H        -4.078982   -1.161909   -0.136284
| 73> *
| 74>
| 75>
| 76>
| 77>
| 78>                          ****END OF INPUT****
 Total Charge           Charge          ....    0
 Multiplicity           Mult            ....    1
 Number of Electrons    NEL             ....   96
MP2 TOTAL ENERGY:    -1511.385944801 Eh
FINAL SINGLE POINT ENERGY     -1511.385944800844
MP2 TOTAL ENERGY:    -1511.767438834 Eh
FINAL SINGLE POINT ENERGY     -1511.767438833744

CARTESIAN COORDINATES (ANGSTROEM)
---------------------------------
  Cl     4.092345   -0.003206    0.001765
  S     -2.987396    1.465209    0.315701
  S     -2.815032   -1.551918   -0.351622
  B     -1.983746    0.005717    0.002808
  C     -0.429152    0.013586    0.003970
  C      0.291897   -1.104673    0.427382
  H     -0.236960   -1.984325    0.770508
  C      1.673716   -1.116123    0.437897
  H      2.219046   -1.984237    0.779254
  C      2.359823    0.001842    0.000917
  C      1.681679    1.124264   -0.438871
  H      2.233607    1.986076   -0.785593
  C      0.300302    1.123069   -0.426488
  H     -0.218976    2.003261   -0.782954
  H     -1.999616    2.302598    0.656898
  H     -4.078982   -1.161909   -0.136284

 Multiplicity           Mult            ....    1
 Number of Electrons    NEL             ....   96
 Basis Dimension        Dim             .... 1088

ORBITAL ENERGIES
----------------

  NO   OCC          E(Eh)            E(eV)
   0   2.0000    -104.847066     -2853.0337
   1   2.0000     -91.962016     -2502.4137
   2   2.0000     -91.960024     -2502.3595
   3   2.0000     -11.313030      -307.8432
   4   2.0000     -11.258465      -306.3584
   5   2.0000     -11.257048      -306.3198
   6   2.0000     -11.253161      -306.2141
   7   2.0000     -11.252391      -306.1931
   8   2.0000     -11.237429      -305.7860
   9   2.0000     -10.572683      -287.6973
  10   2.0000      -8.967221      -244.0105
  11   2.0000      -8.965239      -243.9565
  12   2.0000      -8.039835      -218.7750
  13   2.0000      -8.038057      -218.7266
  14   2.0000      -8.038028      -218.7259
  15   2.0000      -7.657121      -208.3608
  16   2.0000      -6.648800      -180.9231
  17   2.0000      -6.647803      -180.8959
  18   2.0000      -6.647368      -180.8841
  19   2.0000      -6.646805      -180.8688
  20   2.0000      -6.645812      -180.8417
  21   2.0000      -6.645371      -180.8297
  22   2.0000      -1.203790       -32.7568
  23   2.0000      -1.131214       -30.7819
  24   2.0000      -1.043720       -28.4011
  25   2.0000      -1.031871       -28.0786
  26   2.0000      -0.993794       -27.0425
  27   2.0000      -0.968205       -26.3462
  28   2.0000      -0.855808       -23.2877
  29   2.0000      -0.831671       -22.6309
  30   2.0000      -0.728331       -19.8189
  31   2.0000      -0.665124       -18.0989
  32   2.0000      -0.661131       -17.9903
  33   2.0000      -0.635364       -17.2891
  34   2.0000      -0.612145       -16.6573
  35   2.0000      -0.598432       -16.2842
  36   2.0000      -0.564419       -15.3586
  37   2.0000      -0.554241       -15.0817
  38   2.0000      -0.523580       -14.2473
  39   2.0000      -0.519354       -14.1323
  40   2.0000      -0.482815       -13.1381
  41   2.0000      -0.466513       -12.6945
  42   2.0000      -0.462207       -12.5773
  43   2.0000      -0.455288       -12.3890
  44   2.0000      -0.434858       -11.8331
  45   2.0000      -0.375552       -10.2193
  46   2.0000      -0.361980        -9.8500
  47   2.0000      -0.343204        -9.3391
  48   0.0000       0.020912         0.5691
  49   0.0000       0.028014         0.7623
  50   0.0000       0.032023         0.8714
  51   0.0000       0.035678         0.9708
  52   0.0000       0.041767         1.1365

MULLIKEN ATOMIC CHARGES
-----------------------
   0 Cl:   -0.358414
   1 S :   -0.144851
   2 S :   -0.091237
   3 B :    0.556836
   4 C :    0.397324
   5 C :   -0.466659
   6 H :    0.192890
   7 C :   -0.105087
   8 H :    0.413261
   9 C :   -0.462462
  10 C :   -0.094464
  11 H :    0.413517
  12 C :   -0.426016
  13 H :    0.183834
  14 H :   -0.005390
  15 H :   -0.003082
Sum of atomic charges:   -0.0000000

LOEWDIN ATOMIC CHARGES
----------------------
   0 Cl:    1.213024
   1 S :    1.711837
   2 S :    1.699482
   3 B :   -1.662218
   4 C :   -0.115437
   5 C :    0.274051
   6 H :   -0.351378
   7 C :    0.219142
   8 H :   -0.351707
   9 C :   -0.859001
  10 C :    0.218764
  11 H :   -0.352217
  12 C :    0.278758
  13 H :   -0.346088
  14 H :   -0.781492
  15 H :   -0.795522

  Mayer bond orders larger than 0.100000
B(  0-Cl,  7-C ) :  -0.2038 B(  0-Cl,  9-C ) :   1.1061 B(  0-Cl, 10-C ) :  -0.2031
B(  1-S ,  3-B ) :   1.0263 B(  1-S , 14-H ) :   1.0676 B(  2-S ,  3-B ) :   1.0293
B(  2-S , 15-H ) :   1.0948 B(  3-B ,  4-C ) :   0.9676 B(  4-C ,  5-C ) :   0.9384
B(  4-C ,  7-C ) :  -0.3278 B(  4-C ,  9-C ) :  -0.1018 B(  4-C , 10-C ) :  -0.3358
B(  4-C , 12-C ) :   0.8707 B(  4-C , 13-H ) :  -0.1028 B(  5-C ,  6-H ) :   1.0538
B(  5-C ,  7-C ) :   1.3083 B(  5-C ,  8-H ) :  -0.1273 B(  5-C , 10-C ) :   0.1274
B(  7-C ,  8-H ) :   0.8861 B(  7-C ,  9-C ) :   1.0969 B(  7-C , 12-C ) :   0.1144
B(  9-C , 10-C ) :   1.1018 B( 10-C , 11-H ) :   0.8890 B( 10-C , 12-C ) :   1.3009
B( 11-H , 12-C ) :  -0.1231 B( 12-C , 13-H ) :   1.0764

MP2 TOTAL ENERGY:    -1511.891831625 Eh
FINAL SINGLE POINT ENERGY     -1511.891831624583

DIPOLE MOMENT
-------------
                                X             Y             Z
Electronic contribution:      5.70425      -0.84222      -0.34103
Nuclear contribution   :     -5.89107       1.11347       0.47647
                        -----------------------------------------
Total Dipole Moment    :     -0.18681       0.27125       0.13545
                        -----------------------------------------
Magnitude (a.u.)       :      0.35612
Magnitude (Debye)      :      0.90518

Rotational constants in cm-1:     0.068054     0.012350     0.010705
Rotational constants in MHz :  2040.206389   370.258189   320.930937

                             ****ORCA TERMINATED NORMALLY****
TOTAL RUN TIME: 0 days 0 hours 40 minutes 28 seconds 177 msec
