                         Program Version 5.0.4 -  RELEASE  -
|  1> ! ri-mp2 aug-cc-pvdz aug-cc-pvdz/c tightscf
|  2> %pal nprocs 16 end
|  3> %maxcore 3800
|  4> %base "DZ_Si-Cl_57_A"
|  5> %scf
|  6> STABPerform true
|  7> STABRestartUHFifUnstable true
|  8> end
|  9>
| 10> *xyz 0 2
| 11> Si         0.859005    0.147781    0.542584
| 12> C        -0.782534   -0.685550   -0.086988
| 13> Cl         2.379304   -1.169796    0.210703
| 14> Cl         1.166004    1.827053   -0.617680
| 15> N        -1.965838   -0.080981    0.153690
| 16> C        -2.098239    1.180383    0.840403
| 17> O        -0.659165   -1.735079   -0.683252
| 18> H        -1.172409    1.444179    1.348964
| 19> H        -2.881381    1.108187    1.596902
| 20> H        -2.352239    1.986946    0.148703
| 21> C        -3.182804   -0.651752   -0.387709
| 22> H        -3.903992   -0.825517    0.412937
| 23> H        -2.941307   -1.593140   -0.870385
| 24> H        -3.629330    0.026056   -1.118738
| 25> *
| 26>
| 27> $new_job
| 28> ! ri-mp2 aug-cc-pvtz aug-cc-pvtz/c tightscf
| 29> %pal nprocs 16 end
| 30> %maxcore 3800
| 31> %base "TZ_Si-Cl_57_A"
| 32>
| 33> *xyz 0 2
| 34> Si         0.859005    0.147781    0.542584
| 35> C        -0.782534   -0.685550   -0.086988
| 36> Cl         2.379304   -1.169796    0.210703
| 37> Cl         1.166004    1.827053   -0.617680
| 38> N        -1.965838   -0.080981    0.153690
| 39> C        -2.098239    1.180383    0.840403
| 40> O        -0.659165   -1.735079   -0.683252
| 41> H        -1.172409    1.444179    1.348964
| 42> H        -2.881381    1.108187    1.596902
| 43> H        -2.352239    1.986946    0.148703
| 44> C        -3.182804   -0.651752   -0.387709
| 45> H        -3.903992   -0.825517    0.412937
| 46> H        -2.941307   -1.593140   -0.870385
| 47> H        -3.629330    0.026056   -1.118738
| 48> *
| 49>
| 50> $new_job
| 51> ! ri-mp2 aug-cc-pvqz aug-cc-pvqz/c tightscf
| 52> %pal nprocs 16 end
| 53> %maxcore 3800
| 54> %base "QZ_Si-Cl_57_A"
| 55>
| 56> *xyz 0 2
| 57> Si         0.859005    0.147781    0.542584
| 58> C        -0.782534   -0.685550   -0.086988
| 59> Cl         2.379304   -1.169796    0.210703
| 60> Cl         1.166004    1.827053   -0.617680
| 61> N        -1.965838   -0.080981    0.153690
| 62> C        -2.098239    1.180383    0.840403
| 63> O        -0.659165   -1.735079   -0.683252
| 64> H        -1.172409    1.444179    1.348964
| 65> H        -2.881381    1.108187    1.596902
| 66> H        -2.352239    1.986946    0.148703
| 67> C        -3.182804   -0.651752   -0.387709
| 68> H        -3.903992   -0.825517    0.412937
| 69> H        -2.941307   -1.593140   -0.870385
| 70> H        -3.629330    0.026056   -1.118738
| 71> *
| 72>
| 73>
| 74>
| 75>
| 76>                          ****END OF INPUT****
 Total Charge           Charge          ....    0
 Multiplicity           Mult            ....    2
 Number of Electrons    NEL             ....   87
MP2 TOTAL ENERGY:    -1455.623868952 Eh
FINAL SINGLE POINT ENERGY     -1455.623868951503
MP2 TOTAL ENERGY:    -1455.997814150 Eh
FINAL SINGLE POINT ENERGY     -1455.997814149824

CARTESIAN COORDINATES (ANGSTROEM)
---------------------------------
  Si     0.859005    0.147781    0.542584
  C     -0.782534   -0.685550   -0.086988
  Cl     2.379304   -1.169796    0.210703
  Cl     1.166004    1.827053   -0.617680
  N     -1.965838   -0.080981    0.153690
  C     -2.098239    1.180383    0.840403
  O     -0.659165   -1.735079   -0.683252
  H     -1.172409    1.444179    1.348964
  H     -2.881381    1.108187    1.596902
  H     -2.352239    1.986946    0.148703
  C     -3.182804   -0.651752   -0.387709
  H     -3.903992   -0.825517    0.412937
  H     -2.941307   -1.593140   -0.870385
  H     -3.629330    0.026056   -1.118738

 Multiplicity           Mult            ....    2
 Number of Electrons    NEL             ....   87
 Basis Dimension        Dim             ....  928

ORBITAL ENERGIES
----------------
                 SPIN UP ORBITALS
  NO   OCC          E(Eh)            E(eV)
   0   1.0000    -104.844763     -2852.9710
   1   1.0000    -104.838955     -2852.8130
   2   1.0000     -68.875772     -1874.2050
   3   1.0000     -20.535596      -558.8020
   4   1.0000     -15.605258      -424.6407
   5   1.0000     -11.354773      -308.9791
   6   1.0000     -11.285522      -307.0947
   7   1.0000     -11.265795      -306.5579
   8   1.0000     -10.571917      -287.6765
   9   1.0000     -10.566131      -287.5190
  10   1.0000      -8.039710      -218.7716
  11   1.0000      -8.037590      -218.7140
  12   1.0000      -8.037217      -218.7038
  13   1.0000      -8.034137      -218.6200
  14   1.0000      -8.031665      -218.5527
  15   1.0000      -8.031324      -218.5434
  16   1.0000      -6.217054      -169.1746
  17   1.0000      -4.327765      -117.7645
  18   1.0000      -4.320039      -117.5542
  19   1.0000      -4.318685      -117.5174
  20   1.0000      -1.402038       -38.1514
  21   1.0000      -1.270453       -34.5708
  22   1.0000      -1.128164       -30.6989
  23   1.0000      -1.099485       -29.9185
  24   1.0000      -0.997422       -27.1412
  25   1.0000      -0.962314       -26.1859
  26   1.0000      -0.794402       -21.6168
  27   1.0000      -0.731044       -19.8927
  28   1.0000      -0.675237       -18.3741
  29   1.0000      -0.674182       -18.3454
  30   1.0000      -0.655042       -17.8246
  31   1.0000      -0.587373       -15.9832
  32   1.0000      -0.579037       -15.7564
  33   1.0000      -0.576067       -15.6756
  34   1.0000      -0.565397       -15.3852
  35   1.0000      -0.555632       -15.1195
  36   1.0000      -0.545501       -14.8438
  37   1.0000      -0.519731       -14.1426
  38   1.0000      -0.497137       -13.5278
  39   1.0000      -0.480598       -13.0777
  40   1.0000      -0.464750       -12.6465
  41   1.0000      -0.435553       -11.8520
  42   1.0000      -0.391315       -10.6482
  43   1.0000      -0.351143        -9.5551
  44   0.0000       0.019239         0.5235
  45   0.0000       0.030268         0.8236
  46   0.0000       0.031658         0.8614
  47   0.0000       0.037410         1.0180
  48   0.0000       0.047350         1.2885

                 SPIN DOWN ORBITALS
  NO   OCC          E(Eh)            E(eV)
   0   1.0000    -104.843784     -2852.9444
   1   1.0000    -104.837889     -2852.7840
   2   1.0000     -68.869889     -1874.0450
   3   1.0000     -20.533705      -558.7505
   4   1.0000     -15.605177      -424.6385
   5   1.0000     -11.351563      -308.8917
   6   1.0000     -11.285190      -307.0856
   7   1.0000     -11.265681      -306.5548
   8   1.0000     -10.570857      -287.6476
   9   1.0000     -10.564965      -287.4873
  10   1.0000      -8.037522      -218.7121
  11   1.0000      -8.036695      -218.6896
  12   1.0000      -8.035312      -218.6520
  13   1.0000      -8.031570      -218.5501
  14   1.0000      -8.030805      -218.5293
  15   1.0000      -8.029351      -218.4897
  16   1.0000      -6.207401      -168.9120
  17   1.0000      -4.316256      -117.4513
  18   1.0000      -4.315418      -117.4285
  19   1.0000      -4.307022      -117.2000
  20   1.0000      -1.397309       -38.0227
  21   1.0000      -1.269022       -34.5319
  22   1.0000      -1.119193       -30.4548
  23   1.0000      -1.091625       -29.7046
  24   1.0000      -0.996292       -27.1105
  25   1.0000      -0.959035       -26.0967
  26   1.0000      -0.779272       -21.2051
  27   1.0000      -0.719869       -19.5886
  28   1.0000      -0.674164       -18.3449
  29   1.0000      -0.670397       -18.2424
  30   1.0000      -0.635282       -17.2869
  31   1.0000      -0.582936       -15.8625
  32   1.0000      -0.578875       -15.7520
  33   1.0000      -0.569085       -15.4856
  34   1.0000      -0.556732       -15.1495
  35   1.0000      -0.551659       -15.0114
  36   1.0000      -0.538963       -14.6659
  37   1.0000      -0.502267       -13.6674
  38   1.0000      -0.488517       -13.2932
  39   1.0000      -0.471368       -12.8266
  40   1.0000      -0.463099       -12.6016
  41   1.0000      -0.408134       -11.1059
  42   1.0000      -0.389748       -10.6056
  43   0.0000       0.009573         0.2605
  44   0.0000       0.023275         0.6333
  45   0.0000       0.032059         0.8724
  46   0.0000       0.033409         0.9091
  47   0.0000       0.040744         1.1087

MULLIKEN ATOMIC CHARGES AND SPIN POPULATIONS
--------------------------------------------
   0 Si:    1.601138    0.825000
   1 C :    0.847811    0.067829
   2 Cl:   -0.730231    0.039736
   3 Cl:   -0.620844    0.042511
   4 N :   -0.449221   -0.004527
   5 C :   -0.838403    0.003248
   6 O :   -0.842582    0.035128
   7 H :    0.321191   -0.012449
   8 H :    0.309311    0.002115
   9 H :    0.332978   -0.001492
  10 C :   -0.873536    0.004634
  11 H :    0.300756    0.000058
  12 H :    0.345993   -0.000873
  13 H :    0.295638   -0.000918
Sum of atomic charges         :   -0.0000000

LOEWDIN ATOMIC CHARGES AND SPIN POPULATIONS
-------------------------------------------
   0 Si:   -1.184233    0.515606
   1 C :   -0.983731    0.116474
   2 Cl:    0.818190    0.122689
   3 Cl:    0.821834    0.119882
   4 N :    0.315328    0.013865
   5 C :    0.700968    0.020554
   6 O :    0.611155    0.037928
   7 H :   -0.411911    0.045209
   8 H :   -0.275661    0.001860
   9 H :   -0.267034    0.001886
  10 C :    0.759711    0.002062
  11 H :   -0.277484    0.001131
  12 H :   -0.356338    0.000668
  13 H :   -0.270794    0.000186

  Mayer bond orders larger than 0.100000
B(  0-Si,  1-C ) :   0.8367 B(  0-Si,  2-Cl) :   0.4781 B(  0-Si,  3-Cl) :   0.6008
B(  1-C ,  4-N ) :   1.3430 B(  1-C ,  6-O ) :   1.2833 B(  4-N ,  5-C ) :   0.8060
B(  4-N ,  6-O ) :   0.2333 B(  4-N , 10-C ) :   0.7970 B(  5-C ,  7-H ) :   0.9135
B(  5-C ,  8-H ) :   0.9331 B(  5-C ,  9-H ) :   0.9124 B( 10-C , 11-H ) :   0.9507
B( 10-C , 12-H ) :   0.8835 B( 10-C , 13-H ) :   0.9606

MP2 TOTAL ENERGY:    -1456.120286555 Eh
FINAL SINGLE POINT ENERGY     -1456.120286555251

DIPOLE MOMENT
-------------
                                X             Y             Z
Electronic contribution:     19.77081      -0.08206      -1.11150
Nuclear contribution   :    -21.03717       1.11705       1.96536
                        -----------------------------------------
Total Dipole Moment    :     -1.26636       1.03499       0.85386
                        -----------------------------------------
Magnitude (a.u.)       :      1.84498
Magnitude (Debye)      :      4.68957

Rotational constants in cm-1:     0.055836     0.027616     0.020646
Rotational constants in MHz :  1673.931259   827.916277   618.941340

                             ****ORCA TERMINATED NORMALLY****
TOTAL RUN TIME: 0 days 4 hours 32 minutes 13 seconds 993 msec
