                         Program Version 5.0.4 -  RELEASE  -
|  1> ! ri-mp2 aug-cc-pvdz aug-cc-pvdz/c tightscf
|  2> %pal nprocs 16 end
|  3> %maxcore 3800
|  4> %base "DZ_P-Si_62_AB"
|  5>
|  6> *xyz 0 1
|  7> Si        -0.451181    0.047767    0.306511
|  8> N        -1.299601   -1.398575   -0.483672
|  9> N        -0.913023    1.430016   -0.844597
| 10> P         1.770128   -0.286567    0.142391
| 11> Cl        -1.252598    0.449367    2.086196
| 12> O         2.012760   -0.401863   -1.416571
| 13> O        -1.968586    1.453273   -1.425283
| 14> O        -2.315698   -1.896389   -0.083936
| 15> O        -0.044805    2.291769   -0.911620
| 16> O        -0.668198   -1.755732   -1.475499
| 17> O         2.143098   -1.397053    1.002125
| 18> H         1.585335   -1.169836   -1.824202
| 19> O         2.437410    1.096079    0.479224
| 20> H         2.193958    1.819615   -0.117776
| 21> *
| 22>
| 23> $new_job
| 24> ! ri-mp2 aug-cc-pvtz aug-cc-pvtz/c tightscf
| 25> %pal nprocs 16 end
| 26> %maxcore 3800
| 27> %base "TZ_P-Si_62_AB"
| 28>
| 29> *xyz 0 1
| 30> Si        -0.451181    0.047767    0.306511
| 31> N        -1.299601   -1.398575   -0.483672
| 32> N        -0.913023    1.430016   -0.844597
| 33> P         1.770128   -0.286567    0.142391
| 34> Cl        -1.252598    0.449367    2.086196
| 35> O         2.012760   -0.401863   -1.416571
| 36> O        -1.968586    1.453273   -1.425283
| 37> O        -2.315698   -1.896389   -0.083936
| 38> O        -0.044805    2.291769   -0.911620
| 39> O        -0.668198   -1.755732   -1.475499
| 40> O         2.143098   -1.397053    1.002125
| 41> H         1.585335   -1.169836   -1.824202
| 42> O         2.437410    1.096079    0.479224
| 43> H         2.193958    1.819615   -0.117776
| 44> *
| 45>
| 46> $new_job
| 47> ! ri-mp2 aug-cc-pvqz aug-cc-pvqz/c tightscf
| 48> %pal nprocs 16 end
| 49> %maxcore 3800
| 50> %base "QZ_P-Si_62_AB"
| 51>
| 52> *xyz 0 1
| 53> Si        -0.451181    0.047767    0.306511
| 54> N        -1.299601   -1.398575   -0.483672
| 55> N        -0.913023    1.430016   -0.844597
| 56> P         1.770128   -0.286567    0.142391
| 57> Cl        -1.252598    0.449367    2.086196
| 58> O         2.012760   -0.401863   -1.416571
| 59> O        -1.968586    1.453273   -1.425283
| 60> O        -2.315698   -1.896389   -0.083936
| 61> O        -0.044805    2.291769   -0.911620
| 62> O        -0.668198   -1.755732   -1.475499
| 63> O         2.143098   -1.397053    1.002125
| 64> H         1.585335   -1.169836   -1.824202
| 65> O         2.437410    1.096079    0.479224
| 66> H         2.193958    1.819615   -0.117776
| 67> *
| 68>
| 69>
| 70>
| 71>
| 72>                          ****END OF INPUT****
 Total Charge           Charge          ....    0
 Multiplicity           Mult            ....    1
 Number of Electrons    NEL             ....  118
MP2 TOTAL ENERGY:    -1725.395639140 Eh
FINAL SINGLE POINT ENERGY     -1725.395639139534
MP2 TOTAL ENERGY:    -1726.089932065 Eh
FINAL SINGLE POINT ENERGY     -1726.089932065418

CARTESIAN COORDINATES (ANGSTROEM)
---------------------------------
  Si    -0.451181    0.047767    0.306511
  N     -1.299601   -1.398575   -0.483672
  N     -0.913023    1.430016   -0.844597
  P      1.770128   -0.286567    0.142391
  Cl    -1.252598    0.449367    2.086196
  O      2.012760   -0.401863   -1.416571
  O     -1.968586    1.453273   -1.425283
  O     -2.315698   -1.896389   -0.083936
  O     -0.044805    2.291769   -0.911620
  O     -0.668198   -1.755732   -1.475499
  O      2.143098   -1.397053    1.002125
  H      1.585335   -1.169836   -1.824202
  O      2.437410    1.096079    0.479224
  H      2.193958    1.819615   -0.117776

 Multiplicity           Mult            ....    1
 Number of Electrons    NEL             ....  118
 Basis Dimension        Dim             .... 1064

ORBITAL ENERGIES
----------------

  NO   OCC          E(Eh)            E(eV)
   0   2.0000    -104.912202     -2854.8062
   1   2.0000     -80.118083     -2180.1239
   2   2.0000     -68.956378     -1876.3984
   3   2.0000     -20.659893      -562.1843
   4   2.0000     -20.657924      -562.1307
   5   2.0000     -20.648923      -561.8857
   6   2.0000     -20.646004      -561.8063
   7   2.0000     -20.641142      -561.6740
   8   2.0000     -20.640888      -561.6671
   9   2.0000     -20.549903      -559.1913
  10   2.0000     -15.870546      -431.8595
  11   2.0000     -15.870100      -431.8474
  12   2.0000     -10.639152      -289.5060
  13   2.0000      -8.105921      -220.5733
  14   2.0000      -8.104544      -220.5359
  15   2.0000      -8.104503      -220.5347
  16   2.0000      -7.640266      -207.9022
  17   2.0000      -6.296667      -171.3410
  18   2.0000      -5.538619      -150.7135
  19   2.0000      -5.538169      -150.7012
  20   2.0000      -5.536962      -150.6684
  21   2.0000      -4.403227      -119.8179
  22   2.0000      -4.403079      -119.8139
  23   2.0000      -4.401692      -119.7761
  24   2.0000      -1.654642       -45.0251
  25   2.0000      -1.650536       -44.9134
  26   2.0000      -1.483003       -40.3546
  27   2.0000      -1.452716       -39.5304
  28   2.0000      -1.451928       -39.5090
  29   2.0000      -1.426218       -38.8094
  30   2.0000      -1.345126       -36.6027
  31   2.0000      -1.188298       -32.3352
  32   2.0000      -1.030624       -28.0447
  33   2.0000      -0.981537       -26.7090
  34   2.0000      -0.893428       -24.3114
  35   2.0000      -0.855920       -23.2908
  36   2.0000      -0.825642       -22.4669
  37   2.0000      -0.801731       -21.8162
  38   2.0000      -0.775546       -21.1037
  39   2.0000      -0.773509       -21.0482
  40   2.0000      -0.764878       -20.8134
  41   2.0000      -0.760501       -20.6943
  42   2.0000      -0.740755       -20.1570
  43   2.0000      -0.687418       -18.7056
  44   2.0000      -0.667831       -18.1726
  45   2.0000      -0.632104       -17.2004
  46   2.0000      -0.623272       -16.9601
  47   2.0000      -0.602362       -16.3911
  48   2.0000      -0.572848       -15.5880
  49   2.0000      -0.564624       -15.3642
  50   2.0000      -0.557120       -15.1600
  51   2.0000      -0.548221       -14.9178
  52   2.0000      -0.544031       -14.8038
  53   2.0000      -0.526292       -14.3211
  54   2.0000      -0.512707       -13.9515
  55   2.0000      -0.504472       -13.7274
  56   2.0000      -0.503078       -13.6894
  57   2.0000      -0.497842       -13.5470
  58   2.0000      -0.468021       -12.7355
  59   0.0000       0.015055         0.4097
  60   0.0000       0.021561         0.5867
  61   0.0000       0.024953         0.6790
  62   0.0000       0.030265         0.8236
  63   0.0000       0.035838         0.9752

MULLIKEN ATOMIC CHARGES
-----------------------
   0 Si:    1.773419
   1 N :    0.702290
   2 N :    0.684869
   3 P :    2.258513
   4 Cl:   -0.689948
   5 O :   -0.964428
   6 O :   -0.587652
   7 O :   -0.569219
   8 O :   -0.642851
   9 O :   -0.622733
  10 O :   -1.226163
  11 H :    0.437075
  12 O :   -0.981646
  13 H :    0.428474
Sum of atomic charges:    0.0000000

LOEWDIN ATOMIC CHARGES
----------------------
   0 Si:   -1.101133
   1 N :   -0.905493
   2 N :   -0.916697
   3 P :   -0.665365
   4 Cl:    1.096970
   5 O :    1.086868
   6 O :    0.480195
   7 O :    0.478432
   8 O :    0.469085
   9 O :    0.479288
  10 O :    0.259076
  11 H :   -0.918649
  12 O :    1.070914
  13 H :   -0.913490

  Mayer bond orders larger than 0.100000
B(  0-Si,  1-N ) :   0.5637 B(  0-Si,  2-N ) :   0.5350 B(  0-Si,  3-P ) :   0.9436
B(  0-Si,  4-Cl) :   0.3051 B(  1-N ,  7-O ) :   1.2699 B(  1-N ,  9-O ) :   1.2185
B(  2-N ,  6-O ) :   1.3184 B(  2-N ,  8-O ) :   1.2019 B(  3-P ,  5-O ) :   0.6535
B(  3-P , 10-O ) :   1.3182 B(  3-P , 12-O ) :   0.5943 B(  5-O , 11-H ) :   0.8303
B(  6-O ,  8-O ) :   0.1408 B(  7-O ,  9-O ) :   0.1331 B( 12-O , 13-H ) :   0.8115

MP2 TOTAL ENERGY:    -1726.322655479 Eh
FINAL SINGLE POINT ENERGY     -1726.322655479293

DIPOLE MOMENT
-------------
                                X             Y             Z
Electronic contribution:     -3.68386       0.51455       4.98273
Nuclear contribution   :      3.67743       0.25060      -4.82416
                        -----------------------------------------
Total Dipole Moment    :     -0.00643       0.76515       0.15857
                        -----------------------------------------
Magnitude (a.u.)       :      0.78144
Magnitude (Debye)      :      1.98626

Rotational constants in cm-1:     0.025742     0.018813     0.017979
Rotational constants in MHz :   771.735790   563.984855   539.009940

                             ****ORCA TERMINATED NORMALLY****
TOTAL RUN TIME: 0 days 0 hours 32 minutes 40 seconds 436 msec
