                         Program Version 5.0.4 -  RELEASE  -
|  1> ! ri-mp2 aug-cc-pvdz aug-cc-pvdz/c tightscf
|  2> %pal nprocs 16 end
|  3> %maxcore 3800
|  4> %base "DZ_Si-Si_105_AB"
|  5>
|  6> *xyz 0 1
|  7> Si        -1.815035   -0.564798   -0.189083
|  8> Si        -0.277559    1.127967    0.295212
|  9> H        -1.496222   -1.175294   -1.498491
| 10> H        -3.183050    0.000797   -0.261124
| 11> H        -1.792769   -1.606773    0.857890
| 12> C         1.411479    0.737053   -0.452131
| 13> H        -0.132873    1.306066    1.756854
| 14> H        -0.695589    2.422535   -0.289993
| 15> N         2.015398   -0.368625   -0.332095
| 16> H         1.956846    1.455612   -1.056590
| 17> O         1.281383   -1.258473    0.448899
| 18> H         1.812243   -2.061458    0.451909
| 19> *
| 20>
| 21> $new_job
| 22> ! ri-mp2 aug-cc-pvtz aug-cc-pvtz/c tightscf
| 23> %pal nprocs 16 end
| 24> %maxcore 3800
| 25> %base "TZ_Si-Si_105_AB"
| 26>
| 27> *xyz 0 1
| 28> Si        -1.815035   -0.564798   -0.189083
| 29> Si        -0.277559    1.127967    0.295212
| 30> H        -1.496222   -1.175294   -1.498491
| 31> H        -3.183050    0.000797   -0.261124
| 32> H        -1.792769   -1.606773    0.857890
| 33> C         1.411479    0.737053   -0.452131
| 34> H        -0.132873    1.306066    1.756854
| 35> H        -0.695589    2.422535   -0.289993
| 36> N         2.015398   -0.368625   -0.332095
| 37> H         1.956846    1.455612   -1.056590
| 38> O         1.281383   -1.258473    0.448899
| 39> H         1.812243   -2.061458    0.451909
| 40> *
| 41>
| 42> $new_job
| 43> ! ri-mp2 aug-cc-pvqz aug-cc-pvqz/c tightscf
| 44> %pal nprocs 16 end
| 45> %maxcore 3800
| 46> %base "QZ_Si-Si_105_AB"
| 47>
| 48> *xyz 0 1
| 49> Si        -1.815035   -0.564798   -0.189083
| 50> Si        -0.277559    1.127967    0.295212
| 51> H        -1.496222   -1.175294   -1.498491
| 52> H        -3.183050    0.000797   -0.261124
| 53> H        -1.792769   -1.606773    0.857890
| 54> C         1.411479    0.737053   -0.452131
| 55> H        -0.132873    1.306066    1.756854
| 56> H        -0.695589    2.422535   -0.289993
| 57> N         2.015398   -0.368625   -0.332095
| 58> H         1.956846    1.455612   -1.056590
| 59> O         1.281383   -1.258473    0.448899
| 60> H         1.812243   -2.061458    0.451909
| 61> *
| 62>
| 63>
| 64>
| 65>
| 66>                          ****END OF INPUT****
 Total Charge           Charge          ....    0
 Multiplicity           Mult            ....    1
 Number of Electrons    NEL             ....   56
MP2 TOTAL ENERGY:     -749.790285439 Eh
FINAL SINGLE POINT ENERGY      -749.790285439426
MP2 TOTAL ENERGY:     -750.006831929 Eh
FINAL SINGLE POINT ENERGY      -750.006831928716

CARTESIAN COORDINATES (ANGSTROEM)
---------------------------------
  Si    -1.815035   -0.564798   -0.189083
  Si    -0.277559    1.127967    0.295212
  H     -1.496222   -1.175294   -1.498491
  H     -3.183050    0.000797   -0.261124
  H     -1.792769   -1.606773    0.857890
  C      1.411479    0.737053   -0.452131
  H     -0.132873    1.306066    1.756854
  H     -0.695589    2.422535   -0.289993
  N      2.015398   -0.368625   -0.332095
  H      1.956846    1.455612   -1.056590
  O      1.281383   -1.258473    0.448899
  H      1.812243   -2.061458    0.451909

 Multiplicity           Mult            ....    1
 Number of Electrons    NEL             ....   56
 Basis Dimension        Dim             ....  730

ORBITAL ENERGIES
----------------

  NO   OCC          E(Eh)            E(eV)
   0   2.0000     -68.774998     -1871.4628
   1   2.0000     -68.765281     -1871.1984
   2   2.0000     -20.609885      -560.8235
   3   2.0000     -15.639818      -425.5811
   4   2.0000     -11.261338      -306.4366
   5   2.0000      -6.125415      -166.6810
   6   2.0000      -6.115917      -166.4226
   7   2.0000      -4.231634      -115.1486
   8   2.0000      -4.231515      -115.1454
   9   2.0000      -4.231436      -115.1432
  10   2.0000      -4.222023      -114.8871
  11   2.0000      -4.221984      -114.8860
  12   2.0000      -4.221893      -114.8835
  13   2.0000      -1.443571       -39.2816
  14   2.0000      -1.164484       -31.6872
  15   2.0000      -0.830951       -22.6113
  16   2.0000      -0.763591       -20.7784
  17   2.0000      -0.711167       -19.3518
  18   2.0000      -0.680066       -18.5055
  19   2.0000      -0.623182       -16.9577
  20   2.0000      -0.609904       -16.5963
  21   2.0000      -0.548776       -14.9330
  22   2.0000      -0.499250       -13.5853
  23   2.0000      -0.483486       -13.1563
  24   2.0000      -0.471679       -12.8350
  25   2.0000      -0.437284       -11.8991
  26   2.0000      -0.416396       -11.3307
  27   2.0000      -0.391248       -10.6464
  28   0.0000       0.023968         0.6522
  29   0.0000       0.029523         0.8034
  30   0.0000       0.035104         0.9552
  31   0.0000       0.037195         1.0121
  32   0.0000       0.048021         1.3067

MULLIKEN ATOMIC CHARGES
-----------------------
   0 Si:    0.479837
   1 Si:    1.030176
   2 H :   -0.153032
   3 H :   -0.238021
   4 H :   -0.131234
   5 C :   -0.468649
   6 H :   -0.212871
   7 H :   -0.312358
   8 N :   -0.270508
   9 H :    0.474848
  10 O :   -0.517112
  11 H :    0.318924
Sum of atomic charges:    0.0000000

LOEWDIN ATOMIC CHARGES
----------------------
   0 Si:    1.012998
   1 Si:    0.650550
   2 H :   -0.305807
   3 H :   -0.322303
   4 H :   -0.309249
   5 C :   -0.030897
   6 H :   -0.269388
   7 H :   -0.283773
   8 N :    0.211285
   9 H :   -0.465529
  10 O :    0.961268
  11 H :   -0.849154

  Mayer bond orders larger than 0.100000
B(  0-Si,  1-Si) :   0.7521 B(  0-Si,  2-H ) :   0.7756 B(  0-Si,  3-H ) :   0.7661
B(  0-Si,  4-H ) :   0.8022 B(  1-Si,  5-C ) :   0.6972 B(  1-Si,  6-H ) :   0.8295
B(  1-Si,  7-H ) :   0.8012 B(  5-C ,  8-N ) :   1.7610 B(  5-C ,  9-H ) :   0.7927
B(  8-N , 10-O ) :   0.8080 B( 10-O , 11-H ) :   0.9179

MP2 TOTAL ENERGY:     -750.078437546 Eh
FINAL SINGLE POINT ENERGY      -750.078437545970

DIPOLE MOMENT
-------------
                                X             Y             Z
Electronic contribution:      3.41275      -0.26433       0.01911
Nuclear contribution   :     -3.37001       0.28510      -0.04083
                        -----------------------------------------
Total Dipole Moment    :      0.04273       0.02076      -0.02172
                        -----------------------------------------
Magnitude (a.u.)       :      0.05224
Magnitude (Debye)      :      0.13279

Rotational constants in cm-1:     0.146894     0.069271     0.052423
Rotational constants in MHz :  4403.784040  2076.686200  1571.588898

                             ****ORCA TERMINATED NORMALLY****
TOTAL RUN TIME: 0 days 0 hours 8 minutes 19 seconds 814 msec
