                         Program Version 5.0.4 -  RELEASE  -
|  1> ! ri-mp2 aug-cc-pvdz aug-cc-pvdz/c tightscf
|  2> %pal nprocs 16 end
|  3> %maxcore 3800
|  4> %base "DZ_P-Si_41_AB"
|  5> %scf
|  6> STABPerform true
|  7> STABRestartUHFifUnstable true
|  8> end
|  9>
| 10> *xyz 0 1
| 11> Si         1.425743    0.188860   -0.009547
| 12> P        -0.657527   -0.669442   -0.093811
| 13> N        -1.649025    0.706245    0.063432
| 14> H        -2.245204    0.916317   -0.717451
| 15> H        -1.357419    1.525138    0.570652
| 16> H        -0.640338   -1.136210    1.244172
| 17> H         1.765077    0.777403   -1.324123
| 18> H         2.390651   -0.887551    0.310443
| 19> H         1.532915    1.258777    1.013109
| 20> *
| 21>
| 22> $new_job
| 23> ! ri-mp2 aug-cc-pvtz aug-cc-pvtz/c tightscf
| 24> %pal nprocs 16 end
| 25> %maxcore 3800
| 26> %base "TZ_P-Si_41_AB"
| 27>
| 28> *xyz 0 1
| 29> Si         1.425743    0.188860   -0.009547
| 30> P        -0.657527   -0.669442   -0.093811
| 31> N        -1.649025    0.706245    0.063432
| 32> H        -2.245204    0.916317   -0.717451
| 33> H        -1.357419    1.525138    0.570652
| 34> H        -0.640338   -1.136210    1.244172
| 35> H         1.765077    0.777403   -1.324123
| 36> H         2.390651   -0.887551    0.310443
| 37> H         1.532915    1.258777    1.013109
| 38> *
| 39>
| 40> $new_job
| 41> ! ri-mp2 aug-cc-pvqz aug-cc-pvqz/c tightscf
| 42> %pal nprocs 16 end
| 43> %maxcore 3800
| 44> %base "QZ_P-Si_41_AB"
| 45>
| 46> *xyz 0 1
| 47> Si         1.425743    0.188860   -0.009547
| 48> P        -0.657527   -0.669442   -0.093811
| 49> N        -1.649025    0.706245    0.063432
| 50> H        -2.245204    0.916317   -0.717451
| 51> H        -1.357419    1.525138    0.570652
| 52> H        -0.640338   -1.136210    1.244172
| 53> H         1.765077    0.777403   -1.324123
| 54> H         2.390651   -0.887551    0.310443
| 55> H         1.532915    1.258777    1.013109
| 56> *
| 57>
| 58>
| 59>
| 60>
| 61>                          ****END OF INPUT****
 Total Charge           Charge          ....    0
 Multiplicity           Mult            ....    1
 Number of Electrons    NEL             ....   42
MP2 TOTAL ENERGY:     -688.038489324 Eh
FINAL SINGLE POINT ENERGY      -688.038489324128
MP2 TOTAL ENERGY:     -688.176139361 Eh
FINAL SINGLE POINT ENERGY      -688.176139360528

CARTESIAN COORDINATES (ANGSTROEM)
---------------------------------
  Si     1.425743    0.188860   -0.009547
  P     -0.657527   -0.669442   -0.093811
  N     -1.649025    0.706245    0.063432
  H     -2.245204    0.916317   -0.717451
  H     -1.357419    1.525138    0.570652
  H     -0.640338   -1.136210    1.244172
  H      1.765077    0.777403   -1.324123
  H      2.390651   -0.887551    0.310443
  H      1.532915    1.258777    1.013109

 Multiplicity           Mult            ....    1
 Number of Electrons    NEL             ....   42
 Basis Dimension        Dim             ....  524

ORBITAL ENERGIES
----------------

  NO   OCC          E(Eh)            E(eV)
   0   2.0000     -79.950170     -2175.5547
   1   2.0000     -68.772845     -1871.4043
   2   2.0000     -15.554927      -423.2711
   3   2.0000      -7.490048      -203.8146
   4   2.0000      -6.122862      -166.6116
   5   2.0000      -5.384257      -146.5131
   6   2.0000      -5.383774      -146.4999
   7   2.0000      -5.383502      -146.4925
   8   2.0000      -4.228985      -115.0765
   9   2.0000      -4.228831      -115.0724
  10   2.0000      -4.228788      -115.0712
  11   2.0000      -1.163937       -31.6723
  12   2.0000      -0.829715       -22.5777
  13   2.0000      -0.706756       -19.2318
  14   2.0000      -0.676333       -18.4040
  15   2.0000      -0.572470       -15.5777
  16   2.0000      -0.512752       -13.9527
  17   2.0000      -0.489760       -13.3270
  18   2.0000      -0.480909       -13.0862
  19   2.0000      -0.386476       -10.5166
  20   2.0000      -0.349145        -9.5007
  21   0.0000       0.024107         0.6560
  22   0.0000       0.032524         0.8850
  23   0.0000       0.037530         1.0212
  24   0.0000       0.039876         1.0851
  25   0.0000       0.052247         1.4217

MULLIKEN ATOMIC CHARGES
-----------------------
   0 Si:    0.551339
   1 P :    0.366170
   2 N :   -0.896154
   3 H :    0.261944
   4 H :    0.277132
   5 H :   -0.071880
   6 H :   -0.161866
   7 H :   -0.175057
   8 H :   -0.151629
Sum of atomic charges:   -0.0000000

LOEWDIN ATOMIC CHARGES
----------------------
   0 Si:    0.844647
   1 P :    0.934676
   2 N :    0.926025
   3 H :   -0.627820
   4 H :   -0.613553
   5 H :   -0.514031
   6 H :   -0.322739
   7 H :   -0.319806
   8 H :   -0.307399

  Mayer bond orders larger than 0.100000
B(  0-Si,  1-P ) :   0.8560 B(  0-Si,  6-H ) :   0.7923 B(  0-Si,  7-H ) :   0.8033
B(  0-Si,  8-H ) :   0.7901 B(  1-P ,  2-N ) :   0.8427 B(  1-P ,  5-H ) :   0.9067
B(  2-N ,  3-H ) :   0.9722 B(  2-N ,  4-H ) :   0.9432

MP2 TOTAL ENERGY:     -688.220210690 Eh
FINAL SINGLE POINT ENERGY      -688.220210689562

DIPOLE MOMENT
-------------
                                X             Y             Z
Electronic contribution:     -1.98597      -2.53242      -1.12872
Nuclear contribution   :      1.96977       3.07492       1.18356
                        -----------------------------------------
Total Dipole Moment    :     -0.01620       0.54250       0.05484
                        -----------------------------------------
Magnitude (a.u.)       :      0.54550
Magnitude (Debye)      :      1.38656

Rotational constants in cm-1:     0.484467     0.126970     0.107749
Rotational constants in MHz : 14523.953052  3806.473201  3230.231472

                             ****ORCA TERMINATED NORMALLY****
TOTAL RUN TIME: 0 days 0 hours 11 minutes 15 seconds 441 msec
