                         Program Version 5.0.4 -  RELEASE  -
|  1> ! ri-mp2 aug-cc-pvdz aug-cc-pvdz/c tightscf
|  2> %pal nprocs 16 end
|  3> %maxcore 3800
|  4> %base "DZ_Si-Cl_1_AB"
|  5> %scf
|  6> STABPerform true
|  7> STABRestartUHFifUnstable true
|  8> end
|  9>
| 10> *xyz 0 1
| 11> Si        -0.922187    0.916486    0.135896
| 12> C         0.841860    0.699173   -0.407588
| 13> C         1.637227   -0.335811    0.387501
| 14> Cl        -1.945733   -0.864575   -0.085216
| 15> C         3.076176   -0.464396   -0.088434
| 16> H         3.605974    0.485681    0.002322
| 17> H         3.114594   -0.765253   -1.136918
| 18> H         3.622132   -1.208440    0.492557
| 19> H         1.323466    1.681054   -0.334010
| 20> H         0.844552    0.441440   -1.470846
| 21> H         1.141780   -1.306499    0.316146
| 22> H         1.627330   -0.068418    1.447666
| 23> H        -1.619340    1.927202   -0.682697
| 24> H        -1.003985    1.286414    1.563026
| 25> *
| 26>
| 27> $new_job
| 28> ! ri-mp2 aug-cc-pvtz aug-cc-pvtz/c tightscf
| 29> %pal nprocs 16 end
| 30> %maxcore 3800
| 31> %base "TZ_Si-Cl_1_AB"
| 32>
| 33> *xyz 0 1
| 34> Si        -0.922187    0.916486    0.135896
| 35> C         0.841860    0.699173   -0.407588
| 36> C         1.637227   -0.335811    0.387501
| 37> Cl        -1.945733   -0.864575   -0.085216
| 38> C         3.076176   -0.464396   -0.088434
| 39> H         3.605974    0.485681    0.002322
| 40> H         3.114594   -0.765253   -1.136918
| 41> H         3.622132   -1.208440    0.492557
| 42> H         1.323466    1.681054   -0.334010
| 43> H         0.844552    0.441440   -1.470846
| 44> H         1.141780   -1.306499    0.316146
| 45> H         1.627330   -0.068418    1.447666
| 46> H        -1.619340    1.927202   -0.682697
| 47> H        -1.003985    1.286414    1.563026
| 48> *
| 49>
| 50> $new_job
| 51> ! ri-mp2 aug-cc-pvqz aug-cc-pvqz/c tightscf
| 52> %pal nprocs 16 end
| 53> %maxcore 3800
| 54> %base "QZ_Si-Cl_1_AB"
| 55>
| 56> *xyz 0 1
| 57> Si        -0.922187    0.916486    0.135896
| 58> C         0.841860    0.699173   -0.407588
| 59> C         1.637227   -0.335811    0.387501
| 60> Cl        -1.945733   -0.864575   -0.085216
| 61> C         3.076176   -0.464396   -0.088434
| 62> H         3.605974    0.485681    0.002322
| 63> H         3.114594   -0.765253   -1.136918
| 64> H         3.622132   -1.208440    0.492557
| 65> H         1.323466    1.681054   -0.334010
| 66> H         0.844552    0.441440   -1.470846
| 67> H         1.141780   -1.306499    0.316146
| 68> H         1.627330   -0.068418    1.447666
| 69> H        -1.619340    1.927202   -0.682697
| 70> H        -1.003985    1.286414    1.563026
| 71> *
| 72>
| 73>
| 74>
| 75>
| 76>                          ****END OF INPUT****
 Total Charge           Charge          ....    0
 Multiplicity           Mult            ....    1
 Number of Electrons    NEL             ....   58
MP2 TOTAL ENERGY:     -868.057491926 Eh
FINAL SINGLE POINT ENERGY      -868.057491925694
MP2 TOTAL ENERGY:     -868.276178106 Eh
FINAL SINGLE POINT ENERGY      -868.276178105754

CARTESIAN COORDINATES (ANGSTROEM)
---------------------------------
  Si    -0.922187    0.916486    0.135896
  C      0.841860    0.699173   -0.407588
  C      1.637227   -0.335811    0.387501
  Cl    -1.945733   -0.864575   -0.085216
  C      3.076176   -0.464396   -0.088434
  H      3.605974    0.485681    0.002322
  H      3.114594   -0.765253   -1.136918
  H      3.622132   -1.208440    0.492557
  H      1.323466    1.681054   -0.334010
  H      0.844552    0.441440   -1.470846
  H      1.141780   -1.306499    0.316146
  H      1.627330   -0.068418    1.447666
  H     -1.619340    1.927202   -0.682697
  H     -1.003985    1.286414    1.563026

 Multiplicity           Mult            ....    1
 Number of Electrons    NEL             ....   58
 Basis Dimension        Dim             ....  822

ORBITAL ENERGIES
----------------

  NO   OCC          E(Eh)            E(eV)
   0   2.0000    -104.818672     -2852.2611
   1   2.0000     -68.803988     -1872.2517
   2   2.0000     -11.229869      -305.5803
   3   2.0000     -11.218680      -305.2758
   4   2.0000     -11.215730      -305.1955
   5   2.0000     -10.546202      -286.9767
   6   2.0000      -8.013009      -218.0451
   7   2.0000      -8.011937      -218.0159
   8   2.0000      -8.011930      -218.0157
   9   2.0000      -6.150128      -167.3535
  10   2.0000      -4.257160      -115.8432
  11   2.0000      -4.256106      -115.8145
  12   2.0000      -4.255666      -115.8025
  13   2.0000      -1.091216       -29.6935
  14   2.0000      -1.064721       -28.9725
  15   2.0000      -0.938143       -25.5282
  16   2.0000      -0.815868       -22.2009
  17   2.0000      -0.700723       -19.0677
  18   2.0000      -0.641281       -17.4501
  19   2.0000      -0.585922       -15.9437
  20   2.0000      -0.559687       -15.2299
  21   2.0000      -0.554474       -15.0880
  22   2.0000      -0.516106       -14.0439
  23   2.0000      -0.509980       -13.8773
  24   2.0000      -0.486746       -13.2450
  25   2.0000      -0.481457       -13.1011
  26   2.0000      -0.475241       -12.9320
  27   2.0000      -0.441900       -12.0247
  28   2.0000      -0.425167       -11.5694
  29   0.0000       0.024346         0.6625
  30   0.0000       0.030885         0.8404
  31   0.0000       0.033089         0.9004
  32   0.0000       0.034621         0.9421
  33   0.0000       0.047899         1.3034

MULLIKEN ATOMIC CHARGES
-----------------------
   0 Si:    1.213111
   1 C :   -0.511182
   2 C :   -0.359617
   3 Cl:   -0.667128
   4 C :   -0.861559
   5 H :    0.225403
   6 H :    0.229037
   7 H :    0.259447
   8 H :    0.234472
   9 H :    0.202910
  10 H :    0.268157
  11 H :    0.253732
  12 H :   -0.266153
  13 H :   -0.220630
Sum of atomic charges:    0.0000000

LOEWDIN ATOMIC CHARGES
----------------------
   0 Si:    0.016247
   1 C :    0.435845
   2 C :    0.409909
   3 Cl:    0.900588
   4 C :    0.921470
   5 H :   -0.285296
   6 H :   -0.284897
   7 H :   -0.281413
   8 H :   -0.340556
   9 H :   -0.345818
  10 H :   -0.304868
  11 H :   -0.288277
  12 H :   -0.281462
  13 H :   -0.271472

  Mayer bond orders larger than 0.100000
B(  0-Si,  1-C ) :   0.9054 B(  0-Si,  3-Cl) :   0.3848 B(  0-Si, 12-H ) :   0.8560
B(  0-Si, 13-H ) :   0.8416 B(  1-C ,  2-C ) :   0.8791 B(  1-C ,  8-H ) :   0.8961
B(  1-C ,  9-H ) :   0.9485 B(  2-C ,  4-C ) :   0.9462 B(  2-C , 10-H ) :   0.8691
B(  2-C , 11-H ) :   0.8829 B(  4-C ,  5-H ) :   0.9586 B(  4-C ,  6-H ) :   0.9514
B(  4-C ,  7-H ) :   1.0015

MP2 TOTAL ENERGY:     -868.344837944 Eh
FINAL SINGLE POINT ENERGY      -868.344837944043

DIPOLE MOMENT
-------------
                                X             Y             Z
Electronic contribution:    -14.87701      -3.21339      -0.32271
Nuclear contribution   :     15.53670       3.66401       0.31173
                        -----------------------------------------
Total Dipole Moment    :      0.65969       0.45062      -0.01099
                        -----------------------------------------
Magnitude (a.u.)       :      0.79898
Magnitude (Debye)      :      2.03086

Rotational constants in cm-1:     0.197046     0.045495     0.039312
Rotational constants in MHz :  5907.289758  1363.915345  1178.557001

                             ****ORCA TERMINATED NORMALLY****
TOTAL RUN TIME: 0 days 1 hours 43 minutes 58 seconds 531 msec
