                         Program Version 5.0.4 -  RELEASE  -
|  1> ! ri-mp2 aug-cc-pvdz aug-cc-pvdz/c tightscf
|  2> %pal nprocs 16 end
|  3> %maxcore 3800
|  4> %base "DZ_P-S_29_AB"
|  5> %scf
|  6> STABPerform true
|  7> STABRestartUHFifUnstable true
|  8> end
|  9>
| 10> *xyz 0 1
| 11> S         0.239358   -1.318651   -0.017872
| 12> P         1.774932    0.112314   -0.046733
| 13> O         2.966077   -0.624812   -0.428135
| 14> O         1.388040    1.296969   -0.998240
| 15> O        -1.004209   -0.492768    0.774776
| 16> C        -1.958296    0.097897    0.023385
| 17> F        -1.472151    1.151238   -0.668688
| 18> F        -2.891225    0.548616    0.840769
| 19> F        -2.511486   -0.723015   -0.859933
| 20> H         0.568716    1.765075   -0.793106
| 21> O         1.723944    0.821508    1.367824
| 22> H         2.010281    0.262537    2.100602
| 23> *
| 24>
| 25> $new_job
| 26> ! ri-mp2 aug-cc-pvtz aug-cc-pvtz/c tightscf
| 27> %pal nprocs 16 end
| 28> %maxcore 3800
| 29> %base "TZ_P-S_29_AB"
| 30>
| 31> *xyz 0 1
| 32> S         0.239358   -1.318651   -0.017872
| 33> P         1.774932    0.112314   -0.046733
| 34> O         2.966077   -0.624812   -0.428135
| 35> O         1.388040    1.296969   -0.998240
| 36> O        -1.004209   -0.492768    0.774776
| 37> C        -1.958296    0.097897    0.023385
| 38> F        -1.472151    1.151238   -0.668688
| 39> F        -2.891225    0.548616    0.840769
| 40> F        -2.511486   -0.723015   -0.859933
| 41> H         0.568716    1.765075   -0.793106
| 42> O         1.723944    0.821508    1.367824
| 43> H         2.010281    0.262537    2.100602
| 44> *
| 45>
| 46> $new_job
| 47> ! ri-mp2 aug-cc-pvqz aug-cc-pvqz/c tightscf
| 48> %pal nprocs 16 end
| 49> %maxcore 3800
| 50> %base "QZ_P-S_29_AB"
| 51>
| 52> *xyz 0 1
| 53> S         0.239358   -1.318651   -0.017872
| 54> P         1.774932    0.112314   -0.046733
| 55> O         2.966077   -0.624812   -0.428135
| 56> O         1.388040    1.296969   -0.998240
| 57> O        -1.004209   -0.492768    0.774776
| 58> C        -1.958296    0.097897    0.023385
| 59> F        -1.472151    1.151238   -0.668688
| 60> F        -2.891225    0.548616    0.840769
| 61> F        -2.511486   -0.723015   -0.859933
| 62> H         0.568716    1.765075   -0.793106
| 63> O         1.723944    0.821508    1.367824
| 64> H         2.010281    0.262537    2.100602
| 65> *
| 66>
| 67>
| 68>
| 69>
| 70>                          ****END OF INPUT****
 Total Charge           Charge          ....    0
 Multiplicity           Mult            ....    1
 Number of Electrons    NEL             ....   98
MP2 TOTAL ENERGY:    -1377.010915414 Eh
FINAL SINGLE POINT ENERGY     -1377.010915413521
MP2 TOTAL ENERGY:    -1377.678188721 Eh
FINAL SINGLE POINT ENERGY     -1377.678188720610

CARTESIAN COORDINATES (ANGSTROEM)
---------------------------------
  S      0.239358   -1.318651   -0.017872
  P      1.774932    0.112314   -0.046733
  O      2.966077   -0.624812   -0.428135
  O      1.388040    1.296969   -0.998240
  O     -1.004209   -0.492768    0.774776
  C     -1.958296    0.097897    0.023385
  F     -1.472151    1.151238   -0.668688
  F     -2.891225    0.548616    0.840769
  F     -2.511486   -0.723015   -0.859933
  H      0.568716    1.765075   -0.793106
  O      1.723944    0.821508    1.367824
  H      2.010281    0.262537    2.100602

 Multiplicity           Mult            ....    1
 Number of Electrons    NEL             ....   98
 Basis Dimension        Dim             ....  900

ORBITAL ENERGIES
----------------

  NO   OCC          E(Eh)            E(eV)
   0   2.0000     -92.053900     -2504.9140
   1   2.0000     -80.115820     -2180.0623
   2   2.0000     -26.375169      -717.7048
   3   2.0000     -26.370908      -717.5889
   4   2.0000     -26.370784      -717.5855
   5   2.0000     -20.667009      -562.3779
   6   2.0000     -20.634878      -561.5036
   7   2.0000     -20.627759      -561.3099
   8   2.0000     -20.536290      -558.8209
   9   2.0000     -11.591149      -315.4112
  10   2.0000      -9.051460      -246.3028
  11   2.0000      -7.636219      -207.7921
  12   2.0000      -6.732761      -183.2077
  13   2.0000      -6.730746      -183.1529
  14   2.0000      -6.729853      -183.1286
  15   2.0000      -5.534486      -150.6010
  16   2.0000      -5.534432      -150.5996
  17   2.0000      -5.533162      -150.5650
  18   2.0000      -1.779254       -48.4160
  19   2.0000      -1.676428       -45.6179
  20   2.0000      -1.674197       -45.5572
  21   2.0000      -1.482192       -40.3325
  22   2.0000      -1.471816       -40.0502
  23   2.0000      -1.417153       -38.5627
  24   2.0000      -1.333883       -36.2968
  25   2.0000      -1.056066       -28.7370
  26   2.0000      -0.971824       -26.4447
  27   2.0000      -0.883921       -24.0527
  28   2.0000      -0.875654       -23.8278
  29   2.0000      -0.870325       -23.6827
  30   2.0000      -0.842376       -22.9222
  31   2.0000      -0.795355       -21.6427
  32   2.0000      -0.758992       -20.6532
  33   2.0000      -0.753370       -20.5002
  34   2.0000      -0.720239       -19.5987
  35   2.0000      -0.704471       -19.1696
  36   2.0000      -0.700758       -19.0686
  37   2.0000      -0.685731       -18.6597
  38   2.0000      -0.682034       -18.5591
  39   2.0000      -0.672644       -18.3036
  40   2.0000      -0.631105       -17.1733
  41   2.0000      -0.628710       -17.1081
  42   2.0000      -0.612764       -16.6741
  43   2.0000      -0.600590       -16.3429
  44   2.0000      -0.584483       -15.9046
  45   2.0000      -0.522722       -14.2240
  46   2.0000      -0.504258       -13.7216
  47   2.0000      -0.465086       -12.6556
  48   2.0000      -0.428837       -11.6692
  49   0.0000       0.021213         0.5772
  50   0.0000       0.034671         0.9434
  51   0.0000       0.045255         1.2315
  52   0.0000       0.048553         1.3212
  53   0.0000       0.064520         1.7557

MULLIKEN ATOMIC CHARGES
-----------------------
   0 S :    0.218384
   1 P :    2.294928
   2 O :   -1.150910
   3 O :   -0.870502
   4 O :   -0.693338
   5 C :    2.008201
   6 F :   -0.592451
   7 F :   -0.589782
   8 F :   -0.562454
   9 H :    0.407646
  10 O :   -0.835668
  11 H :    0.365945
Sum of atomic charges:    0.0000000

LOEWDIN ATOMIC CHARGES
----------------------
   0 S :    0.837516
   1 P :   -1.070978
   2 O :    0.228201
   3 O :    1.058433
   4 O :    0.207756
   5 C :   -2.760234
   6 F :    0.765366
   7 F :    0.749311
   8 F :    0.743789
   9 H :   -0.967953
  10 O :    1.064915
  11 H :   -0.856121

  Mayer bond orders larger than 0.100000
B(  0-S ,  1-P ) :   0.9138 B(  0-S ,  4-O ) :   0.6839 B(  1-P ,  2-O ) :   1.3874
B(  1-P ,  3-O ) :   0.7071 B(  1-P , 10-O ) :   0.7005 B(  2-O ,  3-O ) :  -0.1166
B(  3-O ,  9-H ) :   0.8585 B(  4-O ,  5-C ) :   0.9641 B(  5-C ,  6-F ) :   0.5196
B(  5-C ,  7-F ) :   0.5501 B(  5-C ,  8-F ) :   0.5383 B( 10-O , 11-H ) :   0.8942

MP2 TOTAL ENERGY:    -1377.897546074 Eh
FINAL SINGLE POINT ENERGY     -1377.897546073962

DIPOLE MOMENT
-------------
                                X             Y             Z
Electronic contribution:     -7.96498      -0.59774      -1.03220
Nuclear contribution   :      7.20286       0.94083       1.89873
                        -----------------------------------------
Total Dipole Moment    :     -0.76212       0.34309       0.86654
                        -----------------------------------------
Magnitude (a.u.)       :      1.20392
Magnitude (Debye)      :      3.06013

Rotational constants in cm-1:     0.068077     0.020963     0.019767
Rotational constants in MHz :  2040.897920   628.448773   592.598447

                             ****ORCA TERMINATED NORMALLY****
TOTAL RUN TIME: 0 days 1 hours 6 minutes 6 seconds 393 msec
