                         Program Version 5.0.4 -  RELEASE  -
|  1> ! ri-mp2 aug-cc-pvdz aug-cc-pvdz/c tightscf
|  2> %pal nprocs 16 end
|  3> %maxcore 3800
|  4> %base "DZ_P-S_16_AB"
|  5> %scf
|  6> STABPerform true
|  7> STABRestartUHFifUnstable true
|  8> end
|  9>
| 10> *xyz 0 1
| 11> S         1.210811   -0.839000    0.009664
| 12> P        -0.722423   -0.050575   -0.052596
| 13> O        -1.716860   -1.097026   -0.218523
| 14> O        -0.649826    1.061410   -1.164760
| 15> O         2.026602    0.623136   -0.015748
| 16> H         2.163775    0.914107    0.894312
| 17> O        -0.866394    0.837248    1.265802
| 18> H        -1.243421    0.337788    2.000336
| 19> H         0.194842    1.532580   -1.194505
| 20> *
| 21>
| 22> $new_job
| 23> ! ri-mp2 aug-cc-pvtz aug-cc-pvtz/c tightscf
| 24> %pal nprocs 16 end
| 25> %maxcore 3800
| 26> %base "TZ_P-S_16_AB"
| 27>
| 28> *xyz 0 1
| 29> S         1.210811   -0.839000    0.009664
| 30> P        -0.722423   -0.050575   -0.052596
| 31> O        -1.716860   -1.097026   -0.218523
| 32> O        -0.649826    1.061410   -1.164760
| 33> O         2.026602    0.623136   -0.015748
| 34> H         2.163775    0.914107    0.894312
| 35> O        -0.866394    0.837248    1.265802
| 36> H        -1.243421    0.337788    2.000336
| 37> H         0.194842    1.532580   -1.194505
| 38> *
| 39>
| 40> $new_job
| 41> ! ri-mp2 aug-cc-pvqz aug-cc-pvqz/c tightscf
| 42> %pal nprocs 16 end
| 43> %maxcore 3800
| 44> %base "QZ_P-S_16_AB"
| 45>
| 46> *xyz 0 1
| 47> S         1.210811   -0.839000    0.009664
| 48> P        -0.722423   -0.050575   -0.052596
| 49> O        -1.716860   -1.097026   -0.218523
| 50> O        -0.649826    1.061410   -1.164760
| 51> O         2.026602    0.623136   -0.015748
| 52> H         2.163775    0.914107    0.894312
| 53> O        -0.866394    0.837248    1.265802
| 54> H        -1.243421    0.337788    2.000336
| 55> H         0.194842    1.532580   -1.194505
| 56> *
| 57>
| 58>
| 59>
| 60>
| 61>                          ****END OF INPUT****
 Total Charge           Charge          ....    0
 Multiplicity           Mult            ....    1
 Number of Electrons    NEL             ....   66
MP2 TOTAL ENERGY:    -1040.631361004 Eh
FINAL SINGLE POINT ENERGY     -1040.631361003830
MP2 TOTAL ENERGY:    -1041.020076690 Eh
FINAL SINGLE POINT ENERGY     -1041.020076689761

CARTESIAN COORDINATES (ANGSTROEM)
---------------------------------
  S      1.210811   -0.839000    0.009664
  P     -0.722423   -0.050575   -0.052596
  O     -1.716860   -1.097026   -0.218523
  O     -0.649826    1.061410   -1.164760
  O      2.026602    0.623136   -0.015748
  H      2.163775    0.914107    0.894312
  O     -0.866394    0.837248    1.265802
  H     -1.243421    0.337788    2.000336
  H      0.194842    1.532580   -1.194505

 Multiplicity           Mult            ....    1
 Number of Electrons    NEL             ....   66
 Basis Dimension        Dim             ....  626

ORBITAL ENERGIES
----------------

  NO   OCC          E(Eh)            E(eV)
   0   2.0000     -92.029803     -2504.2583
   1   2.0000     -80.100261     -2179.6389
   2   2.0000     -20.632018      -561.4258
   3   2.0000     -20.618947      -561.0701
   4   2.0000     -20.614913      -560.9603
   5   2.0000     -20.525403      -558.5246
   6   2.0000      -9.027622      -245.6541
   7   2.0000      -7.621003      -207.3780
   8   2.0000      -6.708946      -182.5597
   9   2.0000      -6.707442      -182.5188
  10   2.0000      -6.706471      -182.4923
  11   2.0000      -5.519301      -150.1878
  12   2.0000      -5.518859      -150.1758
  13   2.0000      -5.518006      -150.1526
  14   2.0000      -1.459352       -39.7110
  15   2.0000      -1.413833       -38.4724
  16   2.0000      -1.402412       -38.1616
  17   2.0000      -1.321014       -35.9466
  18   2.0000      -0.990422       -26.9507
  19   2.0000      -0.855794       -23.2873
  20   2.0000      -0.772771       -21.0282
  21   2.0000      -0.738638       -20.0994
  22   2.0000      -0.696986       -18.9660
  23   2.0000      -0.670972       -18.2581
  24   2.0000      -0.615494       -16.7485
  25   2.0000      -0.610216       -16.6048
  26   2.0000      -0.590962       -16.0809
  27   2.0000      -0.587023       -15.9737
  28   2.0000      -0.567640       -15.4463
  29   2.0000      -0.511051       -13.9064
  30   2.0000      -0.491057       -13.3623
  31   2.0000      -0.446618       -12.1531
  32   2.0000      -0.405707       -11.0399
  33   0.0000       0.015387         0.4187
  34   0.0000       0.031744         0.8638
  35   0.0000       0.038982         1.0607
  36   0.0000       0.050162         1.3650
  37   0.0000       0.068380         1.8607

MULLIKEN ATOMIC CHARGES
-----------------------
   0 S :    0.223698
   1 P :    2.252570
   2 O :   -1.124389
   3 O :   -0.852446
   4 O :   -0.759521
   5 H :    0.342500
   6 O :   -0.843540
   7 H :    0.374217
   8 H :    0.386911
Sum of atomic charges:    0.0000000

LOEWDIN ATOMIC CHARGES
----------------------
   0 S :    0.820778
   1 P :   -1.092757
   2 O :    0.224125
   3 O :    1.054418
   4 O :    0.713237
   5 H :   -0.966791
   6 O :    1.047809
   7 H :   -0.875230
   8 H :   -0.925590

  Mayer bond orders larger than 0.100000
B(  0-S ,  1-P ) :   0.9289 B(  0-S ,  4-O ) :   0.8195 B(  1-P ,  2-O ) :   1.4192
B(  1-P ,  3-O ) :   0.6778 B(  1-P ,  6-O ) :   0.7040 B(  2-O ,  3-O ) :  -0.1130
B(  3-O ,  8-H ) :   0.8517 B(  4-O ,  5-H ) :   0.8908 B(  6-O ,  7-H ) :   0.9020

MP2 TOTAL ENERGY:    -1041.147562616 Eh
FINAL SINGLE POINT ENERGY     -1041.147562615820

DIPOLE MOMENT
-------------
                                X             Y             Z
Electronic contribution:     -0.51680      -1.86971      -0.50581
Nuclear contribution   :      1.66488       2.74584       1.66584
                        -----------------------------------------
Total Dipole Moment    :      1.14808       0.87613       1.16003
                        -----------------------------------------
Magnitude (a.u.)       :      1.85239
Magnitude (Debye)      :      4.70840

Rotational constants in cm-1:     0.124842     0.065961     0.059839
Rotational constants in MHz :  3742.681359  1977.448225  1793.927438

                             ****ORCA TERMINATED NORMALLY****
TOTAL RUN TIME: 0 days 0 hours 21 minutes 18 seconds 827 msec
