                         Program Version 5.0.4 -  RELEASE  -
|  1> ! ri-mp2 aug-cc-pvdz aug-cc-pvdz/c tightscf
|  2> %pal nprocs 16 end
|  3> %maxcore 3800
|  4> %base "DZ_S-S_16_AB"
|  5> %scf
|  6> STABPerform true
|  7> STABRestartUHFifUnstable true
|  8> end
|  9>
| 10> *xyz 0 1
| 11> S        -0.863569    0.933927    0.535119
| 12> S         0.863571    0.933925   -0.535114
| 13> C         1.749727   -0.376290    0.270226
| 14> C        -1.749735   -0.376281   -0.270231
| 15> F        -2.953068   -0.440054    0.313212
| 16> O        -1.417177   -1.090576   -1.136172
| 17> O         1.417179   -1.090586    1.136168
| 18> F         2.953069   -0.440046   -0.313212
| 19> *
| 20>
| 21> $new_job
| 22> ! ri-mp2 aug-cc-pvtz aug-cc-pvtz/c tightscf
| 23> %pal nprocs 16 end
| 24> %maxcore 3800
| 25> %base "TZ_S-S_16_AB"
| 26>
| 27> *xyz 0 1
| 28> S        -0.863569    0.933927    0.535119
| 29> S         0.863571    0.933925   -0.535114
| 30> C         1.749727   -0.376290    0.270226
| 31> C        -1.749735   -0.376281   -0.270231
| 32> F        -2.953068   -0.440054    0.313212
| 33> O        -1.417177   -1.090576   -1.136172
| 34> O         1.417179   -1.090586    1.136168
| 35> F         2.953069   -0.440046   -0.313212
| 36> *
| 37>
| 38> $new_job
| 39> ! ri-mp2 aug-cc-pvqz aug-cc-pvqz/c tightscf
| 40> %pal nprocs 16 end
| 41> %maxcore 3800
| 42> %base "QZ_S-S_16_AB"
| 43>
| 44> *xyz 0 1
| 45> S        -0.863569    0.933927    0.535119
| 46> S         0.863571    0.933925   -0.535114
| 47> C         1.749727   -0.376290    0.270226
| 48> C        -1.749735   -0.376281   -0.270231
| 49> F        -2.953068   -0.440054    0.313212
| 50> O        -1.417177   -1.090576   -1.136172
| 51> O         1.417179   -1.090586    1.136168
| 52> F         2.953069   -0.440046   -0.313212
| 53> *
| 54>
| 55>
| 56>
| 57>
| 58>                          ****END OF INPUT****
 Total Charge           Charge          ....    0
 Multiplicity           Mult            ....    1
 Number of Electrons    NEL             ....   78
MP2 TOTAL ENERGY:    -1220.791001883 Eh
FINAL SINGLE POINT ENERGY     -1220.791001883212
MP2 TOTAL ENERGY:    -1221.244744879 Eh
FINAL SINGLE POINT ENERGY     -1221.244744878944

CARTESIAN COORDINATES (ANGSTROEM)
---------------------------------
  S     -0.863569    0.933927    0.535119
  S      0.863571    0.933925   -0.535114
  C      1.749727   -0.376290    0.270226
  C     -1.749735   -0.376281   -0.270231
  F     -2.953068   -0.440054    0.313212
  O     -1.417177   -1.090576   -1.136172
  O      1.417179   -1.090586    1.136168
  F      2.953069   -0.440046   -0.313212

 Multiplicity           Mult            ....    1
 Number of Electrons    NEL             ....   78
 Basis Dimension        Dim             ....  648

ORBITAL ENERGIES
----------------

  NO   OCC          E(Eh)            E(eV)
   0   2.0000     -92.051597     -2504.8513
   1   2.0000     -92.051594     -2504.8512
   2   2.0000     -26.366206      -717.4609
   3   2.0000     -26.366204      -717.4609
   4   2.0000     -20.612074      -560.8830
   5   2.0000     -20.612073      -560.8830
   6   2.0000     -11.473208      -312.2019
   7   2.0000     -11.473208      -312.2019
   8   2.0000      -9.052366      -246.3274
   9   2.0000      -9.052151      -246.3216
  10   2.0000      -6.733524      -183.2285
  11   2.0000      -6.733189      -183.2194
  12   2.0000      -6.732187      -183.1921
  13   2.0000      -6.732033      -183.1879
  14   2.0000      -6.731223      -183.1659
  15   2.0000      -6.731219      -183.1658
  16   2.0000      -1.695940       -46.1489
  17   2.0000      -1.695842       -46.1462
  18   2.0000      -1.473062       -40.0841
  19   2.0000      -1.471117       -40.0311
  20   2.0000      -1.147302       -31.2197
  21   2.0000      -1.021888       -27.8070
  22   2.0000      -0.900464       -24.5029
  23   2.0000      -0.858948       -23.3732
  24   2.0000      -0.787357       -21.4251
  25   2.0000      -0.759733       -20.6734
  26   2.0000      -0.759446       -20.6656
  27   2.0000      -0.753038       -20.4912
  28   2.0000      -0.747164       -20.3314
  29   2.0000      -0.729700       -19.8562
  30   2.0000      -0.650503       -17.7011
  31   2.0000      -0.640585       -17.4312
  32   2.0000      -0.591883       -16.1060
  33   2.0000      -0.585855       -15.9419
  34   2.0000      -0.556850       -15.1527
  35   2.0000      -0.510181       -13.8827
  36   2.0000      -0.503755       -13.7079
  37   2.0000      -0.448296       -12.1988
  38   2.0000      -0.433125       -11.7859
  39   0.0000       0.033707         0.9172
  40   0.0000       0.038071         1.0360
  41   0.0000       0.050275         1.3680
  42   0.0000       0.055139         1.5004
  43   0.0000       0.074338         2.0228

MULLIKEN ATOMIC CHARGES
-----------------------
   0 S :    0.205655
   1 S :    0.205661
   2 C :    0.854009
   3 C :    0.854013
   4 F :   -0.504344
   5 O :   -0.555325
   6 O :   -0.555323
   7 F :   -0.504346
Sum of atomic charges:   -0.0000000

LOEWDIN ATOMIC CHARGES
----------------------
   0 S :    0.673167
   1 S :    0.673167
   2 C :   -1.860148
   3 C :   -1.860148
   4 F :    0.647627
   5 O :    0.539356
   6 O :    0.539358
   7 F :    0.647621

  Mayer bond orders larger than 0.100000
B(  0-S ,  1-S ) :   1.1560 B(  0-S ,  3-C ) :   1.0357 B(  1-S ,  2-C ) :   1.0357
B(  2-C ,  6-O ) :   1.7845 B(  2-C ,  7-F ) :   0.6987 B(  3-C ,  4-F ) :   0.6987
B(  3-C ,  5-O ) :   1.7845

MP2 TOTAL ENERGY:    -1221.397325266 Eh
FINAL SINGLE POINT ENERGY     -1221.397325266068

DIPOLE MOMENT
-------------
                                X             Y             Z
Electronic contribution:     -0.00002       0.38038       0.00000
Nuclear contribution   :     -0.00000       0.71992       0.00000
                        -----------------------------------------
Total Dipole Moment    :     -0.00002       1.10030       0.00000
                        -----------------------------------------
Magnitude (a.u.)       :      1.10030
Magnitude (Debye)      :      2.79674

Rotational constants in cm-1:     0.099233     0.028959     0.027114
Rotational constants in MHz :  2974.933064   868.165406   812.869743

                             ****ORCA TERMINATED NORMALLY****
TOTAL RUN TIME: 0 days 0 hours 31 minutes 39 seconds 348 msec
