                         Program Version 5.0.4 -  RELEASE  -
|  1> ! ri-mp2 aug-cc-pvdz aug-cc-pvdz/c tightscf
|  2> %pal nprocs 16 end
|  3> %maxcore 3800
|  4> %base "DZ_B-S_15_AB"
|  5>
|  6> *xyz 0 1
|  7> Cl         4.074444   -0.641645    0.196700
|  8> F        -1.877407    1.882425    1.045640
|  9> F        -2.199956    1.039002   -0.913173
| 10> F        -1.241683    2.961025   -0.707147
| 11> S        -2.109523   -1.537502    1.508669
| 12> S        -1.402973   -2.449446   -1.321323
| 13> N         2.377563    1.318513   -0.027288
| 14> C        -1.326369    1.737587   -0.173940
| 15> C         2.477666    0.017091    0.077452
| 16> C         1.396607   -0.851513    0.092429
| 17> H         1.564633   -1.915637    0.171512
| 18> C         0.113762   -0.330939    0.008178
| 19> C         0.009121    1.059063   -0.100145
| 20> C         1.156512    1.829669   -0.118605
| 21> H         1.093224    2.905582   -0.215871
| 22> B        -1.088103   -1.340323    0.051662
| 23> H        -1.548510   -0.568170    2.242033
| 24> H        -0.469777   -1.958426   -2.146501
| 25> *
| 26>
| 27> $new_job
| 28> ! ri-mp2 aug-cc-pvtz aug-cc-pvtz/c tightscf
| 29> %pal nprocs 16 end
| 30> %maxcore 3800
| 31> %base "TZ_B-S_15_AB"
| 32>
| 33> *xyz 0 1
| 34> Cl         4.074444   -0.641645    0.196700
| 35> F        -1.877407    1.882425    1.045640
| 36> F        -2.199956    1.039002   -0.913173
| 37> F        -1.241683    2.961025   -0.707147
| 38> S        -2.109523   -1.537502    1.508669
| 39> S        -1.402973   -2.449446   -1.321323
| 40> N         2.377563    1.318513   -0.027288
| 41> C        -1.326369    1.737587   -0.173940
| 42> C         2.477666    0.017091    0.077452
| 43> C         1.396607   -0.851513    0.092429
| 44> H         1.564633   -1.915637    0.171512
| 45> C         0.113762   -0.330939    0.008178
| 46> C         0.009121    1.059063   -0.100145
| 47> C         1.156512    1.829669   -0.118605
| 48> H         1.093224    2.905582   -0.215871
| 49> B        -1.088103   -1.340323    0.051662
| 50> H        -1.548510   -0.568170    2.242033
| 51> H        -0.469777   -1.958426   -2.146501
| 52> *
| 53>
| 54> $new_job
| 55> ! ri-mp2 aug-cc-pvqz aug-cc-pvqz/c tightscf
| 56> %pal nprocs 16 end
| 57> %maxcore 3800
| 58> %base "QZ_B-S_15_AB"
| 59>
| 60> *xyz 0 1
| 61> Cl         4.074444   -0.641645    0.196700
| 62> F        -1.877407    1.882425    1.045640
| 63> F        -2.199956    1.039002   -0.913173
| 64> F        -1.241683    2.961025   -0.707147
| 65> S        -2.109523   -1.537502    1.508669
| 66> S        -1.402973   -2.449446   -1.321323
| 67> N         2.377563    1.318513   -0.027288
| 68> C        -1.326369    1.737587   -0.173940
| 69> C         2.477666    0.017091    0.077452
| 70> C         1.396607   -0.851513    0.092429
| 71> H         1.564633   -1.915637    0.171512
| 72> C         0.113762   -0.330939    0.008178
| 73> C         0.009121    1.059063   -0.100145
| 74> C         1.156512    1.829669   -0.118605
| 75> H         1.093224    2.905582   -0.215871
| 76> B        -1.088103   -1.340323    0.051662
| 77> H        -1.548510   -0.568170    2.242033
| 78> H        -0.469777   -1.958426   -2.146501
| 79> *
| 80>
| 81>
| 82>
| 83>
| 84>                          ****END OF INPUT****
 Total Charge           Charge          ....    0
 Multiplicity           Mult            ....    1
 Number of Electrons    NEL             ....  128
MP2 TOTAL ENERGY:    -1863.797675679 Eh
FINAL SINGLE POINT ENERGY     -1863.797675678572
MP2 TOTAL ENERGY:    -1864.462417822 Eh
FINAL SINGLE POINT ENERGY     -1864.462417821621

CARTESIAN COORDINATES (ANGSTROEM)
---------------------------------
  Cl     4.074444   -0.641645    0.196700
  F     -1.877407    1.882425    1.045640
  F     -2.199956    1.039002   -0.913173
  F     -1.241683    2.961025   -0.707147
  S     -2.109523   -1.537502    1.508669
  S     -1.402973   -2.449446   -1.321323
  N      2.377563    1.318513   -0.027288
  C     -1.326369    1.737587   -0.173940
  C      2.477666    0.017091    0.077452
  C      1.396607   -0.851513    0.092429
  H      1.564633   -1.915637    0.171512
  C      0.113762   -0.330939    0.008178
  C      0.009121    1.059063   -0.100145
  C      1.156512    1.829669   -0.118605
  H      1.093224    2.905582   -0.215871
  B     -1.088103   -1.340323    0.051662
  H     -1.548510   -0.568170    2.242033
  H     -0.469777   -1.958426   -2.146501

 Multiplicity           Mult            ....    1
 Number of Electrons    NEL             ....  128
 Basis Dimension        Dim             .... 1316

ORBITAL ENERGIES
----------------

  NO   OCC          E(Eh)            E(eV)
   0   2.0000    -104.858780     -2853.3525
   1   2.0000     -91.975227     -2502.7732
   2   2.0000     -91.974151     -2502.7439
   3   2.0000     -26.351730      -717.0670
   4   2.0000     -26.351704      -717.0663
   5   2.0000     -26.346524      -716.9254
   6   2.0000     -15.598900      -424.4677
   7   2.0000     -11.526375      -313.6486
   8   2.0000     -11.366413      -309.2958
   9   2.0000     -11.316521      -307.9382
  10   2.0000     -11.291441      -307.2557
  11   2.0000     -11.287351      -307.1444
  12   2.0000     -11.277235      -306.8692
  13   2.0000     -10.584577      -288.0210
  14   2.0000      -8.980355      -244.3679
  15   2.0000      -8.979344      -244.3404
  16   2.0000      -8.051681      -219.0974
  17   2.0000      -8.049841      -219.0473
  18   2.0000      -8.049821      -219.0468
  19   2.0000      -7.680847      -209.0065
  20   2.0000      -6.661850      -181.2782
  21   2.0000      -6.660939      -181.2534
  22   2.0000      -6.660831      -181.2504
  23   2.0000      -6.660456      -181.2402
  24   2.0000      -6.659940      -181.2262
  25   2.0000      -6.659454      -181.2130
  26   2.0000      -1.746072       -47.5130
  27   2.0000      -1.651751       -44.9464
  28   2.0000      -1.646315       -44.7985
  29   2.0000      -1.322369       -35.9835
  30   2.0000      -1.168478       -31.7959
  31   2.0000      -1.148038       -31.2397
  32   2.0000      -1.074428       -29.2367
  33   2.0000      -1.031535       -28.0695
  34   2.0000      -0.985041       -26.8043
  35   2.0000      -0.981753       -26.7149
  36   2.0000      -0.911485       -24.8028
  37   2.0000      -0.890485       -24.2313
  38   2.0000      -0.838207       -22.8088
  39   2.0000      -0.837079       -22.7781
  40   2.0000      -0.821102       -22.3433
  41   2.0000      -0.741445       -20.1757
  42   2.0000      -0.729273       -19.8445
  43   2.0000      -0.716694       -19.5022
  44   2.0000      -0.706631       -19.2284
  45   2.0000      -0.680773       -18.5248
  46   2.0000      -0.678776       -18.4704
  47   2.0000      -0.671201       -18.2643
  48   2.0000      -0.665550       -18.1105
  49   2.0000      -0.660833       -17.9822
  50   2.0000      -0.614176       -16.7126
  51   2.0000      -0.609103       -16.5745
  52   2.0000      -0.604924       -16.4608
  53   2.0000      -0.562477       -15.3058
  54   2.0000      -0.548242       -14.9184
  55   2.0000      -0.517748       -14.0886
  56   2.0000      -0.492737       -13.4081
  57   2.0000      -0.485481       -13.2106
  58   2.0000      -0.474608       -12.9147
  59   2.0000      -0.451468       -12.2851
  60   2.0000      -0.447961       -12.1896
  61   2.0000      -0.413462       -11.2509
  62   2.0000      -0.388332       -10.5670
  63   2.0000      -0.377016       -10.2591
  64   0.0000       0.020983         0.5710
  65   0.0000       0.030287         0.8242
  66   0.0000       0.031777         0.8647
  67   0.0000       0.036122         0.9829
  68   0.0000       0.041643         1.1332

MULLIKEN ATOMIC CHARGES
-----------------------
   0 Cl:   -0.318854
   1 F :   -0.652277
   2 F :   -0.733934
   3 F :   -0.677882
   4 S :   -0.099775
   5 S :   -0.068611
   6 N :   -0.516159
   7 C :    2.322441
   8 C :    0.013836
   9 C :   -0.492085
  10 H :    0.296377
  11 C :    0.673054
  12 C :   -0.653452
  13 C :   -0.030643
  14 H :    0.477356
  15 B :    0.457112
  16 H :    0.003386
  17 H :    0.000110
Sum of atomic charges:    0.0000000

LOEWDIN ATOMIC CHARGES
----------------------
   0 Cl:    1.201242
   1 F :    0.771270
   2 F :    0.800265
   3 F :    0.796120
   4 S :    1.713452
   5 S :    1.710500
   6 N :    0.485763
   7 C :   -2.164297
   8 C :   -1.119841
   9 C :    0.152401
  10 H :   -0.356536
  11 C :   -0.154865
  12 C :   -0.243853
  13 C :    0.058235
  14 H :   -0.358169
  15 B :   -1.761236
  16 H :   -0.769896
  17 H :   -0.760555

  Mayer bond orders larger than 0.100000
B(  0-Cl,  6-N ) :  -0.1651 B(  0-Cl,  8-C ) :   0.9603 B(  0-Cl,  9-C ) :  -0.1827
B(  1-F ,  7-C ) :   0.3465 B(  1-F , 12-C ) :   0.1598 B(  2-F ,  7-C ) :   0.3578
B(  2-F , 12-C ) :   0.1011 B(  3-F ,  7-C ) :   0.2013 B(  4-S , 15-B ) :   1.0436
B(  4-S , 16-H ) :   1.1096 B(  5-S , 11-C ) :  -0.1448 B(  5-S , 15-B ) :   1.0783
B(  5-S , 17-H ) :   1.0861 B(  6-N ,  8-C ) :   0.9744 B(  6-N ,  9-C ) :   0.1035
B(  6-N , 11-C ) :   0.1032 B(  6-N , 13-C ) :   1.0642 B(  6-N , 14-H ) :  -0.1390
B(  7-C , 11-C ) :  -0.1226 B(  7-C , 12-C ) :   0.9594 B(  7-C , 13-C ) :  -0.1309
B(  8-C ,  9-C ) :   1.1266 B(  8-C , 11-C ) :  -0.3895 B(  9-C , 10-H ) :   0.9027
B(  9-C , 11-C ) :   1.1163 B(  9-C , 12-C ) :  -0.1551 B(  9-C , 13-C ) :   0.1569
B( 11-C , 12-C ) :   0.9356 B( 11-C , 13-C ) :  -0.3355 B( 11-C , 15-B ) :   0.7383
B( 12-C , 13-C ) :   1.3470 B( 12-C , 14-H ) :  -0.1183 B( 13-C , 14-H ) :   0.8243

MP2 TOTAL ENERGY:    -1864.681335547 Eh
FINAL SINGLE POINT ENERGY     -1864.681335546681

DIPOLE MOMENT
-------------
                                X             Y             Z
Electronic contribution:     -0.86895       4.63403      -0.29268
Nuclear contribution   :      0.99209      -4.87106       0.27051
                        -----------------------------------------
Total Dipole Moment    :      0.12314      -0.23703      -0.02216
                        -----------------------------------------
Magnitude (a.u.)       :      0.26803
Magnitude (Debye)      :      0.68127

Rotational constants in cm-1:     0.019072     0.012018     0.008814
Rotational constants in MHz :   571.773774   360.276484   264.245125

                             ****ORCA TERMINATED NORMALLY****
TOTAL RUN TIME: 0 days 1 hours 8 minutes 47 seconds 161 msec
