                         Program Version 5.0.4 -  RELEASE  -
|  1> ! ri-mp2 aug-cc-pvdz aug-cc-pvdz/c tightscf
|  2> %pal nprocs 16 end
|  3> %maxcore 3800
|  4> %base "DZ_S-S_37_AB"
|  5> %scf
|  6> STABPerform true
|  7> STABRestartUHFifUnstable true
|  8> end
|  9>
| 10> *xyz 0 1
| 11> S        -0.339785   -1.634746    0.243336
| 12> S         0.726330   -0.406065   -0.983126
| 13> C         2.070262    0.338655    0.049563
| 14> C         2.987485   -0.760983    0.564200
| 15> H         3.811644   -0.321332    1.130789
| 16> H         3.404021   -1.341811   -0.257972
| 17> H         2.448530   -1.439067    1.225338
| 18> C         2.809285    1.232582   -0.941708
| 19> H         3.664924    1.693380   -0.445189
| 20> H         2.164586    2.028497   -1.315266
| 21> H         3.180926    0.661206   -1.792874
| 22> C         1.523865    1.158849    1.203105
| 23> H         0.866487    1.951656    0.851744
| 24> H         2.352994    1.609358    1.753664
| 25> H         0.964150    0.531306    1.894333
| 26> C        -1.941454   -0.773246    0.523113
| 27> C        -1.835834    0.514433    1.273011
| 28> C        -2.191242    1.551539    0.532253
| 29> C        -2.626785    1.151115   -0.846674
| 30> C        -2.700089   -0.383906   -0.762079
| 31> H        -1.899885    1.486174   -1.589904
| 32> H        -3.587032    1.592362   -1.119662
| 33> H        -3.739316   -0.698468   -0.663893
| 34> H        -2.292398   -0.876564   -1.641232
| 35> H        -2.471782   -1.542354    1.089961
| 36> H        -1.467270    0.562345    2.287599
| 37> H        -2.158255    2.582054    0.860493
| 38> *
| 39>
| 40> $new_job
| 41> ! ri-mp2 aug-cc-pvtz aug-cc-pvtz/c tightscf
| 42> %pal nprocs 16 end
| 43> %maxcore 3800
| 44> %base "TZ_S-S_37_AB"
| 45>
| 46> *xyz 0 1
| 47> S        -0.339785   -1.634746    0.243336
| 48> S         0.726330   -0.406065   -0.983126
| 49> C         2.070262    0.338655    0.049563
| 50> C         2.987485   -0.760983    0.564200
| 51> H         3.811644   -0.321332    1.130789
| 52> H         3.404021   -1.341811   -0.257972
| 53> H         2.448530   -1.439067    1.225338
| 54> C         2.809285    1.232582   -0.941708
| 55> H         3.664924    1.693380   -0.445189
| 56> H         2.164586    2.028497   -1.315266
| 57> H         3.180926    0.661206   -1.792874
| 58> C         1.523865    1.158849    1.203105
| 59> H         0.866487    1.951656    0.851744
| 60> H         2.352994    1.609358    1.753664
| 61> H         0.964150    0.531306    1.894333
| 62> C        -1.941454   -0.773246    0.523113
| 63> C        -1.835834    0.514433    1.273011
| 64> C        -2.191242    1.551539    0.532253
| 65> C        -2.626785    1.151115   -0.846674
| 66> C        -2.700089   -0.383906   -0.762079
| 67> H        -1.899885    1.486174   -1.589904
| 68> H        -3.587032    1.592362   -1.119662
| 69> H        -3.739316   -0.698468   -0.663893
| 70> H        -2.292398   -0.876564   -1.641232
| 71> H        -2.471782   -1.542354    1.089961
| 72> H        -1.467270    0.562345    2.287599
| 73> H        -2.158255    2.582054    0.860493
| 74> *
| 75>
| 76> $new_job
| 77> ! ri-mp2 aug-cc-pvqz aug-cc-pvqz/c tightscf
| 78> %pal nprocs 16 end
| 79> %maxcore 3800
| 80> %base "QZ_S-S_37_AB"
| 81>
| 82> *xyz 0 1
| 83> S        -0.339785   -1.634746    0.243336
| 84> S         0.726330   -0.406065   -0.983126
| 85> C         2.070262    0.338655    0.049563
| 86> C         2.987485   -0.760983    0.564200
| 87> H         3.811644   -0.321332    1.130789
| 88> H         3.404021   -1.341811   -0.257972
| 89> H         2.448530   -1.439067    1.225338
| 90> C         2.809285    1.232582   -0.941708
| 91> H         3.664924    1.693380   -0.445189
| 92> H         2.164586    2.028497   -1.315266
| 93> H         3.180926    0.661206   -1.792874
| 94> C         1.523865    1.158849    1.203105
| 95> H         0.866487    1.951656    0.851744
| 96> H         2.352994    1.609358    1.753664
| 97> H         0.964150    0.531306    1.894333
| 98> C        -1.941454   -0.773246    0.523113
| 99> C        -1.835834    0.514433    1.273011
|100> C        -2.191242    1.551539    0.532253
|101> C        -2.626785    1.151115   -0.846674
|102> C        -2.700089   -0.383906   -0.762079
|103> H        -1.899885    1.486174   -1.589904
|104> H        -3.587032    1.592362   -1.119662
|105> H        -3.739316   -0.698468   -0.663893
|106> H        -2.292398   -0.876564   -1.641232
|107> H        -2.471782   -1.542354    1.089961
|108> H        -1.467270    0.562345    2.287599
|109> H        -2.158255    2.582054    0.860493
|110> *
|111>
|112>
|113>
|114>
|115>                          ****END OF INPUT****
 Total Charge           Charge          ....    0
 Multiplicity           Mult            ....    1
 Number of Electrons    NEL             ....  102
MP2 TOTAL ENERGY:    -1146.826321003 Eh
FINAL SINGLE POINT ENERGY     -1146.826321002841
MP2 TOTAL ENERGY:    -1147.259200460 Eh
FINAL SINGLE POINT ENERGY     -1147.259200459952

CARTESIAN COORDINATES (ANGSTROEM)
---------------------------------
  S     -0.339785   -1.634746    0.243336
  S      0.726330   -0.406065   -0.983126
  C      2.070262    0.338655    0.049563
  C      2.987485   -0.760983    0.564200
  H      3.811644   -0.321332    1.130789
  H      3.404021   -1.341811   -0.257972
  H      2.448530   -1.439067    1.225338
  C      2.809285    1.232582   -0.941708
  H      3.664924    1.693380   -0.445189
  H      2.164586    2.028497   -1.315266
  H      3.180926    0.661206   -1.792874
  C      1.523865    1.158849    1.203105
  H      0.866487    1.951656    0.851744
  H      2.352994    1.609358    1.753664
  H      0.964150    0.531306    1.894333
  C     -1.941454   -0.773246    0.523113
  C     -1.835834    0.514433    1.273011
  C     -2.191242    1.551539    0.532253
  C     -2.626785    1.151115   -0.846674
  C     -2.700089   -0.383906   -0.762079
  H     -1.899885    1.486174   -1.589904
  H     -3.587032    1.592362   -1.119662
  H     -3.739316   -0.698468   -0.663893
  H     -2.292398   -0.876564   -1.641232
  H     -2.471782   -1.542354    1.089961
  H     -1.467270    0.562345    2.287599
  H     -2.158255    2.582054    0.860493

 Multiplicity           Mult            ....    1
 Number of Electrons    NEL             ....  102
 Basis Dimension        Dim             .... 1624

ORBITAL ENERGIES
----------------

  NO   OCC          E(Eh)            E(eV)
   0   2.0000     -91.958513     -2502.3184
   1   2.0000     -91.954147     -2502.1996
   2   2.0000     -11.267355      -306.6003
   3   2.0000     -11.263378      -306.4921
   4   2.0000     -11.227754      -305.5227
   5   2.0000     -11.223628      -305.4104
   6   2.0000     -11.223472      -305.4062
   7   2.0000     -11.222391      -305.3768
   8   2.0000     -11.220681      -305.3303
   9   2.0000     -11.212990      -305.1210
  10   2.0000     -11.212901      -305.1186
  11   2.0000      -8.959310      -243.7952
  12   2.0000      -8.955415      -243.6892
  13   2.0000      -6.640685      -180.7022
  14   2.0000      -6.639406      -180.6674
  15   2.0000      -6.638718      -180.6487
  16   2.0000      -6.636803      -180.5966
  17   2.0000      -6.635481      -180.5606
  18   2.0000      -6.634823      -180.5427
  19   2.0000      -1.151532       -31.3348
  20   2.0000      -1.119943       -30.4752
  21   2.0000      -1.032593       -28.0983
  22   2.0000      -0.974420       -26.5153
  23   2.0000      -0.955192       -25.9921
  24   2.0000      -0.943565       -25.6757
  25   2.0000      -0.938474       -25.5372
  26   2.0000      -0.850285       -23.1374
  27   2.0000      -0.779073       -21.1997
  28   2.0000      -0.738649       -20.0997
  29   2.0000      -0.711530       -19.3617
  30   2.0000      -0.685128       -18.6433
  31   2.0000      -0.635098       -17.2819
  32   2.0000      -0.618719       -16.8362
  33   2.0000      -0.610180       -16.6039
  34   2.0000      -0.606192       -16.4953
  35   2.0000      -0.560622       -15.2553
  36   2.0000      -0.553100       -15.0506
  37   2.0000      -0.545820       -14.8525
  38   2.0000      -0.530184       -14.4270
  39   2.0000      -0.519948       -14.1485
  40   2.0000      -0.511365       -13.9149
  41   2.0000      -0.506227       -13.7751
  42   2.0000      -0.493060       -13.4168
  43   2.0000      -0.488836       -13.3019
  44   2.0000      -0.482946       -13.1416
  45   2.0000      -0.477142       -12.9837
  46   2.0000      -0.448556       -12.2058
  47   2.0000      -0.426685       -11.6107
  48   2.0000      -0.360042        -9.7973
  49   2.0000      -0.349334        -9.5059
  50   2.0000      -0.324660        -8.8344
  51   0.0000       0.023233         0.6322
  52   0.0000       0.027670         0.7529
  53   0.0000       0.029097         0.7918
  54   0.0000       0.031309         0.8520
  55   0.0000       0.039683         1.0798

MULLIKEN ATOMIC CHARGES
-----------------------
   0 S :   -0.360658
   1 S :   -0.337283
   2 C :    1.444231
   3 C :   -1.177874
   4 H :    0.281484
   5 H :    0.271483
   6 H :    0.272768
   7 C :   -1.233224
   8 H :    0.300722
   9 H :    0.266555
  10 H :    0.281027
  11 C :   -1.336722
  12 H :    0.388808
  13 H :    0.248291
  14 H :    0.376802
  15 C :    0.022935
  16 C :   -0.356797
  17 C :   -0.357547
  18 C :   -0.565131
  19 C :   -0.751749
  20 H :    0.278603
  21 H :    0.315010
  22 H :    0.377052
  23 H :    0.271934
  24 H :    0.403362
  25 H :    0.282805
  26 H :    0.393112
Sum of atomic charges:    0.0000000

LOEWDIN ATOMIC CHARGES
----------------------
   0 S :    0.901147
   1 S :    0.908887
   2 C :   -0.698399
   3 C :    0.806446
   4 H :   -0.275118
   5 H :   -0.292887
   6 H :   -0.319968
   7 C :    0.792032
   8 H :   -0.274489
   9 H :   -0.290775
  10 H :   -0.295960
  11 C :    0.812841
  12 H :   -0.298075
  13 H :   -0.268633
  14 H :   -0.327780
  15 C :   -0.310352
  16 C :    0.278725
  17 C :    0.379311
  18 C :    0.483258
  19 C :    0.417152
  20 H :   -0.286379
  21 H :   -0.272299
  22 H :   -0.269615
  23 H :   -0.306445
  24 H :   -0.391400
  25 H :   -0.311086
  26 H :   -0.290138

  Mayer bond orders larger than 0.100000
B(  0-S ,  1-S ) :   1.2937 B(  0-S ,  2-C ) :  -0.1074 B(  0-S , 15-C ) :   0.6227
B(  1-S ,  2-C ) :   0.4367 B(  1-S ,  7-C ) :   0.1116 B(  2-C ,  3-C ) :   0.4043
B(  2-C ,  5-H ) :  -0.1445 B(  2-C ,  6-H ) :  -0.1194 B(  2-C ,  7-C ) :   0.2537
B(  2-C ,  9-H ) :  -0.1485 B(  2-C , 10-H ) :  -0.1343 B(  2-C , 11-C ) :   0.5656
B(  2-C , 14-H ) :  -0.1028 B(  3-C ,  4-H ) :   0.9406 B(  3-C ,  5-H ) :   1.0554
B(  3-C ,  6-H ) :   1.0143 B(  3-C ,  7-C ) :   0.1759 B(  3-C , 11-C ) :   0.1112
B(  7-C ,  8-H ) :   0.9597 B(  7-C ,  9-H ) :   1.0439 B(  7-C , 10-H ) :   1.0239
B(  7-C , 11-C ) :   0.1329 B( 11-C , 12-H ) :   0.8851 B( 11-C , 13-H ) :   1.0299
B( 11-C , 14-H ) :   0.8941 B( 15-C , 16-C ) :   0.8841 B( 15-C , 19-C ) :   0.8835
B( 15-C , 24-H ) :   0.8113 B( 16-C , 17-C ) :   1.6096 B( 16-C , 25-H ) :   1.0191
B( 17-C , 18-C ) :   0.8541 B( 17-C , 26-H ) :   0.9094 B( 18-C , 19-C ) :   1.0467
B( 18-C , 20-H ) :   0.8941 B( 18-C , 21-H ) :   0.9369 B( 19-C , 22-H ) :   0.8296
B( 19-C , 23-H ) :   0.9701

MP2 TOTAL ENERGY:    -1147.393336837 Eh
FINAL SINGLE POINT ENERGY     -1147.393336836929

DIPOLE MOMENT
-------------
                                X             Y             Z
Electronic contribution:     -5.39427      -7.96872      -1.97236
Nuclear contribution   :      5.31972       8.68758       2.32988
                        -----------------------------------------
Total Dipole Moment    :     -0.07455       0.71887       0.35752
                        -----------------------------------------
Magnitude (a.u.)       :      0.80631
Magnitude (Debye)      :      2.04949

Rotational constants in cm-1:     0.046827     0.019399     0.017617
Rotational constants in MHz :  1403.832675   581.558263   528.134025

                             ****ORCA TERMINATED NORMALLY****
TOTAL RUN TIME: 0 days 12 hours 38 minutes 37 seconds 730 msec
