                         Program Version 5.0.4 -  RELEASE  -
|  1> ! ri-mp2 aug-cc-pvdz aug-cc-pvdz/c tightscf
|  2> %pal nprocs 16 end
|  3> %maxcore 3800
|  4> %base "DZ_P-N_22_AB"
|  5>
|  6> *xyz 0 1
|  7> P        -0.214087    0.085044   -0.864418
|  8> N        -1.305460    1.308969    0.047505
|  9> N        -0.607604   -1.366643   -0.082532
| 10> O        -1.140663    2.475220   -0.220655
| 11> O        -2.127009    0.887295    0.844716
| 12> O        -0.658103   -1.437457    1.298732
| 13> O        -1.738699   -1.965272   -0.646470
| 14> C         1.284708    0.539924    0.076151
| 15> C         2.482127   -0.321796   -0.313808
| 16> H         1.090607    0.467730    1.146389
| 17> H         1.471273    1.588808   -0.164390
| 18> C         3.750444    0.124183    0.397218
| 19> H         2.631347   -0.277888   -1.395818
| 20> H         2.269497   -1.363904   -0.070804
| 21> H         3.999115    1.157163    0.148778
| 22> H         4.597461   -0.501030    0.115252
| 23> H         3.634241    0.060656    1.480137
| 24> H        -1.486822   -2.889343   -0.770133
| 25> H        -1.391844   -0.846289    1.554089
| 26> *
| 27>
| 28> $new_job
| 29> ! ri-mp2 aug-cc-pvtz aug-cc-pvtz/c tightscf
| 30> %pal nprocs 16 end
| 31> %maxcore 3800
| 32> %base "TZ_P-N_22_AB"
| 33>
| 34> *xyz 0 1
| 35> P        -0.214087    0.085044   -0.864418
| 36> N        -1.305460    1.308969    0.047505
| 37> N        -0.607604   -1.366643   -0.082532
| 38> O        -1.140663    2.475220   -0.220655
| 39> O        -2.127009    0.887295    0.844716
| 40> O        -0.658103   -1.437457    1.298732
| 41> O        -1.738699   -1.965272   -0.646470
| 42> C         1.284708    0.539924    0.076151
| 43> C         2.482127   -0.321796   -0.313808
| 44> H         1.090607    0.467730    1.146389
| 45> H         1.471273    1.588808   -0.164390
| 46> C         3.750444    0.124183    0.397218
| 47> H         2.631347   -0.277888   -1.395818
| 48> H         2.269497   -1.363904   -0.070804
| 49> H         3.999115    1.157163    0.148778
| 50> H         4.597461   -0.501030    0.115252
| 51> H         3.634241    0.060656    1.480137
| 52> H        -1.486822   -2.889343   -0.770133
| 53> H        -1.391844   -0.846289    1.554089
| 54> *
| 55>
| 56> $new_job
| 57> ! ri-mp2 aug-cc-pvqz aug-cc-pvqz/c tightscf
| 58> %pal nprocs 16 end
| 59> %maxcore 3800
| 60> %base "QZ_P-N_22_AB"
| 61>
| 62> *xyz 0 1
| 63> P        -0.214087    0.085044   -0.864418
| 64> N        -1.305460    1.308969    0.047505
| 65> N        -0.607604   -1.366643   -0.082532
| 66> O        -1.140663    2.475220   -0.220655
| 67> O        -2.127009    0.887295    0.844716
| 68> O        -0.658103   -1.437457    1.298732
| 69> O        -1.738699   -1.965272   -0.646470
| 70> C         1.284708    0.539924    0.076151
| 71> C         2.482127   -0.321796   -0.313808
| 72> H         1.090607    0.467730    1.146389
| 73> H         1.471273    1.588808   -0.164390
| 74> C         3.750444    0.124183    0.397218
| 75> H         2.631347   -0.277888   -1.395818
| 76> H         2.269497   -1.363904   -0.070804
| 77> H         3.999115    1.157163    0.148778
| 78> H         4.597461   -0.501030    0.115252
| 79> H         3.634241    0.060656    1.480137
| 80> H        -1.486822   -2.889343   -0.770133
| 81> H        -1.391844   -0.846289    1.554089
| 82> *
| 83>
| 84>
| 85>
| 86>
| 87>                          ****END OF INPUT****
 Total Charge           Charge          ....    0
 Multiplicity           Mult            ....    1
 Number of Electrons    NEL             ....   88
MP2 TOTAL ENERGY:     -869.520618706 Eh
FINAL SINGLE POINT ENERGY      -869.520618705865
MP2 TOTAL ENERGY:     -870.019634730 Eh
FINAL SINGLE POINT ENERGY      -870.019634729709

CARTESIAN COORDINATES (ANGSTROEM)
---------------------------------
  P     -0.214087    0.085044   -0.864418
  N     -1.305460    1.308969    0.047505
  N     -0.607604   -1.366643   -0.082532
  O     -1.140663    2.475220   -0.220655
  O     -2.127009    0.887295    0.844716
  O     -0.658103   -1.437457    1.298732
  O     -1.738699   -1.965272   -0.646470
  C      1.284708    0.539924    0.076151
  C      2.482127   -0.321796   -0.313808
  H      1.090607    0.467730    1.146389
  H      1.471273    1.588808   -0.164390
  C      3.750444    0.124183    0.397218
  H      2.631347   -0.277888   -1.395818
  H      2.269497   -1.363904   -0.070804
  H      3.999115    1.157163    0.148778
  H      4.597461   -0.501030    0.115252
  H      3.634241    0.060656    1.480137
  H     -1.486822   -2.889343   -0.770133
  H     -1.391844   -0.846289    1.554089

 Multiplicity           Mult            ....    1
 Number of Electrons    NEL             ....   88
 Basis Dimension        Dim             .... 1218

ORBITAL ENERGIES
----------------

  NO   OCC          E(Eh)            E(eV)
   0   2.0000     -80.031274     -2177.7617
   1   2.0000     -20.626189      -561.2671
   2   2.0000     -20.618116      -561.0475
   3   2.0000     -20.610726      -560.8464
   4   2.0000     -20.605519      -560.7047
   5   2.0000     -15.831035      -430.7844
   6   2.0000     -15.691990      -427.0008
   7   2.0000     -11.257295      -306.3266
   8   2.0000     -11.247781      -306.0677
   9   2.0000     -11.229378      -305.5669
  10   2.0000      -7.568181      -205.9407
  11   2.0000      -5.461767      -148.6222
  12   2.0000      -5.460560      -148.5894
  13   2.0000      -5.459587      -148.5629
  14   2.0000      -1.610750       -43.8307
  15   2.0000      -1.501334       -40.8534
  16   2.0000      -1.409026       -38.3415
  17   2.0000      -1.377044       -37.4713
  18   2.0000      -1.117094       -30.3977
  19   2.0000      -1.071547       -29.1583
  20   2.0000      -0.985774       -26.8243
  21   2.0000      -0.943234       -25.6667
  22   2.0000      -0.845313       -23.0021
  23   2.0000      -0.819696       -22.3051
  24   2.0000      -0.773712       -21.0538
  25   2.0000      -0.759497       -20.6670
  26   2.0000      -0.732515       -19.9327
  27   2.0000      -0.717841       -19.5335
  28   2.0000      -0.680245       -18.5104
  29   2.0000      -0.668392       -18.1879
  30   2.0000      -0.654894       -17.8206
  31   2.0000      -0.635150       -17.2833
  32   2.0000      -0.596736       -16.2380
  33   2.0000      -0.570290       -15.5184
  34   2.0000      -0.553821       -15.0702
  35   2.0000      -0.519890       -14.1469
  36   2.0000      -0.518876       -14.1193
  37   2.0000      -0.508063       -13.8251
  38   2.0000      -0.506562       -13.7843
  39   2.0000      -0.498776       -13.5724
  40   2.0000      -0.474746       -12.9185
  41   2.0000      -0.464412       -12.6373
  42   2.0000      -0.424643       -11.5551
  43   2.0000      -0.413771       -11.2593
  44   0.0000       0.020142         0.5481
  45   0.0000       0.027246         0.7414
  46   0.0000       0.032595         0.8870
  47   0.0000       0.035298         0.9605
  48   0.0000       0.045999         1.2517

MULLIKEN ATOMIC CHARGES
-----------------------
   0 P :    0.937647
   1 N :    0.763080
   2 N :    0.248939
   3 O :   -0.630282
   4 O :   -0.659384
   5 O :   -0.693159
   6 O :   -0.767101
   7 C :   -0.608348
   8 C :   -0.385753
   9 H :    0.292276
  10 H :    0.374734
  11 C :   -0.874484
  12 H :    0.263622
  13 H :    0.242529
  14 H :    0.229438
  15 H :    0.295103
  16 H :    0.232693
  17 H :    0.354912
  18 H :    0.383537
Sum of atomic charges:   -0.0000000

LOEWDIN ATOMIC CHARGES
----------------------
   0 P :    0.670375
   1 N :   -0.977166
   2 N :   -0.444082
   3 O :    0.446532
   4 O :    0.500088
   5 O :    1.040605
   6 O :    1.014970
   7 C :    0.341458
   8 C :    0.437277
   9 H :   -0.344745
  10 H :   -0.354577
  11 C :    0.931465
  12 H :   -0.285488
  13 H :   -0.290554
  14 H :   -0.281722
  15 H :   -0.278837
  16 H :   -0.280244
  17 H :   -0.830089
  18 H :   -1.015266

  Mayer bond orders larger than 0.100000
B(  0-P ,  1-N ) :   0.5582 B(  0-P ,  2-N ) :   0.8759 B(  0-P ,  7-C ) :   0.9183
B(  1-N ,  3-O ) :   1.2602 B(  1-N ,  4-O ) :   1.1648 B(  2-N ,  5-O ) :   0.5967
B(  2-N ,  6-O ) :   0.3858 B(  3-O ,  4-O ) :   0.1208 B(  5-O , 18-H ) :   0.7908
B(  6-O , 17-H ) :   0.9198 B(  7-C ,  8-C ) :   0.8341 B(  7-C ,  9-H ) :   0.8842
B(  7-C , 10-H ) :   0.8446 B(  8-C , 11-C ) :   0.9887 B(  8-C , 12-H ) :   0.8660
B(  8-C , 13-H ) :   0.8712 B( 11-C , 14-H ) :   0.9541 B( 11-C , 15-H ) :   0.9774
B( 11-C , 16-H ) :   0.9537

MP2 TOTAL ENERGY:     -870.182713416 Eh
FINAL SINGLE POINT ENERGY      -870.182713415586

DIPOLE MOMENT
-------------
                                X             Y             Z
Electronic contribution:    -15.28608       1.64841      -3.18570
Nuclear contribution   :     16.63455      -2.64102       2.83826
                        -----------------------------------------
Total Dipole Moment    :      1.34847      -0.99261      -0.34744
                        -----------------------------------------
Magnitude (a.u.)       :      1.71007
Magnitude (Debye)      :      4.34666

Rotational constants in cm-1:     0.047243     0.028499     0.021427
Rotational constants in MHz :  1416.316445   854.370172   642.360324

                             ****ORCA TERMINATED NORMALLY****
TOTAL RUN TIME: 0 days 0 hours 47 minutes 58 seconds 552 msec
