                         Program Version 5.0.4 -  RELEASE  -
|  1> ! ri-mp2 aug-cc-pvdz aug-cc-pvdz/c tightscf
|  2> %pal nprocs 16 end
|  3> %maxcore 3800
|  4> %base "DZ_B-P_32_AB"
|  5>
|  6> *xyz 0 1
|  7> C         0.294786   -0.292308    0.508978
|  8> C         1.123794   -1.261631   -0.039116
|  9> C         2.385947   -0.934226   -0.506235
| 10> C         2.839188    0.370615   -0.426897
| 11> C         2.021645    1.344552    0.124313
| 12> C         0.760889    1.014687    0.586409
| 13> B        -2.715039    1.359117   -0.617718
| 14> H         3.017930   -1.703464   -0.930202
| 15> H         3.825400    0.628242   -0.788895
| 16> H         2.369375    2.366725    0.196188
| 17> H         0.125761    1.782501    1.011070
| 18> H         0.777852   -2.286499   -0.100270
| 19> C        -1.083600   -0.647820    0.982819
| 20> P        -2.428016   -0.418178   -0.265800
| 21> H        -2.628481    2.154798    0.262895
| 22> H        -3.160878    1.676312   -1.672381
| 23> H        -1.373292   -0.033712    1.836480
| 24> H        -1.115488   -1.685031    1.315112
| 25> H        -1.898644   -0.986006   -1.436037
| 26> *
| 27>
| 28> $new_job
| 29> ! ri-mp2 aug-cc-pvtz aug-cc-pvtz/c tightscf
| 30> %pal nprocs 16 end
| 31> %maxcore 3800
| 32> %base "TZ_B-P_32_AB"
| 33>
| 34> *xyz 0 1
| 35> C         0.294786   -0.292308    0.508978
| 36> C         1.123794   -1.261631   -0.039116
| 37> C         2.385947   -0.934226   -0.506235
| 38> C         2.839188    0.370615   -0.426897
| 39> C         2.021645    1.344552    0.124313
| 40> C         0.760889    1.014687    0.586409
| 41> B        -2.715039    1.359117   -0.617718
| 42> H         3.017930   -1.703464   -0.930202
| 43> H         3.825400    0.628242   -0.788895
| 44> H         2.369375    2.366725    0.196188
| 45> H         0.125761    1.782501    1.011070
| 46> H         0.777852   -2.286499   -0.100270
| 47> C        -1.083600   -0.647820    0.982819
| 48> P        -2.428016   -0.418178   -0.265800
| 49> H        -2.628481    2.154798    0.262895
| 50> H        -3.160878    1.676312   -1.672381
| 51> H        -1.373292   -0.033712    1.836480
| 52> H        -1.115488   -1.685031    1.315112
| 53> H        -1.898644   -0.986006   -1.436037
| 54> *
| 55>
| 56> $new_job
| 57> ! ri-mp2 aug-cc-pvqz aug-cc-pvqz/c tightscf
| 58> %pal nprocs 16 end
| 59> %maxcore 3800
| 60> %base "QZ_B-P_32_AB"
| 61>
| 62> *xyz 0 1
| 63> C         0.294786   -0.292308    0.508978
| 64> C         1.123794   -1.261631   -0.039116
| 65> C         2.385947   -0.934226   -0.506235
| 66> C         2.839188    0.370615   -0.426897
| 67> C         2.021645    1.344552    0.124313
| 68> C         0.760889    1.014687    0.586409
| 69> B        -2.715039    1.359117   -0.617718
| 70> H         3.017930   -1.703464   -0.930202
| 71> H         3.825400    0.628242   -0.788895
| 72> H         2.369375    2.366725    0.196188
| 73> H         0.125761    1.782501    1.011070
| 74> H         0.777852   -2.286499   -0.100270
| 75> C        -1.083600   -0.647820    0.982819
| 76> P        -2.428016   -0.418178   -0.265800
| 77> H        -2.628481    2.154798    0.262895
| 78> H        -3.160878    1.676312   -1.672381
| 79> H        -1.373292   -0.033712    1.836480
| 80> H        -1.115488   -1.685031    1.315112
| 81> H        -1.898644   -0.986006   -1.436037
| 82> *
| 83>
| 84>
| 85>
| 86>
| 87>                          ****END OF INPUT****
 Total Charge           Charge          ....    0
 Multiplicity           Mult            ....    1
 Number of Electrons    NEL             ....   72
MP2 TOTAL ENERGY:     -637.506674835 Eh
FINAL SINGLE POINT ENERGY      -637.506674834846
MP2 TOTAL ENERGY:     -637.813820417 Eh
FINAL SINGLE POINT ENERGY      -637.813820417410

CARTESIAN COORDINATES (ANGSTROEM)
---------------------------------
  C      0.294786   -0.292308    0.508978
  C      1.123794   -1.261631   -0.039116
  C      2.385947   -0.934226   -0.506235
  C      2.839188    0.370615   -0.426897
  C      2.021645    1.344552    0.124313
  C      0.760889    1.014687    0.586409
  B     -2.715039    1.359117   -0.617718
  H      3.017930   -1.703464   -0.930202
  H      3.825400    0.628242   -0.788895
  H      2.369375    2.366725    0.196188
  H      0.125761    1.782501    1.011070
  H      0.777852   -2.286499   -0.100270
  C     -1.083600   -0.647820    0.982819
  P     -2.428016   -0.418178   -0.265800
  H     -2.628481    2.154798    0.262895
  H     -3.160878    1.676312   -1.672381
  H     -1.373292   -0.033712    1.836480
  H     -1.115488   -1.685031    1.315112
  H     -1.898644   -0.986006   -1.436037

 Multiplicity           Mult            ....    1
 Number of Electrons    NEL             ....   72
 Basis Dimension        Dim             .... 1184

ORBITAL ENERGIES
----------------

  NO   OCC          E(Eh)            E(eV)
   0   2.0000     -79.924200     -2174.8480
   1   2.0000     -11.246616      -306.0360
   2   2.0000     -11.245926      -306.0172
   3   2.0000     -11.235891      -305.7441
   4   2.0000     -11.235735      -305.7399
   5   2.0000     -11.231892      -305.6353
   6   2.0000     -11.231414      -305.6223
   7   2.0000     -11.230947      -305.6096
   8   2.0000      -7.605450      -206.9548
   9   2.0000      -7.470783      -203.2903
  10   2.0000      -5.365334      -145.9982
  11   2.0000      -5.365195      -145.9944
  12   2.0000      -5.364768      -145.9828
  13   2.0000      -1.165419       -31.7127
  14   2.0000      -1.061422       -28.8828
  15   2.0000      -1.020918       -27.7806
  16   2.0000      -0.959736       -26.1158
  17   2.0000      -0.837000       -22.7759
  18   2.0000      -0.833403       -22.6781
  19   2.0000      -0.794404       -21.6168
  20   2.0000      -0.703078       -19.1317
  21   2.0000      -0.667102       -18.1528
  22   2.0000      -0.644732       -17.5440
  23   2.0000      -0.639510       -17.4020
  24   2.0000      -0.591763       -16.1027
  25   2.0000      -0.583822       -15.8866
  26   2.0000      -0.566872       -15.4254
  27   2.0000      -0.539916       -14.6919
  28   2.0000      -0.512617       -13.9490
  29   2.0000      -0.498445       -13.5634
  30   2.0000      -0.493205       -13.4208
  31   2.0000      -0.476969       -12.9790
  32   2.0000      -0.462182       -12.5766
  33   2.0000      -0.355153        -9.6642
  34   2.0000      -0.342879        -9.3302
  35   2.0000      -0.315924        -8.5967
  36   0.0000       0.022739         0.6188
  37   0.0000       0.027433         0.7465
  38   0.0000       0.028423         0.7734
  39   0.0000       0.031660         0.8615
  40   0.0000       0.037882         1.0308

MULLIKEN ATOMIC CHARGES
-----------------------
   0 C :    0.515357
   1 C :   -0.547741
   2 C :   -0.283809
   3 C :   -0.351009
   4 C :   -0.295110
   5 C :   -0.514723
   6 B :    0.299878
   7 H :    0.250850
   8 H :    0.335211
   9 H :    0.223362
  10 H :    0.313225
  11 H :    0.280761
  12 C :   -0.411661
  13 P :    0.203909
  14 H :   -0.157149
  15 H :   -0.263362
  16 H :    0.197101
  17 H :    0.251375
  18 H :   -0.046465
Sum of atomic charges:    0.0000000

LOEWDIN ATOMIC CHARGES
----------------------
   0 C :   -0.163097
   1 C :    0.328172
   2 C :    0.343158
   3 C :    0.336289
   4 C :    0.345895
   5 C :    0.322744
   6 B :    0.098486
   7 H :   -0.318989
   8 H :   -0.323378
   9 H :   -0.317762
  10 H :   -0.321293
  11 H :   -0.315176
  12 C :    0.313644
  13 P :    1.331839
  14 H :   -0.249903
  15 H :   -0.264060
  16 H :   -0.362581
  17 H :   -0.362933
  18 H :   -0.421055

  Mayer bond orders larger than 0.100000
B(  0-C ,  1-C ) :   1.0467 B(  0-C ,  2-C ) :  -0.3649 B(  0-C ,  4-C ) :  -0.3726
B(  0-C ,  5-C ) :   1.0489 B(  0-C , 12-C ) :   0.7104 B(  1-C ,  2-C ) :   1.3797
B(  1-C ,  3-C ) :   0.1165 B(  1-C ,  4-C ) :   0.1726 B(  1-C ,  7-H ) :  -0.1433
B(  1-C , 11-H ) :   0.9676 B(  1-C , 12-C ) :  -0.1960 B(  2-C ,  3-C ) :   1.1287
B(  2-C ,  5-C ) :   0.1027 B(  2-C ,  7-H ) :   1.1263 B(  3-C ,  4-C ) :   1.1475
B(  3-C ,  7-H ) :  -0.1102 B(  3-C ,  8-H ) :   0.9906 B(  4-C ,  5-C ) :   1.3383
B(  4-C ,  9-H ) :   1.1533 B(  5-C ,  9-H ) :  -0.1398 B(  5-C , 10-H ) :   0.9279
B(  5-C , 12-C ) :  -0.1623 B(  6-B , 13-P ) :   1.3431 B(  6-B , 14-H ) :   0.9332
B(  6-B , 15-H ) :   0.9066 B( 12-C , 13-P ) :   0.7294 B( 12-C , 16-H ) :   0.9925
B( 12-C , 17-H ) :   1.0056 B( 13-P , 18-H ) :   0.9708

MP2 TOTAL ENERGY:     -637.910395081 Eh
FINAL SINGLE POINT ENERGY      -637.910395081226

DIPOLE MOMENT
-------------
                                X             Y             Z
Electronic contribution:     -3.91201      -1.27741      -0.33914
Nuclear contribution   :      4.41619       1.21050       0.44250
                        -----------------------------------------
Total Dipole Moment    :      0.50418      -0.06690       0.10336
                        -----------------------------------------
Magnitude (a.u.)       :      0.51900
Magnitude (Debye)      :      1.31919

Rotational constants in cm-1:     0.099853     0.027587     0.024313
Rotational constants in MHz :  2993.527401   827.038535   728.894918

                             ****ORCA TERMINATED NORMALLY****
TOTAL RUN TIME: 0 days 0 hours 48 minutes 5 seconds 800 msec
