                         Program Version 5.0.4 -  RELEASE  -
|  1> ! ri-mp2 aug-cc-pvdz aug-cc-pvdz/c tightscf
|  2> %pal nprocs 16 end
|  3> %maxcore 3800
|  4> %base "DZ_Si-Cl_38_A"
|  5> %scf
|  6> STABPerform true
|  7> STABRestartUHFifUnstable true
|  8> end
|  9>
| 10> *xyz 0 2
| 11> C         1.741975   -0.000025   -0.012098
| 12> Si        -0.010202    0.000000    0.545555
| 13> N         2.864682   -0.000025   -0.249063
| 14> Cl        -0.892976    1.682904   -0.171228
| 15> Cl        -0.893012   -1.682885   -0.171228
| 16> *
| 17>
| 18> $new_job
| 19> ! ri-mp2 aug-cc-pvtz aug-cc-pvtz/c tightscf
| 20> %pal nprocs 16 end
| 21> %maxcore 3800
| 22> %base "TZ_Si-Cl_38_A"
| 23>
| 24> *xyz 0 2
| 25> C         1.741975   -0.000025   -0.012098
| 26> Si        -0.010202    0.000000    0.545555
| 27> N         2.864682   -0.000025   -0.249063
| 28> Cl        -0.892976    1.682904   -0.171228
| 29> Cl        -0.893012   -1.682885   -0.171228
| 30> *
| 31>
| 32> $new_job
| 33> ! ri-mp2 aug-cc-pvqz aug-cc-pvqz/c tightscf
| 34> %pal nprocs 16 end
| 35> %maxcore 3800
| 36> %base "QZ_Si-Cl_38_A"
| 37>
| 38> *xyz 0 2
| 39> C         1.741975   -0.000025   -0.012098
| 40> Si        -0.010202    0.000000    0.545555
| 41> N         2.864682   -0.000025   -0.249063
| 42> Cl        -0.892976    1.682904   -0.171228
| 43> Cl        -0.893012   -1.682885   -0.171228
| 44> *
| 45>
| 46>
| 47>
| 48>
| 49>                          ****END OF INPUT****
 Total Charge           Charge          ....    0
 Multiplicity           Mult            ....    2
 Number of Electrons    NEL             ....   61
MP2 TOTAL ENERGY:    -1300.983184023 Eh
FINAL SINGLE POINT ENERGY     -1300.983184022710
MP2 TOTAL ENERGY:    -1301.213260910 Eh
FINAL SINGLE POINT ENERGY     -1301.213260910041

CARTESIAN COORDINATES (ANGSTROEM)
---------------------------------
  C      1.741975   -0.000025   -0.012098
  Si    -0.010202    0.000000    0.545555
  N      2.864682   -0.000025   -0.249063
  Cl    -0.892976    1.682904   -0.171228
  Cl    -0.893012   -1.682885   -0.171228

 Multiplicity           Mult            ....    2
 Number of Electrons    NEL             ....   61
 Basis Dimension        Dim             ....  412

ORBITAL ENERGIES
----------------
                 SPIN UP ORBITALS
  NO   OCC          E(Eh)            E(eV)
   0   1.0000    -104.871223     -2853.6911
   1   1.0000    -104.871223     -2853.6911
   2   1.0000     -68.917031     -1875.3278
   3   1.0000     -15.609342      -424.7518
   4   1.0000     -11.274472      -306.7940
   5   1.0000     -10.598385      -288.3967
   6   1.0000     -10.598380      -288.3966
   7   1.0000      -8.066521      -219.5012
   8   1.0000      -8.066520      -219.5012
   9   1.0000      -8.063862      -219.4288
  10   1.0000      -8.063862      -219.4288
  11   1.0000      -8.063509      -219.4192
  12   1.0000      -8.063508      -219.4192
  13   1.0000      -6.257114      -170.2647
  14   1.0000      -4.367859      -118.8555
  15   1.0000      -4.359913      -118.6393
  16   1.0000      -4.359853      -118.6376
  17   1.0000      -1.252824       -34.0911
  18   1.0000      -1.159429       -31.5497
  19   1.0000      -1.130861       -30.7723
  20   1.0000      -0.816507       -22.2183
  21   1.0000      -0.655996       -17.8506
  22   1.0000      -0.595098       -16.1935
  23   1.0000      -0.587527       -15.9874
  24   1.0000      -0.561292       -15.2735
  25   1.0000      -0.523093       -14.2341
  26   1.0000      -0.522486       -14.2176
  27   1.0000      -0.505592       -13.7579
  28   1.0000      -0.501838       -13.6557
  29   1.0000      -0.490007       -13.3338
  30   1.0000      -0.392829       -10.6894
  31   0.0000       0.028432         0.7737
  32   0.0000       0.035140         0.9562
  33   0.0000       0.035707         0.9716
  34   0.0000       0.041323         1.1244
  35   0.0000       0.071952         1.9579

                 SPIN DOWN ORBITALS
  NO   OCC          E(Eh)            E(eV)
   0   1.0000    -104.870038     -2853.6588
   1   1.0000    -104.870038     -2853.6588
   2   1.0000     -68.910282     -1875.1441
   3   1.0000     -15.602851      -424.5752
   4   1.0000     -11.276530      -306.8500
   5   1.0000     -10.597097      -288.3617
   6   1.0000     -10.597090      -288.3615
   7   1.0000      -8.063698      -219.4244
   8   1.0000      -8.063697      -219.4243
   9   1.0000      -8.062902      -219.4027
  10   1.0000      -8.062902      -219.4027
  11   1.0000      -8.061275      -219.3585
  12   1.0000      -8.061274      -219.3584
  13   1.0000      -6.245769      -169.9560
  14   1.0000      -4.355537      -118.5202
  15   1.0000      -4.355199      -118.5110
  16   1.0000      -4.346666      -118.2788
  17   1.0000      -1.239839       -33.7377
  18   1.0000      -1.149230       -31.2722
  19   1.0000      -1.121939       -30.5295
  20   1.0000      -0.793245       -21.5853
  21   1.0000      -0.637945       -17.3594
  22   1.0000      -0.583723       -15.8839
  23   1.0000      -0.576446       -15.6859
  24   1.0000      -0.533073       -14.5056
  25   1.0000      -0.517214       -14.0741
  26   1.0000      -0.512420       -13.9437
  27   1.0000      -0.495404       -13.4806
  28   1.0000      -0.490902       -13.3581
  29   1.0000      -0.485778       -13.2187
  30   0.0000      -0.007051        -0.1919
  31   0.0000       0.034730         0.9451
  32   0.0000       0.036796         1.0013
  33   0.0000       0.038004         1.0341
  34   0.0000       0.042121         1.1462

MULLIKEN ATOMIC CHARGES AND SPIN POPULATIONS
--------------------------------------------
   0 C :   -0.130539   -0.149871
   1 Si:    1.555839    0.842090
   2 N :   -0.441061    0.207201
   3 Cl:   -0.492120    0.050290
   4 Cl:   -0.492119    0.050290
Sum of atomic charges         :   -0.0000000

LOEWDIN ATOMIC CHARGES AND SPIN POPULATIONS
-------------------------------------------
   0 C :   -0.555396    0.100385
   1 Si:   -1.324630    0.528528
   2 N :    0.276665    0.100929
   3 Cl:    0.801681    0.135079
   4 Cl:    0.801680    0.135079

  Mayer bond orders larger than 0.100000
B(  0-C ,  1-Si) :   0.7995 B(  0-C ,  2-N ) :   2.6597 B(  1-Si,  3-Cl) :   0.7520
B(  1-Si,  4-Cl) :   0.7520

MP2 TOTAL ENERGY:    -1301.290904618 Eh
FINAL SINGLE POINT ENERGY     -1301.290904618008

DIPOLE MOMENT
-------------
                                X             Y             Z
Electronic contribution:     -3.31584       0.00003       0.07816
Nuclear contribution   :      2.35757      -0.00003       0.41730
                        -----------------------------------------
Total Dipole Moment    :     -0.95827       0.00001       0.49546
                        -----------------------------------------
Magnitude (a.u.)       :      1.07878
Magnitude (Debye)      :      2.74203

Rotational constants in cm-1:     0.079472     0.076907     0.041247
Rotational constants in MHz :  2382.500099  2305.614583  1236.540934

                             ****ORCA TERMINATED NORMALLY****
TOTAL RUN TIME: 0 days 0 hours 24 minutes 38 seconds 632 msec
