                         Program Version 5.0.4 -  RELEASE  -
|  1> ! ri-mp2 aug-cc-pvdz aug-cc-pvdz/c tightscf
|  2> %pal nprocs 16 end
|  3> %maxcore 3800
|  4> %base "DZ_P-F_7_AB"
|  5> %scf
|  6> STABPerform true
|  7> STABRestartUHFifUnstable true
|  8> end
|  9>
| 10> *xyz 0 1
| 11> F         2.649239   -1.126297    0.259561
| 12> O        -2.498133   -1.772382   -0.185758
| 13> P         1.903148    0.114573   -0.463276
| 14> N        -0.441748   -1.043010    0.518689
| 15> N        -0.496923    1.118275   -0.204641
| 16> C         0.336119    0.164311    0.525053
| 17> C        -1.683216   -0.902635   -0.012712
| 18> C        -1.840128    0.573942   -0.316229
| 19> C        -0.418770    2.479477    0.273670
| 20> H        -0.062217   -1.945176    0.752069
| 21> H        -2.267805    0.716581   -1.307841
| 22> H        -2.532189    1.004137    0.420951
| 23> H        -0.950372    3.138195   -0.411545
| 24> H        -0.855603    2.594086    1.276839
| 25> H         0.620236    2.804315    0.308011
| 26> H         1.302599   -0.624002   -1.510342
| 27> H         0.546719    0.491580    1.553981
| 28> *
| 29>
| 30> $new_job
| 31> ! ri-mp2 aug-cc-pvtz aug-cc-pvtz/c tightscf
| 32> %pal nprocs 16 end
| 33> %maxcore 3800
| 34> %base "TZ_P-F_7_AB"
| 35>
| 36> *xyz 0 1
| 37> F         2.649239   -1.126297    0.259561
| 38> O        -2.498133   -1.772382   -0.185758
| 39> P         1.903148    0.114573   -0.463276
| 40> N        -0.441748   -1.043010    0.518689
| 41> N        -0.496923    1.118275   -0.204641
| 42> C         0.336119    0.164311    0.525053
| 43> C        -1.683216   -0.902635   -0.012712
| 44> C        -1.840128    0.573942   -0.316229
| 45> C        -0.418770    2.479477    0.273670
| 46> H        -0.062217   -1.945176    0.752069
| 47> H        -2.267805    0.716581   -1.307841
| 48> H        -2.532189    1.004137    0.420951
| 49> H        -0.950372    3.138195   -0.411545
| 50> H        -0.855603    2.594086    1.276839
| 51> H         0.620236    2.804315    0.308011
| 52> H         1.302599   -0.624002   -1.510342
| 53> H         0.546719    0.491580    1.553981
| 54> *
| 55>
| 56> $new_job
| 57> ! ri-mp2 aug-cc-pvqz aug-cc-pvqz/c tightscf
| 58> %pal nprocs 16 end
| 59> %maxcore 3800
| 60> %base "QZ_P-F_7_AB"
| 61>
| 62> *xyz 0 1
| 63> F         2.649239   -1.126297    0.259561
| 64> O        -2.498133   -1.772382   -0.185758
| 65> P         1.903148    0.114573   -0.463276
| 66> N        -0.441748   -1.043010    0.518689
| 67> N        -0.496923    1.118275   -0.204641
| 68> C         0.336119    0.164311    0.525053
| 69> C        -1.683216   -0.902635   -0.012712
| 70> C        -1.840128    0.573942   -0.316229
| 71> C        -0.418770    2.479477    0.273670
| 72> H        -0.062217   -1.945176    0.752069
| 73> H        -2.267805    0.716581   -1.307841
| 74> H        -2.532189    1.004137    0.420951
| 75> H        -0.950372    3.138195   -0.411545
| 76> H        -0.855603    2.594086    1.276839
| 77> H         0.620236    2.804315    0.308011
| 78> H         1.302599   -0.624002   -1.510342
| 79> H         0.546719    0.491580    1.553981
| 80> *
| 81>
| 82>
| 83>
| 84>
| 85>                          ****END OF INPUT****
 Total Charge           Charge          ....    0
 Multiplicity           Mult            ....    1
 Number of Electrons    NEL             ....   78
MP2 TOTAL ENERGY:     -781.570383046 Eh
FINAL SINGLE POINT ENERGY      -781.570383046224
MP2 TOTAL ENERGY:     -781.997143540 Eh
FINAL SINGLE POINT ENERGY      -781.997143540027

CARTESIAN COORDINATES (ANGSTROEM)
---------------------------------
  F      2.649239   -1.126297    0.259561
  O     -2.498133   -1.772382   -0.185758
  P      1.903148    0.114573   -0.463276
  N     -0.441748   -1.043010    0.518689
  N     -0.496923    1.118275   -0.204641
  C      0.336119    0.164311    0.525053
  C     -1.683216   -0.902635   -0.012712
  C     -1.840128    0.573942   -0.316229
  C     -0.418770    2.479477    0.273670
  H     -0.062217   -1.945176    0.752069
  H     -2.267805    0.716581   -1.307841
  H     -2.532189    1.004137    0.420951
  H     -0.950372    3.138195   -0.411545
  H     -0.855603    2.594086    1.276839
  H      0.620236    2.804315    0.308011
  H      1.302599   -0.624002   -1.510342
  H      0.546719    0.491580    1.553981

 Multiplicity           Mult            ....    1
 Number of Electrons    NEL             ....   78
 Basis Dimension        Dim             .... 1092

ORBITAL ENERGIES
----------------

  NO   OCC          E(Eh)            E(eV)
   0   2.0000     -80.007280     -2177.1088
   1   2.0000     -26.299941      -715.6578
   2   2.0000     -20.527314      -558.5766
   3   2.0000     -15.598805      -424.4651
   4   2.0000     -15.586099      -424.1193
   5   2.0000     -11.358144      -309.0708
   6   2.0000     -11.323128      -308.1180
   7   2.0000     -11.279149      -306.9212
   8   2.0000     -11.270740      -306.6924
   9   2.0000      -7.542886      -205.2524
  10   2.0000      -5.436984      -147.9479
  11   2.0000      -5.435734      -147.9138
  12   2.0000      -5.434642      -147.8841
  13   2.0000      -1.604783       -43.6684
  14   2.0000      -1.400758       -38.1166
  15   2.0000      -1.315682       -35.8015
  16   2.0000      -1.209007       -32.8987
  17   2.0000      -1.030544       -28.0425
  18   2.0000      -0.981677       -26.7128
  19   2.0000      -0.873928       -23.7808
  20   2.0000      -0.828908       -22.5557
  21   2.0000      -0.824410       -22.4334
  22   2.0000      -0.721394       -19.6301
  23   2.0000      -0.716971       -19.5098
  24   2.0000      -0.688705       -18.7406
  25   2.0000      -0.682202       -18.5637
  26   2.0000      -0.655290       -17.8313
  27   2.0000      -0.638976       -17.3874
  28   2.0000      -0.631497       -17.1839
  29   2.0000      -0.619662       -16.8619
  30   2.0000      -0.591941       -16.1075
  31   2.0000      -0.584586       -15.9074
  32   2.0000      -0.561558       -15.2808
  33   2.0000      -0.539759       -14.6876
  34   2.0000      -0.509849       -13.8737
  35   2.0000      -0.437932       -11.9167
  36   2.0000      -0.425654       -11.5826
  37   2.0000      -0.402825       -10.9614
  38   2.0000      -0.362431        -9.8622
  39   0.0000       0.020266         0.5515
  40   0.0000       0.027818         0.7570
  41   0.0000       0.033048         0.8993
  42   0.0000       0.035253         0.9593
  43   0.0000       0.046702         1.2708

MULLIKEN ATOMIC CHARGES
-----------------------
   0 F :   -0.733597
   1 O :   -0.857394
   2 P :    0.891194
   3 N :   -0.733849
   4 N :   -0.181306
   5 C :    0.231547
   6 C :    1.044103
   7 C :   -0.589397
   8 C :   -0.916622
   9 H :    0.104297
  10 H :    0.310748
  11 H :    0.268928
  12 H :    0.316625
  13 H :    0.336042
  14 H :    0.306493
  15 H :   -0.138038
  16 H :    0.340225
Sum of atomic charges:    0.0000000

LOEWDIN ATOMIC CHARGES
----------------------
   0 F :    0.263113
   1 O :    0.689941
   2 P :    0.761629
   3 N :    0.790239
   4 N :    0.365788
   5 C :   -0.414190
   6 C :   -0.851947
   7 C :    0.318499
   8 C :    0.735929
   9 H :   -0.468098
  10 H :   -0.275378
  11 H :   -0.273770
  12 H :   -0.280948
  13 H :   -0.269508
  14 H :   -0.307163
  15 H :   -0.444446
  16 H :   -0.339688

  Mayer bond orders larger than 0.100000
B(  0-F ,  2-P ) :   0.4612 B(  0-F ,  5-C ) :  -0.1228 B(  1-O ,  3-N ) :   0.2750
B(  1-O ,  6-C ) :   0.9090 B(  1-O ,  7-C ) :   0.2678 B(  2-P ,  5-C ) :   0.7547
B(  2-P , 15-H ) :   1.0236 B(  3-N ,  5-C ) :   0.5647 B(  3-N ,  6-C ) :   1.2193
B(  3-N ,  9-H ) :   1.1384 B(  4-N ,  5-C ) :   0.6071 B(  4-N ,  7-C ) :   0.9073
B(  4-N ,  8-C ) :   0.9049 B(  5-C , 16-H ) :   0.9122 B(  6-C ,  7-C ) :   1.2518
B(  7-C , 10-H ) :   0.9122 B(  7-C , 11-H ) :   0.8775 B(  8-C , 12-H ) :   0.9486
B(  8-C , 13-H ) :   0.8834 B(  8-C , 14-H ) :   0.9524

MP2 TOTAL ENERGY:     -782.135607041 Eh
FINAL SINGLE POINT ENERGY      -782.135607041324

DIPOLE MOMENT
-------------
                                X             Y             Z
Electronic contribution:      8.85224      -7.58053      -0.87220
Nuclear contribution   :     -8.46419       8.93562       1.23552
                        -----------------------------------------
Total Dipole Moment    :      0.38805       1.35510       0.36332
                        -----------------------------------------
Magnitude (a.u.)       :      1.45563
Magnitude (Debye)      :      3.69993

Rotational constants in cm-1:     0.066710     0.035686     0.025143
Rotational constants in MHz :  1999.914379  1069.844040   753.768923

                             ****ORCA TERMINATED NORMALLY****
TOTAL RUN TIME: 0 days 3 hours 19 minutes 30 seconds 219 msec
