                         Program Version 5.0.4 -  RELEASE  -
|  1> ! ri-mp2 aug-cc-pvdz aug-cc-pvdz/c tightscf
|  2> %pal nprocs 16 end
|  3> %maxcore 3800
|  4> %base "DZ_B-Si_4_A"
|  5> %scf
|  6> STABPerform true
|  7> STABRestartUHFifUnstable true
|  8> end
|  9>
| 10> *xyz 0 2
| 11> Si         1.212065   -0.037800   -0.000000
| 12> C        -0.527204    0.673051   -0.000001
| 13> C        -1.621256   -0.398746    0.000000
| 14> H        -1.550378   -1.039935    0.879484
| 15> H        -1.550378   -1.039937   -0.879482
| 16> H        -2.614919    0.053058    0.000000
| 17> H        -0.634947    1.320793   -0.872908
| 18> H        -0.634947    1.320795    0.872905
| 19> H         1.453711   -0.865698    1.209408
| 20> H         1.453711   -0.865702   -1.209406
| 21> *
| 22>
| 23> $new_job
| 24> ! ri-mp2 aug-cc-pvtz aug-cc-pvtz/c tightscf
| 25> %pal nprocs 16 end
| 26> %maxcore 3800
| 27> %base "TZ_B-Si_4_A"
| 28>
| 29> *xyz 0 2
| 30> Si         1.212065   -0.037800   -0.000000
| 31> C        -0.527204    0.673051   -0.000001
| 32> C        -1.621256   -0.398746    0.000000
| 33> H        -1.550378   -1.039935    0.879484
| 34> H        -1.550378   -1.039937   -0.879482
| 35> H        -2.614919    0.053058    0.000000
| 36> H        -0.634947    1.320793   -0.872908
| 37> H        -0.634947    1.320795    0.872905
| 38> H         1.453711   -0.865698    1.209408
| 39> H         1.453711   -0.865702   -1.209406
| 40> *
| 41>
| 42> $new_job
| 43> ! ri-mp2 aug-cc-pvqz aug-cc-pvqz/c tightscf
| 44> %pal nprocs 16 end
| 45> %maxcore 3800
| 46> %base "QZ_B-Si_4_A"
| 47>
| 48> *xyz 0 2
| 49> Si         1.212065   -0.037800   -0.000000
| 50> C        -0.527204    0.673051   -0.000001
| 51> C        -1.621256   -0.398746    0.000000
| 52> H        -1.550378   -1.039935    0.879484
| 53> H        -1.550378   -1.039937   -0.879482
| 54> H        -2.614919    0.053058    0.000000
| 55> H        -0.634947    1.320793   -0.872908
| 56> H        -0.634947    1.320795    0.872905
| 57> H         1.453711   -0.865698    1.209408
| 58> H         1.453711   -0.865702   -1.209406
| 59> *
| 60>
| 61>
| 62>
| 63>
| 64>                          ****END OF INPUT****
 Total Charge           Charge          ....    0
 Multiplicity           Mult            ....    2
 Number of Electrons    NEL             ....   33
MP2 TOTAL ENERGY:     -369.104552192 Eh
FINAL SINGLE POINT ENERGY      -369.104552191868
MP2 TOTAL ENERGY:     -369.218744228 Eh
FINAL SINGLE POINT ENERGY      -369.218744228156

CARTESIAN COORDINATES (ANGSTROEM)
---------------------------------
  Si     1.212065   -0.037800   -0.000000
  C     -0.527204    0.673051   -0.000001
  C     -1.621256   -0.398746    0.000000
  H     -1.550378   -1.039935    0.879484
  H     -1.550378   -1.039937   -0.879482
  H     -2.614919    0.053058    0.000000
  H     -0.634947    1.320793   -0.872908
  H     -0.634947    1.320795    0.872905
  H      1.453711   -0.865698    1.209408
  H      1.453711   -0.865702   -1.209406

 Multiplicity           Mult            ....    2
 Number of Electrons    NEL             ....   33
 Basis Dimension        Dim             ....  566

ORBITAL ENERGIES
----------------
                 SPIN UP ORBITALS
  NO   OCC          E(Eh)            E(eV)
   0   1.0000     -68.769623     -1871.3166
   1   1.0000     -11.222006      -305.3663
   2   1.0000     -11.216038      -305.2039
   3   1.0000      -6.120238      -166.5401
   4   1.0000      -4.232998      -115.1857
   5   1.0000      -4.223151      -114.9178
   6   1.0000      -4.222789      -114.9079
   7   1.0000      -1.028154       -27.9775
   8   1.0000      -0.852460       -23.1966
   9   1.0000      -0.695185       -18.9169
  10   1.0000      -0.612970       -16.6798
  11   1.0000      -0.575227       -15.6527
  12   1.0000      -0.523463       -14.2442
  13   1.0000      -0.504761       -13.7352
  14   1.0000      -0.471025       -12.8172
  15   1.0000      -0.437316       -11.9000
  16   1.0000      -0.320322        -8.7164
  17   0.0000       0.024722         0.6727
  18   0.0000       0.034712         0.9446
  19   0.0000       0.036172         0.9843
  20   0.0000       0.036392         0.9903
  21   0.0000       0.050060         1.3622

                 SPIN DOWN ORBITALS
  NO   OCC          E(Eh)            E(eV)
   0   1.0000     -68.763979     -1871.1630
   1   1.0000     -11.221051      -305.3403
   2   1.0000     -11.215504      -305.1894
   3   1.0000      -6.111580      -166.3046
   4   1.0000      -4.219372      -114.8150
   5   1.0000      -4.219023      -114.8055
   6   1.0000      -4.210706      -114.5791
   7   1.0000      -1.023961       -27.8634
   8   1.0000      -0.847431       -23.0598
   9   1.0000      -0.659956       -17.9583
  10   1.0000      -0.611579       -16.6419
  11   1.0000      -0.565598       -15.3907
  12   1.0000      -0.517426       -14.0799
  13   1.0000      -0.502732       -13.6800
  14   1.0000      -0.464085       -12.6284
  15   1.0000      -0.429045       -11.6749
  16   0.0000       0.024336         0.6622
  17   0.0000       0.028735         0.7819
  18   0.0000       0.034997         0.9523
  19   0.0000       0.036341         0.9889
  20   0.0000       0.049734         1.3533

MULLIKEN ATOMIC CHARGES AND SPIN POPULATIONS
--------------------------------------------
   0 Si:    0.588929    0.981444
   1 C :   -0.533770   -0.018506
   2 C :   -0.864578    0.019982
   3 H :    0.249363   -0.001270
   4 H :    0.249363   -0.001270
   5 H :    0.286404    0.008300
   6 H :    0.232807   -0.000257
   7 H :    0.232807   -0.000257
   8 H :   -0.220663    0.005917
   9 H :   -0.220663    0.005917
Sum of atomic charges         :    0.0000000

LOEWDIN ATOMIC CHARGES AND SPIN POPULATIONS
-------------------------------------------
   0 Si:    1.083930    0.542645
   1 C :    0.395807    0.134932
   2 C :    0.822371    0.022461
   3 H :   -0.304190    0.006208
   4 H :   -0.304191    0.006208
   5 H :   -0.288132    0.005529
   6 H :   -0.369131    0.014218
   7 H :   -0.369131    0.014218
   8 H :   -0.333667    0.126790
   9 H :   -0.333666    0.126790

  Mayer bond orders larger than 0.100000
B(  0-Si,  1-C ) :   0.7842 B(  0-Si,  8-H ) :   0.8633 B(  0-Si,  9-H ) :   0.8633
B(  1-C ,  2-C ) :   0.9953 B(  1-C ,  6-H ) :   0.9252 B(  1-C ,  7-H ) :   0.9252
B(  2-C ,  3-H ) :   0.9233 B(  2-C ,  4-H ) :   0.9233 B(  2-C ,  5-H ) :   0.9335

MP2 TOTAL ENERGY:     -369.253002312 Eh
FINAL SINGLE POINT ENERGY      -369.253002311556

DIPOLE MOMENT
-------------
                                X             Y             Z
Electronic contribution:      4.00598       1.29361      -0.00000
Nuclear contribution   :     -4.34908      -1.16730       0.00000
                        -----------------------------------------
Total Dipole Moment    :     -0.34311       0.12631       0.00000
                        -----------------------------------------
Magnitude (a.u.)       :      0.36562
Magnitude (Debye)      :      0.92933

Rotational constants in cm-1:     0.817864     0.170708     0.157145
Rotational constants in MHz : 24518.958470  5117.695092  4711.076075

                             ****ORCA TERMINATED NORMALLY****
TOTAL RUN TIME: 0 days 0 hours 29 minutes 14 seconds 926 msec
