                         Program Version 5.0.4 -  RELEASE  -
|  1> ! ri-mp2 aug-cc-pvdz aug-cc-pvdz/c tightscf
|  2> %pal nprocs 16 end
|  3> %maxcore 3800
|  4> %base "DZ_B-P_33_AB"
|  5>
|  6> *xyz 0 1
|  7> B        -2.277626    0.250048    0.200501
|  8> C        -1.945598    1.693518    0.698001
|  9> C         0.600086   -0.345663   -0.372089
| 10> C        -3.671024   -0.393829    0.508127
| 11> H        -3.932569   -1.260664   -0.098646
| 12> H        -3.642236   -0.728235    1.552544
| 13> H        -4.482681    0.335714    0.452776
| 14> H        -0.883400    1.905933    0.815602
| 15> H        -2.464649    1.935697    1.627576
| 16> H        -2.328737    2.396342   -0.052402
| 17> C         1.225026    0.820306   -0.804859
| 18> C         1.305653   -1.206779    0.462807
| 19> C         2.596927   -0.906067    0.859491
| 20> C         3.201748    0.266244    0.437570
| 21> C         2.510202    1.129867   -0.394435
| 22> H         2.976990    2.044134   -0.736782
| 23> H         0.703408    1.490996   -1.476385
| 24> H         3.130750   -1.588784    1.507633
| 25> H         4.209497    0.502668    0.751814
| 26> H         0.839966   -2.119819    0.810618
| 27> P        -1.094025   -0.699877   -0.937893
| 28> H        -1.265961   -2.011653   -0.456129
| 29> *
| 30>
| 31> $new_job
| 32> ! ri-mp2 aug-cc-pvtz aug-cc-pvtz/c tightscf
| 33> %pal nprocs 16 end
| 34> %maxcore 3800
| 35> %base "TZ_B-P_33_AB"
| 36>
| 37> *xyz 0 1
| 38> B        -2.277626    0.250048    0.200501
| 39> C        -1.945598    1.693518    0.698001
| 40> C         0.600086   -0.345663   -0.372089
| 41> C        -3.671024   -0.393829    0.508127
| 42> H        -3.932569   -1.260664   -0.098646
| 43> H        -3.642236   -0.728235    1.552544
| 44> H        -4.482681    0.335714    0.452776
| 45> H        -0.883400    1.905933    0.815602
| 46> H        -2.464649    1.935697    1.627576
| 47> H        -2.328737    2.396342   -0.052402
| 48> C         1.225026    0.820306   -0.804859
| 49> C         1.305653   -1.206779    0.462807
| 50> C         2.596927   -0.906067    0.859491
| 51> C         3.201748    0.266244    0.437570
| 52> C         2.510202    1.129867   -0.394435
| 53> H         2.976990    2.044134   -0.736782
| 54> H         0.703408    1.490996   -1.476385
| 55> H         3.130750   -1.588784    1.507633
| 56> H         4.209497    0.502668    0.751814
| 57> H         0.839966   -2.119819    0.810618
| 58> P        -1.094025   -0.699877   -0.937893
| 59> H        -1.265961   -2.011653   -0.456129
| 60> *
| 61>
| 62> $new_job
| 63> ! ri-mp2 aug-cc-pvqz aug-cc-pvqz/c tightscf
| 64> %pal nprocs 16 end
| 65> %maxcore 3800
| 66> %base "QZ_B-P_33_AB"
| 67>
| 68> *xyz 0 1
| 69> B        -2.277626    0.250048    0.200501
| 70> C        -1.945598    1.693518    0.698001
| 71> C         0.600086   -0.345663   -0.372089
| 72> C        -3.671024   -0.393829    0.508127
| 73> H        -3.932569   -1.260664   -0.098646
| 74> H        -3.642236   -0.728235    1.552544
| 75> H        -4.482681    0.335714    0.452776
| 76> H        -0.883400    1.905933    0.815602
| 77> H        -2.464649    1.935697    1.627576
| 78> H        -2.328737    2.396342   -0.052402
| 79> C         1.225026    0.820306   -0.804859
| 80> C         1.305653   -1.206779    0.462807
| 81> C         2.596927   -0.906067    0.859491
| 82> C         3.201748    0.266244    0.437570
| 83> C         2.510202    1.129867   -0.394435
| 84> H         2.976990    2.044134   -0.736782
| 85> H         0.703408    1.490996   -1.476385
| 86> H         3.130750   -1.588784    1.507633
| 87> H         4.209497    0.502668    0.751814
| 88> H         0.839966   -2.119819    0.810618
| 89> P        -1.094025   -0.699877   -0.937893
| 90> H        -1.265961   -2.011653   -0.456129
| 91> *
| 92>
| 93>
| 94>
| 95>
| 96>                          ****END OF INPUT****
 Total Charge           Charge          ....    0
 Multiplicity           Mult            ....    1
 Number of Electrons    NEL             ....   80
MP2 TOTAL ENERGY:     -676.728002067 Eh
FINAL SINGLE POINT ENERGY      -676.728002067442
MP2 TOTAL ENERGY:     -677.074176515 Eh
FINAL SINGLE POINT ENERGY      -677.074176514756

CARTESIAN COORDINATES (ANGSTROEM)
---------------------------------
  B     -2.277626    0.250048    0.200501
  C     -1.945598    1.693518    0.698001
  C      0.600086   -0.345663   -0.372089
  C     -3.671024   -0.393829    0.508127
  H     -3.932569   -1.260664   -0.098646
  H     -3.642236   -0.728235    1.552544
  H     -4.482681    0.335714    0.452776
  H     -0.883400    1.905933    0.815602
  H     -2.464649    1.935697    1.627576
  H     -2.328737    2.396342   -0.052402
  C      1.225026    0.820306   -0.804859
  C      1.305653   -1.206779    0.462807
  C      2.596927   -0.906067    0.859491
  C      3.201748    0.266244    0.437570
  C      2.510202    1.129867   -0.394435
  H      2.976990    2.044134   -0.736782
  H      0.703408    1.490996   -1.476385
  H      3.130750   -1.588784    1.507633
  H      4.209497    0.502668    0.751814
  H      0.839966   -2.119819    0.810618
  P     -1.094025   -0.699877   -0.937893
  H     -1.265961   -2.011653   -0.456129

 Multiplicity           Mult            ....    1
 Number of Electrons    NEL             ....   80
 Basis Dimension        Dim             .... 1356

ORBITAL ENERGIES
----------------

  NO   OCC          E(Eh)            E(eV)
   0   2.0000     -79.916047     -2174.6262
   1   2.0000     -11.241944      -305.9089
   2   2.0000     -11.235282      -305.7276
   3   2.0000     -11.235019      -305.7204
   4   2.0000     -11.234086      -305.6950
   5   2.0000     -11.233686      -305.6841
   6   2.0000     -11.232556      -305.6534
   7   2.0000     -11.196017      -304.6591
   8   2.0000     -11.192805      -304.5717
   9   2.0000      -7.597179      -206.7298
  10   2.0000      -7.462136      -203.0551
  11   2.0000      -5.356709      -145.7635
  12   2.0000      -5.356086      -145.7465
  13   2.0000      -5.355911      -145.7418
  14   2.0000      -1.159276       -31.5455
  15   2.0000      -1.028396       -27.9841
  16   2.0000      -1.020234       -27.7620
  17   2.0000      -0.974384       -26.5143
  18   2.0000      -0.926992       -25.2247
  19   2.0000      -0.863919       -23.5084
  20   2.0000      -0.830350       -22.5950
  21   2.0000      -0.786918       -21.4131
  22   2.0000      -0.698587       -19.0095
  23   2.0000      -0.633721       -17.2444
  24   2.0000      -0.631999       -17.1976
  25   2.0000      -0.609150       -16.5758
  26   2.0000      -0.590932       -16.0801
  27   2.0000      -0.578466       -15.7409
  28   2.0000      -0.562466       -15.3055
  29   2.0000      -0.562282       -15.3005
  30   2.0000      -0.537319       -14.6212
  31   2.0000      -0.532141       -14.4803
  32   2.0000      -0.509742       -13.8708
  33   2.0000      -0.498073       -13.5533
  34   2.0000      -0.486650       -13.2424
  35   2.0000      -0.456759       -12.4290
  36   2.0000      -0.430826       -11.7234
  37   2.0000      -0.375296       -10.2123
  38   2.0000      -0.342009        -9.3065
  39   2.0000      -0.306702        -8.3458
  40   0.0000       0.020628         0.5613
  41   0.0000       0.026657         0.7254
  42   0.0000       0.028478         0.7749
  43   0.0000       0.034767         0.9461
  44   0.0000       0.038437         1.0459

MULLIKEN ATOMIC CHARGES
-----------------------
   0 B :    0.199541
   1 C :   -1.181928
   2 C :    0.165304
   3 C :   -1.062653
   4 H :    0.310987
   5 H :    0.274124
   6 H :    0.321512
   7 H :    0.405209
   8 H :    0.350440
   9 H :    0.300668
  10 C :   -0.376872
  11 C :   -0.654633
  12 C :   -0.225685
  13 C :   -0.391825
  14 C :   -0.215790
  15 H :    0.236932
  16 H :    0.309690
  17 H :    0.254502
  18 H :    0.372265
  19 H :    0.268131
  20 P :    0.457018
  21 H :   -0.116937
Sum of atomic charges:    0.0000000

LOEWDIN ATOMIC CHARGES
----------------------
   0 B :   -0.692005
   1 C :    1.007450
   2 C :   -0.299045
   3 C :    0.989322
   4 H :   -0.320943
   5 H :   -0.297775
   6 H :   -0.299885
   7 H :   -0.327441
   8 H :   -0.297882
   9 H :   -0.291910
  10 C :    0.232162
  11 C :    0.258686
  12 C :    0.336253
  13 C :    0.334385
  14 C :    0.338067
  15 H :   -0.318461
  16 H :   -0.333049
  17 H :   -0.320146
  18 H :   -0.321824
  19 H :   -0.343154
  20 P :    1.388864
  21 H :   -0.421670

  Mayer bond orders larger than 0.100000
B(  0-B ,  1-C ) :   0.9851 B(  0-B ,  3-C ) :   0.9881 B(  0-B , 20-P ) :   1.0338
B(  1-C ,  7-H ) :   0.8172 B(  1-C ,  8-H ) :   0.8765 B(  1-C ,  9-H ) :   0.8847
B(  2-C , 10-C ) :   0.7883 B(  2-C , 11-C ) :   0.7757 B(  2-C , 12-C ) :  -0.3498
B(  2-C , 14-C ) :  -0.3583 B(  2-C , 16-H ) :  -0.1118 B(  2-C , 20-P ) :   0.7380
B(  2-C , 21-H ) :  -0.1398 B(  3-C ,  4-H ) :   0.8918 B(  3-C ,  5-H ) :   0.9146
B(  3-C ,  6-H ) :   0.8997 B( 10-C , 11-C ) :   0.1011 B( 10-C , 12-C ) :   0.1263
B( 10-C , 13-C ) :   0.1415 B( 10-C , 14-C ) :   1.3344 B( 10-C , 15-H ) :  -0.1506
B( 10-C , 16-H ) :   0.9592 B( 10-C , 20-P ) :  -0.1747 B( 11-C , 12-C ) :   1.3786
B( 11-C , 13-C ) :   0.1930 B( 11-C , 14-C ) :   0.1541 B( 11-C , 17-H ) :  -0.1607
B( 11-C , 19-H ) :   0.9704 B( 11-C , 20-P ) :  -0.1228 B( 12-C , 13-C ) :   1.1137
B( 12-C , 14-C ) :  -0.1044 B( 12-C , 17-H ) :   1.1235 B( 13-C , 14-C ) :   1.1547
B( 13-C , 15-H ) :  -0.1038 B( 13-C , 17-H ) :  -0.1140 B( 13-C , 18-H ) :   0.9451
B( 14-C , 15-H ) :   1.1412 B( 20-P , 21-H ) :   1.0392

MP2 TOTAL ENERGY:     -677.182247609 Eh
FINAL SINGLE POINT ENERGY      -677.182247609101

DIPOLE MOMENT
-------------
                                X             Y             Z
Electronic contribution:      4.33568      -3.22944      -4.91031
Nuclear contribution   :     -4.27028       3.37362       5.43994
                        -----------------------------------------
Total Dipole Moment    :      0.06540       0.14419       0.52963
                        -----------------------------------------
Magnitude (a.u.)       :      0.55279
Magnitude (Debye)      :      1.40507

Rotational constants in cm-1:     0.079380     0.021128     0.019538
Rotational constants in MHz :  2379.742465   633.395490   585.739199

                             ****ORCA TERMINATED NORMALLY****
TOTAL RUN TIME: 0 days 1 hours 12 minutes 31 seconds 55 msec
