                         Program Version 5.0.4 -  RELEASE  -
|  1> ! ri-mp2 aug-cc-pvdz aug-cc-pvdz/c tightscf
|  2> %pal nprocs 16 end
|  3> %maxcore 3800
|  4> %base "DZ_B-Cl_76_AB"
|  5> %scf
|  6> STABPerform true
|  7> STABRestartUHFifUnstable true
|  8> end
|  9>
| 10> *xyz 0 1
| 11> B        -0.481790   -0.000000    0.134466
| 12> Cl        -1.346353   -1.525056   -0.094749
| 13> Cl        -1.346351    1.525057   -0.094749
| 14> N         0.819710   -0.000001    0.516896
| 15> C         2.058635   -0.000001    0.585112
| 16> C         2.979563   -0.000000   -0.589061
| 17> H         2.424850    0.000004   -1.523882
| 18> H         3.628489   -0.877253   -0.546278
| 19> H         3.628494    0.877248   -0.546273
| 20> H         2.535930   -0.000002    1.570995
| 21> *
| 22>
| 23> $new_job
| 24> ! ri-mp2 aug-cc-pvtz aug-cc-pvtz/c tightscf
| 25> %pal nprocs 16 end
| 26> %maxcore 3800
| 27> %base "TZ_B-Cl_76_AB"
| 28>
| 29> *xyz 0 1
| 30> B        -0.481790   -0.000000    0.134466
| 31> Cl        -1.346353   -1.525056   -0.094749
| 32> Cl        -1.346351    1.525057   -0.094749
| 33> N         0.819710   -0.000001    0.516896
| 34> C         2.058635   -0.000001    0.585112
| 35> C         2.979563   -0.000000   -0.589061
| 36> H         2.424850    0.000004   -1.523882
| 37> H         3.628489   -0.877253   -0.546278
| 38> H         3.628494    0.877248   -0.546273
| 39> H         2.535930   -0.000002    1.570995
| 40> *
| 41>
| 42> $new_job
| 43> ! ri-mp2 aug-cc-pvqz aug-cc-pvqz/c tightscf
| 44> %pal nprocs 16 end
| 45> %maxcore 3800
| 46> %base "QZ_B-Cl_76_AB"
| 47>
| 48> *xyz 0 1
| 49> B        -0.481790   -0.000000    0.134466
| 50> Cl        -1.346353   -1.525056   -0.094749
| 51> Cl        -1.346351    1.525057   -0.094749
| 52> N         0.819710   -0.000001    0.516896
| 53> C         2.058635   -0.000001    0.585112
| 54> C         2.979563   -0.000000   -0.589061
| 55> H         2.424850    0.000004   -1.523882
| 56> H         3.628489   -0.877253   -0.546278
| 57> H         3.628494    0.877248   -0.546273
| 58> H         2.535930   -0.000002    1.570995
| 59> *
| 60>
| 61>
| 62>
| 63>
| 64>                          ****END OF INPUT****
 Total Charge           Charge          ....    0
 Multiplicity           Mult            ....    1
 Number of Electrons    NEL             ....   62
MP2 TOTAL ENERGY:    -1077.157898145 Eh
FINAL SINGLE POINT ENERGY     -1077.157898144609
MP2 TOTAL ENERGY:    -1077.418668692 Eh
FINAL SINGLE POINT ENERGY     -1077.418668692406

CARTESIAN COORDINATES (ANGSTROEM)
---------------------------------
  B     -0.481790   -0.000000    0.134466
  Cl    -1.346353   -1.525056   -0.094749
  Cl    -1.346351    1.525057   -0.094749
  N      0.819710   -0.000001    0.516896
  C      2.058635   -0.000001    0.585112
  C      2.979563   -0.000000   -0.589061
  H      2.424850    0.000004   -1.523882
  H      3.628489   -0.877253   -0.546278
  H      3.628494    0.877248   -0.546273
  H      2.535930   -0.000002    1.570995

 Multiplicity           Mult            ....    1
 Number of Electrons    NEL             ....   62
 Basis Dimension        Dim             ....  672

ORBITAL ENERGIES
----------------

  NO   OCC          E(Eh)            E(eV)
   0   2.0000    -104.822545     -2852.3665
   1   2.0000    -104.822545     -2852.3665
   2   2.0000     -15.573320      -423.7716
   3   2.0000     -11.332105      -308.3622
   4   2.0000     -11.252380      -306.1928
   5   2.0000     -10.550182      -287.0851
   6   2.0000     -10.550174      -287.0848
   7   2.0000      -8.017083      -218.1559
   8   2.0000      -8.017082      -218.1559
   9   2.0000      -8.015904      -218.1238
  10   2.0000      -8.015903      -218.1238
  11   2.0000      -8.015782      -218.1205
  12   2.0000      -8.015781      -218.1205
  13   2.0000      -7.705099      -209.6664
  14   2.0000      -1.255366       -34.1603
  15   2.0000      -1.120544       -30.4916
  16   2.0000      -1.081197       -29.4209
  17   2.0000      -1.024696       -27.8834
  18   2.0000      -0.873939       -23.7811
  19   2.0000      -0.732929       -19.9440
  20   2.0000      -0.648420       -17.6444
  21   2.0000      -0.616122       -16.7655
  22   2.0000      -0.616068       -16.7641
  23   2.0000      -0.571894       -15.5620
  24   2.0000      -0.571238       -15.5442
  25   2.0000      -0.510879       -13.9017
  26   2.0000      -0.471545       -12.8314
  27   2.0000      -0.463792       -12.6204
  28   2.0000      -0.453432       -12.3385
  29   2.0000      -0.432569       -11.7708
  30   2.0000      -0.400313       -10.8931
  31   0.0000       0.019481         0.5301
  32   0.0000       0.029940         0.8147
  33   0.0000       0.033941         0.9236
  34   0.0000       0.039027         1.0620
  35   0.0000       0.051552         1.4028

MULLIKEN ATOMIC CHARGES
-----------------------
   0 B :    0.702259
   1 Cl:   -0.272201
   2 Cl:   -0.272201
   3 N :   -0.669936
   4 C :   -0.042540
   5 C :   -0.770720
   6 H :    0.289062
   7 H :    0.272351
   8 H :    0.272352
   9 H :    0.491575
Sum of atomic charges:    0.0000000

LOEWDIN ATOMIC CHARGES
----------------------
   0 B :   -2.607949
   1 Cl:    1.179200
   2 Cl:    1.179201
   3 N :    0.436339
   4 C :    0.103710
   5 C :    0.915711
   6 H :   -0.307185
   7 H :   -0.291657
   8 H :   -0.291658
   9 H :   -0.315712

  Mayer bond orders larger than 0.100000
B(  0-B ,  1-Cl) :   0.9321 B(  0-B ,  2-Cl) :   0.9321 B(  0-B ,  3-N ) :   1.3160
B(  1-Cl,  3-N ) :   0.1105 B(  2-Cl,  3-N ) :   0.1105 B(  3-N ,  4-C ) :   1.6778
B(  4-C ,  5-C ) :   0.9603 B(  4-C ,  9-H ) :   0.7299 B(  5-C ,  6-H ) :   0.9174
B(  5-C ,  7-H ) :   0.9255 B(  5-C ,  8-H ) :   0.9255

MP2 TOTAL ENERGY:    -1077.504458800 Eh
FINAL SINGLE POINT ENERGY     -1077.504458800076

DIPOLE MOMENT
-------------
                                X             Y             Z
Electronic contribution:    -13.71388       0.00000       0.87351
Nuclear contribution   :     15.48733      -0.00000      -0.82751
                        -----------------------------------------
Total Dipole Moment    :      1.77346      -0.00000       0.04600
                        -----------------------------------------
Magnitude (a.u.)       :      1.77406
Magnitude (Debye)      :      4.50929

Rotational constants in cm-1:     0.091275     0.047749     0.033629
Rotational constants in MHz :  2736.364558  1431.465290  1008.159485

                             ****ORCA TERMINATED NORMALLY****
TOTAL RUN TIME: 0 days 0 hours 27 minutes 40 seconds 956 msec
