                         Program Version 5.0.4 -  RELEASE  -
|  1> ! ri-mp2 aug-cc-pvdz aug-cc-pvdz/c tightscf
|  2> %pal nprocs 16 end
|  3> %maxcore 3800
|  4> %base "DZ_S-F_75_AB"
|  5>
|  6> *xyz 0 1
|  7> F         2.485169    0.862245   -0.000009
|  8> S         1.838897   -0.615402    0.000007
|  9> C         0.145082   -0.209836    0.000003
| 10> C        -0.327834    1.091684   -0.000015
| 11> C        -0.771615   -1.255319    0.000017
| 12> C        -2.115738   -0.942584    0.000013
| 13> C        -1.699149    1.282125   -0.000017
| 14> N        -2.588016    0.299078   -0.000004
| 15> H         0.346754    1.933857   -0.000027
| 16> H        -2.097710    2.290588   -0.000032
| 17> H        -0.454108   -2.290002    0.000032
| 18> H        -2.852180   -1.738190    0.000024
| 19> *
| 20>
| 21> $new_job
| 22> ! ri-mp2 aug-cc-pvtz aug-cc-pvtz/c tightscf
| 23> %pal nprocs 16 end
| 24> %maxcore 3800
| 25> %base "TZ_S-F_75_AB"
| 26>
| 27> *xyz 0 1
| 28> F         2.485169    0.862245   -0.000009
| 29> S         1.838897   -0.615402    0.000007
| 30> C         0.145082   -0.209836    0.000003
| 31> C        -0.327834    1.091684   -0.000015
| 32> C        -0.771615   -1.255319    0.000017
| 33> C        -2.115738   -0.942584    0.000013
| 34> C        -1.699149    1.282125   -0.000017
| 35> N        -2.588016    0.299078   -0.000004
| 36> H         0.346754    1.933857   -0.000027
| 37> H        -2.097710    2.290588   -0.000032
| 38> H        -0.454108   -2.290002    0.000032
| 39> H        -2.852180   -1.738190    0.000024
| 40> *
| 41>
| 42> $new_job
| 43> ! ri-mp2 aug-cc-pvqz aug-cc-pvqz/c tightscf
| 44> %pal nprocs 16 end
| 45> %maxcore 3800
| 46> %base "QZ_S-F_75_AB"
| 47>
| 48> *xyz 0 1
| 49> F         2.485169    0.862245   -0.000009
| 50> S         1.838897   -0.615402    0.000007
| 51> C         0.145082   -0.209836    0.000003
| 52> C        -0.327834    1.091684   -0.000015
| 53> C        -0.771615   -1.255319    0.000017
| 54> C        -2.115738   -0.942584    0.000013
| 55> C        -1.699149    1.282125   -0.000017
| 56> N        -2.588016    0.299078   -0.000004
| 57> H         0.346754    1.933857   -0.000027
| 58> H        -2.097710    2.290588   -0.000032
| 59> H        -0.454108   -2.290002    0.000032
| 60> H        -2.852180   -1.738190    0.000024
| 61> *
| 62>
| 63>
| 64>
| 65>
| 66>                          ****END OF INPUT****
 Total Charge           Charge          ....    0
 Multiplicity           Mult            ....    1
 Number of Electrons    NEL             ....   66
MP2 TOTAL ENERGY:     -744.264586609 Eh
FINAL SINGLE POINT ENERGY      -744.264586608674
MP2 TOTAL ENERGY:     -744.612228779 Eh
FINAL SINGLE POINT ENERGY      -744.612228779118

CARTESIAN COORDINATES (ANGSTROEM)
---------------------------------
  F      2.485169    0.862245   -0.000009
  S      1.838897   -0.615402    0.000007
  C      0.145082   -0.209836    0.000003
  C     -0.327834    1.091684   -0.000015
  C     -0.771615   -1.255319    0.000017
  C     -2.115738   -0.942584    0.000013
  C     -1.699149    1.282125   -0.000017
  N     -2.588016    0.299078   -0.000004
  H      0.346754    1.933857   -0.000027
  H     -2.097710    2.290588   -0.000032
  H     -0.454108   -2.290002    0.000032
  H     -2.852180   -1.738190    0.000024

 Multiplicity           Mult            ....    1
 Number of Electrons    NEL             ....   66
 Basis Dimension        Dim             ....  828

ORBITAL ENERGIES
----------------

  NO   OCC          E(Eh)            E(eV)
   0   2.0000     -92.055612     -2504.9605
   1   2.0000     -26.329866      -716.4721
   2   2.0000     -15.568042      -423.6280
   3   2.0000     -11.307215      -307.6850
   4   2.0000     -11.286232      -307.1140
   5   2.0000     -11.285553      -307.0955
   6   2.0000     -11.255479      -306.2771
   7   2.0000     -11.250935      -306.1535
   8   2.0000      -9.050232      -246.2693
   9   2.0000      -6.731916      -183.1847
  10   2.0000      -6.729906      -183.1301
  11   2.0000      -6.728648      -183.0958
  12   2.0000      -1.631585       -44.3977
  13   2.0000      -1.276778       -34.7429
  14   2.0000      -1.138564       -30.9819
  15   2.0000      -1.052182       -28.6313
  16   2.0000      -0.993872       -27.0446
  17   2.0000      -0.877859       -23.8878
  18   2.0000      -0.848361       -23.0851
  19   2.0000      -0.749213       -20.3871
  20   2.0000      -0.712446       -19.3866
  21   2.0000      -0.712354       -19.3841
  22   2.0000      -0.675225       -18.3738
  23   2.0000      -0.669927       -18.2296
  24   2.0000      -0.649111       -17.6632
  25   2.0000      -0.612451       -16.6656
  26   2.0000      -0.567895       -15.4532
  27   2.0000      -0.539031       -14.6678
  28   2.0000      -0.520730       -14.1698
  29   2.0000      -0.461269       -12.5518
  30   2.0000      -0.427851       -11.6424
  31   2.0000      -0.365847        -9.9552
  32   2.0000      -0.347558        -9.4575
  33   0.0000       0.024531         0.6675
  34   0.0000       0.028550         0.7769
  35   0.0000       0.035917         0.9773
  36   0.0000       0.042311         1.1513
  37   0.0000       0.054402         1.4804

MULLIKEN ATOMIC CHARGES
-----------------------
   0 F :   -0.661987
   1 S :    0.574704
   2 C :   -0.015959
   3 C :   -0.333411
   4 C :   -0.256142
   5 C :   -0.184039
   6 C :   -0.160931
   7 N :   -0.590996
   8 H :    0.323053
   9 H :    0.468150
  10 H :    0.363808
  11 H :    0.473750
Sum of atomic charges:   -0.0000000

LOEWDIN ATOMIC CHARGES
----------------------
   0 F :    0.129656
   1 S :    0.766306
   2 C :   -0.610647
   3 C :    0.220900
   4 C :    0.190559
   5 C :    0.061218
   6 C :    0.065839
   7 N :    0.592727
   8 H :   -0.377230
   9 H :   -0.346515
  10 H :   -0.345596
  11 H :   -0.347216

  Mayer bond orders larger than 0.100000
B(  0-F ,  1-S ) :   0.5836 B(  0-F ,  2-C ) :  -0.1630 B(  1-S ,  2-C ) :   0.8756
B(  1-S ,  3-C ) :  -0.1160 B(  1-S ,  4-C ) :  -0.1426 B(  2-C ,  3-C ) :   1.1649
B(  2-C ,  4-C ) :   1.0630 B(  2-C ,  5-C ) :  -0.1867 B(  2-C ,  6-C ) :  -0.2467
B(  3-C ,  6-C ) :   1.2203 B(  3-C ,  8-H ) :   0.9012 B(  3-C ,  9-H ) :  -0.1266
B(  4-C ,  5-C ) :   1.2542 B(  4-C , 10-H ) :   0.8963 B(  5-C ,  7-N ) :   1.2016
B(  5-C , 11-H ) :   0.8705 B(  6-C ,  7-N ) :   1.2287 B(  6-C ,  9-H ) :   0.8875
B(  7-N ,  9-H ) :  -0.1183 B(  7-N , 11-H ) :  -0.1206

MP2 TOTAL ENERGY:     -744.725877546 Eh
FINAL SINGLE POINT ENERGY      -744.725877545780

DIPOLE MOMENT
-------------
                                X             Y             Z
Electronic contribution:      7.51090       0.19770      -0.00000
Nuclear contribution   :     -7.27822      -0.60900       0.00001
                        -----------------------------------------
Total Dipole Moment    :      0.23268      -0.41131       0.00000
                        -----------------------------------------
Magnitude (a.u.)       :      0.47256
Magnitude (Debye)      :      1.20115

Rotational constants in cm-1:     0.154527     0.039275     0.031316
Rotational constants in MHz :  4632.602148  1177.426162   938.815901

                             ****ORCA TERMINATED NORMALLY****
TOTAL RUN TIME: 0 days 0 hours 14 minutes 13 seconds 973 msec
