                         Program Version 5.0.4 -  RELEASE  -
|  1> ! ri-mp2 aug-cc-pvdz aug-cc-pvdz/c tightscf
|  2> %pal nprocs 16 end
|  3> %maxcore 3800
|  4> %base "DZ_Si-Si_151_AB"
|  5> %scf
|  6> STABPerform true
|  7> STABRestartUHFifUnstable true
|  8> end
|  9>
| 10> *xyz 0 1
| 11> Si        -2.134867    0.552795    0.010980
| 12> Si        -0.371891   -0.982562   -0.019470
| 13> B         1.396068    0.002122    0.000022
| 14> H        -0.500704   -1.817456   -1.237560
| 15> H        -0.500682   -1.865026    1.164618
| 16> H        -2.063587    1.396589    1.226595
| 17> H        -3.448251   -0.131529   -0.002343
| 18> O         1.946832    0.308623    1.207749
| 19> O         1.946652    0.356508   -1.194613
| 20> H        -2.063899    1.443840   -1.170458
| 21> H         2.771848    0.805836    1.195075
| 22> H         2.771667    0.852831   -1.162253
| 23> *
| 24>
| 25> $new_job
| 26> ! ri-mp2 aug-cc-pvtz aug-cc-pvtz/c tightscf
| 27> %pal nprocs 16 end
| 28> %maxcore 3800
| 29> %base "TZ_Si-Si_151_AB"
| 30>
| 31> *xyz 0 1
| 32> Si        -2.134867    0.552795    0.010980
| 33> Si        -0.371891   -0.982562   -0.019470
| 34> B         1.396068    0.002122    0.000022
| 35> H        -0.500704   -1.817456   -1.237560
| 36> H        -0.500682   -1.865026    1.164618
| 37> H        -2.063587    1.396589    1.226595
| 38> H        -3.448251   -0.131529   -0.002343
| 39> O         1.946832    0.308623    1.207749
| 40> O         1.946652    0.356508   -1.194613
| 41> H        -2.063899    1.443840   -1.170458
| 42> H         2.771848    0.805836    1.195075
| 43> H         2.771667    0.852831   -1.162253
| 44> *
| 45>
| 46> $new_job
| 47> ! ri-mp2 aug-cc-pvqz aug-cc-pvqz/c tightscf
| 48> %pal nprocs 16 end
| 49> %maxcore 3800
| 50> %base "QZ_Si-Si_151_AB"
| 51>
| 52> *xyz 0 1
| 53> Si        -2.134867    0.552795    0.010980
| 54> Si        -0.371891   -0.982562   -0.019470
| 55> B         1.396068    0.002122    0.000022
| 56> H        -0.500704   -1.817456   -1.237560
| 57> H        -0.500682   -1.865026    1.164618
| 58> H        -2.063587    1.396589    1.226595
| 59> H        -3.448251   -0.131529   -0.002343
| 60> O         1.946832    0.308623    1.207749
| 61> O         1.946652    0.356508   -1.194613
| 62> H        -2.063899    1.443840   -1.170458
| 63> H         2.771848    0.805836    1.195075
| 64> H         2.771667    0.852831   -1.162253
| 65> *
| 66>
| 67>
| 68>
| 69>
| 70>                          ****END OF INPUT****
 Total Charge           Charge          ....    0
 Multiplicity           Mult            ....    1
 Number of Electrons    NEL             ....   56
MP2 TOTAL ENERGY:     -757.167378524 Eh
FINAL SINGLE POINT ENERGY      -757.167378523713
MP2 TOTAL ENERGY:     -757.394117161 Eh
FINAL SINGLE POINT ENERGY      -757.394117160517

CARTESIAN COORDINATES (ANGSTROEM)
---------------------------------
  Si    -2.134867    0.552795    0.010980
  Si    -0.371891   -0.982562   -0.019470
  B      1.396068    0.002122    0.000022
  H     -0.500704   -1.817456   -1.237560
  H     -0.500682   -1.865026    1.164618
  H     -2.063587    1.396589    1.226595
  H     -3.448251   -0.131529   -0.002343
  O      1.946832    0.308623    1.207749
  O      1.946652    0.356508   -1.194613
  H     -2.063899    1.443840   -1.170458
  H      2.771848    0.805836    1.195075
  H      2.771667    0.852831   -1.162253

 Multiplicity           Mult            ....    1
 Number of Electrons    NEL             ....   56
 Basis Dimension        Dim             ....  730

ORBITAL ENERGIES
----------------

  NO   OCC          E(Eh)            E(eV)
   0   2.0000     -68.758194     -1871.0056
   1   2.0000     -68.745826     -1870.6690
   2   2.0000     -20.582335      -560.0738
   3   2.0000     -20.582314      -560.0732
   4   2.0000      -7.648946      -208.1384
   5   2.0000      -6.108943      -166.2328
   6   2.0000      -6.098365      -165.9450
   7   2.0000      -4.215013      -114.6963
   8   2.0000      -4.214999      -114.6959
   9   2.0000      -4.214983      -114.6955
  10   2.0000      -4.204520      -114.4108
  11   2.0000      -4.204436      -114.4085
  12   2.0000      -4.204095      -114.3992
  13   2.0000      -1.398875       -38.0653
  14   2.0000      -1.359102       -36.9831
  15   2.0000      -0.799930       -21.7672
  16   2.0000      -0.750861       -20.4320
  17   2.0000      -0.735062       -20.0020
  18   2.0000      -0.664309       -18.0768
  19   2.0000      -0.638818       -17.3831
  20   2.0000      -0.586583       -15.9617
  21   2.0000      -0.544564       -14.8183
  22   2.0000      -0.518041       -14.0966
  23   2.0000      -0.487721       -13.2716
  24   2.0000      -0.481074       -13.0907
  25   2.0000      -0.460113       -12.5203
  26   2.0000      -0.429598       -11.6900
  27   2.0000      -0.383335       -10.4311
  28   0.0000       0.013806         0.3757
  29   0.0000       0.031379         0.8539
  30   0.0000       0.035376         0.9626
  31   0.0000       0.036718         0.9991
  32   0.0000       0.045376         1.2348

MULLIKEN ATOMIC CHARGES
-----------------------
   0 Si:    0.460369
   1 Si:    0.414741
   2 B :    1.342887
   3 H :   -0.181418
   4 H :   -0.181422
   5 H :   -0.162674
   6 H :   -0.168321
   7 O :   -1.028532
   8 O :   -1.028532
   9 H :   -0.162675
  10 H :    0.347791
  11 H :    0.347785
Sum of atomic charges:   -0.0000000

LOEWDIN ATOMIC CHARGES
----------------------
   0 Si:    1.013011
   1 Si:    0.814884
   2 B :   -1.291878
   3 H :   -0.291522
   4 H :   -0.291518
   5 H :   -0.314335
   6 H :   -0.319672
   7 O :    1.289580
   8 O :    1.289580
   9 H :   -0.314333
  10 H :   -0.791899
  11 H :   -0.791898

  Mayer bond orders larger than 0.100000
B(  0-Si,  1-Si) :   0.7251 B(  0-Si,  5-H ) :   0.8079 B(  0-Si,  6-H ) :   0.7935
B(  0-Si,  9-H ) :   0.8079 B(  1-Si,  2-B ) :   0.8222 B(  1-Si,  3-H ) :   0.8182
B(  1-Si,  4-H ) :   0.8182 B(  2-B ,  7-O ) :   0.4155 B(  2-B ,  8-O ) :   0.4154
B(  7-O , 10-H ) :   0.9521 B(  8-O , 11-H ) :   0.9521

MP2 TOTAL ENERGY:     -757.469025810 Eh
FINAL SINGLE POINT ENERGY      -757.469025810354

DIPOLE MOMENT
-------------
                                X             Y             Z
Electronic contribution:      5.08620      -0.16501      -0.00340
Nuclear contribution   :     -3.91286       0.71408       0.01426
                        -----------------------------------------
Total Dipole Moment    :      1.17334       0.54908       0.01086
                        -----------------------------------------
Magnitude (a.u.)       :      1.29550
Magnitude (Debye)      :      3.29290

Rotational constants in cm-1:     0.158515     0.046542     0.046129
Rotational constants in MHz :  4752.171659  1395.293587  1382.915315

                             ****ORCA TERMINATED NORMALLY****
TOTAL RUN TIME: 0 days 0 hours 36 minutes 24 seconds 773 msec
