                         Program Version 5.0.4 -  RELEASE  -
|  1> ! ri-mp2 aug-cc-pvdz aug-cc-pvdz/c tightscf
|  2> %pal nprocs 16 end
|  3> %maxcore 3800
|  4> %base "DZ_P-C_80_AB"
|  5> %scf
|  6> STABPerform true
|  7> STABRestartUHFifUnstable true
|  8> end
|  9>
| 10> *xyz 0 1
| 11> C        -0.815381    0.000000    0.037348
| 12> P         0.901185    0.000000   -0.632590
| 13> F         1.500734    1.201935    0.229041
| 14> F         1.500734   -1.201934    0.229041
| 15> C        -1.497433   -1.253778   -0.514437
| 16> H        -1.462975   -1.288510   -1.605457
| 17> H        -2.547858   -1.260837   -0.217840
| 18> H        -1.034915   -2.163386   -0.130387
| 19> C        -1.497435    1.253775   -0.514441
| 20> H        -1.462976    1.288503   -1.605462
| 21> H        -1.034919    2.163385   -0.130394
| 22> H        -2.547860    1.260833   -0.217845
| 23> C        -0.836653    0.000003    1.562081
| 24> H        -0.343698   -0.882484    1.968133
| 25> H        -1.870675    0.000003    1.913920
| 26> H        -0.343698    0.882491    1.968130
| 27> *
| 28>
| 29> $new_job
| 30> ! ri-mp2 aug-cc-pvtz aug-cc-pvtz/c tightscf
| 31> %pal nprocs 16 end
| 32> %maxcore 3800
| 33> %base "TZ_P-C_80_AB"
| 34>
| 35> *xyz 0 1
| 36> C        -0.815381    0.000000    0.037348
| 37> P         0.901185    0.000000   -0.632590
| 38> F         1.500734    1.201935    0.229041
| 39> F         1.500734   -1.201934    0.229041
| 40> C        -1.497433   -1.253778   -0.514437
| 41> H        -1.462975   -1.288510   -1.605457
| 42> H        -2.547858   -1.260837   -0.217840
| 43> H        -1.034915   -2.163386   -0.130387
| 44> C        -1.497435    1.253775   -0.514441
| 45> H        -1.462976    1.288503   -1.605462
| 46> H        -1.034919    2.163385   -0.130394
| 47> H        -2.547860    1.260833   -0.217845
| 48> C        -0.836653    0.000003    1.562081
| 49> H        -0.343698   -0.882484    1.968133
| 50> H        -1.870675    0.000003    1.913920
| 51> H        -0.343698    0.882491    1.968130
| 52> *
| 53>
| 54> $new_job
| 55> ! ri-mp2 aug-cc-pvqz aug-cc-pvqz/c tightscf
| 56> %pal nprocs 16 end
| 57> %maxcore 3800
| 58> %base "QZ_P-C_80_AB"
| 59>
| 60> *xyz 0 1
| 61> C        -0.815381    0.000000    0.037348
| 62> P         0.901185    0.000000   -0.632590
| 63> F         1.500734    1.201935    0.229041
| 64> F         1.500734   -1.201934    0.229041
| 65> C        -1.497433   -1.253778   -0.514437
| 66> H        -1.462975   -1.288510   -1.605457
| 67> H        -2.547858   -1.260837   -0.217840
| 68> H        -1.034915   -2.163386   -0.130387
| 69> C        -1.497435    1.253775   -0.514441
| 70> H        -1.462976    1.288503   -1.605462
| 71> H        -1.034919    2.163385   -0.130394
| 72> H        -2.547860    1.260833   -0.217845
| 73> C        -0.836653    0.000003    1.562081
| 74> H        -0.343698   -0.882484    1.968133
| 75> H        -1.870675    0.000003    1.913920
| 76> H        -0.343698    0.882491    1.968130
| 77> *
| 78>
| 79>
| 80>
| 81>
| 82>                          ****END OF INPUT****
 Total Charge           Charge          ....    0
 Multiplicity           Mult            ....    1
 Number of Electrons    NEL             ....   66
MP2 TOTAL ENERGY:     -697.566997003 Eh
FINAL SINGLE POINT ENERGY      -697.566997003005
MP2 TOTAL ENERGY:     -697.938212297 Eh
FINAL SINGLE POINT ENERGY      -697.938212296811

CARTESIAN COORDINATES (ANGSTROEM)
---------------------------------
  C     -0.815381    0.000000    0.037348
  P      0.901185    0.000000   -0.632590
  F      1.500734    1.201935    0.229041
  F      1.500734   -1.201934    0.229041
  C     -1.497433   -1.253778   -0.514437
  H     -1.462975   -1.288510   -1.605457
  H     -2.547858   -1.260837   -0.217840
  H     -1.034915   -2.163386   -0.130387
  C     -1.497435    1.253775   -0.514441
  H     -1.462976    1.288503   -1.605462
  H     -1.034919    2.163385   -0.130394
  H     -2.547860    1.260833   -0.217845
  C     -0.836653    0.000003    1.562081
  H     -0.343698   -0.882484    1.968133
  H     -1.870675    0.000003    1.913920
  H     -0.343698    0.882491    1.968130

 Multiplicity           Mult            ....    1
 Number of Electrons    NEL             ....   66
 Basis Dimension        Dim             ....  978

ORBITAL ENERGIES
----------------

  NO   OCC          E(Eh)            E(eV)
   0   2.0000     -80.047334     -2178.1987
   1   2.0000     -26.304864      -715.7917
   2   2.0000     -26.304852      -715.7914
   3   2.0000     -11.248469      -306.0864
   4   2.0000     -11.230415      -305.5951
   5   2.0000     -11.230395      -305.5946
   6   2.0000     -11.222004      -305.3663
   7   2.0000      -7.575475      -206.1391
   8   2.0000      -5.469652      -148.8368
   9   2.0000      -5.468565      -148.8072
  10   2.0000      -5.466477      -148.7504
  11   2.0000      -1.632103       -44.4118
  12   2.0000      -1.599078       -43.5131
  13   2.0000      -1.114630       -30.3306
  14   2.0000      -0.952323       -25.9140
  15   2.0000      -0.948470       -25.8092
  16   2.0000      -0.884620       -24.0717
  17   2.0000      -0.772243       -21.0138
  18   2.0000      -0.738070       -20.0839
  19   2.0000      -0.713471       -19.4145
  20   2.0000      -0.708537       -19.2803
  21   2.0000      -0.677884       -18.4462
  22   2.0000      -0.645319       -17.5600
  23   2.0000      -0.641727       -17.4623
  24   2.0000      -0.611461       -16.6387
  25   2.0000      -0.604837       -16.4585
  26   2.0000      -0.556335       -15.1386
  27   2.0000      -0.551146       -14.9974
  28   2.0000      -0.530102       -14.4248
  29   2.0000      -0.505924       -13.7669
  30   2.0000      -0.486711       -13.2441
  31   2.0000      -0.483362       -13.1529
  32   2.0000      -0.376269       -10.2388
  33   0.0000       0.023738         0.6459
  34   0.0000       0.031534         0.8581
  35   0.0000       0.032593         0.8869
  36   0.0000       0.039986         1.0881
  37   0.0000       0.052534         1.4295

MULLIKEN ATOMIC CHARGES
-----------------------
   0 C :    0.944623
   1 P :    1.453028
   2 F :   -0.759237
   3 F :   -0.759237
   4 C :   -1.059637
   5 H :    0.285152
   6 H :    0.249470
   7 H :    0.243215
   8 C :   -1.059637
   9 H :    0.285151
  10 H :    0.243215
  11 H :    0.249470
  12 C :   -1.074983
  13 H :    0.259991
  14 H :    0.239425
  15 H :    0.259992
Sum of atomic charges:    0.0000000

LOEWDIN ATOMIC CHARGES
----------------------
   0 C :   -0.494144
   1 P :   -0.076153
   2 F :    0.335280
   3 F :    0.335280
   4 C :    0.816482
   5 H :   -0.288132
   6 H :   -0.273360
   7 H :   -0.288059
   8 C :    0.816481
   9 H :   -0.288131
  10 H :   -0.288059
  11 H :   -0.273361
  12 C :    0.835273
  13 H :   -0.297939
  14 H :   -0.273518
  15 H :   -0.297940

  Mayer bond orders larger than 0.100000
B(  0-C ,  1-P ) :   0.4315 B(  0-C ,  2-F ) :  -0.2819 B(  0-C ,  3-F ) :  -0.2819
B(  0-C ,  4-C ) :   0.5530 B(  0-C ,  8-C ) :   0.5530 B(  0-C , 12-C ) :   0.5902
B(  1-P ,  2-F ) :   0.5368 B(  1-P ,  3-F ) :   0.5368 B(  4-C ,  5-H ) :   0.9897
B(  4-C ,  6-H ) :   0.9971 B(  4-C ,  7-H ) :   1.0033 B(  4-C , 12-C ) :   0.1064
B(  8-C ,  9-H ) :   0.9897 B(  8-C , 10-H ) :   1.0033 B(  8-C , 11-H ) :   0.9971
B(  8-C , 12-C ) :   0.1064 B( 12-C , 13-H ) :   1.0019 B( 12-C , 14-H ) :   0.9993
B( 12-C , 15-H ) :   1.0019

MP2 TOTAL ENERGY:     -698.055582771 Eh
FINAL SINGLE POINT ENERGY      -698.055582770694

DIPOLE MOMENT
-------------
                                X             Y             Z
Electronic contribution:     15.23140       0.00000      -2.15644
Nuclear contribution   :    -16.19337      -0.00000       2.05745
                        -----------------------------------------
Total Dipole Moment    :     -0.96197      -0.00000      -0.09899
                        -----------------------------------------
Magnitude (a.u.)       :      0.96705
Magnitude (Debye)      :      2.45805

Rotational constants in cm-1:     0.095204     0.062656     0.053961
Rotational constants in MHz :  2854.135129  1878.368980  1617.720253

                             ****ORCA TERMINATED NORMALLY****
TOTAL RUN TIME: 0 days 1 hours 34 minutes 49 seconds 251 msec
