                         Program Version 5.0.4 -  RELEASE  -
|  1> ! ri-mp2 aug-cc-pvdz aug-cc-pvdz/c tightscf
|  2> %pal nprocs 16 end
|  3> %maxcore 3800
|  4> %base "DZ_P-Si_53_AB"
|  5> %scf
|  6> STABPerform true
|  7> STABRestartUHFifUnstable true
|  8> end
|  9>
| 10> *xyz 0 1
| 11> P         0.978784    0.076209   -0.122757
| 12> O         0.982075    1.002583   -1.259598
| 13> O         1.681781   -1.337812   -0.332079
| 14> Si        -1.070648   -0.488332    0.566342
| 15> C        -2.367125   -0.368709   -0.731248
| 16> C        -2.325702    0.820862    0.249385
| 17> H        -3.234977   -1.013193   -0.669642
| 18> H        -2.062638   -0.157959   -1.748220
| 19> H        -2.001626    1.766277   -0.166335
| 20> H        -3.168068    0.917951    0.922710
| 21> H         2.574054   -1.289781   -0.699421
| 22> O         1.791590    0.654523    1.138588
| 23> H         1.880581    1.613729    1.083937
| 24> H        -1.166625   -1.410787    1.705428
| 25> *
| 26>
| 27> $new_job
| 28> ! ri-mp2 aug-cc-pvtz aug-cc-pvtz/c tightscf
| 29> %pal nprocs 16 end
| 30> %maxcore 3800
| 31> %base "TZ_P-Si_53_AB"
| 32>
| 33> *xyz 0 1
| 34> P         0.978784    0.076209   -0.122757
| 35> O         0.982075    1.002583   -1.259598
| 36> O         1.681781   -1.337812   -0.332079
| 37> Si        -1.070648   -0.488332    0.566342
| 38> C        -2.367125   -0.368709   -0.731248
| 39> C        -2.325702    0.820862    0.249385
| 40> H        -3.234977   -1.013193   -0.669642
| 41> H        -2.062638   -0.157959   -1.748220
| 42> H        -2.001626    1.766277   -0.166335
| 43> H        -3.168068    0.917951    0.922710
| 44> H         2.574054   -1.289781   -0.699421
| 45> O         1.791590    0.654523    1.138588
| 46> H         1.880581    1.613729    1.083937
| 47> H        -1.166625   -1.410787    1.705428
| 48> *
| 49>
| 50> $new_job
| 51> ! ri-mp2 aug-cc-pvqz aug-cc-pvqz/c tightscf
| 52> %pal nprocs 16 end
| 53> %maxcore 3800
| 54> %base "QZ_P-Si_53_AB"
| 55>
| 56> *xyz 0 1
| 57> P         0.978784    0.076209   -0.122757
| 58> O         0.982075    1.002583   -1.259598
| 59> O         1.681781   -1.337812   -0.332079
| 60> Si        -1.070648   -0.488332    0.566342
| 61> C        -2.367125   -0.368709   -0.731248
| 62> C        -2.325702    0.820862    0.249385
| 63> H        -3.234977   -1.013193   -0.669642
| 64> H        -2.062638   -0.157959   -1.748220
| 65> H        -2.001626    1.766277   -0.166335
| 66> H        -3.168068    0.917951    0.922710
| 67> H         2.574054   -1.289781   -0.699421
| 68> O         1.791590    0.654523    1.138588
| 69> H         1.880581    1.613729    1.083937
| 70> H        -1.166625   -1.410787    1.705428
| 71> *
| 72>
| 73>
| 74>
| 75>
| 76>                          ****END OF INPUT****
 Total Charge           Charge          ....    0
 Multiplicity           Mult            ....    1
 Number of Electrons    NEL             ....   72
MP2 TOTAL ENERGY:     -935.255368196 Eh
FINAL SINGLE POINT ENERGY      -935.255368195567
MP2 TOTAL ENERGY:     -935.634740443 Eh
FINAL SINGLE POINT ENERGY      -935.634740443157

CARTESIAN COORDINATES (ANGSTROEM)
---------------------------------
  P      0.978784    0.076209   -0.122757
  O      0.982075    1.002583   -1.259598
  O      1.681781   -1.337812   -0.332079
  Si    -1.070648   -0.488332    0.566342
  C     -2.367125   -0.368709   -0.731248
  C     -2.325702    0.820862    0.249385
  H     -3.234977   -1.013193   -0.669642
  H     -2.062638   -0.157959   -1.748220
  H     -2.001626    1.766277   -0.166335
  H     -3.168068    0.917951    0.922710
  H      2.574054   -1.289781   -0.699421
  O      1.791590    0.654523    1.138588
  H      1.880581    1.613729    1.083937
  H     -1.166625   -1.410787    1.705428

 Multiplicity           Mult            ....    1
 Number of Electrons    NEL             ....   72
 Basis Dimension        Dim             ....  890

ORBITAL ENERGIES
----------------

  NO   OCC          E(Eh)            E(eV)
   0   2.0000     -80.065499     -2178.6930
   1   2.0000     -68.779498     -1871.5853
   2   2.0000     -20.603411      -560.6473
   3   2.0000     -20.599858      -560.5506
   4   2.0000     -20.507478      -558.0368
   5   2.0000     -11.224326      -305.4294
   6   2.0000     -11.223739      -305.4135
   7   2.0000      -7.588929      -206.5052
   8   2.0000      -6.131614      -166.8497
   9   2.0000      -5.486915      -149.3066
  10   2.0000      -5.486155      -149.2859
  11   2.0000      -5.485224      -149.2605
  12   2.0000      -4.238274      -115.3293
  13   2.0000      -4.238109      -115.3248
  14   2.0000      -4.237639      -115.3120
  15   2.0000      -1.436952       -39.1014
  16   2.0000      -1.384989       -37.6875
  17   2.0000      -1.298475       -35.3333
  18   2.0000      -1.049767       -28.5656
  19   2.0000      -0.864041       -23.5117
  20   2.0000      -0.818441       -22.2709
  21   2.0000      -0.751523       -20.4500
  22   2.0000      -0.707319       -19.2471
  23   2.0000      -0.670845       -18.2546
  24   2.0000      -0.644886       -17.5482
  25   2.0000      -0.631910       -17.1951
  26   2.0000      -0.609055       -16.5732
  27   2.0000      -0.575948       -15.6723
  28   2.0000      -0.563407       -15.3311
  29   2.0000      -0.556593       -15.1457
  30   2.0000      -0.517522       -14.0825
  31   2.0000      -0.505734       -13.7617
  32   2.0000      -0.467598       -12.7240
  33   2.0000      -0.443913       -12.0795
  34   2.0000      -0.416053       -11.3214
  35   2.0000      -0.361593        -9.8394
  36   0.0000       0.021575         0.5871
  37   0.0000       0.029325         0.7980
  38   0.0000       0.030279         0.8239
  39   0.0000       0.039076         1.0633
  40   0.0000       0.043869         1.1937

MULLIKEN ATOMIC CHARGES
-----------------------
   0 P :    2.201257
   1 O :   -1.208564
   2 O :   -0.940496
   3 Si:    1.011723
   4 C :   -0.950960
   5 C :   -0.955442
   6 H :    0.354818
   7 H :    0.293532
   8 H :    0.287022
   9 H :    0.357691
  10 H :    0.378676
  11 O :   -0.928439
  12 H :    0.387588
  13 H :   -0.288408
Sum of atomic charges:   -0.0000000

LOEWDIN ATOMIC CHARGES
----------------------
   0 P :   -0.634650
   1 O :    0.258370
   2 O :    1.042518
   3 Si:    0.593674
   4 C :    0.509510
   5 C :    0.506676
   6 H :   -0.339286
   7 H :   -0.340534
   8 H :   -0.341766
   9 H :   -0.340070
  10 H :   -0.851356
  11 O :    1.052487
  12 H :   -0.886722
  13 H :   -0.228849

  Mayer bond orders larger than 0.100000
B(  0-P ,  1-O ) :   1.3275 B(  0-P ,  2-O ) :   0.5340 B(  0-P ,  3-Si) :   1.0483
B(  0-P , 11-O ) :   0.5933 B(  2-O , 10-H ) :   0.9050 B(  3-Si,  4-C ) :   0.7543
B(  3-Si,  5-C ) :   0.7287 B(  3-Si, 13-H ) :   0.9445 B(  4-C ,  5-C ) :   1.1405
B(  4-C ,  6-H ) :   0.8475 B(  4-C ,  7-H ) :   0.9326 B(  5-C ,  8-H ) :   0.9361
B(  5-C ,  9-H ) :   0.8549 B( 11-O , 12-H ) :   0.9100

MP2 TOTAL ENERGY:     -935.756495632 Eh
FINAL SINGLE POINT ENERGY      -935.756495632474

DIPOLE MOMENT
-------------
                                X             Y             Z
Electronic contribution:      7.85717      -0.65704       0.26507
Nuclear contribution   :     -7.80799       0.38015       0.49322
                        -----------------------------------------
Total Dipole Moment    :      0.04919      -0.27689       0.75829
                        -----------------------------------------
Magnitude (a.u.)       :      0.80876
Magnitude (Debye)      :      2.05570

Rotational constants in cm-1:     0.110126     0.040193     0.039540
Rotational constants in MHz :  3301.500369  1204.964542  1185.371535

                             ****ORCA TERMINATED NORMALLY****
TOTAL RUN TIME: 0 days 1 hours 39 minutes 18 seconds 994 msec
