                         Program Version 5.0.4 -  RELEASE  -
|  1> ! ri-mp2 aug-cc-pvdz aug-cc-pvdz/c tightscf
|  2> %pal nprocs 16 end
|  3> %maxcore 3800
|  4> %base "DZ_Si-S_39_AB"
|  5>
|  6> *xyz 0 1
|  7> Si         1.030139   -0.005173    0.000000
|  8> S        -1.105807    0.081605   -0.000001
|  9> H        -1.285449   -1.246696    0.000005
| 10> H         1.468966    1.402707   -0.000007
| 11> H         1.543726   -0.694645   -1.200854
| 12> H         1.543726   -0.694632    1.200862
| 13> *
| 14>
| 15> $new_job
| 16> ! ri-mp2 aug-cc-pvtz aug-cc-pvtz/c tightscf
| 17> %pal nprocs 16 end
| 18> %maxcore 3800
| 19> %base "TZ_Si-S_39_AB"
| 20>
| 21> *xyz 0 1
| 22> Si         1.030139   -0.005173    0.000000
| 23> S        -1.105807    0.081605   -0.000001
| 24> H        -1.285449   -1.246696    0.000005
| 25> H         1.468966    1.402707   -0.000007
| 26> H         1.543726   -0.694645   -1.200854
| 27> H         1.543726   -0.694632    1.200862
| 28> *
| 29>
| 30> $new_job
| 31> ! ri-mp2 aug-cc-pvqz aug-cc-pvqz/c tightscf
| 32> %pal nprocs 16 end
| 33> %maxcore 3800
| 34> %base "QZ_Si-S_39_AB"
| 35>
| 36> *xyz 0 1
| 37> Si         1.030139   -0.005173    0.000000
| 38> S        -1.105807    0.081605   -0.000001
| 39> H        -1.285449   -1.246696    0.000005
| 40> H         1.468966    1.402707   -0.000007
| 41> H         1.543726   -0.694645   -1.200854
| 42> H         1.543726   -0.694632    1.200862
| 43> *
| 44>
| 45>
| 46>
| 47>
| 48>                          ****END OF INPUT****
 Total Charge           Charge          ....    0
 Multiplicity           Mult            ....    1
 Number of Electrons    NEL             ....   34
MP2 TOTAL ENERGY:     -689.070754088 Eh
FINAL SINGLE POINT ENERGY      -689.070754088197
MP2 TOTAL ENERGY:     -689.164606443 Eh
FINAL SINGLE POINT ENERGY      -689.164606443410

CARTESIAN COORDINATES (ANGSTROEM)
---------------------------------
  Si     1.030139   -0.005173    0.000000
  S     -1.105807    0.081605   -0.000001
  H     -1.285449   -1.246696    0.000005
  H      1.468966    1.402707   -0.000007
  H      1.543726   -0.694645   -1.200854
  H      1.543726   -0.694632    1.200862

 Multiplicity           Mult            ....    1
 Number of Electrons    NEL             ....   34
 Basis Dimension        Dim             ....  352

ORBITAL ENERGIES
----------------

  NO   OCC          E(Eh)            E(eV)
   0   2.0000     -91.952170     -2502.1458
   1   2.0000     -68.799308     -1872.1244
   2   2.0000      -8.956688      -243.7239
   3   2.0000      -6.638173      -180.6339
   4   2.0000      -6.637427      -180.6136
   5   2.0000      -6.636559      -180.5900
   6   2.0000      -6.146545      -167.2560
   7   2.0000      -4.253246      -115.7367
   8   2.0000      -4.252682      -115.7214
   9   2.0000      -4.252454      -115.7152
  10   2.0000      -0.973598       -26.4930
  11   2.0000      -0.717963       -19.5368
  12   2.0000      -0.560022       -15.2390
  13   2.0000      -0.505814       -13.7639
  14   2.0000      -0.490269       -13.3409
  15   2.0000      -0.451560       -12.2876
  16   2.0000      -0.380374       -10.3505
  17   0.0000       0.025407         0.6914
  18   0.0000       0.034841         0.9481
  19   0.0000       0.040279         1.0960
  20   0.0000       0.043017         1.1706
  21   0.0000       0.057653         1.5688

MULLIKEN ATOMIC CHARGES
-----------------------
   0 Si:    0.816713
   1 S :   -0.420838
   2 H :    0.093636
   3 H :   -0.168821
   4 H :   -0.160345
   5 H :   -0.160346
Sum of atomic charges:    0.0000000

LOEWDIN ATOMIC CHARGES
----------------------
   0 Si:    0.543572
   1 S :    1.344368
   2 H :   -0.905222
   3 H :   -0.334862
   4 H :   -0.323928
   5 H :   -0.323928

  Mayer bond orders larger than 0.100000
B(  0-Si,  1-S ) :   0.8167 B(  0-Si,  3-H ) :   0.8669 B(  0-Si,  4-H ) :   0.8435
B(  0-Si,  5-H ) :   0.8435 B(  1-S ,  2-H ) :   1.0028

MP2 TOTAL ENERGY:     -689.195329964 Eh
FINAL SINGLE POINT ENERGY      -689.195329963939

DIPOLE MOMENT
-------------
                                X             Y             Z
Electronic contribution:     -2.91342       0.89175      -0.00001
Nuclear contribution   :      3.22621      -1.22924       0.00001
                        -----------------------------------------
Total Dipole Moment    :      0.31279      -0.33749       0.00000
                        -----------------------------------------
Magnitude (a.u.)       :      0.46015
Magnitude (Debye)      :      1.16960

Rotational constants in cm-1:     2.220497     0.209602     0.205070
Rotational constants in MHz : 66568.833171  6283.700304  6147.832461

                             ****ORCA TERMINATED NORMALLY****
TOTAL RUN TIME: 0 days 0 hours 1 minutes 17 seconds 113 msec
