                         Program Version 5.0.4 -  RELEASE  -
|  1> ! ri-mp2 aug-cc-pvdz aug-cc-pvdz/c tightscf
|  2> %pal nprocs 16 end
|  3> %maxcore 3800
|  4> %base "DZ_P-C_19_AB"
|  5>
|  6> *xyz 0 1
|  7> C         0.452477    0.243681   -0.436195
|  8> N         1.069640   -1.065991   -0.040461
|  9> P        -1.340210    0.255065   -0.072210
| 10> O         0.890962   -1.443074    1.108215
| 11> O         1.722749   -1.655612   -0.859458
| 12> O        -2.002668    1.450057   -0.572855
| 13> O        -1.437048    0.035115    1.481387
| 14> H         0.574770    0.297781   -1.515621
| 15> C         1.181583    1.390583    0.258196
| 16> C         2.654435    1.474518   -0.106807
| 17> H         1.056898    1.290843    1.336582
| 18> H         0.660535    2.302451   -0.035727
| 19> H         3.202506    0.586892    0.210705
| 20> H         3.111907    2.334930    0.379426
| 21> H         2.790289    1.584463   -1.183246
| 22> O        -1.820173   -1.111582   -0.729294
| 23> H        -2.556169   -0.997858   -1.341911
| 24> H        -0.786598   -0.615449    1.801040
| 25> *
| 26>
| 27> $new_job
| 28> ! ri-mp2 aug-cc-pvtz aug-cc-pvtz/c tightscf
| 29> %pal nprocs 16 end
| 30> %maxcore 3800
| 31> %base "TZ_P-C_19_AB"
| 32>
| 33> *xyz 0 1
| 34> C         0.452477    0.243681   -0.436195
| 35> N         1.069640   -1.065991   -0.040461
| 36> P        -1.340210    0.255065   -0.072210
| 37> O         0.890962   -1.443074    1.108215
| 38> O         1.722749   -1.655612   -0.859458
| 39> O        -2.002668    1.450057   -0.572855
| 40> O        -1.437048    0.035115    1.481387
| 41> H         0.574770    0.297781   -1.515621
| 42> C         1.181583    1.390583    0.258196
| 43> C         2.654435    1.474518   -0.106807
| 44> H         1.056898    1.290843    1.336582
| 45> H         0.660535    2.302451   -0.035727
| 46> H         3.202506    0.586892    0.210705
| 47> H         3.111907    2.334930    0.379426
| 48> H         2.790289    1.584463   -1.183246
| 49> O        -1.820173   -1.111582   -0.729294
| 50> H        -2.556169   -0.997858   -1.341911
| 51> H        -0.786598   -0.615449    1.801040
| 52> *
| 53>
| 54> $new_job
| 55> ! ri-mp2 aug-cc-pvqz aug-cc-pvqz/c tightscf
| 56> %pal nprocs 16 end
| 57> %maxcore 3800
| 58> %base "QZ_P-C_19_AB"
| 59>
| 60> *xyz 0 1
| 61> C         0.452477    0.243681   -0.436195
| 62> N         1.069640   -1.065991   -0.040461
| 63> P        -1.340210    0.255065   -0.072210
| 64> O         0.890962   -1.443074    1.108215
| 65> O         1.722749   -1.655612   -0.859458
| 66> O        -2.002668    1.450057   -0.572855
| 67> O        -1.437048    0.035115    1.481387
| 68> H         0.574770    0.297781   -1.515621
| 69> C         1.181583    1.390583    0.258196
| 70> C         2.654435    1.474518   -0.106807
| 71> H         1.056898    1.290843    1.336582
| 72> H         0.660535    2.302451   -0.035727
| 73> H         3.202506    0.586892    0.210705
| 74> H         3.111907    2.334930    0.379426
| 75> H         2.790289    1.584463   -1.183246
| 76> O        -1.820173   -1.111582   -0.729294
| 77> H        -2.556169   -0.997858   -1.341911
| 78> H        -0.786598   -0.615449    1.801040
| 79> *
| 80>
| 81>
| 82>
| 83>
| 84>                          ****END OF INPUT****
 Total Charge           Charge          ....    0
 Multiplicity           Mult            ....    1
 Number of Electrons    NEL             ....   88
MP2 TOTAL ENERGY:     -889.555208758 Eh
FINAL SINGLE POINT ENERGY      -889.555208757659
MP2 TOTAL ENERGY:     -890.099841785 Eh
FINAL SINGLE POINT ENERGY      -890.099841784624

CARTESIAN COORDINATES (ANGSTROEM)
---------------------------------
  C      0.452477    0.243681   -0.436195
  N      1.069640   -1.065991   -0.040461
  P     -1.340210    0.255065   -0.072210
  O      0.890962   -1.443074    1.108215
  O      1.722749   -1.655612   -0.859458
  O     -2.002668    1.450057   -0.572855
  O     -1.437048    0.035115    1.481387
  H      0.574770    0.297781   -1.515621
  C      1.181583    1.390583    0.258196
  C      2.654435    1.474518   -0.106807
  H      1.056898    1.290843    1.336582
  H      0.660535    2.302451   -0.035727
  H      3.202506    0.586892    0.210705
  H      3.111907    2.334930    0.379426
  H      2.790289    1.584463   -1.183246
  O     -1.820173   -1.111582   -0.729294
  H     -2.556169   -0.997858   -1.341911
  H     -0.786598   -0.615449    1.801040

 Multiplicity           Mult            ....    1
 Number of Electrons    NEL             ....   88
 Basis Dimension        Dim             .... 1172

ORBITAL ENERGIES
----------------

  NO   OCC          E(Eh)            E(eV)
   0   2.0000     -80.092165     -2179.4186
   1   2.0000     -20.634620      -561.4965
   2   2.0000     -20.622679      -561.1716
   3   2.0000     -20.618876      -561.0681
   4   2.0000     -20.609127      -560.8029
   5   2.0000     -20.525657      -558.5315
   6   2.0000     -15.872596      -431.9153
   7   2.0000     -11.326231      -308.2024
   8   2.0000     -11.269458      -306.6575
   9   2.0000     -11.241895      -305.9075
  10   2.0000      -7.614883      -207.2115
  11   2.0000      -5.513111      -150.0194
  12   2.0000      -5.512814      -150.0113
  13   2.0000      -5.511878      -149.9858
  14   2.0000      -1.643937       -44.7338
  15   2.0000      -1.458152       -39.6783
  16   2.0000      -1.434746       -39.0414
  17   2.0000      -1.403477       -38.1905
  18   2.0000      -1.321490       -35.9596
  19   2.0000      -1.157954       -31.5095
  20   2.0000      -1.040046       -28.3011
  21   2.0000      -0.922585       -25.1048
  22   2.0000      -0.874363       -23.7926
  23   2.0000      -0.847206       -23.0536
  24   2.0000      -0.782297       -21.2874
  25   2.0000      -0.777038       -21.1443
  26   2.0000      -0.761294       -20.7159
  27   2.0000      -0.747056       -20.3284
  28   2.0000      -0.700547       -19.0628
  29   2.0000      -0.672592       -18.3022
  30   2.0000      -0.642892       -17.4940
  31   2.0000      -0.636936       -17.3319
  32   2.0000      -0.608289       -16.5524
  33   2.0000      -0.589049       -16.0289
  34   2.0000      -0.583154       -15.8684
  35   2.0000      -0.559066       -15.2129
  36   2.0000      -0.550585       -14.9822
  37   2.0000      -0.527389       -14.3510
  38   2.0000      -0.521976       -14.2037
  39   2.0000      -0.520979       -14.1766
  40   2.0000      -0.508452       -13.8357
  41   2.0000      -0.489553       -13.3214
  42   2.0000      -0.484454       -13.1827
  43   2.0000      -0.470805       -12.8113
  44   0.0000       0.021430         0.5831
  45   0.0000       0.025894         0.7046
  46   0.0000       0.032792         0.8923
  47   0.0000       0.039153         1.0654
  48   0.0000       0.043904         1.1947

MULLIKEN ATOMIC CHARGES
-----------------------
   0 C :   -0.164122
   1 N :    1.068597
   2 P :    2.617726
   3 O :   -0.714029
   4 O :   -0.711864
   5 O :   -1.260563
   6 O :   -1.059429
   7 H :    0.401438
   8 C :   -0.443149
   9 C :   -0.830203
  10 H :    0.233744
  11 H :    0.355683
  12 H :    0.193734
  13 H :    0.282851
  14 H :    0.240421
  15 O :   -1.007005
  16 H :    0.378893
  17 H :    0.417278
Sum of atomic charges:   -0.0000000

LOEWDIN ATOMIC CHARGES
----------------------
   0 C :   -0.110294
   1 N :   -0.827395
   2 P :   -0.638460
   3 O :    0.626846
   4 O :    0.607733
   5 O :    0.335672
   6 O :    1.125799
   7 H :   -0.368207
   8 C :    0.459252
   9 C :    0.939816
  10 H :   -0.289581
  11 H :   -0.282455
  12 H :   -0.290372
  13 H :   -0.272678
  14 H :   -0.274567
  15 O :    1.121981
  16 H :   -0.846560
  17 H :   -1.016531

  Mayer bond orders larger than 0.100000
B(  0-C ,  1-N ) :   0.8901 B(  0-C ,  2-P ) :   0.7459 B(  0-C ,  4-O ) :   0.1355
B(  0-C ,  5-O ) :  -0.1229 B(  0-C ,  6-O ) :  -0.1666 B(  0-C ,  7-H ) :   0.8479
B(  0-C ,  8-C ) :   0.7133 B(  0-C , 15-O ) :  -0.1437 B(  1-N ,  3-O ) :   1.0786
B(  1-N ,  4-O ) :   1.0813 B(  2-P ,  5-O ) :   1.2590 B(  2-P ,  6-O ) :   0.5480
B(  2-P , 15-O ) :   0.6076 B(  3-O ,  4-O ) :   0.1289 B(  6-O , 17-H ) :   0.7833
B(  8-C ,  9-C ) :   0.9406 B(  8-C , 10-H ) :   0.8999 B(  8-C , 11-H ) :   0.8172
B(  9-C , 12-H ) :   0.9705 B(  9-C , 13-H ) :   0.9944 B(  9-C , 14-H ) :   0.9450
B( 15-O , 16-H ) :   0.9250

MP2 TOTAL ENERGY:     -890.277726540 Eh
FINAL SINGLE POINT ENERGY      -890.277726539724

DIPOLE MOMENT
-------------
                                X             Y             Z
Electronic contribution:     -8.58999      -6.17171      -0.03746
Nuclear contribution   :      9.08603       6.34591      -0.26732
                        -----------------------------------------
Total Dipole Moment    :      0.49604       0.17420      -0.30478
                        -----------------------------------------
Magnitude (a.u.)       :      0.60769
Magnitude (Debye)      :      1.54464

Rotational constants in cm-1:     0.054765     0.032484     0.026436
Rotational constants in MHz :  1641.807629   973.860771   792.526806

                             ****ORCA TERMINATED NORMALLY****
TOTAL RUN TIME: 0 days 0 hours 51 minutes 10 seconds 359 msec
