                         Program Version 5.0.4 -  RELEASE  -
|  1> ! ri-mp2 aug-cc-pvdz aug-cc-pvdz/c tightscf
|  2> %pal nprocs 16 end
|  3> %maxcore 3800
|  4> %base "DZ_Si-Si_19_AB"
|  5> %scf
|  6> STABPerform true
|  7> STABRestartUHFifUnstable true
|  8> end
|  9>
| 10> *xyz 0 1
| 11> Si         1.298681    0.000000   -0.680411
| 12> Si        -0.930058    0.000000   -0.004686
| 13> Cl        -1.862022    1.658416   -0.734691
| 14> Cl         2.192559    1.675813    0.067329
| 15> Cl        -1.049526    0.000000    2.024976
| 16> Cl         2.192559   -1.675813    0.067329
| 17> Cl        -1.862022   -1.658416   -0.734691
| 18> H         1.442980    0.000000   -2.142932
| 19> *
| 20>
| 21> $new_job
| 22> ! ri-mp2 aug-cc-pvtz aug-cc-pvtz/c tightscf
| 23> %pal nprocs 16 end
| 24> %maxcore 3800
| 25> %base "TZ_Si-Si_19_AB"
| 26>
| 27> *xyz 0 1
| 28> Si         1.298681    0.000000   -0.680411
| 29> Si        -0.930058    0.000000   -0.004686
| 30> Cl        -1.862022    1.658416   -0.734691
| 31> Cl         2.192559    1.675813    0.067329
| 32> Cl        -1.049526    0.000000    2.024976
| 33> Cl         2.192559   -1.675813    0.067329
| 34> Cl        -1.862022   -1.658416   -0.734691
| 35> H         1.442980    0.000000   -2.142932
| 36> *
| 37>
| 38> $new_job
| 39> ! ri-mp2 aug-cc-pvqz aug-cc-pvqz/c tightscf
| 40> %pal nprocs 16 end
| 41> %maxcore 3800
| 42> %base "QZ_Si-Si_19_AB"
| 43>
| 44> *xyz 0 1
| 45> Si         1.298681    0.000000   -0.680411
| 46> Si        -0.930058    0.000000   -0.004686
| 47> Cl        -1.862022    1.658416   -0.734691
| 48> Cl         2.192559    1.675813    0.067329
| 49> Cl        -1.049526    0.000000    2.024976
| 50> Cl         2.192559   -1.675813    0.067329
| 51> Cl        -1.862022   -1.658416   -0.734691
| 52> H         1.442980    0.000000   -2.142932
| 53> *
| 54>
| 55>
| 56>
| 57>
| 58>                          ****END OF INPUT****
 Total Charge           Charge          ....    0
 Multiplicity           Mult            ....    1
 Number of Electrons    NEL             ....  114
MP2 TOTAL ENERGY:    -2877.157275010 Eh
FINAL SINGLE POINT ENERGY     -2877.157275009663
MP2 TOTAL ENERGY:    -2877.540400303 Eh
FINAL SINGLE POINT ENERGY     -2877.540400302680

CARTESIAN COORDINATES (ANGSTROEM)
---------------------------------
  Si     1.298681    0.000000   -0.680411
  Si    -0.930058    0.000000   -0.004686
  Cl    -1.862022    1.658416   -0.734691
  Cl     2.192559    1.675813    0.067329
  Cl    -1.049526    0.000000    2.024976
  Cl     2.192559   -1.675813    0.067329
  Cl    -1.862022   -1.658416   -0.734691
  H      1.442980    0.000000   -2.142932

 Multiplicity           Mult            ....    1
 Number of Electrons    NEL             ....  114
 Basis Dimension        Dim             ....  634

ORBITAL ENERGIES
----------------

  NO   OCC          E(Eh)            E(eV)
   0   2.0000    -104.857349     -2853.3135
   1   2.0000    -104.857349     -2853.3135
   2   2.0000    -104.856573     -2853.2924
   3   2.0000    -104.852693     -2853.1868
   4   2.0000    -104.852693     -2853.1868
   5   2.0000     -68.907986     -1875.0816
   6   2.0000     -68.875547     -1874.1989
   7   2.0000     -10.584854      -288.0285
   8   2.0000     -10.584848      -288.0284
   9   2.0000     -10.584075      -288.0073
  10   2.0000     -10.580123      -287.8998
  11   2.0000     -10.580118      -287.8997
  12   2.0000      -8.051592      -219.0950
  13   2.0000      -8.051591      -219.0949
  14   2.0000      -8.050823      -219.0740
  15   2.0000      -8.050388      -219.0622
  16   2.0000      -8.050387      -219.0622
  17   2.0000      -8.050379      -219.0619
  18   2.0000      -8.050378      -219.0619
  19   2.0000      -8.049600      -219.0407
  20   2.0000      -8.049593      -219.0406
  21   2.0000      -8.046888      -218.9669
  22   2.0000      -8.046887      -218.9669
  23   2.0000      -8.045708      -218.9349
  24   2.0000      -8.045708      -218.9348
  25   2.0000      -8.045671      -218.9338
  26   2.0000      -8.045670      -218.9338
  27   2.0000      -6.244360      -169.9177
  28   2.0000      -6.216693      -169.1648
  29   2.0000      -4.351383      -118.4072
  30   2.0000      -4.351357      -118.4064
  31   2.0000      -4.350117      -118.3727
  32   2.0000      -4.323714      -117.6542
  33   2.0000      -4.323029      -117.6356
  34   2.0000      -4.322262      -117.6147
  35   2.0000      -1.157782       -31.5049
  36   2.0000      -1.136991       -30.9391
  37   2.0000      -1.115258       -30.3477
  38   2.0000      -1.114651       -30.3312
  39   2.0000      -1.109474       -30.1903
  40   2.0000      -0.760238       -20.6871
  41   2.0000      -0.691310       -18.8115
  42   2.0000      -0.589084       -16.0298
  43   2.0000      -0.587388       -15.9836
  44   2.0000      -0.575263       -15.6537
  45   2.0000      -0.568918       -15.4810
  46   2.0000      -0.566304       -15.4099
  47   2.0000      -0.514170       -13.9913
  48   2.0000      -0.512879       -13.9562
  49   2.0000      -0.511510       -13.9189
  50   2.0000      -0.496993       -13.5239
  51   2.0000      -0.486892       -13.2490
  52   2.0000      -0.486269       -13.2321
  53   2.0000      -0.485309       -13.2059
  54   2.0000      -0.475900       -12.9499
  55   2.0000      -0.471292       -12.8245
  56   2.0000      -0.419735       -11.4216
  57   0.0000       0.029051         0.7905
  58   0.0000       0.033645         0.9155
  59   0.0000       0.038955         1.0600
  60   0.0000       0.039122         1.0646
  61   0.0000       0.052467         1.4277

MULLIKEN ATOMIC CHARGES
-----------------------
   0 Si:    1.362586
   1 Si:    1.892072
   2 Cl:   -0.623670
   3 Cl:   -0.593807
   4 Cl:   -0.618396
   5 Cl:   -0.593807
   6 Cl:   -0.623670
   7 H :   -0.201308
Sum of atomic charges:   -0.0000000

LOEWDIN ATOMIC CHARGES
----------------------
   0 Si:   -1.397750
   1 Si:   -2.530554
   2 Cl:    0.852218
   3 Cl:    0.865688
   4 Cl:    0.858069
   5 Cl:    0.865688
   6 Cl:    0.852218
   7 H :   -0.365576

  Mayer bond orders larger than 0.100000
B(  0-Si,  1-Si) :   0.8636 B(  0-Si,  3-Cl) :   0.5329 B(  0-Si,  5-Cl) :   0.5329
B(  0-Si,  7-H ) :   0.9134 B(  1-Si,  2-Cl) :   0.4977 B(  1-Si,  4-Cl) :   0.5355
B(  1-Si,  6-Cl) :   0.4977

MP2 TOTAL ENERGY:    -2877.670969986 Eh
FINAL SINGLE POINT ENERGY     -2877.670969986124

DIPOLE MOMENT
-------------
                                X             Y             Z
Electronic contribution:     -1.74877      -0.00000       2.43596
Nuclear contribution   :      1.80484       0.00000      -2.82081
                        -----------------------------------------
Total Dipole Moment    :      0.05607      -0.00000      -0.38485
                        -----------------------------------------
Magnitude (a.u.)       :      0.38891
Magnitude (Debye)      :      0.98853

Rotational constants in cm-1:     0.028300     0.018709     0.015414
Rotational constants in MHz :   848.422795   560.867408   462.087591

                             ****ORCA TERMINATED NORMALLY****
TOTAL RUN TIME: 0 days 0 hours 26 minutes 0 seconds 998 msec
