                         Program Version 5.0.4 -  RELEASE  -
|  1> ! ri-mp2 aug-cc-pvdz aug-cc-pvdz/c tightscf
|  2> %pal nprocs 16 end
|  3> %maxcore 3800
|  4> %base "DZ_P-Si_28_AB"
|  5> %scf
|  6> STABPerform true
|  7> STABRestartUHFifUnstable true
|  8> end
|  9>
| 10> *xyz 0 1
| 11> Si         0.892583    0.000000   -0.001235
| 12> P        -1.322872    0.000000   -0.613311
| 13> F         1.600134    1.275101   -0.597603
| 14> F         1.102557    0.000003    1.556953
| 15> F         1.600132   -1.275103   -0.597599
| 16> F        -1.743249   -1.211319    0.331178
| 17> F        -1.743249    1.211319    0.331178
| 18> *
| 19>
| 20> $new_job
| 21> ! ri-mp2 aug-cc-pvtz aug-cc-pvtz/c tightscf
| 22> %pal nprocs 16 end
| 23> %maxcore 3800
| 24> %base "TZ_P-Si_28_AB"
| 25>
| 26> *xyz 0 1
| 27> Si         0.892583    0.000000   -0.001235
| 28> P        -1.322872    0.000000   -0.613311
| 29> F         1.600134    1.275101   -0.597603
| 30> F         1.102557    0.000003    1.556953
| 31> F         1.600132   -1.275103   -0.597599
| 32> F        -1.743249   -1.211319    0.331178
| 33> F        -1.743249    1.211319    0.331178
| 34> *
| 35>
| 36> $new_job
| 37> ! ri-mp2 aug-cc-pvqz aug-cc-pvqz/c tightscf
| 38> %pal nprocs 16 end
| 39> %maxcore 3800
| 40> %base "QZ_P-Si_28_AB"
| 41>
| 42> *xyz 0 1
| 43> Si         0.892583    0.000000   -0.001235
| 44> P        -1.322872    0.000000   -0.613311
| 45> F         1.600134    1.275101   -0.597603
| 46> F         1.102557    0.000003    1.556953
| 47> F         1.600132   -1.275103   -0.597599
| 48> F        -1.743249   -1.211319    0.331178
| 49> F        -1.743249    1.211319    0.331178
| 50> *
| 51>
| 52>
| 53>
| 54>
| 55>                          ****END OF INPUT****
 Total Charge           Charge          ....    0
 Multiplicity           Mult            ....    1
 Number of Electrons    NEL             ....   74
MP2 TOTAL ENERGY:    -1128.383310079 Eh
FINAL SINGLE POINT ENERGY     -1128.383310078714
MP2 TOTAL ENERGY:    -1128.900982638 Eh
FINAL SINGLE POINT ENERGY     -1128.900982638462

CARTESIAN COORDINATES (ANGSTROEM)
---------------------------------
  Si     0.892583    0.000000   -0.001235
  P     -1.322872    0.000000   -0.613311
  F      1.600134    1.275101   -0.597603
  F      1.102557    0.000003    1.556953
  F      1.600132   -1.275103   -0.597599
  F     -1.743249   -1.211319    0.331178
  F     -1.743249    1.211319    0.331178

 Multiplicity           Mult            ....    1
 Number of Electrons    NEL             ....   74
 Basis Dimension        Dim             ....  568

ORBITAL ENERGIES
----------------

  NO   OCC          E(Eh)            E(eV)
   0   2.0000     -80.089158     -2179.3368
   1   2.0000     -68.908960     -1875.1081
   2   2.0000     -26.340808      -716.7698
   3   2.0000     -26.340798      -716.7695
   4   2.0000     -26.331209      -716.5086
   5   2.0000     -26.331200      -716.5084
   6   2.0000     -26.329781      -716.4698
   7   2.0000      -7.616758      -207.2625
   8   2.0000      -6.243806      -169.9026
   9   2.0000      -5.510719      -149.9543
  10   2.0000      -5.509634      -149.9248
  11   2.0000      -5.508007      -149.8805
  12   2.0000      -4.352384      -118.4344
  13   2.0000      -4.352325      -118.4328
  14   2.0000      -4.350942      -118.3952
  15   2.0000      -1.666710       -45.3535
  16   2.0000      -1.655328       -45.0438
  17   2.0000      -1.634432       -44.4751
  18   2.0000      -1.628017       -44.3006
  19   2.0000      -1.627048       -44.2742
  20   2.0000      -0.914451       -24.8835
  21   2.0000      -0.840432       -22.8693
  22   2.0000      -0.772227       -21.0134
  23   2.0000      -0.767039       -20.8722
  24   2.0000      -0.765123       -20.8201
  25   2.0000      -0.765086       -20.8191
  26   2.0000      -0.746517       -20.3138
  27   2.0000      -0.725539       -19.7429
  28   2.0000      -0.714939       -19.4545
  29   2.0000      -0.714407       -19.4400
  30   2.0000      -0.709063       -19.2946
  31   2.0000      -0.688608       -18.7380
  32   2.0000      -0.688015       -18.7218
  33   2.0000      -0.678062       -18.4510
  34   2.0000      -0.672031       -18.2869
  35   2.0000      -0.585221       -15.9247
  36   2.0000      -0.409655       -11.1473
  37   0.0000       0.033950         0.9238
  38   0.0000       0.037132         1.0104
  39   0.0000       0.038680         1.0525
  40   0.0000       0.041422         1.1272
  41   0.0000       0.060365         1.6426

MULLIKEN ATOMIC CHARGES
-----------------------
   0 Si:    2.216277
   1 P :    1.158652
   2 F :   -0.690223
   3 F :   -0.682424
   4 F :   -0.690223
   5 F :   -0.656030
   6 F :   -0.656030
Sum of atomic charges:    0.0000000

LOEWDIN ATOMIC CHARGES
----------------------
   0 Si:   -1.448814
   1 P :   -0.185873
   2 F :    0.399946
   3 F :    0.414493
   4 F :    0.399947
   5 F :    0.210151
   6 F :    0.210151

  Mayer bond orders larger than 0.100000
B(  0-Si,  1-P ) :   0.9992 B(  0-Si,  2-F ) :   0.4608 B(  0-Si,  3-F ) :   0.4713
B(  0-Si,  4-F ) :   0.4608 B(  1-P ,  5-F ) :   0.5247 B(  1-P ,  6-F ) :   0.5247

MP2 TOTAL ENERGY:    -1129.074204895 Eh
FINAL SINGLE POINT ENERGY     -1129.074204894768

DIPOLE MOMENT
-------------
                                X             Y             Z
Electronic contribution:     -0.50804      -0.00000      -0.05800
Nuclear contribution   :      0.36040      -0.00000      -0.38542
                        -----------------------------------------
Total Dipole Moment    :     -0.14764      -0.00000      -0.44342
                        -----------------------------------------
Magnitude (a.u.)       :      0.46735
Magnitude (Debye)      :      1.18791

Rotational constants in cm-1:     0.087360     0.043463     0.039208
Rotational constants in MHz :  2618.998048  1302.973661  1175.420440

                             ****ORCA TERMINATED NORMALLY****
TOTAL RUN TIME: 0 days 0 hours 11 minutes 58 seconds 818 msec
