                         Program Version 5.0.4 -  RELEASE  -
|  1> ! ri-mp2 aug-cc-pvdz aug-cc-pvdz/c tightscf
|  2> %pal nprocs 16 end
|  3> %maxcore 3800
|  4> %base "DZ_Si-Si_51_AB"
|  5> %scf
|  6> STABPerform true
|  7> STABRestartUHFifUnstable true
|  8> end
|  9>
| 10> *xyz 0 1
| 11> Si         0.994164    1.532428    0.014467
| 12> Si        -1.213636    1.183728   -0.655905
| 13> C         1.713068   -0.205838    0.393298
| 14> O         2.365611   -0.603901    1.276039
| 15> H         1.161805    2.349701    1.229633
| 16> H         1.848096    2.048980   -1.074552
| 17> Cl         1.233594   -1.372277   -0.985047
| 18> C        -1.791705   -0.261159    0.483700
| 19> H        -1.331224    0.888838   -2.099515
| 20> H        -2.050239    2.362525   -0.335167
| 21> O        -1.342802   -0.247201    1.607641
| 22> C        -2.728985   -1.328387    0.009206
| 23> H        -2.251409   -1.879993   -0.804156
| 24> H        -3.636492   -0.879207   -0.400348
| 25> H        -2.975773   -2.007206    0.823379
| 26> *
| 27>
| 28> $new_job
| 29> ! ri-mp2 aug-cc-pvtz aug-cc-pvtz/c tightscf
| 30> %pal nprocs 16 end
| 31> %maxcore 3800
| 32> %base "TZ_Si-Si_51_AB"
| 33>
| 34> *xyz 0 1
| 35> Si         0.994164    1.532428    0.014467
| 36> Si        -1.213636    1.183728   -0.655905
| 37> C         1.713068   -0.205838    0.393298
| 38> O         2.365611   -0.603901    1.276039
| 39> H         1.161805    2.349701    1.229633
| 40> H         1.848096    2.048980   -1.074552
| 41> Cl         1.233594   -1.372277   -0.985047
| 42> C        -1.791705   -0.261159    0.483700
| 43> H        -1.331224    0.888838   -2.099515
| 44> H        -2.050239    2.362525   -0.335167
| 45> O        -1.342802   -0.247201    1.607641
| 46> C        -2.728985   -1.328387    0.009206
| 47> H        -2.251409   -1.879993   -0.804156
| 48> H        -3.636492   -0.879207   -0.400348
| 49> H        -2.975773   -2.007206    0.823379
| 50> *
| 51>
| 52> $new_job
| 53> ! ri-mp2 aug-cc-pvqz aug-cc-pvqz/c tightscf
| 54> %pal nprocs 16 end
| 55> %maxcore 3800
| 56> %base "QZ_Si-Si_51_AB"
| 57>
| 58> *xyz 0 1
| 59> Si         0.994164    1.532428    0.014467
| 60> Si        -1.213636    1.183728   -0.655905
| 61> C         1.713068   -0.205838    0.393298
| 62> O         2.365611   -0.603901    1.276039
| 63> H         1.161805    2.349701    1.229633
| 64> H         1.848096    2.048980   -1.074552
| 65> Cl         1.233594   -1.372277   -0.985047
| 66> C        -1.791705   -0.261159    0.483700
| 67> H        -1.331224    0.888838   -2.099515
| 68> H        -2.050239    2.362525   -0.335167
| 69> O        -1.342802   -0.247201    1.607641
| 70> C        -2.728985   -1.328387    0.009206
| 71> H        -2.251409   -1.879993   -0.804156
| 72> H        -3.636492   -0.879207   -0.400348
| 73> H        -2.975773   -2.007206    0.823379
| 74> *
| 75>
| 76>
| 77>
| 78>
| 79>                          ****END OF INPUT****
 Total Charge           Charge          ....    0
 Multiplicity           Mult            ....    1
 Number of Electrons    NEL             ....   86
MP2 TOTAL ENERGY:    -1305.952912521 Eh
FINAL SINGLE POINT ENERGY     -1305.952912520874
MP2 TOTAL ENERGY:    -1306.308292562 Eh
FINAL SINGLE POINT ENERGY     -1306.308292562456

CARTESIAN COORDINATES (ANGSTROEM)
---------------------------------
  Si     0.994164    1.532428    0.014467
  Si    -1.213636    1.183728   -0.655905
  C      1.713068   -0.205838    0.393298
  O      2.365611   -0.603901    1.276039
  H      1.161805    2.349701    1.229633
  H      1.848096    2.048980   -1.074552
  Cl     1.233594   -1.372277   -0.985047
  C     -1.791705   -0.261159    0.483700
  H     -1.331224    0.888838   -2.099515
  H     -2.050239    2.362525   -0.335167
  O     -1.342802   -0.247201    1.607641
  C     -2.728985   -1.328387    0.009206
  H     -2.251409   -1.879993   -0.804156
  H     -3.636492   -0.879207   -0.400348
  H     -2.975773   -2.007206    0.823379

 Multiplicity           Mult            ....    1
 Number of Electrons    NEL             ....   86
 Basis Dimension        Dim             ....  974

ORBITAL ENERGIES
----------------

  NO   OCC          E(Eh)            E(eV)
   0   2.0000    -104.834300     -2852.6863
   1   2.0000     -68.807809     -1872.3557
   2   2.0000     -68.795475     -1872.0200
   3   2.0000     -20.608111      -560.7752
   4   2.0000     -20.568641      -559.7012
   5   2.0000     -11.396202      -310.1064
   6   2.0000     -11.334322      -308.4226
   7   2.0000     -11.242170      -305.9150
   8   2.0000     -10.560638      -287.3696
   9   2.0000      -8.027307      -218.4341
  10   2.0000      -8.025944      -218.3970
  11   2.0000      -8.025903      -218.3959
  12   2.0000      -6.158110      -167.5707
  13   2.0000      -6.146590      -167.2572
  14   2.0000      -4.264412      -116.0405
  15   2.0000      -4.263864      -116.0256
  16   2.0000      -4.263742      -116.0223
  17   2.0000      -4.252648      -115.7204
  18   2.0000      -4.252508      -115.7166
  19   2.0000      -4.252358      -115.7125
  20   2.0000      -1.464220       -39.8435
  21   2.0000      -1.407582       -38.3023
  22   2.0000      -1.108195       -30.1555
  23   2.0000      -1.024014       -27.8648
  24   2.0000      -0.848742       -23.0955
  25   2.0000      -0.807421       -21.9710
  26   2.0000      -0.741148       -20.1677
  27   2.0000      -0.706427       -19.2229
  28   2.0000      -0.660493       -17.9729
  29   2.0000      -0.641858       -17.4659
  30   2.0000      -0.634142       -17.2559
  31   2.0000      -0.616530       -16.7766
  32   2.0000      -0.613597       -16.6968
  33   2.0000      -0.600329       -16.3358
  34   2.0000      -0.553064       -15.0496
  35   2.0000      -0.528438       -14.3795
  36   2.0000      -0.515938       -14.0394
  37   2.0000      -0.497148       -13.5281
  38   2.0000      -0.468133       -12.7386
  39   2.0000      -0.462364       -12.5816
  40   2.0000      -0.438682       -11.9371
  41   2.0000      -0.416972       -11.3464
  42   2.0000      -0.396888       -10.7999
  43   0.0000       0.018287         0.4976
  44   0.0000       0.025947         0.7060
  45   0.0000       0.033627         0.9150
  46   0.0000       0.034882         0.9492
  47   0.0000       0.043089         1.1725

MULLIKEN ATOMIC CHARGES
-----------------------
   0 Si:    0.840879
   1 Si:    0.872974
   2 C :    0.624788
   3 O :   -0.705760
   4 H :   -0.182097
   5 H :   -0.242579
   6 Cl:   -0.346699
   7 C :    0.539767
   8 H :   -0.206153
   9 H :   -0.309685
  10 O :   -0.885924
  11 C :   -0.909460
  12 H :    0.280349
  13 H :    0.274549
  14 H :    0.355051
Sum of atomic charges:    0.0000000

LOEWDIN ATOMIC CHARGES
----------------------
   0 Si:    0.563384
   1 Si:    0.651727
   2 C :   -1.380494
   3 O :    0.519072
   4 H :   -0.264418
   5 H :   -0.277619
   6 Cl:    0.930774
   7 C :   -0.747112
   8 H :   -0.263176
   9 H :   -0.267551
  10 O :    0.656310
  11 C :    0.821165
  12 H :   -0.316568
  13 H :   -0.308335
  14 H :   -0.317159

  Mayer bond orders larger than 0.100000
B(  0-Si,  1-Si) :   0.8018 B(  0-Si,  2-C ) :   0.5876 B(  0-Si,  4-H ) :   0.8452
B(  0-Si,  5-H ) :   0.7822 B(  1-Si,  7-C ) :   0.6601 B(  1-Si,  8-H ) :   0.8098
B(  1-Si,  9-H ) :   0.7681 B(  2-C ,  3-O ) :   1.6037 B(  2-C ,  6-Cl) :   0.8164
B(  7-C , 10-O ) :   1.2703 B(  7-C , 11-C ) :   0.9129 B( 10-O , 11-C ) :   0.1129
B( 11-C , 12-H ) :   0.9026 B( 11-C , 13-H ) :   0.9578 B( 11-C , 14-H ) :   0.9230

MP2 TOTAL ENERGY:    -1306.426348648 Eh
FINAL SINGLE POINT ENERGY     -1306.426348648000

DIPOLE MOMENT
-------------
                                X             Y             Z
Electronic contribution:      9.57606      -3.59196       0.03875
Nuclear contribution   :    -10.62859       4.52303      -1.13068
                        -----------------------------------------
Total Dipole Moment    :     -1.05254       0.93107      -1.09193
                        -----------------------------------------
Magnitude (a.u.)       :      1.77961
Magnitude (Debye)      :      4.52342

Rotational constants in cm-1:     0.047901     0.029547     0.025224
Rotational constants in MHz :  1436.027848   885.796530   756.207298

                             ****ORCA TERMINATED NORMALLY****
TOTAL RUN TIME: 0 days 1 hours 50 minutes 52 seconds 293 msec
