                         Program Version 5.0.4 -  RELEASE  -
|  1> ! ri-mp2 aug-cc-pvdz aug-cc-pvdz/c tightscf
|  2> %pal nprocs 16 end
|  3> %maxcore 3800
|  4> %base "DZ_B-P_31_AB"
|  5>
|  6> *xyz 0 1
|  7> C        -2.702296    0.711034    0.450827
|  8> C        -1.401326    1.164073    0.363614
|  9> C        -0.400061    0.322848   -0.110792
| 10> C         0.984249    0.856811   -0.186312
| 11> O         1.222130    2.037259   -0.180110
| 12> B         2.449772   -1.445536    1.137399
| 13> C        -3.014369   -0.581116    0.054606
| 14> C        -2.023556   -1.418979   -0.427933
| 15> C        -0.717406   -0.970144   -0.506359
| 16> H         0.050850   -1.623541   -0.896523
| 17> H        -3.478022    1.364816    0.826078
| 18> H        -1.137006    2.169971    0.658611
| 19> H        -4.034979   -0.934344    0.119983
| 20> H        -2.268283   -2.423427   -0.745369
| 21> P         2.404318   -0.333536   -0.328921
| 22> H         1.445121   -1.917189    1.556370
| 23> H         3.507462   -1.777466    1.562941
| 24> H         3.472783    0.566674   -0.220302
| 25> *
| 26>
| 27> $new_job
| 28> ! ri-mp2 aug-cc-pvtz aug-cc-pvtz/c tightscf
| 29> %pal nprocs 16 end
| 30> %maxcore 3800
| 31> %base "TZ_B-P_31_AB"
| 32>
| 33> *xyz 0 1
| 34> C        -2.702296    0.711034    0.450827
| 35> C        -1.401326    1.164073    0.363614
| 36> C        -0.400061    0.322848   -0.110792
| 37> C         0.984249    0.856811   -0.186312
| 38> O         1.222130    2.037259   -0.180110
| 39> B         2.449772   -1.445536    1.137399
| 40> C        -3.014369   -0.581116    0.054606
| 41> C        -2.023556   -1.418979   -0.427933
| 42> C        -0.717406   -0.970144   -0.506359
| 43> H         0.050850   -1.623541   -0.896523
| 44> H        -3.478022    1.364816    0.826078
| 45> H        -1.137006    2.169971    0.658611
| 46> H        -4.034979   -0.934344    0.119983
| 47> H        -2.268283   -2.423427   -0.745369
| 48> P         2.404318   -0.333536   -0.328921
| 49> H         1.445121   -1.917189    1.556370
| 50> H         3.507462   -1.777466    1.562941
| 51> H         3.472783    0.566674   -0.220302
| 52> *
| 53>
| 54> $new_job
| 55> ! ri-mp2 aug-cc-pvqz aug-cc-pvqz/c tightscf
| 56> %pal nprocs 16 end
| 57> %maxcore 3800
| 58> %base "QZ_B-P_31_AB"
| 59>
| 60> *xyz 0 1
| 61> C        -2.702296    0.711034    0.450827
| 62> C        -1.401326    1.164073    0.363614
| 63> C        -0.400061    0.322848   -0.110792
| 64> C         0.984249    0.856811   -0.186312
| 65> O         1.222130    2.037259   -0.180110
| 66> B         2.449772   -1.445536    1.137399
| 67> C        -3.014369   -0.581116    0.054606
| 68> C        -2.023556   -1.418979   -0.427933
| 69> C        -0.717406   -0.970144   -0.506359
| 70> H         0.050850   -1.623541   -0.896523
| 71> H        -3.478022    1.364816    0.826078
| 72> H        -1.137006    2.169971    0.658611
| 73> H        -4.034979   -0.934344    0.119983
| 74> H        -2.268283   -2.423427   -0.745369
| 75> P         2.404318   -0.333536   -0.328921
| 76> H         1.445121   -1.917189    1.556370
| 77> H         3.507462   -1.777466    1.562941
| 78> H         3.472783    0.566674   -0.220302
| 79> *
| 80>
| 81>
| 82>
| 83>
| 84>                          ****END OF INPUT****
 Total Charge           Charge          ....    0
 Multiplicity           Mult            ....    1
 Number of Electrons    NEL             ....   78
MP2 TOTAL ENERGY:     -711.382358733 Eh
FINAL SINGLE POINT ENERGY      -711.382358732558
MP2 TOTAL ENERGY:     -711.741437411 Eh
FINAL SINGLE POINT ENERGY      -711.741437411450

CARTESIAN COORDINATES (ANGSTROEM)
---------------------------------
  C     -2.702296    0.711034    0.450827
  C     -1.401326    1.164073    0.363614
  C     -0.400061    0.322848   -0.110792
  C      0.984249    0.856811   -0.186312
  O      1.222130    2.037259   -0.180110
  B      2.449772   -1.445536    1.137399
  C     -3.014369   -0.581116    0.054606
  C     -2.023556   -1.418979   -0.427933
  C     -0.717406   -0.970144   -0.506359
  H      0.050850   -1.623541   -0.896523
  H     -3.478022    1.364816    0.826078
  H     -1.137006    2.169971    0.658611
  H     -4.034979   -0.934344    0.119983
  H     -2.268283   -2.423427   -0.745369
  P      2.404318   -0.333536   -0.328921
  H      1.445121   -1.917189    1.556370
  H      3.507462   -1.777466    1.562941
  H      3.472783    0.566674   -0.220302

 Multiplicity           Mult            ....    1
 Number of Electrons    NEL             ....   78
 Basis Dimension        Dim             .... 1172

ORBITAL ENERGIES
----------------

  NO   OCC          E(Eh)            E(eV)
   0   2.0000     -79.939273     -2175.2582
   1   2.0000     -20.555709      -559.3493
   2   2.0000     -11.347788      -308.7890
   3   2.0000     -11.255641      -306.2816
   4   2.0000     -11.253210      -306.2154
   5   2.0000     -11.252605      -306.1990
   6   2.0000     -11.249632      -306.1181
   7   2.0000     -11.246592      -306.0353
   8   2.0000     -11.245088      -305.9944
   9   2.0000      -7.622011      -207.4055
  10   2.0000      -7.487034      -203.7326
  11   2.0000      -5.381479      -146.4375
  12   2.0000      -5.381278      -146.4320
  13   2.0000      -5.381052      -146.4259
  14   2.0000      -1.404203       -38.2103
  15   2.0000      -1.177880       -32.0518
  16   2.0000      -1.054613       -28.6975
  17   2.0000      -1.036696       -28.2099
  18   2.0000      -0.924720       -25.1629
  19   2.0000      -0.863994       -23.5105
  20   2.0000      -0.841980       -22.9114
  21   2.0000      -0.769482       -20.9387
  22   2.0000      -0.720765       -19.6130
  23   2.0000      -0.685848       -18.6629
  24   2.0000      -0.657594       -17.8941
  25   2.0000      -0.647051       -17.6072
  26   2.0000      -0.625097       -17.0098
  27   2.0000      -0.607819       -16.5396
  28   2.0000      -0.593990       -16.1633
  29   2.0000      -0.565065       -15.3762
  30   2.0000      -0.532805       -14.4984
  31   2.0000      -0.524977       -14.2854
  32   2.0000      -0.512313       -13.9408
  33   2.0000      -0.509198       -13.8560
  34   2.0000      -0.492034       -13.3889
  35   2.0000      -0.412064       -11.2128
  36   2.0000      -0.362920        -9.8755
  37   2.0000      -0.354475        -9.6458
  38   2.0000      -0.352644        -9.5959
  39   0.0000       0.019886         0.5411
  40   0.0000       0.025211         0.6860
  41   0.0000       0.027172         0.7394
  42   0.0000       0.033982         0.9247
  43   0.0000       0.036339         0.9888

MULLIKEN ATOMIC CHARGES
-----------------------
   0 C :   -0.318199
   1 C :   -0.314557
   2 C :   -0.004276
   3 C :    0.801729
   4 O :   -0.881489
   5 B :    0.276790
   6 C :   -0.334149
   7 C :   -0.433211
   8 C :   -0.065969
   9 H :    0.363964
  10 H :    0.284878
  11 H :    0.281980
  12 H :    0.312323
  13 H :    0.238776
  14 P :    0.340873
  15 H :   -0.120417
  16 H :   -0.268869
  17 H :   -0.160178
Sum of atomic charges:   -0.0000000

LOEWDIN ATOMIC CHARGES
----------------------
   0 C :    0.359047
   1 C :    0.315214
   2 C :   -0.218650
   3 C :   -0.883147
   4 O :    0.656618
   5 B :    0.116257
   6 C :    0.347970
   7 C :    0.358737
   8 C :    0.274726
   9 H :   -0.366853
  10 H :   -0.317837
  11 H :   -0.332303
  12 H :   -0.314806
  13 H :   -0.316247
  14 P :    1.275272
  15 H :   -0.245463
  16 H :   -0.259754
  17 H :   -0.448780

  Mayer bond orders larger than 0.100000
B(  0-C ,  1-C ) :   1.3251 B(  0-C ,  2-C ) :  -0.2945 B(  0-C ,  6-C ) :   1.1317
B(  0-C , 10-H ) :   1.0729 B(  1-C ,  2-C ) :   1.1640 B(  1-C ,  3-C ) :  -0.3161
B(  1-C ,  7-C ) :   0.1499 B(  1-C , 10-H ) :  -0.1399 B(  1-C , 11-H ) :   0.9194
B(  2-C ,  3-C ) :   0.8141 B(  2-C ,  4-O ) :   0.3814 B(  2-C ,  6-C ) :   0.1122
B(  2-C ,  7-C ) :  -0.2716 B(  2-C ,  8-C ) :   1.0579 B(  2-C ,  9-H ) :  -0.1165
B(  2-C , 14-P ) :  -0.1366 B(  3-C ,  4-O ) :   0.8489 B(  3-C ,  8-C ) :  -0.3515
B(  3-C , 14-P ) :   0.8926 B(  5-B , 14-P ) :   1.2518 B(  5-B , 15-H ) :   0.9276
B(  5-B , 16-H ) :   0.9344 B(  6-C ,  7-C ) :   1.2392 B(  6-C , 10-H ) :  -0.1036
B(  6-C , 12-H ) :   1.0167 B(  7-C ,  8-C ) :   1.1854 B(  7-C , 13-H ) :   1.1247
B(  8-C ,  9-H ) :   0.8932 B(  8-C , 13-H ) :  -0.1219 B( 14-P , 17-H ) :   1.0177

MP2 TOTAL ENERGY:     -711.857363660 Eh
FINAL SINGLE POINT ENERGY      -711.857363659582

DIPOLE MOMENT
-------------
                                X             Y             Z
Electronic contribution:      5.84686       2.08821      -1.95897
Nuclear contribution   :     -6.53348      -2.98983       2.20402
                        -----------------------------------------
Total Dipole Moment    :     -0.68662      -0.90162       0.24505
                        -----------------------------------------
Magnitude (a.u.)       :      1.15949
Magnitude (Debye)      :      2.94719

Rotational constants in cm-1:     0.075661     0.025783     0.020908
Rotational constants in MHz :  2268.248567   772.949027   626.792125

                             ****ORCA TERMINATED NORMALLY****
TOTAL RUN TIME: 0 days 0 hours 45 minutes 14 seconds 435 msec
