                         Program Version 5.0.4 -  RELEASE  -
|  1> ! ri-mp2 aug-cc-pvdz aug-cc-pvdz/c tightscf
|  2> %pal nprocs 16 end
|  3> %maxcore 3800
|  4> %base "DZ_B-F_79_A"
|  5> %scf
|  6> STABPerform true
|  7> STABRestartUHFifUnstable true
|  8> end
|  9>
| 10> *xyz 0 2
| 11> F         2.921235   -0.000000    0.031055
| 12> N         0.383624    0.000000   -0.056046
| 13> C        -1.677358   -1.296719    0.031018
| 14> C        -0.961503   -0.000000   -0.120971
| 15> C        -1.677358    1.296719    0.031018
| 16> B         1.623467    0.000000   -0.000453
| 17> H        -1.147835   -2.097976   -0.485240
| 18> H        -2.690635   -1.235468   -0.366779
| 19> H        -1.759783   -1.592641    1.086367
| 20> H        -1.147838    2.097975   -0.485245
| 21> H        -1.759778    1.592644    1.086367
| 22> H        -2.690637    1.235467   -0.366774
| 23> *
| 24>
| 25> $new_job
| 26> ! ri-mp2 aug-cc-pvtz aug-cc-pvtz/c tightscf
| 27> %pal nprocs 16 end
| 28> %maxcore 3800
| 29> %base "TZ_B-F_79_A"
| 30>
| 31> *xyz 0 2
| 32> F         2.921235   -0.000000    0.031055
| 33> N         0.383624    0.000000   -0.056046
| 34> C        -1.677358   -1.296719    0.031018
| 35> C        -0.961503   -0.000000   -0.120971
| 36> C        -1.677358    1.296719    0.031018
| 37> B         1.623467    0.000000   -0.000453
| 38> H        -1.147835   -2.097976   -0.485240
| 39> H        -2.690635   -1.235468   -0.366779
| 40> H        -1.759783   -1.592641    1.086367
| 41> H        -1.147838    2.097975   -0.485245
| 42> H        -1.759778    1.592644    1.086367
| 43> H        -2.690637    1.235467   -0.366774
| 44> *
| 45>
| 46> $new_job
| 47> ! ri-mp2 aug-cc-pvqz aug-cc-pvqz/c tightscf
| 48> %pal nprocs 16 end
| 49> %maxcore 3800
| 50> %base "QZ_B-F_79_A"
| 51>
| 52> *xyz 0 2
| 53> F         2.921235   -0.000000    0.031055
| 54> N         0.383624    0.000000   -0.056046
| 55> C        -1.677358   -1.296719    0.031018
| 56> C        -0.961503   -0.000000   -0.120971
| 57> C        -1.677358    1.296719    0.031018
| 58> B         1.623467    0.000000   -0.000453
| 59> H        -1.147835   -2.097976   -0.485240
| 60> H        -2.690635   -1.235468   -0.366779
| 61> H        -1.759783   -1.592641    1.086367
| 62> H        -1.147838    2.097975   -0.485245
| 63> H        -1.759778    1.592644    1.086367
| 64> H        -2.690637    1.235467   -0.366774
| 65> *
| 66>
| 67>
| 68>
| 69>
| 70>                          ****END OF INPUT****
 Total Charge           Charge          ....    0
 Multiplicity           Mult            ....    2
 Number of Electrons    NEL             ....   45
MP2 TOTAL ENERGY:     -296.583921487 Eh
FINAL SINGLE POINT ENERGY      -296.583921486846
MP2 TOTAL ENERGY:     -296.849389690 Eh
FINAL SINGLE POINT ENERGY      -296.849389689594

CARTESIAN COORDINATES (ANGSTROEM)
---------------------------------
  F      2.921235   -0.000000    0.031055
  N      0.383624    0.000000   -0.056046
  C     -1.677358   -1.296719    0.031018
  C     -0.961503   -0.000000   -0.120971
  C     -1.677358    1.296719    0.031018
  B      1.623467    0.000000   -0.000453
  H     -1.147835   -2.097976   -0.485240
  H     -2.690635   -1.235468   -0.366779
  H     -1.759783   -1.592641    1.086367
  H     -1.147838    2.097975   -0.485245
  H     -1.759778    1.592644    1.086367
  H     -2.690637    1.235467   -0.366774

 Multiplicity           Mult            ....    2
 Number of Electrons    NEL             ....   45
 Basis Dimension        Dim             ....  756

ORBITAL ENERGIES
----------------
                 SPIN UP ORBITALS
  NO   OCC          E(Eh)            E(eV)
   0   1.0000     -26.346700      -716.9302
   1   1.0000     -15.540333      -422.8740
   2   1.0000     -11.259869      -306.3966
   3   1.0000     -11.213225      -305.1274
   4   1.0000     -11.213203      -305.1268
   5   1.0000      -7.672504      -208.7795
   6   1.0000      -1.659777       -45.1648
   7   1.0000      -1.195314       -32.5261
   8   1.0000      -1.023976       -27.8638
   9   1.0000      -0.942980       -25.6598
  10   1.0000      -0.830484       -22.5986
  11   1.0000      -0.802132       -21.8271
  12   1.0000      -0.729825       -19.8595
  13   1.0000      -0.724263       -19.7082
  14   1.0000      -0.652076       -17.7439
  15   1.0000      -0.618854       -16.8399
  16   1.0000      -0.595150       -16.1949
  17   1.0000      -0.542662       -14.7666
  18   1.0000      -0.541967       -14.7477
  19   1.0000      -0.509787       -13.8720
  20   1.0000      -0.472903       -12.8684
  21   1.0000      -0.403281       -10.9738
  22   1.0000      -0.273631        -7.4459
  23   0.0000       0.023084         0.6281
  24   0.0000       0.032239         0.8773
  25   0.0000       0.034010         0.9255
  26   0.0000       0.036831         1.0022
  27   0.0000       0.047011         1.2792

                 SPIN DOWN ORBITALS
  NO   OCC          E(Eh)            E(eV)
   0   1.0000     -26.345591      -716.9000
   1   1.0000     -15.548806      -423.1045
   2   1.0000     -11.235881      -305.7439
   3   1.0000     -11.216340      -305.2121
   4   1.0000     -11.216312      -305.2114
   5   1.0000      -7.667819      -208.6520
   6   1.0000      -1.657212       -45.0950
   7   1.0000      -1.186919       -32.2977
   8   1.0000      -1.008139       -27.4329
   9   1.0000      -0.943181       -25.6653
  10   1.0000      -0.813152       -22.1270
  11   1.0000      -0.795224       -21.6391
  12   1.0000      -0.721703       -19.6385
  13   1.0000      -0.717141       -19.5144
  14   1.0000      -0.633259       -17.2318
  15   1.0000      -0.590602       -16.0711
  16   1.0000      -0.572368       -15.5749
  17   1.0000      -0.539736       -14.6870
  18   1.0000      -0.532579       -14.4922
  19   1.0000      -0.506674       -13.7873
  20   1.0000      -0.459118       -12.4932
  21   1.0000      -0.411284       -11.1916
  22   0.0000       0.023462         0.6384
  23   0.0000       0.032279         0.8784
  24   0.0000       0.034176         0.9300
  25   0.0000       0.036105         0.9825
  26   0.0000       0.047048         1.2803

MULLIKEN ATOMIC CHARGES AND SPIN POPULATIONS
--------------------------------------------
   0 F :   -0.931699   -0.001507
   1 N :   -0.312008   -0.189480
   2 C :   -0.858273   -0.158891
   3 C :    0.437756    1.037366
   4 C :   -0.858279   -0.158891
   5 B :    0.893349    0.262592
   6 H :    0.260775    0.018325
   7 H :    0.288153    0.010962
   8 H :    0.265647    0.075119
   9 H :    0.260775    0.018325
  10 H :    0.265643    0.075119
  11 H :    0.288161    0.010962
Sum of atomic charges         :   -0.0000000

LOEWDIN ATOMIC CHARGES AND SPIN POPULATIONS
-------------------------------------------
   0 F :    0.794191    0.045297
   1 N :    0.547952    0.105931
   2 C :    0.867966    0.110949
   3 C :   -0.319627    0.405759
   4 C :    0.867966    0.110949
   5 B :   -0.956940    0.122348
   6 H :   -0.308316    0.012326
   7 H :   -0.309243    0.010277
   8 H :   -0.283196    0.026780
   9 H :   -0.308316    0.012326
  10 H :   -0.283195    0.026780
  11 H :   -0.309243    0.010277

  Mayer bond orders larger than 0.100000
B(  0-F ,  1-N ) :  -0.2369 B(  0-F ,  5-B ) :   0.2809 B(  1-N ,  3-C ) :   0.6075
B(  1-N ,  5-B ) :   2.2367 B(  2-C ,  3-C ) :   0.8538 B(  2-C ,  6-H ) :   0.9944
B(  2-C ,  7-H ) :   0.9725 B(  2-C ,  8-H ) :   0.8730 B(  3-C ,  4-C ) :   0.8538
B(  4-C ,  9-H ) :   0.9944 B(  4-C , 10-H ) :   0.8730 B(  4-C , 11-H ) :   0.9725

MP2 TOTAL ENERGY:     -296.933117572 Eh
FINAL SINGLE POINT ENERGY      -296.933117571745

DIPOLE MOMENT
-------------
                                X             Y             Z
Electronic contribution:     14.99265      -0.00000      -0.38623
Nuclear contribution   :    -15.13973       0.00000       0.43101
                        -----------------------------------------
Total Dipole Moment    :     -0.14708      -0.00000       0.04478
                        -----------------------------------------
Magnitude (a.u.)       :      0.15374
Magnitude (Debye)      :      0.39079

Rotational constants in cm-1:     0.277090     0.057044     0.048220
Rotational constants in MHz :  8306.957421  1710.132285  1445.609786

                             ****ORCA TERMINATED NORMALLY****
TOTAL RUN TIME: 0 days 2 hours 55 minutes 57 seconds 964 msec
