                         Program Version 5.0.4 -  RELEASE  -
|  1> ! ri-mp2 aug-cc-pvdz aug-cc-pvdz/c tightscf
|  2> %pal nprocs 16 end
|  3> %maxcore 3800
|  4> %base "DZ_Si-Cl_41_AB"
|  5>
|  6> *xyz 0 1
|  7> C         0.990549   -1.197370    0.175856
|  8> C         2.322255   -1.199469   -0.199858
|  9> C         2.988476   -0.000020   -0.388432
| 10> C         2.322272    1.199446   -0.199912
| 11> C         0.990566    1.197382    0.175801
| 12> C         0.303378    0.000015    0.367447
| 13> H         0.481179   -2.142344    0.322345
| 14> H         2.842006   -2.137304   -0.344395
| 15> Si        -1.483639    0.000039    0.849812
| 16> H         2.842036    2.137267   -0.344493
| 17> H         4.030212   -0.000034   -0.681137
| 18> H         0.481209    2.142370    0.322247
| 19> Cl        -2.693352   -0.000033   -0.822776
| 20> H        -1.811842    1.216703    1.614864
| 21> H        -1.811848   -1.216555    1.614971
| 22> *
| 23>
| 24> $new_job
| 25> ! ri-mp2 aug-cc-pvtz aug-cc-pvtz/c tightscf
| 26> %pal nprocs 16 end
| 27> %maxcore 3800
| 28> %base "TZ_Si-Cl_41_AB"
| 29>
| 30> *xyz 0 1
| 31> C         0.990549   -1.197370    0.175856
| 32> C         2.322255   -1.199469   -0.199858
| 33> C         2.988476   -0.000020   -0.388432
| 34> C         2.322272    1.199446   -0.199912
| 35> C         0.990566    1.197382    0.175801
| 36> C         0.303378    0.000015    0.367447
| 37> H         0.481179   -2.142344    0.322345
| 38> H         2.842006   -2.137304   -0.344395
| 39> Si        -1.483639    0.000039    0.849812
| 40> H         2.842036    2.137267   -0.344493
| 41> H         4.030212   -0.000034   -0.681137
| 42> H         0.481209    2.142370    0.322247
| 43> Cl        -2.693352   -0.000033   -0.822776
| 44> H        -1.811842    1.216703    1.614864
| 45> H        -1.811848   -1.216555    1.614971
| 46> *
| 47>
| 48> $new_job
| 49> ! ri-mp2 aug-cc-pvqz aug-cc-pvqz/c tightscf
| 50> %pal nprocs 16 end
| 51> %maxcore 3800
| 52> %base "QZ_Si-Cl_41_AB"
| 53>
| 54> *xyz 0 1
| 55> C         0.990549   -1.197370    0.175856
| 56> C         2.322255   -1.199469   -0.199858
| 57> C         2.988476   -0.000020   -0.388432
| 58> C         2.322272    1.199446   -0.199912
| 59> C         0.990566    1.197382    0.175801
| 60> C         0.303378    0.000015    0.367447
| 61> H         0.481179   -2.142344    0.322345
| 62> H         2.842006   -2.137304   -0.344395
| 63> Si        -1.483639    0.000039    0.849812
| 64> H         2.842036    2.137267   -0.344493
| 65> H         4.030212   -0.000034   -0.681137
| 66> H         0.481209    2.142370    0.322247
| 67> Cl        -2.693352   -0.000033   -0.822776
| 68> H        -1.811842    1.216703    1.614864
| 69> H        -1.811848   -1.216555    1.614971
| 70> *
| 71>
| 72>
| 73>
| 74>
| 75>                          ****END OF INPUT****
 Total Charge           Charge          ....    0
 Multiplicity           Mult            ....    1
 Number of Electrons    NEL             ....   74
MP2 TOTAL ENERGY:     -980.859529782 Eh
FINAL SINGLE POINT ENERGY      -980.859529781746
MP2 TOTAL ENERGY:     -981.162811030 Eh
FINAL SINGLE POINT ENERGY      -981.162811030026

CARTESIAN COORDINATES (ANGSTROEM)
---------------------------------
  C      0.990549   -1.197370    0.175856
  C      2.322255   -1.199469   -0.199858
  C      2.988476   -0.000020   -0.388432
  C      2.322272    1.199446   -0.199912
  C      0.990566    1.197382    0.175801
  C      0.303378    0.000015    0.367447
  H      0.481179   -2.142344    0.322345
  H      2.842006   -2.137304   -0.344395
  Si    -1.483639    0.000039    0.849812
  H      2.842036    2.137267   -0.344493
  H      4.030212   -0.000034   -0.681137
  H      0.481209    2.142370    0.322247
  Cl    -2.693352   -0.000033   -0.822776
  H     -1.811842    1.216703    1.614864
  H     -1.811848   -1.216555    1.614971

 Multiplicity           Mult            ....    1
 Number of Electrons    NEL             ....   74
 Basis Dimension        Dim             ....  970

ORBITAL ENERGIES
----------------

  NO   OCC          E(Eh)            E(eV)
   0   2.0000    -104.818523     -2852.2570
   1   2.0000     -68.809997     -1872.4152
   2   2.0000     -11.247931      -306.0718
   3   2.0000     -11.247899      -306.0709
   4   2.0000     -11.246365      -306.0292
   5   2.0000     -11.240846      -305.8790
   6   2.0000     -11.240692      -305.8748
   7   2.0000     -11.230711      -305.6032
   8   2.0000     -10.546040      -286.9723
   9   2.0000      -8.012828      -218.0401
  10   2.0000      -8.011740      -218.0105
  11   2.0000      -8.011733      -218.0103
  12   2.0000      -6.155699      -167.5051
  13   2.0000      -4.262645      -115.9925
  14   2.0000      -4.261842      -115.9706
  15   2.0000      -4.261502      -115.9614
  16   2.0000      -1.166042       -31.7296
  17   2.0000      -1.089110       -29.6362
  18   2.0000      -1.029031       -28.0014
  19   2.0000      -1.026772       -27.9399
  20   2.0000      -0.837548       -22.7908
  21   2.0000      -0.837254       -22.7828
  22   2.0000      -0.738228       -20.0882
  23   2.0000      -0.688301       -18.7296
  24   2.0000      -0.638221       -17.3669
  25   2.0000      -0.636807       -17.3284
  26   2.0000      -0.599708       -16.3189
  27   2.0000      -0.565848       -15.3975
  28   2.0000      -0.534247       -14.5376
  29   2.0000      -0.521879       -14.2011
  30   2.0000      -0.506465       -13.7816
  31   2.0000      -0.503767       -13.7082
  32   2.0000      -0.487062       -13.2536
  33   2.0000      -0.444024       -12.0825
  34   2.0000      -0.438551       -11.9336
  35   2.0000      -0.351556        -9.5663
  36   2.0000      -0.349564        -9.5121
  37   0.0000       0.021321         0.5802
  38   0.0000       0.028001         0.7619
  39   0.0000       0.029323         0.7979
  40   0.0000       0.039371         1.0713
  41   0.0000       0.041490         1.1290

MULLIKEN ATOMIC CHARGES
-----------------------
   0 C :   -0.437392
   1 C :   -0.322206
   2 C :   -0.376746
   3 C :   -0.322225
   4 C :   -0.437426
   5 C :    0.029331
   6 H :    0.328685
   7 H :    0.264666
   8 Si:    1.476044
   9 H :    0.264663
  10 H :    0.343944
  11 H :    0.328690
  12 Cl:   -0.620070
  13 H :   -0.259982
  14 H :   -0.259976
Sum of atomic charges:    0.0000000

LOEWDIN ATOMIC CHARGES
----------------------
   0 C :    0.240009
   1 C :    0.341196
   2 C :    0.338182
   3 C :    0.341195
   4 C :    0.240009
   5 C :   -0.171655
   6 H :   -0.339154
   7 H :   -0.319284
   8 Si:   -0.033871
   9 H :   -0.319284
  10 H :   -0.317187
  11 H :   -0.339155
  12 Cl:    0.887335
  13 H :   -0.274166
  14 H :   -0.274167

  Mayer bond orders larger than 0.100000
B(  0-C ,  1-C ) :   1.3194 B(  0-C ,  2-C ) :   0.1048 B(  0-C ,  3-C ) :   0.1376
B(  0-C ,  5-C ) :   0.9870 B(  0-C ,  6-H ) :   0.9205 B(  0-C ,  7-H ) :  -0.1295
B(  0-C ,  8-Si) :  -0.1055 B(  1-C ,  2-C ) :   1.1668 B(  1-C ,  3-C ) :  -0.1002
B(  1-C ,  4-C ) :   0.1376 B(  1-C ,  5-C ) :  -0.2904 B(  1-C ,  7-H ) :   1.0870
B(  2-C ,  3-C ) :   1.1668 B(  2-C ,  4-C ) :   0.1048 B(  2-C , 10-H ) :   0.9804
B(  3-C ,  4-C ) :   1.3195 B(  3-C ,  5-C ) :  -0.2904 B(  3-C ,  9-H ) :   1.0870
B(  4-C ,  5-C ) :   0.9870 B(  4-C ,  8-Si) :  -0.1055 B(  4-C ,  9-H ) :  -0.1295
B(  4-C , 11-H ) :   0.9205 B(  5-C ,  6-H ) :  -0.1403 B(  5-C ,  8-Si) :   1.0550
B(  5-C , 11-H ) :  -0.1403 B(  5-C , 12-Cl) :  -0.1016 B(  8-Si, 12-Cl) :   0.3765
B(  8-Si, 13-H ) :   0.7439 B(  8-Si, 14-H ) :   0.7439

MP2 TOTAL ENERGY:     -981.261047750 Eh
FINAL SINGLE POINT ENERGY      -981.261047750234

DIPOLE MOMENT
-------------
                                X             Y             Z
Electronic contribution:     -9.85213      -0.00013      -3.20152
Nuclear contribution   :     10.71235       0.00014       3.53619
                        -----------------------------------------
Total Dipole Moment    :      0.86022       0.00001       0.33467
                        -----------------------------------------
Magnitude (a.u.)       :      0.92303
Magnitude (Debye)      :      2.34615

Rotational constants in cm-1:     0.115740     0.024978     0.023738
Rotational constants in MHz :  3469.803675   748.816528   711.654365

                             ****ORCA TERMINATED NORMALLY****
TOTAL RUN TIME: 0 days 0 hours 24 minutes 35 seconds 887 msec
