                         Program Version 5.0.4 -  RELEASE  -
|  1> ! ri-mp2 aug-cc-pvdz aug-cc-pvdz/c tightscf
|  2> %pal nprocs 16 end
|  3> %maxcore 3800
|  4> %base "DZ_B-B_59_AB"
|  5> %scf
|  6> STABPerform true
|  7> STABRestartUHFifUnstable true
|  8> end
|  9>
| 10> *xyz 0 1
| 11> B        -0.734127    0.369596    1.198248
| 12> B         0.734126   -0.369588    1.198250
| 13> P         1.942504   -0.228139   -0.167014
| 14> P        -1.942506    0.228140   -0.167014
| 15> C         1.946011    1.415613   -0.971346
| 16> H         2.382266    2.183128   -0.332312
| 17> H         0.918311    1.691191   -1.202164
| 18> H         2.507167    1.375346   -1.904153
| 19> C         3.668479   -0.497069    0.381106
| 20> H         3.707065   -1.404449    0.981518
| 21> H         4.044138    0.334071    0.977338
| 22> H         4.320335   -0.630337   -0.481580
| 23> C        -3.668482    0.497061    0.381108
| 24> H        -3.707072    1.404441    0.981520
| 25> H        -4.044135   -0.334081    0.977340
| 26> H        -4.320339    0.630325   -0.481578
| 27> C        -1.946005   -1.415611   -0.971347
| 28> H        -0.918304   -1.691183   -1.202166
| 29> H        -2.507162   -1.375347   -1.904152
| 30> H        -2.382255   -2.183129   -0.332311
| 31> H        -1.007994    1.197734    2.016747
| 32> H         1.007986   -1.197736    2.016741
| 33> *
| 34>
| 35> $new_job
| 36> ! ri-mp2 aug-cc-pvtz aug-cc-pvtz/c tightscf
| 37> %pal nprocs 16 end
| 38> %maxcore 3800
| 39> %base "TZ_B-B_59_AB"
| 40>
| 41> *xyz 0 1
| 42> B        -0.734127    0.369596    1.198248
| 43> B         0.734126   -0.369588    1.198250
| 44> P         1.942504   -0.228139   -0.167014
| 45> P        -1.942506    0.228140   -0.167014
| 46> C         1.946011    1.415613   -0.971346
| 47> H         2.382266    2.183128   -0.332312
| 48> H         0.918311    1.691191   -1.202164
| 49> H         2.507167    1.375346   -1.904153
| 50> C         3.668479   -0.497069    0.381106
| 51> H         3.707065   -1.404449    0.981518
| 52> H         4.044138    0.334071    0.977338
| 53> H         4.320335   -0.630337   -0.481580
| 54> C        -3.668482    0.497061    0.381108
| 55> H        -3.707072    1.404441    0.981520
| 56> H        -4.044135   -0.334081    0.977340
| 57> H        -4.320339    0.630325   -0.481578
| 58> C        -1.946005   -1.415611   -0.971347
| 59> H        -0.918304   -1.691183   -1.202166
| 60> H        -2.507162   -1.375347   -1.904152
| 61> H        -2.382255   -2.183129   -0.332311
| 62> H        -1.007994    1.197734    2.016747
| 63> H         1.007986   -1.197736    2.016741
| 64> *
| 65>
| 66> $new_job
| 67> ! ri-mp2 aug-cc-pvqz aug-cc-pvqz/c tightscf
| 68> %pal nprocs 16 end
| 69> %maxcore 3800
| 70> %base "QZ_B-B_59_AB"
| 71>
| 72> *xyz 0 1
| 73> B        -0.734127    0.369596    1.198248
| 74> B         0.734126   -0.369588    1.198250
| 75> P         1.942504   -0.228139   -0.167014
| 76> P        -1.942506    0.228140   -0.167014
| 77> C         1.946011    1.415613   -0.971346
| 78> H         2.382266    2.183128   -0.332312
| 79> H         0.918311    1.691191   -1.202164
| 80> H         2.507167    1.375346   -1.904153
| 81> C         3.668479   -0.497069    0.381106
| 82> H         3.707065   -1.404449    0.981518
| 83> H         4.044138    0.334071    0.977338
| 84> H         4.320335   -0.630337   -0.481580
| 85> C        -3.668482    0.497061    0.381108
| 86> H        -3.707072    1.404441    0.981520
| 87> H        -4.044135   -0.334081    0.977340
| 88> H        -4.320339    0.630325   -0.481578
| 89> C        -1.946005   -1.415611   -0.971347
| 90> H        -0.918304   -1.691183   -1.202166
| 91> H        -2.507162   -1.375347   -1.904152
| 92> H        -2.382255   -2.183129   -0.332311
| 93> H        -1.007994    1.197734    2.016747
| 94> H         1.007986   -1.197736    2.016741
| 95> *
| 96>
| 97>
| 98>
| 99>
|100>                          ****END OF INPUT****
 Total Charge           Charge          ....    0
 Multiplicity           Mult            ....    1
 Number of Electrons    NEL             ....   78
MP2 TOTAL ENERGY:     -891.503807623 Eh
FINAL SINGLE POINT ENERGY      -891.503807622825
MP2 TOTAL ENERGY:     -891.797765902 Eh
FINAL SINGLE POINT ENERGY      -891.797765902123

CARTESIAN COORDINATES (ANGSTROEM)
---------------------------------
  B     -0.734127    0.369596    1.198248
  B      0.734126   -0.369588    1.198250
  P      1.942504   -0.228139   -0.167014
  P     -1.942506    0.228140   -0.167014
  C      1.946011    1.415613   -0.971346
  H      2.382266    2.183128   -0.332312
  H      0.918311    1.691191   -1.202164
  H      2.507167    1.375346   -1.904153
  C      3.668479   -0.497069    0.381106
  H      3.707065   -1.404449    0.981518
  H      4.044138    0.334071    0.977338
  H      4.320335   -0.630337   -0.481580
  C     -3.668482    0.497061    0.381108
  H     -3.707072    1.404441    0.981520
  H     -4.044135   -0.334081    0.977340
  H     -4.320339    0.630325   -0.481578
  C     -1.946005   -1.415611   -0.971347
  H     -0.918304   -1.691183   -1.202166
  H     -2.507162   -1.375347   -1.904152
  H     -2.382255   -2.183129   -0.332311
  H     -1.007994    1.197734    2.016747
  H      1.007986   -1.197736    2.016741

 Multiplicity           Mult            ....    1
 Number of Electrons    NEL             ....   78
 Basis Dimension        Dim             .... 1292

ORBITAL ENERGIES
----------------

  NO   OCC          E(Eh)            E(eV)
   0   2.0000     -79.914124     -2174.5739
   1   2.0000     -79.914124     -2174.5739
   2   2.0000     -11.224161      -305.4249
   3   2.0000     -11.224161      -305.4249
   4   2.0000     -11.220857      -305.3350
   5   2.0000     -11.220857      -305.3350
   6   2.0000      -7.571636      -206.0347
   7   2.0000      -7.570686      -206.0088
   8   2.0000      -7.459694      -202.9886
   9   2.0000      -7.459694      -202.9886
  10   2.0000      -5.354521      -145.7039
  11   2.0000      -5.354520      -145.7039
  12   2.0000      -5.354354      -145.6994
  13   2.0000      -5.354354      -145.6994
  14   2.0000      -5.353862      -145.6860
  15   2.0000      -5.353861      -145.6860
  16   2.0000      -1.003655       -27.3108
  17   2.0000      -1.000824       -27.2338
  18   2.0000      -0.940527       -25.5930
  19   2.0000      -0.940012       -25.5790
  20   2.0000      -0.794393       -21.6165
  21   2.0000      -0.756774       -20.5929
  22   2.0000      -0.655927       -17.8487
  23   2.0000      -0.601583       -16.3699
  24   2.0000      -0.585249       -15.9254
  25   2.0000      -0.583184       -15.8692
  26   2.0000      -0.577468       -15.7137
  27   2.0000      -0.567368       -15.4389
  28   2.0000      -0.566838       -15.4244
  29   2.0000      -0.555104       -15.1051
  30   2.0000      -0.555101       -15.1051
  31   2.0000      -0.549705       -14.9582
  32   2.0000      -0.488517       -13.2932
  33   2.0000      -0.469323       -12.7709
  34   2.0000      -0.454043       -12.3551
  35   2.0000      -0.433177       -11.7873
  36   2.0000      -0.410191       -11.1619
  37   2.0000      -0.319700        -8.6995
  38   2.0000      -0.298444        -8.1211
  39   0.0000       0.021308         0.5798
  40   0.0000       0.024600         0.6694
  41   0.0000       0.030705         0.8355
  42   0.0000       0.031380         0.8539
  43   0.0000       0.039757         1.0819

MULLIKEN ATOMIC CHARGES
-----------------------
   0 B :    0.112686
   1 B :    0.112670
   2 P :    0.705478
   3 P :    0.705469
   4 C :   -1.296813
   5 H :    0.331225
   6 H :    0.433448
   7 H :    0.331479
   8 C :   -1.309200
   9 H :    0.364674
  10 H :    0.317481
  11 H :    0.352337
  12 C :   -1.309198
  13 H :    0.364675
  14 H :    0.317482
  15 H :    0.352337
  16 C :   -1.296812
  17 H :    0.433452
  18 H :    0.331479
  19 H :    0.331223
  20 H :   -0.342789
  21 H :   -0.342783
Sum of atomic charges:   -0.0000000

LOEWDIN ATOMIC CHARGES
----------------------
   0 B :   -0.257989
   1 B :   -0.257988
   2 P :    1.023587
   3 P :    1.023587
   4 C :    0.790322
   5 H :   -0.336413
   6 H :   -0.376641
   7 H :   -0.348059
   8 C :    0.788063
   9 H :   -0.363191
  10 H :   -0.340687
  11 H :   -0.353824
  12 C :    0.788063
  13 H :   -0.363190
  14 H :   -0.340687
  15 H :   -0.353824
  16 C :    0.790322
  17 H :   -0.376642
  18 H :   -0.348060
  19 H :   -0.336411
  20 H :   -0.225168
  21 H :   -0.225168

  Mayer bond orders larger than 0.100000
B(  0-B ,  1-B ) :   0.9202 B(  0-B ,  3-P ) :   1.2597 B(  0-B , 20-H ) :   0.8838
B(  1-B ,  2-P ) :   1.2597 B(  1-B , 21-H ) :   0.8838 B(  2-P ,  4-C ) :   0.8433
B(  2-P ,  8-C ) :   0.8887 B(  3-P , 12-C ) :   0.8887 B(  3-P , 16-C ) :   0.8433
B(  4-C ,  5-H ) :   0.8582 B(  4-C ,  6-H ) :   0.8116 B(  4-C ,  7-H ) :   0.9228
B(  8-C ,  9-H ) :   0.8660 B(  8-C , 10-H ) :   0.8758 B(  8-C , 11-H ) :   0.8823
B( 12-C , 13-H ) :   0.8660 B( 12-C , 14-H ) :   0.8758 B( 12-C , 15-H ) :   0.8823
B( 16-C , 17-H ) :   0.8116 B( 16-C , 18-H ) :   0.9228 B( 16-C , 19-H ) :   0.8582

MP2 TOTAL ENERGY:     -891.886496570 Eh
FINAL SINGLE POINT ENERGY      -891.886496569560

DIPOLE MOMENT
-------------
                                X             Y             Z
Electronic contribution:     -0.00001       0.00003       1.52328
Nuclear contribution   :      0.00001      -0.00003      -1.51009
                        -----------------------------------------
Total Dipole Moment    :      0.00000      -0.00000       0.01319
                        -----------------------------------------
Magnitude (a.u.)       :      0.01319
Magnitude (Debye)      :      0.03352

Rotational constants in cm-1:     0.099649     0.019427     0.019307
Rotational constants in MHz :  2987.392347   582.392870   578.796592

                             ****ORCA TERMINATED NORMALLY****
TOTAL RUN TIME: 0 days 4 hours 29 minutes 46 seconds 82 msec
