                         Program Version 5.0.4 -  RELEASE  -
|  1> ! ri-mp2 aug-cc-pvdz aug-cc-pvdz/c tightscf
|  2> %pal nprocs 16 end
|  3> %maxcore 3800
|  4> %base "DZ_P-C_2_AB"
|  5>
|  6> *xyz 0 1
|  7> C        -0.627569   -1.553783   -0.012553
|  8> C        -1.967516   -1.806215   -0.009668
|  9> C        -2.891190   -0.745597    0.005574
| 10> C        -2.447245    0.542376    0.010318
| 11> C        -1.065672    0.835942    0.003826
| 12> C        -0.131251   -0.229931   -0.002966
| 13> H         0.067622   -2.382664   -0.031701
| 14> H        -2.324142   -2.827490   -0.020638
| 15> H        -3.952112   -0.956964    0.010399
| 16> H        -3.150459    1.365770    0.018563
| 17> C         1.263362    0.066842    0.007489
| 18> C         1.667144    1.374638    0.004664
| 19> C        -0.597865    2.168769    0.001068
| 20> C         0.736890    2.430617   -0.003375
| 21> H        -1.320111    2.975274    0.002704
| 22> H         1.094374    3.451724   -0.004851
| 23> H         2.722795    1.612474    0.014561
| 24> P         2.486711   -1.292571   -0.098364
| 25> H         2.313595   -1.829330    1.200024
| 26> H         3.613246   -0.522177    0.260135
| 27> *
| 28>
| 29> $new_job
| 30> ! ri-mp2 aug-cc-pvtz aug-cc-pvtz/c tightscf
| 31> %pal nprocs 16 end
| 32> %maxcore 3800
| 33> %base "TZ_P-C_2_AB"
| 34>
| 35> *xyz 0 1
| 36> C        -0.627569   -1.553783   -0.012553
| 37> C        -1.967516   -1.806215   -0.009668
| 38> C        -2.891190   -0.745597    0.005574
| 39> C        -2.447245    0.542376    0.010318
| 40> C        -1.065672    0.835942    0.003826
| 41> C        -0.131251   -0.229931   -0.002966
| 42> H         0.067622   -2.382664   -0.031701
| 43> H        -2.324142   -2.827490   -0.020638
| 44> H        -3.952112   -0.956964    0.010399
| 45> H        -3.150459    1.365770    0.018563
| 46> C         1.263362    0.066842    0.007489
| 47> C         1.667144    1.374638    0.004664
| 48> C        -0.597865    2.168769    0.001068
| 49> C         0.736890    2.430617   -0.003375
| 50> H        -1.320111    2.975274    0.002704
| 51> H         1.094374    3.451724   -0.004851
| 52> H         2.722795    1.612474    0.014561
| 53> P         2.486711   -1.292571   -0.098364
| 54> H         2.313595   -1.829330    1.200024
| 55> H         3.613246   -0.522177    0.260135
| 56> *
| 57>
| 58> $new_job
| 59> ! ri-mp2 aug-cc-pvqz aug-cc-pvqz/c tightscf
| 60> %pal nprocs 16 end
| 61> %maxcore 3800
| 62> %base "QZ_P-C_2_AB"
| 63>
| 64> *xyz 0 1
| 65> C        -0.627569   -1.553783   -0.012553
| 66> C        -1.967516   -1.806215   -0.009668
| 67> C        -2.891190   -0.745597    0.005574
| 68> C        -2.447245    0.542376    0.010318
| 69> C        -1.065672    0.835942    0.003826
| 70> C        -0.131251   -0.229931   -0.002966
| 71> H         0.067622   -2.382664   -0.031701
| 72> H        -2.324142   -2.827490   -0.020638
| 73> H        -3.952112   -0.956964    0.010399
| 74> H        -3.150459    1.365770    0.018563
| 75> C         1.263362    0.066842    0.007489
| 76> C         1.667144    1.374638    0.004664
| 77> C        -0.597865    2.168769    0.001068
| 78> C         0.736890    2.430617   -0.003375
| 79> H        -1.320111    2.975274    0.002704
| 80> H         1.094374    3.451724   -0.004851
| 81> H         2.722795    1.612474    0.014561
| 82> P         2.486711   -1.292571   -0.098364
| 83> H         2.313595   -1.829330    1.200024
| 84> H         3.613246   -0.522177    0.260135
| 85> *
| 86>
| 87>
| 88>
| 89>
| 90>                          ****END OF INPUT****
 Total Charge           Charge          ....    0
 Multiplicity           Mult            ....    1
 Number of Electrons    NEL             ....   84
MP2 TOTAL ENERGY:     -726.176249284 Eh
FINAL SINGLE POINT ENERGY      -726.176249283926
MP2 TOTAL ENERGY:     -726.552839767 Eh
FINAL SINGLE POINT ENERGY      -726.552839766747

CARTESIAN COORDINATES (ANGSTROEM)
---------------------------------
  C     -0.627569   -1.553783   -0.012553
  C     -1.967516   -1.806215   -0.009668
  C     -2.891190   -0.745597    0.005574
  C     -2.447245    0.542376    0.010318
  C     -1.065672    0.835942    0.003826
  C     -0.131251   -0.229931   -0.002966
  H      0.067622   -2.382664   -0.031701
  H     -2.324142   -2.827490   -0.020638
  H     -3.952112   -0.956964    0.010399
  H     -3.150459    1.365770    0.018563
  C      1.263362    0.066842    0.007489
  C      1.667144    1.374638    0.004664
  C     -0.597865    2.168769    0.001068
  C      0.736890    2.430617   -0.003375
  H     -1.320111    2.975274    0.002704
  H      1.094374    3.451724   -0.004851
  H      2.722795    1.612474    0.014561
  P      2.486711   -1.292571   -0.098364
  H      2.313595   -1.829330    1.200024
  H      3.613246   -0.522177    0.260135

 Multiplicity           Mult            ....    1
 Number of Electrons    NEL             ....   84
 Basis Dimension        Dim             .... 1298

ORBITAL ENERGIES
----------------

  NO   OCC          E(Eh)            E(eV)
   0   2.0000     -79.942073     -2175.3344
   1   2.0000     -11.247622      -306.0634
   2   2.0000     -11.246206      -306.0248
   3   2.0000     -11.244459      -305.9773
   4   2.0000     -11.239540      -305.8434
   5   2.0000     -11.237887      -305.7984
   6   2.0000     -11.237596      -305.7905
   7   2.0000     -11.237210      -305.7800
   8   2.0000     -11.235960      -305.7460
   9   2.0000     -11.235804      -305.7418
  10   2.0000     -11.235299      -305.7280
  11   2.0000      -7.485124      -203.6806
  12   2.0000      -5.379175      -146.3748
  13   2.0000      -5.378936      -146.3683
  14   2.0000      -5.377925      -146.3408
  15   2.0000      -1.186752       -32.2932
  16   2.0000      -1.119688       -30.4683
  17   2.0000      -1.062013       -28.8989
  18   2.0000      -1.016110       -27.6498
  19   2.0000      -0.993259       -27.0280
  20   2.0000      -0.877914       -23.8892
  21   2.0000      -0.849617       -23.1192
  22   2.0000      -0.844868       -22.9900
  23   2.0000      -0.781707       -21.2713
  24   2.0000      -0.711150       -19.3514
  25   2.0000      -0.696163       -18.9436
  26   2.0000      -0.683244       -18.5920
  27   2.0000      -0.623899       -16.9771
  28   2.0000      -0.611071       -16.6281
  29   2.0000      -0.591858       -16.1053
  30   2.0000      -0.572460       -15.5774
  31   2.0000      -0.562981       -15.3195
  32   2.0000      -0.547040       -14.8857
  33   2.0000      -0.520009       -14.1502
  34   2.0000      -0.516221       -14.0471
  35   2.0000      -0.492364       -13.3979
  36   2.0000      -0.475331       -12.9344
  37   2.0000      -0.455807       -12.4031
  38   2.0000      -0.407947       -11.1008
  39   2.0000      -0.358942        -9.7673
  40   2.0000      -0.326437        -8.8828
  41   2.0000      -0.291825        -7.9410
  42   0.0000       0.023181         0.6308
  43   0.0000       0.025775         0.7014
  44   0.0000       0.028622         0.7788
  45   0.0000       0.037543         1.0216
  46   0.0000       0.038410         1.0452

MULLIKEN ATOMIC CHARGES
-----------------------
   0 C :   -0.485530
   1 C :   -0.515012
   2 C :   -0.391543
   3 C :   -0.445414
   4 C :    0.957011
   5 C :    0.985715
   6 H :    0.250265
   7 H :    0.220394
   8 H :    0.274674
   9 H :    0.170323
  10 C :   -0.081799
  11 C :   -0.680528
  12 C :   -0.681473
  13 C :   -0.320533
  14 H :    0.220213
  15 H :    0.246902
  16 H :    0.268315
  17 P :    0.289960
  18 H :   -0.080409
  19 H :   -0.201530
Sum of atomic charges:   -0.0000000

LOEWDIN ATOMIC CHARGES
----------------------
   0 C :    0.309393
   1 C :    0.359145
   2 C :    0.355207
   3 C :    0.353901
   4 C :   -0.119205
   5 C :   -0.190477
   6 H :   -0.383004
   7 H :   -0.318521
   8 H :   -0.320652
   9 H :   -0.318958
  10 C :   -0.289075
  11 C :    0.251331
  12 C :    0.355551
  13 C :    0.358005
  14 H :   -0.317598
  15 H :   -0.319648
  16 H :   -0.357746
  17 P :    1.508528
  18 H :   -0.439705
  19 H :   -0.476472

  Mayer bond orders larger than 0.100000
B(  0-C ,  1-C ) :   1.3409 B(  0-C ,  3-C ) :   0.1695 B(  0-C ,  4-C ) :  -0.2536
B(  0-C ,  5-C ) :   0.6563 B(  0-C ,  6-H ) :   0.9808 B(  0-C ,  7-H ) :  -0.1817
B(  0-C , 10-C ) :  -0.1350 B(  1-C ,  2-C ) :   1.1589 B(  1-C ,  5-C ) :  -0.3264
B(  1-C ,  7-H ) :   1.1776 B(  2-C ,  3-C ) :   1.2535 B(  2-C ,  4-C ) :  -0.2875
B(  2-C ,  8-H ) :   1.1193 B(  3-C ,  4-C ) :   0.7170 B(  3-C ,  5-C ) :  -0.3822
B(  3-C ,  8-H ) :  -0.1936 B(  3-C ,  9-H ) :   1.1521 B(  3-C , 12-C ) :  -0.1697
B(  4-C ,  5-C ) :   0.8913 B(  4-C ,  9-H ) :  -0.1758 B(  4-C , 10-C ) :  -0.5073
B(  4-C , 12-C ) :   0.5182 B(  4-C , 13-C ) :  -0.4283 B(  4-C , 14-H ) :  -0.1780
B(  5-C ,  6-H ) :  -0.2238 B(  5-C , 10-C ) :   0.2808 B(  5-C , 11-C ) :   0.1075
B(  5-C , 13-C ) :   0.1479 B(  5-C , 17-P ) :  -0.3988 B(  6-H , 10-C ) :   0.1131
B( 10-C , 11-C ) :   0.8462 B( 10-C , 13-C ) :  -0.3132 B( 10-C , 16-H ) :  -0.1225
B( 10-C , 17-P ) :   0.9118 B( 10-C , 19-H ) :  -0.2503 B( 11-C , 12-C ) :   0.3752
B( 11-C , 13-C ) :   1.1735 B( 11-C , 15-H ) :  -0.1797 B( 11-C , 16-H ) :   1.0132
B( 11-C , 17-P ) :  -0.1753 B( 12-C , 13-C ) :   1.3676 B( 12-C , 14-H ) :   1.0746
B( 12-C , 15-H ) :  -0.2189 B( 13-C , 15-H ) :   1.1811 B( 17-P , 18-H ) :   0.8826
B( 17-P , 19-H ) :   0.9752

MP2 TOTAL ENERGY:     -726.672604472 Eh
FINAL SINGLE POINT ENERGY      -726.672604471504

DIPOLE MOMENT
-------------
                                X             Y             Z
Electronic contribution:      3.02498      -1.74689      -1.28694
Nuclear contribution   :     -3.25401       2.08592       1.51978
                        -----------------------------------------
Total Dipole Moment    :     -0.22902       0.33903       0.23284
                        -----------------------------------------
Magnitude (a.u.)       :      0.47075
Magnitude (Debye)      :      1.19655

Rotational constants in cm-1:     0.050367     0.030404     0.019035
Rotational constants in MHz :  1509.966614   911.486823   570.657078

                             ****ORCA TERMINATED NORMALLY****
TOTAL RUN TIME: 0 days 1 hours 13 minutes 51 seconds 569 msec
