                         Program Version 5.0.4 -  RELEASE  -
|  1> ! ri-mp2 aug-cc-pvdz aug-cc-pvdz/c tightscf
|  2> %pal nprocs 16 end
|  3> %maxcore 3800
|  4> %base "DZ_S-F_44_AB"
|  5> %scf
|  6> STABPerform true
|  7> STABRestartUHFifUnstable true
|  8> end
|  9>
| 10> *xyz 0 1
| 11> F         2.507607   -0.361995    0.008032
| 12> S         1.318530    0.707816    0.013223
| 13> C        -0.042325   -0.483644   -0.026936
| 14> O         0.190701   -1.661609   -0.011025
| 15> N        -1.264704    0.091317   -0.069664
| 16> C        -2.442006   -0.744463    0.039238
| 17> H        -2.140595   -1.783724   -0.040539
| 18> H        -3.142624   -0.507400   -0.762825
| 19> H        -2.941077   -0.589366    0.999224
| 20> C        -1.448992    1.520483    0.002386
| 21> H        -0.598989    2.045244   -0.436649
| 22> H        -1.590103    1.869065    1.028871
| 23> H        -2.324287    1.798471   -0.584217
| 24> *
| 25>
| 26> $new_job
| 27> ! ri-mp2 aug-cc-pvtz aug-cc-pvtz/c tightscf
| 28> %pal nprocs 16 end
| 29> %maxcore 3800
| 30> %base "TZ_S-F_44_AB"
| 31>
| 32> *xyz 0 1
| 33> F         2.507607   -0.361995    0.008032
| 34> S         1.318530    0.707816    0.013223
| 35> C        -0.042325   -0.483644   -0.026936
| 36> O         0.190701   -1.661609   -0.011025
| 37> N        -1.264704    0.091317   -0.069664
| 38> C        -2.442006   -0.744463    0.039238
| 39> H        -2.140595   -1.783724   -0.040539
| 40> H        -3.142624   -0.507400   -0.762825
| 41> H        -2.941077   -0.589366    0.999224
| 42> C        -1.448992    1.520483    0.002386
| 43> H        -0.598989    2.045244   -0.436649
| 44> H        -1.590103    1.869065    1.028871
| 45> H        -2.324287    1.798471   -0.584217
| 46> *
| 47>
| 48> $new_job
| 49> ! ri-mp2 aug-cc-pvqz aug-cc-pvqz/c tightscf
| 50> %pal nprocs 16 end
| 51> %maxcore 3800
| 52> %base "QZ_S-F_44_AB"
| 53>
| 54> *xyz 0 1
| 55> F         2.507607   -0.361995    0.008032
| 56> S         1.318530    0.707816    0.013223
| 57> C        -0.042325   -0.483644   -0.026936
| 58> O         0.190701   -1.661609   -0.011025
| 59> N        -1.264704    0.091317   -0.069664
| 60> C        -2.442006   -0.744463    0.039238
| 61> H        -2.140595   -1.783724   -0.040539
| 62> H        -3.142624   -0.507400   -0.762825
| 63> H        -2.941077   -0.589366    0.999224
| 64> C        -1.448992    1.520483    0.002386
| 65> H        -0.598989    2.045244   -0.436649
| 66> H        -1.590103    1.869065    1.028871
| 67> H        -2.324287    1.798471   -0.584217
| 68> *
| 69>
| 70>
| 71>
| 72>
| 73>                          ****END OF INPUT****
 Total Charge           Charge          ....    0
 Multiplicity           Mult            ....    1
 Number of Electrons    NEL             ....   64
MP2 TOTAL ENERGY:     -744.536375264 Eh
FINAL SINGLE POINT ENERGY      -744.536375264388
MP2 TOTAL ENERGY:     -744.892925374 Eh
FINAL SINGLE POINT ENERGY      -744.892925374472

CARTESIAN COORDINATES (ANGSTROEM)
---------------------------------
  F      2.507607   -0.361995    0.008032
  S      1.318530    0.707816    0.013223
  C     -0.042325   -0.483644   -0.026936
  O      0.190701   -1.661609   -0.011025
  N     -1.264704    0.091317   -0.069664
  C     -2.442006   -0.744463    0.039238
  H     -2.140595   -1.783724   -0.040539
  H     -3.142624   -0.507400   -0.762825
  H     -2.941077   -0.589366    0.999224
  C     -1.448992    1.520483    0.002386
  H     -0.598989    2.045244   -0.436649
  H     -1.590103    1.869065    1.028871
  H     -2.324287    1.798471   -0.584217

 Multiplicity           Mult            ....    1
 Number of Electrons    NEL             ....   64
 Basis Dimension        Dim             ....  840

ORBITAL ENERGIES
----------------

  NO   OCC          E(Eh)            E(eV)
   0   2.0000     -92.046856     -2504.7223
   1   2.0000     -26.315327      -716.0765
   2   2.0000     -20.539041      -558.8957
   3   2.0000     -15.609838      -424.7653
   4   2.0000     -11.389436      -309.9223
   5   2.0000     -11.289840      -307.2122
   6   2.0000     -11.271599      -306.7158
   7   2.0000      -9.041655      -246.0359
   8   2.0000      -6.723230      -182.9484
   9   2.0000      -6.721249      -182.8945
  10   2.0000      -6.720095      -182.8631
  11   2.0000      -1.619336       -44.0644
  12   2.0000      -1.414804       -38.4988
  13   2.0000      -1.280720       -34.8502
  14   2.0000      -1.030112       -28.0308
  15   2.0000      -0.994439       -27.0601
  16   2.0000      -0.941387       -25.6164
  17   2.0000      -0.773141       -21.0382
  18   2.0000      -0.734340       -19.9824
  19   2.0000      -0.701522       -19.0894
  20   2.0000      -0.690958       -18.8019
  21   2.0000      -0.679806       -18.4985
  22   2.0000      -0.669892       -18.2287
  23   2.0000      -0.633843       -17.2477
  24   2.0000      -0.593095       -16.1389
  25   2.0000      -0.585053       -15.9201
  26   2.0000      -0.566318       -15.4103
  27   2.0000      -0.559519       -15.2253
  28   2.0000      -0.546349       -14.8669
  29   2.0000      -0.429053       -11.6751
  30   2.0000      -0.403632       -10.9834
  31   2.0000      -0.387804       -10.5527
  32   0.0000       0.018648         0.5074
  33   0.0000       0.030821         0.8387
  34   0.0000       0.032634         0.8880
  35   0.0000       0.040511         1.1024
  36   0.0000       0.051383         1.3982

MULLIKEN ATOMIC CHARGES
-----------------------
   0 F :   -0.671408
   1 S :    0.703365
   2 C :    0.798178
   3 O :   -0.760381
   4 N :   -0.334160
   5 C :   -0.813946
   6 H :    0.338210
   7 H :    0.306096
   8 H :    0.298853
   9 C :   -0.714611
  10 H :    0.264385
  11 H :    0.316955
  12 H :    0.268463
Sum of atomic charges:    0.0000000

LOEWDIN ATOMIC CHARGES
----------------------
   0 F :    0.107447
   1 S :    0.701676
   2 C :   -1.294694
   3 O :    0.618875
   4 N :    0.294936
   5 C :    0.761760
   6 H :   -0.349964
   7 H :   -0.280149
   8 H :   -0.268609
   9 C :    0.687308
  10 H :   -0.431320
  11 H :   -0.263171
  12 H :   -0.284094

  Mayer bond orders larger than 0.100000
B(  0-F ,  1-S ) :   0.6086 B(  0-F ,  2-C ) :  -0.1263 B(  1-S ,  2-C ) :   0.9403
B(  2-C ,  3-O ) :   1.4197 B(  2-C ,  4-N ) :   1.1790 B(  3-O ,  4-N ) :   0.2361
B(  4-N ,  5-C ) :   0.7819 B(  4-N ,  9-C ) :   0.7739 B(  5-C ,  6-H ) :   0.8849
B(  5-C ,  7-H ) :   0.9408 B(  5-C ,  8-H ) :   0.9557 B(  9-C , 10-H ) :   0.9434
B(  9-C , 11-H ) :   0.9194 B(  9-C , 12-H ) :   0.9585

MP2 TOTAL ENERGY:     -745.008928763 Eh
FINAL SINGLE POINT ENERGY      -745.008928762759

DIPOLE MOMENT
-------------
                                X             Y             Z
Electronic contribution:     13.34738      -1.67224      -0.16707
Nuclear contribution   :    -14.89393       3.06706       0.19027
                        -----------------------------------------
Total Dipole Moment    :     -1.54655       1.39482       0.02320
                        -----------------------------------------
Magnitude (a.u.)       :      2.08276
Magnitude (Debye)      :      5.29395

Rotational constants in cm-1:     0.142730     0.051374     0.038344
Rotational constants in MHz :  4278.927374  1540.156270  1149.522909

                             ****ORCA TERMINATED NORMALLY****
TOTAL RUN TIME: 0 days 1 hours 8 minutes 6 seconds 19 msec
