                         Program Version 5.0.4 -  RELEASE  -
|  1> ! ri-mp2 aug-cc-pvdz aug-cc-pvdz/c tightscf
|  2> %pal nprocs 16 end
|  3> %maxcore 3800
|  4> %base "DZ_Si-Si_28_AB"
|  5> %scf
|  6> STABPerform true
|  7> STABRestartUHFifUnstable true
|  8> end
|  9>
| 10> *xyz 0 1
| 11> Si        -1.498035    0.000001   -0.059704
| 12> Si         0.795422    0.000000    0.316027
| 13> F         1.070525    0.000000    1.873758
| 14> Cl         1.633818    1.663295   -0.477351
| 15> F        -2.176779   -1.274049    0.568283
| 16> F        -2.176761    1.274116    0.568170
| 17> Cl         1.633816   -1.663295   -0.477351
| 18> F        -1.796230   -0.000066   -1.605610
| 19> *
| 20>
| 21> $new_job
| 22> ! ri-mp2 aug-cc-pvtz aug-cc-pvtz/c tightscf
| 23> %pal nprocs 16 end
| 24> %maxcore 3800
| 25> %base "TZ_Si-Si_28_AB"
| 26>
| 27> *xyz 0 1
| 28> Si        -1.498035    0.000001   -0.059704
| 29> Si         0.795422    0.000000    0.316027
| 30> F         1.070525    0.000000    1.873758
| 31> Cl         1.633818    1.663295   -0.477351
| 32> F        -2.176779   -1.274049    0.568283
| 33> F        -2.176761    1.274116    0.568170
| 34> Cl         1.633816   -1.663295   -0.477351
| 35> F        -1.796230   -0.000066   -1.605610
| 36> *
| 37>
| 38> $new_job
| 39> ! ri-mp2 aug-cc-pvqz aug-cc-pvqz/c tightscf
| 40> %pal nprocs 16 end
| 41> %maxcore 3800
| 42> %base "QZ_Si-Si_28_AB"
| 43>
| 44> *xyz 0 1
| 45> Si        -1.498035    0.000001   -0.059704
| 46> Si         0.795422    0.000000    0.316027
| 47> F         1.070525    0.000000    1.873758
| 48> Cl         1.633818    1.663295   -0.477351
| 49> F        -2.176779   -1.274049    0.568283
| 50> F        -2.176761    1.274116    0.568170
| 51> Cl         1.633816   -1.663295   -0.477351
| 52> F        -1.796230   -0.000066   -1.605610
| 53> *
| 54>
| 55>
| 56>
| 57>
| 58>                          ****END OF INPUT****
 Total Charge           Charge          ....    0
 Multiplicity           Mult            ....    1
 Number of Electrons    NEL             ....   98
MP2 TOTAL ENERGY:    -1896.328000082 Eh
FINAL SINGLE POINT ENERGY     -1896.328000082300
MP2 TOTAL ENERGY:    -1896.877249081 Eh
FINAL SINGLE POINT ENERGY     -1896.877249081102

CARTESIAN COORDINATES (ANGSTROEM)
---------------------------------
  Si    -1.498035    0.000001   -0.059704
  Si     0.795422    0.000000    0.316027
  F      1.070525    0.000000    1.873758
  Cl     1.633818    1.663295   -0.477351
  F     -2.176779   -1.274049    0.568283
  F     -2.176761    1.274116    0.568170
  Cl     1.633816   -1.663295   -0.477351
  F     -1.796230   -0.000066   -1.605610

 Multiplicity           Mult            ....    1
 Number of Electrons    NEL             ....   98
 Basis Dimension        Dim             ....  656

ORBITAL ENERGIES
----------------

  NO   OCC          E(Eh)            E(eV)
   0   2.0000    -104.867376     -2853.5864
   1   2.0000    -104.867376     -2853.5864
   2   2.0000     -68.917715     -1875.3464
   3   2.0000     -68.906568     -1875.0430
   4   2.0000     -26.329083      -716.4508
   5   2.0000     -26.328986      -716.4481
   6   2.0000     -26.328977      -716.4479
   7   2.0000     -26.328742      -716.4415
   8   2.0000     -10.594978      -288.3040
   9   2.0000     -10.594972      -288.3039
  10   2.0000      -8.061724      -219.3706
  11   2.0000      -8.061722      -219.3706
  12   2.0000      -8.060524      -219.3380
  13   2.0000      -8.060523      -219.3380
  14   2.0000      -8.060510      -219.3376
  15   2.0000      -8.060509      -219.3376
  16   2.0000      -6.253200      -170.1582
  17   2.0000      -6.241685      -169.8449
  18   2.0000      -4.360883      -118.6657
  19   2.0000      -4.360823      -118.6640
  20   2.0000      -4.359619      -118.6313
  21   2.0000      -4.350217      -118.3754
  22   2.0000      -4.350211      -118.3753
  23   2.0000      -4.348828      -118.3376
  24   2.0000      -1.654417       -45.0190
  25   2.0000      -1.635038       -44.4916
  26   2.0000      -1.626312       -44.2542
  27   2.0000      -1.626204       -44.2513
  28   2.0000      -1.154266       -31.4092
  29   2.0000      -1.126535       -30.6546
  30   2.0000      -0.847755       -23.0686
  31   2.0000      -0.801049       -21.7977
  32   2.0000      -0.764978       -20.8161
  33   2.0000      -0.764870       -20.8132
  34   2.0000      -0.746210       -20.3054
  35   2.0000      -0.715457       -19.4686
  36   2.0000      -0.713930       -19.4270
  37   2.0000      -0.712053       -19.3759
  38   2.0000      -0.711745       -19.3676
  39   2.0000      -0.687586       -18.7102
  40   2.0000      -0.687473       -18.7071
  41   2.0000      -0.670581       -18.2474
  42   2.0000      -0.662777       -18.0351
  43   2.0000      -0.576370       -15.6838
  44   2.0000      -0.556253       -15.1364
  45   2.0000      -0.524535       -14.2733
  46   2.0000      -0.505445       -13.7539
  47   2.0000      -0.491128       -13.3643
  48   2.0000      -0.469608       -12.7787
  49   0.0000       0.031772         0.8646
  50   0.0000       0.033751         0.9184
  51   0.0000       0.039058         1.0628
  52   0.0000       0.040196         1.0938
  53   0.0000       0.054886         1.4935

MULLIKEN ATOMIC CHARGES
-----------------------
   0 Si:    2.163921
   1 Si:    1.784104
   2 F :   -0.737243
   3 Cl:   -0.551156
   4 F :   -0.704071
   5 F :   -0.704071
   6 Cl:   -0.551156
   7 F :   -0.700327
Sum of atomic charges:   -0.0000000

LOEWDIN ATOMIC CHARGES
----------------------
   0 Si:   -1.401612
   1 Si:   -1.986091
   2 F :    0.343397
   3 Cl:    0.905329
   4 F :    0.411655
   5 F :    0.411655
   6 Cl:    0.905330
   7 F :    0.410339

  Mayer bond orders larger than 0.100000
B(  0-Si,  1-Si) :   0.9871 B(  0-Si,  4-F ) :   0.4427 B(  0-Si,  5-F ) :   0.4427
B(  0-Si,  7-F ) :   0.4385 B(  1-Si,  2-F ) :   0.3816 B(  1-Si,  3-Cl) :   0.6098
B(  1-Si,  6-Cl) :   0.6098

MP2 TOTAL ENERGY:    -1897.062824008 Eh
FINAL SINGLE POINT ENERGY     -1897.062824007960

DIPOLE MOMENT
-------------
                                X             Y             Z
Electronic contribution:     -0.07734      -0.00000      -0.09920
Nuclear contribution   :      0.34804       0.00000      -0.03343
                        -----------------------------------------
Total Dipole Moment    :      0.27071       0.00000      -0.13262
                        -----------------------------------------
Magnitude (a.u.)       :      0.30145
Magnitude (Debye)      :      0.76622

Rotational constants in cm-1:     0.041639     0.024784     0.021311
Rotational constants in MHz :  1248.308271   743.003504   638.896113

                             ****ORCA TERMINATED NORMALLY****
TOTAL RUN TIME: 0 days 0 hours 27 minutes 26 seconds 308 msec
