                         Program Version 5.0.4 -  RELEASE  -
|  1> ! ri-mp2 aug-cc-pvdz aug-cc-pvdz/c tightscf
|  2> %pal nprocs 16 end
|  3> %maxcore 3800
|  4> %base "DZ_S-F_79_AB"
|  5>
|  6> *xyz 0 1
|  7> F         3.001407   -0.101778    0.000003
|  8> S         1.676465   -1.037277   -0.000012
|  9> C         0.465074    0.227836   -0.000011
| 10> C        -0.858977   -0.214187   -0.000001
| 11> C        -1.896626    0.695839    0.000002
| 12> H        -2.922867    0.360509    0.000010
| 13> C        -1.609131    2.056200   -0.000006
| 14> C         0.743221    1.579409   -0.000018
| 15> H         1.769936    1.913652   -0.000025
| 16> C        -0.301290    2.494992   -0.000015
| 17> H        -0.081088    3.553457   -0.000021
| 18> H        -2.422445    2.768788   -0.000003
| 19> O        -0.987741   -1.565693    0.000006
| 20> C        -2.283706   -2.124049    0.000046
| 21> H        -2.150280   -3.201853    0.000064
| 22> H        -2.839430   -1.826418   -0.891999
| 23> H        -2.839389   -1.826383    0.892105
| 24> *
| 25>
| 26> $new_job
| 27> ! ri-mp2 aug-cc-pvtz aug-cc-pvtz/c tightscf
| 28> %pal nprocs 16 end
| 29> %maxcore 3800
| 30> %base "TZ_S-F_79_AB"
| 31>
| 32> *xyz 0 1
| 33> F         3.001407   -0.101778    0.000003
| 34> S         1.676465   -1.037277   -0.000012
| 35> C         0.465074    0.227836   -0.000011
| 36> C        -0.858977   -0.214187   -0.000001
| 37> C        -1.896626    0.695839    0.000002
| 38> H        -2.922867    0.360509    0.000010
| 39> C        -1.609131    2.056200   -0.000006
| 40> C         0.743221    1.579409   -0.000018
| 41> H         1.769936    1.913652   -0.000025
| 42> C        -0.301290    2.494992   -0.000015
| 43> H        -0.081088    3.553457   -0.000021
| 44> H        -2.422445    2.768788   -0.000003
| 45> O        -0.987741   -1.565693    0.000006
| 46> C        -2.283706   -2.124049    0.000046
| 47> H        -2.150280   -3.201853    0.000064
| 48> H        -2.839430   -1.826418   -0.891999
| 49> H        -2.839389   -1.826383    0.892105
| 50> *
| 51>
| 52> $new_job
| 53> ! ri-mp2 aug-cc-pvqz aug-cc-pvqz/c tightscf
| 54> %pal nprocs 16 end
| 55> %maxcore 3800
| 56> %base "QZ_S-F_79_AB"
| 57>
| 58> *xyz 0 1
| 59> F         3.001407   -0.101778    0.000003
| 60> S         1.676465   -1.037277   -0.000012
| 61> C         0.465074    0.227836   -0.000011
| 62> C        -0.858977   -0.214187   -0.000001
| 63> C        -1.896626    0.695839    0.000002
| 64> H        -2.922867    0.360509    0.000010
| 65> C        -1.609131    2.056200   -0.000006
| 66> C         0.743221    1.579409   -0.000018
| 67> H         1.769936    1.913652   -0.000025
| 68> C        -0.301290    2.494992   -0.000015
| 69> H        -0.081088    3.553457   -0.000021
| 70> H        -2.422445    2.768788   -0.000003
| 71> O        -0.987741   -1.565693    0.000006
| 72> C        -2.283706   -2.124049    0.000046
| 73> H        -2.150280   -3.201853    0.000064
| 74> H        -2.839430   -1.826418   -0.891999
| 75> H        -2.839389   -1.826383    0.892105
| 76> *
| 77>
| 78>
| 79>
| 80>
| 81>                          ****END OF INPUT****
 Total Charge           Charge          ....    0
 Multiplicity           Mult            ....    1
 Number of Electrons    NEL             ....   82
MP2 TOTAL ENERGY:     -842.482865810 Eh
FINAL SINGLE POINT ENERGY      -842.482865810248
MP2 TOTAL ENERGY:     -842.922124545 Eh
FINAL SINGLE POINT ENERGY      -842.922124544902

CARTESIAN COORDINATES (ANGSTROEM)
---------------------------------
  F      3.001407   -0.101778    0.000003
  S      1.676465   -1.037277   -0.000012
  C      0.465074    0.227836   -0.000011
  C     -0.858977   -0.214187   -0.000001
  C     -1.896626    0.695839    0.000002
  H     -2.922867    0.360509    0.000010
  C     -1.609131    2.056200   -0.000006
  C      0.743221    1.579409   -0.000018
  H      1.769936    1.913652   -0.000025
  C     -0.301290    2.494992   -0.000015
  H     -0.081088    3.553457   -0.000021
  H     -2.422445    2.768788   -0.000003
  O     -0.987741   -1.565693    0.000006
  C     -2.283706   -2.124049    0.000046
  H     -2.150280   -3.201853    0.000064
  H     -2.839430   -1.826418   -0.891999
  H     -2.839389   -1.826383    0.892105

 Multiplicity           Mult            ....    1
 Number of Electrons    NEL             ....   82
 Basis Dimension        Dim             .... 1126

ORBITAL ENERGIES
----------------

  NO   OCC          E(Eh)            E(eV)
   0   2.0000     -92.031527     -2504.3052
   1   2.0000     -26.304171      -715.7729
   2   2.0000     -20.600367      -560.5645
   3   2.0000     -11.312060      -307.8168
   4   2.0000     -11.295417      -307.3639
   5   2.0000     -11.271008      -306.6997
   6   2.0000     -11.244985      -305.9916
   7   2.0000     -11.242878      -305.9343
   8   2.0000     -11.241174      -305.8879
   9   2.0000     -11.234545      -305.7075
  10   2.0000      -9.025598      -245.5990
  11   2.0000      -6.707254      -182.5137
  12   2.0000      -6.705086      -182.4547
  13   2.0000      -6.703787      -182.4193
  14   2.0000      -1.604955       -43.6730
  15   2.0000      -1.433411       -39.0051
  16   2.0000      -1.172869       -31.9154
  17   2.0000      -1.069014       -29.0893
  18   2.0000      -1.032949       -28.1080
  19   2.0000      -0.966735       -26.3062
  20   2.0000      -0.943374       -25.6705
  21   2.0000      -0.835582       -22.7373
  22   2.0000      -0.819411       -22.2973
  23   2.0000      -0.739813       -20.1313
  24   2.0000      -0.697592       -18.9824
  25   2.0000      -0.694764       -18.9055
  26   2.0000      -0.687757       -18.7148
  27   2.0000      -0.674161       -18.3448
  28   2.0000      -0.662217       -18.0199
  29   2.0000      -0.640937       -17.4408
  30   2.0000      -0.622991       -16.9524
  31   2.0000      -0.598396       -16.2832
  32   2.0000      -0.555992       -15.1293
  33   2.0000      -0.551817       -15.0157
  34   2.0000      -0.533177       -14.5085
  35   2.0000      -0.518788       -14.1169
  36   2.0000      -0.486362       -13.2346
  37   2.0000      -0.474588       -12.9142
  38   2.0000      -0.419265       -11.4088
  39   2.0000      -0.340381        -9.2622
  40   2.0000      -0.304353        -8.2819
  41   0.0000       0.021033         0.5723
  42   0.0000       0.026557         0.7227
  43   0.0000       0.032713         0.8902
  44   0.0000       0.038478         1.0470
  45   0.0000       0.042141         1.1467

MULLIKEN ATOMIC CHARGES
-----------------------
   0 F :   -0.720312
   1 S :    0.562757
   2 C :   -0.283193
   3 C :    0.976459
   4 C :   -0.306943
   5 H :    0.268136
   6 C :   -0.295477
   7 C :   -0.385516
   8 H :    0.322106
   9 C :   -0.286325
  10 H :    0.248961
  11 H :    0.286747
  12 O :   -0.740883
  13 C :   -0.629084
  14 H :    0.491663
  15 H :    0.245449
  16 H :    0.245453
Sum of atomic charges:   -0.0000000

LOEWDIN ATOMIC CHARGES
----------------------
   0 F :    0.120939
   1 S :    0.743122
   2 C :   -0.604178
   3 C :   -0.609658
   4 C :    0.321879
   5 H :   -0.351460
   6 C :    0.336682
   7 C :    0.231259
   8 H :   -0.374229
   9 C :    0.331880
  10 H :   -0.324965
  11 H :   -0.319946
  12 O :    0.833553
  13 C :    0.585712
  14 H :   -0.313511
  15 H :   -0.303539
  16 H :   -0.303540

  Mayer bond orders larger than 0.100000
B(  0-F ,  1-S ) :   0.5276 B(  0-F ,  2-C ) :  -0.3915 B(  0-F ,  3-C ) :   0.1236
B(  1-S ,  2-C ) :   0.8555 B(  1-S ,  3-C ) :  -0.1957 B(  2-C ,  3-C ) :   1.1198
B(  2-C ,  6-C ) :   0.1421 B(  2-C ,  7-C ) :   1.1121 B(  2-C ,  9-C ) :  -0.1680
B(  2-C , 12-O ) :   0.2062 B(  3-C ,  4-C ) :   1.2899 B(  3-C ,  6-C ) :  -0.1978
B(  3-C , 12-O ) :   0.2412 B(  4-C ,  5-H ) :   1.0402 B(  4-C ,  6-C ) :   0.9128
B(  4-C ,  9-C ) :  -0.1701 B(  4-C , 11-H ) :  -0.1488 B(  4-C , 12-O ) :   0.1276
B(  6-C ,  9-C ) :   1.2347 B(  6-C , 10-H ) :  -0.1362 B(  6-C , 11-H ) :   1.0703
B(  7-C ,  8-H ) :   0.9049 B(  7-C ,  9-C ) :   1.1653 B(  7-C , 10-H ) :  -0.1253
B(  9-C , 10-H ) :   1.1172 B( 12-O , 13-C ) :   0.8934 B( 13-C , 14-H ) :   0.7605
B( 13-C , 15-H ) :   0.9275 B( 13-C , 16-H ) :   0.9275

MP2 TOTAL ENERGY:     -843.063920682 Eh
FINAL SINGLE POINT ENERGY      -843.063920681721

DIPOLE MOMENT
-------------
                                X             Y             Z
Electronic contribution:     12.71049      -1.78890      -0.00011
Nuclear contribution   :    -14.13269       1.80062       0.00013
                        -----------------------------------------
Total Dipole Moment    :     -1.42220       0.01172       0.00002
                        -----------------------------------------
Magnitude (a.u.)       :      1.42225
Magnitude (Debye)      :      3.61507

Rotational constants in cm-1:     0.050721     0.035637     0.021014
Rotational constants in MHz :  1520.573935  1068.356314   629.994658

                             ****ORCA TERMINATED NORMALLY****
TOTAL RUN TIME: 0 days 0 hours 42 minutes 55 seconds 250 msec
