                         Program Version 5.0.4 -  RELEASE  -
|  1> ! ri-mp2 aug-cc-pvdz aug-cc-pvdz/c tightscf
|  2> %pal nprocs 16 end
|  3> %maxcore 3800
|  4> %base "DZ_B-S_41_AB"
|  5> %scf
|  6> STABPerform true
|  7> STABRestartUHFifUnstable true
|  8> end
|  9>
| 10> *xyz 0 1
| 11> S         0.349568   -1.330153   -0.362649
| 12> B         1.443920    0.083652   -0.084999
| 13> S         0.916249    1.767073   -0.411783
| 14> S         3.104720   -0.258287    0.518380
| 15> S        -1.418007   -0.503547   -0.986066
| 16> C        -2.197213   -0.043142    0.575072
| 17> C        -3.536946    0.603035    0.359084
| 18> H        -3.427007    1.673653    0.535509
| 19> H        -4.238798    0.206099    1.090181
| 20> H        -3.918339    0.448918   -0.648477
| 21> O        -1.689865   -0.209861    1.639145
| 22> H         2.992262   -1.589893    0.631672
| 23> H         2.055670    2.361107   -0.028087
| 24> *
| 25>
| 26> $new_job
| 27> ! ri-mp2 aug-cc-pvtz aug-cc-pvtz/c tightscf
| 28> %pal nprocs 16 end
| 29> %maxcore 3800
| 30> %base "TZ_B-S_41_AB"
| 31>
| 32> *xyz 0 1
| 33> S         0.349568   -1.330153   -0.362649
| 34> B         1.443920    0.083652   -0.084999
| 35> S         0.916249    1.767073   -0.411783
| 36> S         3.104720   -0.258287    0.518380
| 37> S        -1.418007   -0.503547   -0.986066
| 38> C        -2.197213   -0.043142    0.575072
| 39> C        -3.536946    0.603035    0.359084
| 40> H        -3.427007    1.673653    0.535509
| 41> H        -4.238798    0.206099    1.090181
| 42> H        -3.918339    0.448918   -0.648477
| 43> O        -1.689865   -0.209861    1.639145
| 44> H         2.992262   -1.589893    0.631672
| 45> H         2.055670    2.361107   -0.028087
| 46> *
| 47>
| 48> $new_job
| 49> ! ri-mp2 aug-cc-pvqz aug-cc-pvqz/c tightscf
| 50> %pal nprocs 16 end
| 51> %maxcore 3800
| 52> %base "QZ_B-S_41_AB"
| 53>
| 54> *xyz 0 1
| 55> S         0.349568   -1.330153   -0.362649
| 56> B         1.443920    0.083652   -0.084999
| 57> S         0.916249    1.767073   -0.411783
| 58> S         3.104720   -0.258287    0.518380
| 59> S        -1.418007   -0.503547   -0.986066
| 60> C        -2.197213   -0.043142    0.575072
| 61> C        -3.536946    0.603035    0.359084
| 62> H        -3.427007    1.673653    0.535509
| 63> H        -4.238798    0.206099    1.090181
| 64> H        -3.918339    0.448918   -0.648477
| 65> O        -1.689865   -0.209861    1.639145
| 66> H         2.992262   -1.589893    0.631672
| 67> H         2.055670    2.361107   -0.028087
| 68> *
| 69>
| 70>
| 71>
| 72>
| 73>                          ****END OF INPUT****
 Total Charge           Charge          ....    0
 Multiplicity           Mult            ....    1
 Number of Electrons    NEL             ....   94
MP2 TOTAL ENERGY:    -1769.575847449 Eh
FINAL SINGLE POINT ENERGY     -1769.575847448679
MP2 TOTAL ENERGY:    -1769.934555683 Eh
FINAL SINGLE POINT ENERGY     -1769.934555682981

CARTESIAN COORDINATES (ANGSTROEM)
---------------------------------
  S      0.349568   -1.330153   -0.362649
  B      1.443920    0.083652   -0.084999
  S      0.916249    1.767073   -0.411783
  S      3.104720   -0.258287    0.518380
  S     -1.418007   -0.503547   -0.986066
  C     -2.197213   -0.043142    0.575072
  C     -3.536946    0.603035    0.359084
  H     -3.427007    1.673653    0.535509
  H     -4.238798    0.206099    1.090181
  H     -3.918339    0.448918   -0.648477
  O     -1.689865   -0.209861    1.639145
  H      2.992262   -1.589893    0.631672
  H      2.055670    2.361107   -0.028087

 Multiplicity           Mult            ....    1
 Number of Electrons    NEL             ....   94
 Basis Dimension        Dim             ....  886

ORBITAL ENERGIES
----------------

  NO   OCC          E(Eh)            E(eV)
   0   2.0000     -92.000365     -2503.4572
   1   2.0000     -91.985552     -2503.0541
   2   2.0000     -91.967140     -2502.5531
   3   2.0000     -91.966047     -2502.5234
   4   2.0000     -20.568173      -559.6884
   5   2.0000     -11.374224      -309.5084
   6   2.0000     -11.254861      -306.2604
   7   2.0000      -9.001901      -244.9542
   8   2.0000      -8.988376      -244.5862
   9   2.0000      -8.972072      -244.1425
  10   2.0000      -8.970975      -244.1127
  11   2.0000      -7.684986      -209.1191
  12   2.0000      -6.683107      -181.8566
  13   2.0000      -6.681773      -181.8203
  14   2.0000      -6.681134      -181.8029
  15   2.0000      -6.669776      -181.4938
  16   2.0000      -6.668374      -181.4557
  17   2.0000      -6.667990      -181.4452
  18   2.0000      -6.653597      -181.0536
  19   2.0000      -6.652706      -181.0293
  20   2.0000      -6.652468      -181.0229
  21   2.0000      -6.652126      -181.0135
  22   2.0000      -6.651545      -180.9977
  23   2.0000      -6.650974      -180.9822
  24   2.0000      -1.424591       -38.7651
  25   2.0000      -1.093487       -29.7553
  26   2.0000      -1.042248       -28.3610
  27   2.0000      -1.012221       -27.5439
  28   2.0000      -0.974531       -26.5183
  29   2.0000      -0.907471       -24.6935
  30   2.0000      -0.750203       -20.4141
  31   2.0000      -0.674332       -18.3495
  32   2.0000      -0.653821       -17.7914
  33   2.0000      -0.641952       -17.4684
  34   2.0000      -0.630924       -17.1683
  35   2.0000      -0.600950       -16.3527
  36   2.0000      -0.575854       -15.6698
  37   2.0000      -0.549069       -14.9409
  38   2.0000      -0.534687       -14.5496
  39   2.0000      -0.484721       -13.1899
  40   2.0000      -0.480950       -13.0873
  41   2.0000      -0.465898       -12.6777
  42   2.0000      -0.451851       -12.2955
  43   2.0000      -0.426422       -11.6035
  44   2.0000      -0.388349       -10.5675
  45   2.0000      -0.380653       -10.3581
  46   2.0000      -0.373071       -10.1518
  47   0.0000       0.022998         0.6258
  48   0.0000       0.029616         0.8059
  49   0.0000       0.034977         0.9518
  50   0.0000       0.038662         1.0521
  51   0.0000       0.044335         1.2064

MULLIKEN ATOMIC CHARGES
-----------------------
   0 S :    0.064781
   1 B :    0.000231
   2 S :    0.007760
   3 S :   -0.079035
   4 S :    0.010554
   5 C :    0.648176
   6 C :   -0.810889
   7 H :    0.319941
   8 H :    0.282642
   9 H :    0.273380
  10 O :   -0.767354
  11 H :    0.041720
  12 H :    0.008092
Sum of atomic charges:    0.0000000

LOEWDIN ATOMIC CHARGES
----------------------
   0 S :    0.777427
   1 B :   -2.298573
   2 S :    1.570960
   3 S :    1.579932
   4 S :    0.738632
   5 C :   -1.178963
   6 C :    0.773289
   7 H :   -0.303646
   8 H :   -0.310196
   9 H :   -0.352111
  10 O :    0.626727
  11 H :   -0.814956
  12 H :   -0.808522

  Mayer bond orders larger than 0.100000
B(  0-S ,  1-B ) :   1.2157 B(  0-S ,  4-S ) :   1.1036 B(  1-B ,  2-S ) :   1.1840
B(  1-B ,  3-S ) :   1.1069 B(  2-S , 12-H ) :   1.0706 B(  3-S , 11-H ) :   1.0642
B(  4-S ,  5-C ) :   0.9339 B(  5-C ,  6-C ) :   0.8387 B(  5-C , 10-O ) :   1.4199
B(  6-C ,  7-H ) :   0.8716 B(  6-C ,  8-H ) :   0.9755 B(  6-C ,  9-H ) :   0.9713

MP2 TOTAL ENERGY:    -1770.052874239 Eh
FINAL SINGLE POINT ENERGY     -1770.052874239417

DIPOLE MOMENT
-------------
                                X             Y             Z
Electronic contribution:      6.97211      -2.60836      -2.04253
Nuclear contribution   :     -7.49595       2.91420       1.64299
                        -----------------------------------------
Total Dipole Moment    :     -0.52384       0.30584      -0.39954
                        -----------------------------------------
Magnitude (a.u.)       :      0.72635
Magnitude (Debye)      :      1.84622

Rotational constants in cm-1:     0.059432     0.020077     0.018271
Rotational constants in MHz :  1781.727846   601.902882   547.747709

                             ****ORCA TERMINATED NORMALLY****
TOTAL RUN TIME: 0 days 1 hours 59 minutes 4 seconds 438 msec
