                         Program Version 5.0.4 -  RELEASE  -
|  1> ! ri-mp2 aug-cc-pvdz aug-cc-pvdz/c tightscf
|  2> %pal nprocs 16 end
|  3> %maxcore 3800
|  4> %base "DZ_Si-S_26_AB"
|  5> %scf
|  6> STABPerform true
|  7> STABRestartUHFifUnstable true
|  8> end
|  9>
| 10> *xyz 0 1
| 11> C         1.291899    2.107163   -0.096873
| 12> Si         2.006497    0.422182    0.264222
| 13> H         1.906592    2.884547    0.361216
| 14> H         0.276972    2.208486    0.285899
| 15> H         1.265443    2.285346   -1.172211
| 16> S         0.967916   -1.193225   -0.665332
| 17> C        -0.346224   -1.560838    0.554055
| 18> C        -1.372804   -0.465266    0.788983
| 19> H         0.133083   -1.840297    1.490846
| 20> H        -0.832255   -2.453373    0.159123
| 21> C        -2.145159   -0.037754   -0.448122
| 22> H        -0.885047    0.404888    1.236932
| 23> H        -2.075668   -0.831093    1.544767
| 24> C        -3.161688    1.052902   -0.151431
| 25> H        -2.650957   -0.909934   -0.872692
| 26> H        -1.444001    0.305646   -1.210451
| 27> H        -3.891929    0.724260    0.590647
| 28> H        -3.707834    1.342891   -1.049198
| 29> H        -2.673896    1.947261    0.241858
| 30> H         2.020854    0.179925    1.726507
| 31> H         3.384891    0.355258   -0.266725
| 32> *
| 33>
| 34> $new_job
| 35> ! ri-mp2 aug-cc-pvtz aug-cc-pvtz/c tightscf
| 36> %pal nprocs 16 end
| 37> %maxcore 3800
| 38> %base "TZ_Si-S_26_AB"
| 39>
| 40> *xyz 0 1
| 41> C         1.291899    2.107163   -0.096873
| 42> Si         2.006497    0.422182    0.264222
| 43> H         1.906592    2.884547    0.361216
| 44> H         0.276972    2.208486    0.285899
| 45> H         1.265443    2.285346   -1.172211
| 46> S         0.967916   -1.193225   -0.665332
| 47> C        -0.346224   -1.560838    0.554055
| 48> C        -1.372804   -0.465266    0.788983
| 49> H         0.133083   -1.840297    1.490846
| 50> H        -0.832255   -2.453373    0.159123
| 51> C        -2.145159   -0.037754   -0.448122
| 52> H        -0.885047    0.404888    1.236932
| 53> H        -2.075668   -0.831093    1.544767
| 54> C        -3.161688    1.052902   -0.151431
| 55> H        -2.650957   -0.909934   -0.872692
| 56> H        -1.444001    0.305646   -1.210451
| 57> H        -3.891929    0.724260    0.590647
| 58> H        -3.707834    1.342891   -1.049198
| 59> H        -2.673896    1.947261    0.241858
| 60> H         2.020854    0.179925    1.726507
| 61> H         3.384891    0.355258   -0.266725
| 62> *
| 63>
| 64> $new_job
| 65> ! ri-mp2 aug-cc-pvqz aug-cc-pvqz/c tightscf
| 66> %pal nprocs 16 end
| 67> %maxcore 3800
| 68> %base "QZ_Si-S_26_AB"
| 69>
| 70> *xyz 0 1
| 71> C         1.291899    2.107163   -0.096873
| 72> Si         2.006497    0.422182    0.264222
| 73> H         1.906592    2.884547    0.361216
| 74> H         0.276972    2.208486    0.285899
| 75> H         1.265443    2.285346   -1.172211
| 76> S         0.967916   -1.193225   -0.665332
| 77> C        -0.346224   -1.560838    0.554055
| 78> C        -1.372804   -0.465266    0.788983
| 79> H         0.133083   -1.840297    1.490846
| 80> H        -0.832255   -2.453373    0.159123
| 81> C        -2.145159   -0.037754   -0.448122
| 82> H        -0.885047    0.404888    1.236932
| 83> H        -2.075668   -0.831093    1.544767
| 84> C        -3.161688    1.052902   -0.151431
| 85> H        -2.650957   -0.909934   -0.872692
| 86> H        -1.444001    0.305646   -1.210451
| 87> H        -3.891929    0.724260    0.590647
| 88> H        -3.707834    1.342891   -1.049198
| 89> H        -2.673896    1.947261    0.241858
| 90> H         2.020854    0.179925    1.726507
| 91> H         3.384891    0.355258   -0.266725
| 92> *
| 93>
| 94>
| 95>
| 96>
| 97>                          ****END OF INPUT****
 Total Charge           Charge          ....    0
 Multiplicity           Mult            ....    1
 Number of Electrons    NEL             ....   74
MP2 TOTAL ENERGY:     -885.019807318 Eh
FINAL SINGLE POINT ENERGY      -885.019807317617
MP2 TOTAL ENERGY:     -885.305878730 Eh
FINAL SINGLE POINT ENERGY      -885.305878730235

CARTESIAN COORDINATES (ANGSTROEM)
---------------------------------
  C      1.291899    2.107163   -0.096873
  Si     2.006497    0.422182    0.264222
  H      1.906592    2.884547    0.361216
  H      0.276972    2.208486    0.285899
  H      1.265443    2.285346   -1.172211
  S      0.967916   -1.193225   -0.665332
  C     -0.346224   -1.560838    0.554055
  C     -1.372804   -0.465266    0.788983
  H      0.133083   -1.840297    1.490846
  H     -0.832255   -2.453373    0.159123
  C     -2.145159   -0.037754   -0.448122
  H     -0.885047    0.404888    1.236932
  H     -2.075668   -0.831093    1.544767
  C     -3.161688    1.052902   -0.151431
  H     -2.650957   -0.909934   -0.872692
  H     -1.444001    0.305646   -1.210451
  H     -3.891929    0.724260    0.590647
  H     -3.707834    1.342891   -1.049198
  H     -2.673896    1.947261    0.241858
  H      2.020854    0.179925    1.726507
  H      3.384891    0.355258   -0.266725

 Multiplicity           Mult            ....    1
 Number of Electrons    NEL             ....   74
 Basis Dimension        Dim             .... 1212

ORBITAL ENERGIES
----------------

  NO   OCC          E(Eh)            E(eV)
   0   2.0000     -91.927310     -2501.4693
   1   2.0000     -68.780668     -1871.6171
   2   2.0000     -11.258675      -306.3641
   3   2.0000     -11.227748      -305.5225
   4   2.0000     -11.217606      -305.2466
   5   2.0000     -11.213204      -305.1268
   6   2.0000     -11.207463      -304.9706
   7   2.0000      -8.931835      -243.0476
   8   2.0000      -6.613337      -179.9580
   9   2.0000      -6.612589      -179.9377
  10   2.0000      -6.611935      -179.9199
  11   2.0000      -6.128135      -166.7550
  12   2.0000      -4.234860      -115.2364
  13   2.0000      -4.234514      -115.2270
  14   2.0000      -4.233824      -115.2082
  15   2.0000      -1.095116       -29.7996
  16   2.0000      -1.020710       -27.7749
  17   2.0000      -0.955147       -25.9909
  18   2.0000      -0.926751       -25.2182
  19   2.0000      -0.844344       -22.9758
  20   2.0000      -0.788744       -21.4628
  21   2.0000      -0.675780       -18.3889
  22   2.0000      -0.647209       -17.6114
  23   2.0000      -0.608118       -16.5477
  24   2.0000      -0.595569       -16.2063
  25   2.0000      -0.572125       -15.5683
  26   2.0000      -0.563109       -15.3230
  27   2.0000      -0.561010       -15.2659
  28   2.0000      -0.531405       -14.4603
  29   2.0000      -0.495472       -13.4825
  30   2.0000      -0.489251       -13.3132
  31   2.0000      -0.476842       -12.9755
  32   2.0000      -0.474278       -12.9058
  33   2.0000      -0.464373       -12.6362
  34   2.0000      -0.449794       -12.2395
  35   2.0000      -0.406632       -11.0650
  36   2.0000      -0.347909        -9.4671
  37   0.0000       0.023278         0.6334
  38   0.0000       0.028919         0.7869
  39   0.0000       0.029799         0.8109
  40   0.0000       0.032271         0.8781
  41   0.0000       0.043228         1.1763

MULLIKEN ATOMIC CHARGES
-----------------------
   0 C :   -1.062190
   1 Si:    1.260009
   2 H :    0.303248
   3 H :    0.283057
   4 H :    0.247747
   5 S :   -0.537391
   6 C :   -0.549778
   7 C :   -0.377920
   8 H :    0.246246
   9 H :    0.317359
  10 C :   -0.464503
  11 H :    0.349974
  12 H :    0.270669
  13 C :   -0.867353
  14 H :    0.307190
  15 H :    0.286560
  16 H :    0.224585
  17 H :    0.258387
  18 H :    0.242601
  19 H :   -0.264769
  20 H :   -0.473729
Sum of atomic charges:   -0.0000000

LOEWDIN ATOMIC CHARGES
----------------------
   0 C :    0.881571
   1 Si:    0.341613
   2 H :   -0.354941
   3 H :   -0.377834
   4 H :   -0.357853
   5 S :    1.207773
   6 C :    0.101682
   7 C :    0.412529
   8 H :   -0.366707
   9 H :   -0.372288
  10 C :    0.471339
  11 H :   -0.321332
  12 H :   -0.266538
  13 C :    0.927449
  14 H :   -0.266696
  15 H :   -0.311028
  16 H :   -0.281587
  17 H :   -0.279575
  18 H :   -0.284583
  19 H :   -0.234225
  20 H :   -0.268768

  Mayer bond orders larger than 0.100000
B(  0-C ,  1-Si) :   0.8461 B(  0-C ,  2-H ) :   0.9508 B(  0-C ,  3-H ) :   0.9181
B(  0-C ,  4-H ) :   0.9329 B(  1-Si,  5-S ) :   0.8480 B(  1-Si, 19-H ) :   0.8179
B(  1-Si, 20-H ) :   0.7059 B(  5-S ,  6-C ) :   0.8872 B(  5-S ,  7-C ) :  -0.1017
B(  6-C ,  7-C ) :   0.8976 B(  6-C ,  8-H ) :   0.9838 B(  6-C ,  9-H ) :   0.8515
B(  7-C , 10-C ) :   0.8505 B(  7-C , 11-H ) :   0.8310 B(  7-C , 12-H ) :   0.8812
B( 10-C , 13-C ) :   0.9450 B( 10-C , 14-H ) :   0.8625 B( 10-C , 15-H ) :   0.8770
B( 13-C , 16-H ) :   0.9709 B( 13-C , 17-H ) :   1.0075 B( 13-C , 18-H ) :   0.9375

MP2 TOTAL ENERGY:     -885.393119038 Eh
FINAL SINGLE POINT ENERGY      -885.393119038004

DIPOLE MOMENT
-------------
                                X             Y             Z
Electronic contribution:      9.15853      -6.48277      -2.72989
Nuclear contribution   :     -9.64928       6.84472       3.17766
                        -----------------------------------------
Total Dipole Moment    :     -0.49075       0.36195       0.44777
                        -----------------------------------------
Magnitude (a.u.)       :      0.75653
Magnitude (Debye)      :      1.92295

Rotational constants in cm-1:     0.073393     0.035202     0.027211
Rotational constants in MHz :  2200.274450  1055.321267   815.774253

                             ****ORCA TERMINATED NORMALLY****
TOTAL RUN TIME: 0 days 4 hours 2 minutes 43 seconds 118 msec
