                         Program Version 5.0.4 -  RELEASE  -
|  1> ! ri-mp2 aug-cc-pvdz aug-cc-pvdz/c tightscf
|  2> %pal nprocs 16 end
|  3> %maxcore 3800
|  4> %base "DZ_Si-F_7_A"
|  5> %scf
|  6> STABPerform true
|  7> STABRestartUHFifUnstable true
|  8> end
|  9>
| 10> *xyz 0 2
| 11> Si        -1.556953    0.000000   -0.126715
| 12> C         0.370958    0.000000   -0.005607
| 13> F         0.801290    0.000000    1.273186
| 14> F         0.914116    1.082116   -0.594499
| 15> F         0.914116   -1.082116   -0.594499
| 16> H        -2.047058    1.231454    0.524985
| 17> H        -2.047058   -1.231454    0.524985
| 18> *
| 19>
| 20> $new_job
| 21> ! ri-mp2 aug-cc-pvtz aug-cc-pvtz/c tightscf
| 22> %pal nprocs 16 end
| 23> %maxcore 3800
| 24> %base "TZ_Si-F_7_A"
| 25>
| 26> *xyz 0 2
| 27> Si        -1.556953    0.000000   -0.126715
| 28> C         0.370958    0.000000   -0.005607
| 29> F         0.801290    0.000000    1.273186
| 30> F         0.914116    1.082116   -0.594499
| 31> F         0.914116   -1.082116   -0.594499
| 32> H        -2.047058    1.231454    0.524985
| 33> H        -2.047058   -1.231454    0.524985
| 34> *
| 35>
| 36> $new_job
| 37> ! ri-mp2 aug-cc-pvqz aug-cc-pvqz/c tightscf
| 38> %pal nprocs 16 end
| 39> %maxcore 3800
| 40> %base "QZ_Si-F_7_A"
| 41>
| 42> *xyz 0 2
| 43> Si        -1.556953    0.000000   -0.126715
| 44> C         0.370958    0.000000   -0.005607
| 45> F         0.801290    0.000000    1.273186
| 46> F         0.914116    1.082116   -0.594499
| 47> F         0.914116   -1.082116   -0.594499
| 48> H        -2.047058    1.231454    0.524985
| 49> H        -2.047058   -1.231454    0.524985
| 50> *
| 51>
| 52>
| 53>
| 54>
| 55>                          ****END OF INPUT****
 Total Charge           Charge          ....    0
 Multiplicity           Mult            ....    2
 Number of Electrons    NEL             ....   49
MP2 TOTAL ENERGY:     -627.104931148 Eh
FINAL SINGLE POINT ENERGY      -627.104931147684
MP2 TOTAL ENERGY:     -627.418257132 Eh
FINAL SINGLE POINT ENERGY      -627.418257131811

CARTESIAN COORDINATES (ANGSTROEM)
---------------------------------
  Si    -1.556953    0.000000   -0.126715
  C      0.370958    0.000000   -0.005607
  F      0.801290    0.000000    1.273186
  F      0.914116    1.082116   -0.594499
  F      0.914116   -1.082116   -0.594499
  H     -2.047058    1.231454    0.524985
  H     -2.047058   -1.231454    0.524985

 Multiplicity           Mult            ....    2
 Number of Electrons    NEL             ....   49
 Basis Dimension        Dim             ....  496

ORBITAL ENERGIES
----------------
                 SPIN UP ORBITALS
  NO   OCC          E(Eh)            E(eV)
   0   1.0000     -68.820070     -1872.6893
   1   1.0000     -26.332691      -716.5489
   2   1.0000     -26.332671      -716.5484
   3   1.0000     -26.332182      -716.5351
   4   1.0000     -11.487511      -312.5911
   5   1.0000      -6.170806      -167.9162
   6   1.0000      -4.283500      -116.5600
   7   1.0000      -4.273383      -116.2847
   8   1.0000      -4.273158      -116.2786
   9   1.0000      -1.721739       -46.8509
  10   1.0000      -1.628400       -44.3110
  11   1.0000      -1.628089       -44.3026
  12   1.0000      -0.971368       -26.4323
  13   1.0000      -0.839701       -22.8494
  14   1.0000      -0.814223       -22.1561
  15   1.0000      -0.814016       -22.1505
  16   1.0000      -0.708642       -19.2831
  17   1.0000      -0.707099       -19.2411
  18   1.0000      -0.706042       -19.2124
  19   1.0000      -0.661019       -17.9872
  20   1.0000      -0.660442       -17.9715
  21   1.0000      -0.645653       -17.5691
  22   1.0000      -0.525513       -14.2999
  23   1.0000      -0.506788       -13.7904
  24   1.0000      -0.376183       -10.2365
  25   0.0000       0.024323         0.6619
  26   0.0000       0.038858         1.0574
  27   0.0000       0.039377         1.0715
  28   0.0000       0.042094         1.1454
  29   0.0000       0.061072         1.6619

                 SPIN DOWN ORBITALS
  NO   OCC          E(Eh)            E(eV)
   0   1.0000     -68.813963     -1872.5231
   1   1.0000     -26.332850      -716.5533
   2   1.0000     -26.332830      -716.5527
   3   1.0000     -26.330890      -716.5000
   4   1.0000     -11.486994      -312.5770
   5   1.0000      -6.161318      -167.6580
   6   1.0000      -4.269271      -116.1728
   7   1.0000      -4.269084      -116.1677
   8   1.0000      -4.260103      -115.9233
   9   1.0000      -1.720891       -46.8278
  10   1.0000      -1.628832       -44.3228
  11   1.0000      -1.625760       -44.2392
  12   1.0000      -0.967740       -26.3335
  13   1.0000      -0.828293       -22.5390
  14   1.0000      -0.813859       -22.1462
  15   1.0000      -0.812341       -22.1049
  16   1.0000      -0.706496       -19.2247
  17   1.0000      -0.703374       -19.1398
  18   1.0000      -0.674551       -18.3555
  19   1.0000      -0.660866       -17.9831
  20   1.0000      -0.658677       -17.9235
  21   1.0000      -0.644906       -17.5488
  22   1.0000      -0.515911       -14.0386
  23   1.0000      -0.499107       -13.5814
  24   0.0000       0.007042         0.1916
  25   0.0000       0.027038         0.7357
  26   0.0000       0.039215         1.0671
  27   0.0000       0.040471         1.1013
  28   0.0000       0.053423         1.4537

MULLIKEN ATOMIC CHARGES AND SPIN POPULATIONS
--------------------------------------------
   0 Si:    0.732217    0.961519
   1 C :    1.410754    0.007229
   2 F :   -0.589335    0.008217
   3 F :   -0.589204   -0.003982
   4 F :   -0.589204   -0.003982
   5 H :   -0.187614    0.015500
   6 H :   -0.187614    0.015500
Sum of atomic charges         :    0.0000000

LOEWDIN ATOMIC CHARGES AND SPIN POPULATIONS
-------------------------------------------
   0 Si:    1.031719    0.560181
   1 C :   -2.268495    0.144023
   2 F :    0.651647    0.022629
   3 F :    0.650315    0.006522
   4 F :    0.650315    0.006522
   5 H :   -0.357751    0.130061
   6 H :   -0.357751    0.130061

  Mayer bond orders larger than 0.100000
B(  0-Si,  1-C ) :   0.7321 B(  0-Si,  5-H ) :   0.9104 B(  0-Si,  6-H ) :   0.9104
B(  1-C ,  2-F ) :   0.5580 B(  1-C ,  3-F ) :   0.5745 B(  1-C ,  4-F ) :   0.5745

MP2 TOTAL ENERGY:     -627.521736496 Eh
FINAL SINGLE POINT ENERGY      -627.521736495760

DIPOLE MOMENT
-------------
                                X             Y             Z
Electronic contribution:      5.12294       0.00000      -0.95509
Nuclear contribution   :     -6.12515       0.00000       0.90489
                        -----------------------------------------
Total Dipole Moment    :     -1.00221       0.00000      -0.05021
                        -----------------------------------------
Magnitude (a.u.)       :      1.00347
Magnitude (Debye)      :      2.55062

Rotational constants in cm-1:     0.181829     0.100992     0.099568
Rotational constants in MHz :  5451.092746  3027.667592  2984.971312

                             ****ORCA TERMINATED NORMALLY****
TOTAL RUN TIME: 0 days 0 hours 27 minutes 18 seconds 369 msec
