                         Program Version 5.0.4 -  RELEASE  -
|  1> ! ri-mp2 aug-cc-pvdz aug-cc-pvdz/c tightscf
|  2> %pal nprocs 16 end
|  3> %maxcore 3800
|  4> %base "DZ_S-Cl_59_A"
|  5> %scf
|  6> STABPerform true
|  7> STABRestartUHFifUnstable true
|  8> end
|  9>
| 10> *xyz 0 2
| 11> S        -1.384135   -0.218300    0.000000
| 12> C         1.143042    0.094788    0.000000
| 13> N         2.183986   -0.386380    0.000000
| 14> O         0.000000    0.703592    0.000000
| 15> *
| 16>
| 17> $new_job
| 18> ! ri-mp2 aug-cc-pvtz aug-cc-pvtz/c tightscf
| 19> %pal nprocs 16 end
| 20> %maxcore 3800
| 21> %base "TZ_S-Cl_59_A"
| 22>
| 23> *xyz 0 2
| 24> S        -1.384135   -0.218300    0.000000
| 25> C         1.143042    0.094788    0.000000
| 26> N         2.183986   -0.386380    0.000000
| 27> O         0.000000    0.703592    0.000000
| 28> *
| 29>
| 30> $new_job
| 31> ! ri-mp2 aug-cc-pvqz aug-cc-pvqz/c tightscf
| 32> %pal nprocs 16 end
| 33> %maxcore 3800
| 34> %base "QZ_S-Cl_59_A"
| 35>
| 36> *xyz 0 2
| 37> S        -1.384135   -0.218300    0.000000
| 38> C         1.143042    0.094788    0.000000
| 39> N         2.183986   -0.386380    0.000000
| 40> O         0.000000    0.703592    0.000000
| 41> *
| 42>
| 43>
| 44>
| 45>
| 46>                          ****END OF INPUT****
 Total Charge           Charge          ....    0
 Multiplicity           Mult            ....    2
 Number of Electrons    NEL             ....   37
MP2 TOTAL ENERGY:     -565.235264533 Eh
FINAL SINGLE POINT ENERGY      -565.235264533296
MP2 TOTAL ENERGY:     -565.421464055 Eh
FINAL SINGLE POINT ENERGY      -565.421464055358

CARTESIAN COORDINATES (ANGSTROEM)
---------------------------------
  S     -1.384135   -0.218300    0.000000
  C      1.143042    0.094788    0.000000
  N      2.183986   -0.386380    0.000000
  O      0.000000    0.703592    0.000000

 Multiplicity           Mult            ....    2
 Number of Electrons    NEL             ....   37
 Basis Dimension        Dim             ....  324

ORBITAL ENERGIES
----------------
                 SPIN UP ORBITALS
  NO   OCC          E(Eh)            E(eV)
   0   1.0000     -92.080180     -2505.6291
   1   1.0000     -20.709522      -563.5347
   2   1.0000     -15.584855      -424.0855
   3   1.0000     -11.349973      -308.8485
   4   1.0000      -9.076217      -246.9764
   5   1.0000      -6.771071      -184.2502
   6   1.0000      -6.753401      -183.7694
   7   1.0000      -6.750661      -183.6948
   8   1.0000      -1.526660       -41.5425
   9   1.0000      -1.240058       -33.7437
  10   1.0000      -1.040903       -28.3244
  11   1.0000      -0.810281       -22.0489
  12   1.0000      -0.729931       -19.8624
  13   1.0000      -0.698446       -19.0057
  14   1.0000      -0.581251       -15.8166
  15   1.0000      -0.518642       -14.1130
  16   1.0000      -0.481262       -13.0958
  17   1.0000      -0.455752       -12.4016
  18   1.0000      -0.440585       -11.9889
  19   0.0000       0.028743         0.7821
  20   0.0000       0.040501         1.1021
  21   0.0000       0.059406         1.6165
  22   0.0000       0.064590         1.7576
  23   0.0000       0.073265         1.9936

                 SPIN DOWN ORBITALS
  NO   OCC          E(Eh)            E(eV)
   0   1.0000     -92.071063     -2505.3810
   1   1.0000     -20.704540      -563.3992
   2   1.0000     -15.583850      -424.0581
   3   1.0000     -11.350914      -308.8741
   4   1.0000      -9.066191      -246.7036
   5   1.0000      -6.749570      -183.6651
   6   1.0000      -6.745530      -183.5552
   7   1.0000      -6.728860      -183.1016
   8   1.0000      -1.513051       -41.1722
   9   1.0000      -1.237754       -33.6810
  10   1.0000      -0.981650       -26.7121
  11   1.0000      -0.784305       -21.3420
  12   1.0000      -0.685742       -18.6600
  13   1.0000      -0.674199       -18.3459
  14   1.0000      -0.579410       -15.7665
  15   1.0000      -0.479731       -13.0541
  16   1.0000      -0.469354       -12.7718
  17   1.0000      -0.422926       -11.5084
  18   0.0000      -0.026059        -0.7091
  19   0.0000       0.033066         0.8998
  20   0.0000       0.042878         1.1668
  21   0.0000       0.065048         1.7700
  22   0.0000       0.068171         1.8550

MULLIKEN ATOMIC CHARGES AND SPIN POPULATIONS
--------------------------------------------
   0 S :    0.393346    0.969856
   1 C :    0.778475   -0.034220
   2 N :   -0.578919    0.030113
   3 O :   -0.592902    0.034251
Sum of atomic charges         :    0.0000000

LOEWDIN ATOMIC CHARGES AND SPIN POPULATIONS
-------------------------------------------
   0 S :    0.693241    0.781541
   1 C :   -1.021514    0.015464
   2 N :    0.302478    0.014396
   3 O :    0.025795    0.188599

  Mayer bond orders larger than 0.100000
B(  0-S ,  3-O ) :   0.7707 B(  1-C ,  2-N ) :   2.7060 B(  1-C ,  3-O ) :   1.1398

MP2 TOTAL ENERGY:     -565.482334250 Eh
FINAL SINGLE POINT ENERGY      -565.482334249902

DIPOLE MOMENT
-------------
                                X             Y             Z
Electronic contribution:     -1.49171       0.13744       0.00000
Nuclear contribution   :      0.05209       0.01460       0.00000
                        -----------------------------------------
Total Dipole Moment    :     -1.43962       0.15203       0.00000
                        -----------------------------------------
Magnitude (a.u.)       :      1.44763
Magnitude (Debye)      :      3.67958

Rotational constants in cm-1:     1.448031     0.117124     0.108359
Rotational constants in MHz : 43410.862359  3511.283870  3248.527040

                             ****ORCA TERMINATED NORMALLY****
TOTAL RUN TIME: 0 days 0 hours 6 minutes 7 seconds 616 msec
