                         Program Version 5.0.4 -  RELEASE  -
|  1> ! ri-mp2 aug-cc-pvdz aug-cc-pvdz/c tightscf
|  2> %pal nprocs 16 end
|  3> %maxcore 3800
|  4> %base "DZ_Si-Cl_96_AB"
|  5>
|  6> *xyz 0 1
|  7> C        -1.622673    1.199619   -0.027243
|  8> C        -3.005559    1.199348    0.000145
|  9> C        -3.697503    0.000000    0.014340
| 10> C        -3.005558   -1.199349    0.000145
| 11> C        -1.622672   -1.199617   -0.027243
| 12> C        -0.914107    0.000001   -0.040503
| 13> H        -1.092701    2.142974   -0.045279
| 14> H        -3.544174    2.137410    0.007109
| 15> Si         0.926865    0.000000   -0.007215
| 16> H        -1.092699   -2.142973   -0.045279
| 17> Cl         1.665678   -1.657082   -0.935912
| 18> Cl         1.626606   -0.000022    1.908619
| 19> Cl         1.665679    1.657103   -0.935875
| 20> H        -3.544171   -2.137410    0.007109
| 21> H        -4.779331   -0.000001    0.033352
| 22> *
| 23>
| 24> $new_job
| 25> ! ri-mp2 aug-cc-pvtz aug-cc-pvtz/c tightscf
| 26> %pal nprocs 16 end
| 27> %maxcore 3800
| 28> %base "TZ_Si-Cl_96_AB"
| 29>
| 30> *xyz 0 1
| 31> C        -1.622673    1.199619   -0.027243
| 32> C        -3.005559    1.199348    0.000145
| 33> C        -3.697503    0.000000    0.014340
| 34> C        -3.005558   -1.199349    0.000145
| 35> C        -1.622672   -1.199617   -0.027243
| 36> C        -0.914107    0.000001   -0.040503
| 37> H        -1.092701    2.142974   -0.045279
| 38> H        -3.544174    2.137410    0.007109
| 39> Si         0.926865    0.000000   -0.007215
| 40> H        -1.092699   -2.142973   -0.045279
| 41> Cl         1.665678   -1.657082   -0.935912
| 42> Cl         1.626606   -0.000022    1.908619
| 43> Cl         1.665679    1.657103   -0.935875
| 44> H        -3.544171   -2.137410    0.007109
| 45> H        -4.779331   -0.000001    0.033352
| 46> *
| 47>
| 48> $new_job
| 49> ! ri-mp2 aug-cc-pvqz aug-cc-pvqz/c tightscf
| 50> %pal nprocs 16 end
| 51> %maxcore 3800
| 52> %base "QZ_Si-Cl_96_AB"
| 53>
| 54> *xyz 0 1
| 55> C        -1.622673    1.199619   -0.027243
| 56> C        -3.005559    1.199348    0.000145
| 57> C        -3.697503    0.000000    0.014340
| 58> C        -3.005558   -1.199349    0.000145
| 59> C        -1.622672   -1.199617   -0.027243
| 60> C        -0.914107    0.000001   -0.040503
| 61> H        -1.092701    2.142974   -0.045279
| 62> H        -3.544174    2.137410    0.007109
| 63> Si         0.926865    0.000000   -0.007215
| 64> H        -1.092699   -2.142973   -0.045279
| 65> Cl         1.665678   -1.657082   -0.935912
| 66> Cl         1.626606   -0.000022    1.908619
| 67> Cl         1.665679    1.657103   -0.935875
| 68> H        -3.544171   -2.137410    0.007109
| 69> H        -4.779331   -0.000001    0.033352
| 70> *
| 71>
| 72>
| 73>
| 74>
| 75>                          ****END OF INPUT****
 Total Charge           Charge          ....    0
 Multiplicity           Mult            ....    1
 Number of Electrons    NEL             ....  106
MP2 TOTAL ENERGY:    -1899.105024526 Eh
FINAL SINGLE POINT ENERGY     -1899.105024526022
MP2 TOTAL ENERGY:    -1899.529535075 Eh
FINAL SINGLE POINT ENERGY     -1899.529535075292

CARTESIAN COORDINATES (ANGSTROEM)
---------------------------------
  C     -1.622673    1.199619   -0.027243
  C     -3.005559    1.199348    0.000145
  C     -3.697503    0.000000    0.014340
  C     -3.005558   -1.199349    0.000145
  C     -1.622672   -1.199617   -0.027243
  C     -0.914107    0.000001   -0.040503
  H     -1.092701    2.142974   -0.045279
  H     -3.544174    2.137410    0.007109
  Si     0.926865    0.000000   -0.007215
  H     -1.092699   -2.142973   -0.045279
  Cl     1.665678   -1.657082   -0.935912
  Cl     1.626606   -0.000022    1.908619
  Cl     1.665679    1.657103   -0.935875
  H     -3.544171   -2.137410    0.007109
  H     -4.779331   -0.000001    0.033352

 Multiplicity           Mult            ....    1
 Number of Electrons    NEL             ....  106
 Basis Dimension        Dim             .... 1046

ORBITAL ENERGIES
----------------

  NO   OCC          E(Eh)            E(eV)
   0   2.0000    -104.842916     -2852.9208
   1   2.0000    -104.842916     -2852.9208
   2   2.0000    -104.839301     -2852.8224
   3   2.0000     -68.892381     -1874.6570
   4   2.0000     -11.256290      -306.2992
   5   2.0000     -11.256242      -306.2979
   6   2.0000     -11.253817      -306.2319
   7   2.0000     -11.247103      -306.0492
   8   2.0000     -11.246975      -306.0457
   9   2.0000     -11.243849      -305.9607
  10   2.0000     -10.570661      -287.6423
  11   2.0000     -10.570655      -287.6421
  12   2.0000     -10.566999      -287.5427
  13   2.0000      -8.037438      -218.7098
  14   2.0000      -8.037437      -218.7098
  15   2.0000      -8.036265      -218.6779
  16   2.0000      -8.036265      -218.6779
  17   2.0000      -8.036247      -218.6774
  18   2.0000      -8.036247      -218.6774
  19   2.0000      -8.033765      -218.6098
  20   2.0000      -8.032590      -218.5779
  21   2.0000      -8.032570      -218.5773
  22   2.0000      -6.228831      -169.4951
  23   2.0000      -4.336461      -118.0011
  24   2.0000      -4.336151      -117.9927
  25   2.0000      -4.334739      -117.9542
  26   2.0000      -1.176180       -32.0055
  27   2.0000      -1.142985       -31.1022
  28   2.0000      -1.102245       -29.9936
  29   2.0000      -1.098628       -29.8952
  30   2.0000      -1.036714       -28.2104
  31   2.0000      -1.035337       -28.1729
  32   2.0000      -0.845718       -23.0132
  33   2.0000      -0.845291       -23.0015
  34   2.0000      -0.739301       -20.1174
  35   2.0000      -0.692025       -18.8310
  36   2.0000      -0.647286       -17.6135
  37   2.0000      -0.642746       -17.4900
  38   2.0000      -0.607693       -16.5362
  39   2.0000      -0.589689       -16.0463
  40   2.0000      -0.573536       -15.6067
  41   2.0000      -0.567763       -15.4496
  42   2.0000      -0.525767       -14.3068
  43   2.0000      -0.520710       -14.1692
  44   2.0000      -0.512809       -13.9542
  45   2.0000      -0.499258       -13.5855
  46   2.0000      -0.498034       -13.5522
  47   2.0000      -0.472061       -12.8454
  48   2.0000      -0.470663       -12.8074
  49   2.0000      -0.459308       -12.4984
  50   2.0000      -0.457479       -12.4486
  51   2.0000      -0.360681        -9.8146
  52   2.0000      -0.356325        -9.6961
  53   0.0000       0.019957         0.5430
  54   0.0000       0.027409         0.7458
  55   0.0000       0.031082         0.8458
  56   0.0000       0.042438         1.1548
  57   0.0000       0.042953         1.1688

MULLIKEN ATOMIC CHARGES
-----------------------
   0 C :   -0.450532
   1 C :   -0.300736
   2 C :   -0.345137
   3 C :   -0.300748
   4 C :   -0.450536
   5 C :   -0.077299
   6 H :    0.352170
   7 H :    0.258150
   8 Si:    2.382507
   9 H :    0.352162
  10 Cl:   -0.694899
  11 Cl:   -0.637689
  12 Cl:   -0.694901
  13 H :    0.258153
  14 H :    0.349334
Sum of atomic charges:   -0.0000000

LOEWDIN ATOMIC CHARGES
----------------------
   0 C :    0.221189
   1 C :    0.347489
   2 C :    0.343982
   3 C :    0.347491
   4 C :    0.221187
   5 C :   -0.235776
   6 H :   -0.367180
   7 H :   -0.317592
   8 Si:   -2.335780
   9 H :   -0.367177
  10 Cl:    0.934683
  11 Cl:    0.905091
  12 Cl:    0.934684
  13 H :   -0.317594
  14 H :   -0.314698

  Mayer bond orders larger than 0.100000
B(  0-C ,  1-C ) :   1.2801 B(  0-C ,  3-C ) :   0.1421 B(  0-C ,  5-C ) :   0.8916
B(  0-C ,  6-H ) :   0.9084 B(  0-C ,  7-H ) :  -0.1386 B(  1-C ,  2-C ) :   1.1696
B(  1-C ,  4-C ) :   0.1421 B(  1-C ,  5-C ) :  -0.2849 B(  1-C ,  7-H ) :   1.0973
B(  2-C ,  3-C ) :   1.1696 B(  2-C , 14-H ) :   0.9778 B(  3-C ,  4-C ) :   1.2801
B(  3-C ,  5-C ) :  -0.2849 B(  3-C , 13-H ) :   1.0973 B(  4-C ,  5-C ) :   0.8917
B(  4-C ,  9-H ) :   0.9084 B(  4-C , 13-H ) :  -0.1386 B(  5-C ,  6-H ) :  -0.1300
B(  5-C ,  8-Si) :   1.1596 B(  5-C ,  9-H ) :  -0.1300 B(  8-Si, 10-Cl) :   0.3343
B(  8-Si, 11-Cl) :   0.3460 B(  8-Si, 12-Cl) :   0.3342

MP2 TOTAL ENERGY:    -1899.669575565 Eh
FINAL SINGLE POINT ENERGY     -1899.669575565210

DIPOLE MOMENT
-------------
                                X             Y             Z
Electronic contribution:     18.83000      -0.00000       0.06207
Nuclear contribution   :    -19.95216       0.00000      -0.08963
                        -----------------------------------------
Total Dipole Moment    :     -1.12216      -0.00000      -0.02756
                        -----------------------------------------
Magnitude (a.u.)       :      1.12250
Magnitude (Debye)      :      2.85317

Rotational constants in cm-1:     0.035595     0.016705     0.015324
Rotational constants in MHz :  1067.104139   500.815121   459.390604

                             ****ORCA TERMINATED NORMALLY****
TOTAL RUN TIME: 0 days 0 hours 36 minutes 42 seconds 484 msec
