                         Program Version 5.0.4 -  RELEASE  -
|  1> ! ri-mp2 aug-cc-pvdz aug-cc-pvdz/c tightscf
|  2> %pal nprocs 16 end
|  3> %maxcore 3800
|  4> %base "DZ_P-N_65_AB"
|  5>
|  6> *xyz 0 1
|  7> C        -1.523181   -1.251403   -0.235997
|  8> C        -0.172291   -1.390406    0.021169
|  9> C        -2.119303   -0.036806    0.033679
| 10> C        -1.414182    1.036025    0.542411
| 11> C        -0.062139    0.883835    0.780823
| 12> C         0.573107   -0.327360    0.522272
| 13> H         0.509978    1.719519    1.157414
| 14> H        -2.115088   -2.063335   -0.629050
| 15> H         0.309311   -2.340855   -0.168238
| 16> N         2.984663    0.034260   -0.661707
| 17> O         2.659229    1.396426   -0.800629
| 18> O         4.389102   -0.050846   -0.543076
| 19> N        -3.559417    0.120660   -0.229113
| 20> O        -4.061154    1.195422    0.019124
| 21> O        -4.155627   -0.833682   -0.678990
| 22> H        -1.924493    1.966472    0.737800
| 23> H         4.679294   -0.408157   -1.390039
| 24> H         2.436878    1.496289   -1.733901
| 25> P         2.348301   -0.608838    0.843428
| 26> H         2.558406    0.536344    1.652756
| 27> *
| 28>
| 29> $new_job
| 30> ! ri-mp2 aug-cc-pvtz aug-cc-pvtz/c tightscf
| 31> %pal nprocs 16 end
| 32> %maxcore 3800
| 33> %base "TZ_P-N_65_AB"
| 34>
| 35> *xyz 0 1
| 36> C        -1.523181   -1.251403   -0.235997
| 37> C        -0.172291   -1.390406    0.021169
| 38> C        -2.119303   -0.036806    0.033679
| 39> C        -1.414182    1.036025    0.542411
| 40> C        -0.062139    0.883835    0.780823
| 41> C         0.573107   -0.327360    0.522272
| 42> H         0.509978    1.719519    1.157414
| 43> H        -2.115088   -2.063335   -0.629050
| 44> H         0.309311   -2.340855   -0.168238
| 45> N         2.984663    0.034260   -0.661707
| 46> O         2.659229    1.396426   -0.800629
| 47> O         4.389102   -0.050846   -0.543076
| 48> N        -3.559417    0.120660   -0.229113
| 49> O        -4.061154    1.195422    0.019124
| 50> O        -4.155627   -0.833682   -0.678990
| 51> H        -1.924493    1.966472    0.737800
| 52> H         4.679294   -0.408157   -1.390039
| 53> H         2.436878    1.496289   -1.733901
| 54> P         2.348301   -0.608838    0.843428
| 55> H         2.558406    0.536344    1.652756
| 56> *
| 57>
| 58> $new_job
| 59> ! ri-mp2 aug-cc-pvqz aug-cc-pvqz/c tightscf
| 60> %pal nprocs 16 end
| 61> %maxcore 3800
| 62> %base "QZ_P-N_65_AB"
| 63>
| 64> *xyz 0 1
| 65> C        -1.523181   -1.251403   -0.235997
| 66> C        -0.172291   -1.390406    0.021169
| 67> C        -2.119303   -0.036806    0.033679
| 68> C        -1.414182    1.036025    0.542411
| 69> C        -0.062139    0.883835    0.780823
| 70> C         0.573107   -0.327360    0.522272
| 71> H         0.509978    1.719519    1.157414
| 72> H        -2.115088   -2.063335   -0.629050
| 73> H         0.309311   -2.340855   -0.168238
| 74> N         2.984663    0.034260   -0.661707
| 75> O         2.659229    1.396426   -0.800629
| 76> O         4.389102   -0.050846   -0.543076
| 77> N        -3.559417    0.120660   -0.229113
| 78> O        -4.061154    1.195422    0.019124
| 79> O        -4.155627   -0.833682   -0.678990
| 80> H        -1.924493    1.966472    0.737800
| 81> H         4.679294   -0.408157   -1.390039
| 82> H         2.436878    1.496289   -1.733901
| 83> P         2.348301   -0.608838    0.843428
| 84> H         2.558406    0.536344    1.652756
| 85> *
| 86>
| 87>
| 88>
| 89>
| 90>                          ****END OF INPUT****
 Total Charge           Charge          ....    0
 Multiplicity           Mult            ....    1
 Number of Electrons    NEL             ....  104
MP2 TOTAL ENERGY:     -982.308168513 Eh
FINAL SINGLE POINT ENERGY      -982.308168512946
MP2 TOTAL ENERGY:     -982.888373327 Eh
FINAL SINGLE POINT ENERGY      -982.888373326922

CARTESIAN COORDINATES (ANGSTROEM)
---------------------------------
  C     -1.523181   -1.251403   -0.235997
  C     -0.172291   -1.390406    0.021169
  C     -2.119303   -0.036806    0.033679
  C     -1.414182    1.036025    0.542411
  C     -0.062139    0.883835    0.780823
  C      0.573107   -0.327360    0.522272
  H      0.509978    1.719519    1.157414
  H     -2.115088   -2.063335   -0.629050
  H      0.309311   -2.340855   -0.168238
  N      2.984663    0.034260   -0.661707
  O      2.659229    1.396426   -0.800629
  O      4.389102   -0.050846   -0.543076
  N     -3.559417    0.120660   -0.229113
  O     -4.061154    1.195422    0.019124
  O     -4.155627   -0.833682   -0.678990
  H     -1.924493    1.966472    0.737800
  H      4.679294   -0.408157   -1.390039
  H      2.436878    1.496289   -1.733901
  P      2.348301   -0.608838    0.843428
  H      2.558406    0.536344    1.652756

 Multiplicity           Mult            ....    1
 Number of Electrons    NEL             ....  104
 Basis Dimension        Dim             .... 1366

ORBITAL ENERGIES
----------------

  NO   OCC          E(Eh)            E(eV)
   0   2.0000     -79.981958     -2176.4197
   1   2.0000     -20.614359      -560.9452
   2   2.0000     -20.614010      -560.9357
   3   2.0000     -20.603290      -560.6440
   4   2.0000     -20.603174      -560.6409
   5   2.0000     -15.856248      -431.4705
   6   2.0000     -15.682711      -426.7483
   7   2.0000     -11.314270      -307.8769
   8   2.0000     -11.273959      -306.7800
   9   2.0000     -11.273192      -306.7592
  10   2.0000     -11.272244      -306.7333
  11   2.0000     -11.269062      -306.6468
  12   2.0000     -11.267577      -306.6064
  13   2.0000      -7.521996      -204.6839
  14   2.0000      -5.415740      -147.3698
  15   2.0000      -5.415438      -147.3616
  16   2.0000      -5.414420      -147.3338
  17   2.0000      -1.621617       -44.1264
  18   2.0000      -1.484347       -40.3911
  19   2.0000      -1.411923       -38.4204
  20   2.0000      -1.367950       -37.2238
  21   2.0000      -1.209692       -32.9174
  22   2.0000      -1.106848       -30.1189
  23   2.0000      -1.059742       -28.8370
  24   2.0000      -1.057738       -28.7825
  25   2.0000      -0.968803       -26.3625
  26   2.0000      -0.873840       -23.7784
  27   2.0000      -0.852800       -23.2059
  28   2.0000      -0.806287       -21.9402
  29   2.0000      -0.789641       -21.4872
  30   2.0000      -0.740813       -20.1585
  31   2.0000      -0.736052       -20.0290
  32   2.0000      -0.731543       -19.9063
  33   2.0000      -0.730089       -19.8667
  34   2.0000      -0.683766       -18.6062
  35   2.0000      -0.669484       -18.2176
  36   2.0000      -0.656128       -17.8542
  37   2.0000      -0.634679       -17.2705
  38   2.0000      -0.629503       -17.1296
  39   2.0000      -0.621671       -16.9165
  40   2.0000      -0.548331       -14.9209
  41   2.0000      -0.536918       -14.6103
  42   2.0000      -0.529168       -14.3994
  43   2.0000      -0.515533       -14.0284
  44   2.0000      -0.506856       -13.7923
  45   2.0000      -0.499955       -13.6045
  46   2.0000      -0.496197       -13.5022
  47   2.0000      -0.461389       -12.5550
  48   2.0000      -0.427133       -11.6229
  49   2.0000      -0.402926       -10.9642
  50   2.0000      -0.375876       -10.2281
  51   2.0000      -0.373259       -10.1569
  52   0.0000       0.017801         0.4844
  53   0.0000       0.025833         0.7029
  54   0.0000       0.027241         0.7413
  55   0.0000       0.029097         0.7918
  56   0.0000       0.035660         0.9704

MULLIKEN ATOMIC CHARGES
-----------------------
   0 C :   -0.197099
   1 C :   -0.062709
   2 C :   -0.169208
   3 C :   -0.228730
   4 C :   -0.232980
   5 C :   -0.092234
   6 H :    0.244863
   7 H :    0.333957
   8 H :    0.239057
   9 N :    0.087960
  10 O :   -0.624041
  11 O :   -0.674749
  12 N :    0.816475
  13 O :   -0.619197
  14 O :   -0.619010
  15 H :    0.348569
  16 H :    0.357931
  17 H :    0.371338
  18 P :    0.833949
  19 H :   -0.114140
Sum of atomic charges:    0.0000000

LOEWDIN ATOMIC CHARGES
----------------------
   0 C :    0.324541
   1 C :    0.262805
   2 C :   -0.302558
   3 C :    0.329200
   4 C :    0.273235
   5 C :   -0.288414
   6 H :   -0.342574
   7 H :   -0.347881
   8 H :   -0.339646
   9 N :   -0.406369
  10 O :    1.007438
  11 O :    0.978997
  12 N :   -0.844364
  13 O :    0.554506
  14 O :    0.554161
  15 H :   -0.347359
  16 H :   -0.851516
  17 H :   -0.837701
  18 P :    1.040315
  19 H :   -0.416816

  Mayer bond orders larger than 0.100000
B(  0-C ,  1-C ) :   1.3444 B(  0-C ,  2-C ) :   1.1939 B(  0-C ,  4-C ) :   0.1255
B(  0-C ,  5-C ) :  -0.2376 B(  0-C ,  7-H ) :   0.8910 B(  0-C ,  8-H ) :  -0.1307
B(  0-C , 12-N ) :  -0.1008 B(  1-C ,  2-C ) :  -0.1851 B(  1-C ,  3-C ) :   0.1179
B(  1-C ,  5-C ) :   0.8627 B(  1-C ,  8-H ) :   1.0380 B(  1-C , 18-P ) :  -0.3586
B(  2-C ,  3-C ) :   1.2681 B(  2-C ,  4-C ) :  -0.1542 B(  2-C ,  5-C ) :  -0.1250
B(  2-C , 12-N ) :   0.7792 B(  2-C , 13-O ) :   0.3128 B(  2-C , 14-O ) :   0.2887
B(  3-C ,  4-C ) :   1.3070 B(  3-C ,  5-C ) :  -0.2561 B(  3-C ,  6-H ) :  -0.1305
B(  3-C , 12-N ) :  -0.1117 B(  3-C , 15-H ) :   0.8866 B(  4-C ,  5-C ) :   0.8736
B(  4-C ,  6-H ) :   1.0349 B(  4-C , 15-H ) :  -0.1070 B(  5-C ,  8-H ) :  -0.1384
B(  5-C , 18-P ) :   0.8311 B(  5-C , 19-H ) :  -0.2187 B(  9-N , 10-O ) :   0.7241
B(  9-N , 11-O ) :   0.6599 B(  9-N , 18-P ) :   0.7223 B( 10-O , 17-H ) :   0.8943
B( 11-O , 16-H ) :   0.9026 B( 12-N , 13-O ) :   1.1679 B( 12-N , 14-O ) :   1.1680
B( 18-P , 19-H ) :   0.9674

MP2 TOTAL ENERGY:     -983.080069382 Eh
FINAL SINGLE POINT ENERGY      -983.080069382471

DIPOLE MOMENT
-------------
                                X             Y             Z
Electronic contribution:     -2.59887      -1.64132       0.69430
Nuclear contribution   :      4.05514       1.46310      -1.17259
                        -----------------------------------------
Total Dipole Moment    :      1.45627      -0.17821      -0.47829
                        -----------------------------------------
Magnitude (a.u.)       :      1.54313
Magnitude (Debye)      :      3.92232

Rotational constants in cm-1:     0.070831     0.010132     0.009632
Rotational constants in MHz :  2123.470238   303.745209   288.771838

                             ****ORCA TERMINATED NORMALLY****
TOTAL RUN TIME: 0 days 0 hours 57 minutes 46 seconds 628 msec
