                         Program Version 5.0.4 -  RELEASE  -
|  1> ! ri-mp2 aug-cc-pvdz aug-cc-pvdz/c tightscf
|  2> %pal nprocs 16 end
|  3> %maxcore 3800
|  4> %base "DZ_B-B_66_A"
|  5> %scf
|  6> STABPerform true
|  7> STABRestartUHFifUnstable true
|  8> end
|  9>
| 10> *xyz 0 2
| 11> B         1.729893    0.000013   -0.090513
| 12> B         0.089342    0.000001   -0.003259
| 13> O        -0.556079    1.210351    0.007443
| 14> O        -0.556061   -1.210358    0.007442
| 15> H        -1.516881    1.183189    0.016193
| 16> H        -1.516864   -1.183209    0.016196
| 17> H         2.834690    0.000005    0.317388
| 18> *
| 19>
| 20> $new_job
| 21> ! ri-mp2 aug-cc-pvtz aug-cc-pvtz/c tightscf
| 22> %pal nprocs 16 end
| 23> %maxcore 3800
| 24> %base "TZ_B-B_66_A"
| 25>
| 26> *xyz 0 2
| 27> B         1.729893    0.000013   -0.090513
| 28> B         0.089342    0.000001   -0.003259
| 29> O        -0.556079    1.210351    0.007443
| 30> O        -0.556061   -1.210358    0.007442
| 31> H        -1.516881    1.183189    0.016193
| 32> H        -1.516864   -1.183209    0.016196
| 33> H         2.834690    0.000005    0.317388
| 34> *
| 35>
| 36> $new_job
| 37> ! ri-mp2 aug-cc-pvqz aug-cc-pvqz/c tightscf
| 38> %pal nprocs 16 end
| 39> %maxcore 3800
| 40> %base "QZ_B-B_66_A"
| 41>
| 42> *xyz 0 2
| 43> B         1.729893    0.000013   -0.090513
| 44> B         0.089342    0.000001   -0.003259
| 45> O        -0.556079    1.210351    0.007443
| 46> O        -0.556061   -1.210358    0.007442
| 47> H        -1.516881    1.183189    0.016193
| 48> H        -1.516864   -1.183209    0.016196
| 49> H         2.834690    0.000005    0.317388
| 50> *
| 51>
| 52>
| 53>
| 54>
| 55>                          ****END OF INPUT****
 Total Charge           Charge          ....    0
 Multiplicity           Mult            ....    2
 Number of Electrons    NEL             ....   29
MP2 TOTAL ENERGY:     -201.429920383 Eh
FINAL SINGLE POINT ENERGY      -201.429920382922
MP2 TOTAL ENERGY:     -201.602979049 Eh
FINAL SINGLE POINT ENERGY      -201.602979048534

CARTESIAN COORDINATES (ANGSTROEM)
---------------------------------
  B      1.729893    0.000013   -0.090513
  B      0.089342    0.000001   -0.003259
  O     -0.556079    1.210351    0.007443
  O     -0.556061   -1.210358    0.007442
  H     -1.516881    1.183189    0.016193
  H     -1.516864   -1.183209    0.016196
  H      2.834690    0.000005    0.317388

 Multiplicity           Mult            ....    2
 Number of Electrons    NEL             ....   29
 Basis Dimension        Dim             ....  458

ORBITAL ENERGIES
----------------
                 SPIN UP ORBITALS
  NO   OCC          E(Eh)            E(eV)
   0   1.0000     -20.571075      -559.7674
   1   1.0000     -20.571056      -559.7669
   2   1.0000      -7.635107      -207.7618
   3   1.0000      -7.616364      -207.2518
   4   1.0000      -1.387032       -37.7431
   5   1.0000      -1.348767       -36.7018
   6   1.0000      -0.796013       -21.6606
   7   1.0000      -0.738614       -20.0987
   8   1.0000      -0.666207       -18.1284
   9   1.0000      -0.630148       -17.1472
  10   1.0000      -0.581666       -15.8279
  11   1.0000      -0.534381       -14.5412
  12   1.0000      -0.514739       -14.0067
  13   1.0000      -0.494941       -13.4680
  14   1.0000      -0.306080        -8.3289
  15   0.0000       0.018630         0.5069
  16   0.0000       0.031902         0.8681
  17   0.0000       0.034740         0.9453
  18   0.0000       0.044317         1.2059
  19   0.0000       0.048630         1.3233

                 SPIN DOWN ORBITALS
  NO   OCC          E(Eh)            E(eV)
   0   1.0000     -20.569969      -559.7373
   1   1.0000     -20.569949      -559.7368
   2   1.0000      -7.635937      -207.7844
   3   1.0000      -7.602536      -206.8755
   4   1.0000      -1.384324       -37.6694
   5   1.0000      -1.345793       -36.6209
   6   1.0000      -0.785679       -21.3794
   7   1.0000      -0.738176       -20.0868
   8   1.0000      -0.643636       -17.5142
   9   1.0000      -0.604869       -16.4593
  10   1.0000      -0.569774       -15.5043
  11   1.0000      -0.533381       -14.5140
  12   1.0000      -0.503896       -13.7117
  13   1.0000      -0.482712       -13.1353
  14   0.0000       0.018743         0.5100
  15   0.0000       0.032041         0.8719
  16   0.0000       0.037722         1.0265
  17   0.0000       0.040509         1.1023
  18   0.0000       0.049375         1.3436

MULLIKEN ATOMIC CHARGES AND SPIN POPULATIONS
--------------------------------------------
   0 B :    0.166450    1.030914
   1 B :    1.310966   -0.010822
   2 O :   -0.966823    0.014399
   3 O :   -0.966823    0.014399
   4 H :    0.347286   -0.002922
   5 H :    0.347286   -0.002922
   6 H :   -0.238342   -0.043046
Sum of atomic charges         :    0.0000000

LOEWDIN ATOMIC CHARGES AND SPIN POPULATIONS
-------------------------------------------
   0 B :    0.483406    0.502074
   1 B :   -1.174669    0.244831
   2 O :    1.291820    0.035011
   3 O :    1.291820    0.035011
   4 H :   -0.794091    0.001010
   5 H :   -0.794090    0.001010
   6 H :   -0.304194    0.181053

  Mayer bond orders larger than 0.100000
B(  0-B ,  1-B ) :   1.1152 B(  0-B ,  2-O ) :  -0.1078 B(  0-B ,  3-O ) :  -0.1078
B(  0-B ,  6-H ) :   0.9245 B(  1-B ,  2-O ) :   0.4392 B(  1-B ,  3-O ) :   0.4392
B(  2-O ,  4-H ) :   0.9343 B(  3-O ,  5-H ) :   0.9343

MP2 TOTAL ENERGY:     -201.659907750 Eh
FINAL SINGLE POINT ENERGY      -201.659907750037

DIPOLE MOMENT
-------------
                                X             Y             Z
Electronic contribution:      0.71713       0.00002      -0.26702
Nuclear contribution   :     -1.61784      -0.00003       0.40921
                        -----------------------------------------
Total Dipole Moment    :     -0.90071      -0.00001       0.14219
                        -----------------------------------------
Magnitude (a.u.)       :      0.91186
Magnitude (Debye)      :      2.31777

Rotational constants in cm-1:     0.338027     0.305347     0.160957
Rotational constants in MHz : 10133.803362  9154.078251  4825.382756

                             ****ORCA TERMINATED NORMALLY****
TOTAL RUN TIME: 0 days 0 hours 19 minutes 53 seconds 240 msec
