                         Program Version 5.0.4 -  RELEASE  -
|  1> ! ri-mp2 aug-cc-pvdz aug-cc-pvdz/c tightscf
|  2> %pal nprocs 16 end
|  3> %maxcore 3800
|  4> %base "DZ_B-B_13_B"
|  5> %scf
|  6> STABPerform true
|  7> STABRestartUHFifUnstable true
|  8> end
|  9>
| 10> *xyz 0 2
| 11> B        -0.000000    0.000000    0.143907
| 12> H         0.000000    1.073923   -0.359767
| 13> H        -0.000000   -1.073923   -0.359767
| 14> *
| 15>
| 16> $new_job
| 17> ! ri-mp2 aug-cc-pvtz aug-cc-pvtz/c tightscf
| 18> %pal nprocs 16 end
| 19> %maxcore 3800
| 20> %base "TZ_B-B_13_B"
| 21>
| 22> *xyz 0 2
| 23> B        -0.000000    0.000000    0.143907
| 24> H         0.000000    1.073923   -0.359767
| 25> H        -0.000000   -1.073923   -0.359767
| 26> *
| 27>
| 28> $new_job
| 29> ! ri-mp2 aug-cc-pvqz aug-cc-pvqz/c tightscf
| 30> %pal nprocs 16 end
| 31> %maxcore 3800
| 32> %base "QZ_B-B_13_B"
| 33>
| 34> *xyz 0 2
| 35> B        -0.000000    0.000000    0.143907
| 36> H         0.000000    1.073923   -0.359767
| 37> H        -0.000000   -1.073923   -0.359767
| 38> *
| 39>
| 40>
| 41>
| 42>
| 43>                          ****END OF INPUT****
 Total Charge           Charge          ....    0
 Multiplicity           Mult            ....    2
 Number of Electrons    NEL             ....    7
MP2 TOTAL ENERGY:      -25.822310852 Eh
FINAL SINGLE POINT ENERGY       -25.822310852272
MP2 TOTAL ENERGY:      -25.843872607 Eh
FINAL SINGLE POINT ENERGY       -25.843872606893

CARTESIAN COORDINATES (ANGSTROEM)
---------------------------------
  B     -0.000000    0.000000    0.143907
  H      0.000000    1.073923   -0.359767
  H     -0.000000   -1.073923   -0.359767

 Multiplicity           Mult            ....    2
 Number of Electrons    NEL             ....    7
 Basis Dimension        Dim             ....  172

ORBITAL ENERGIES
----------------
                 SPIN UP ORBITALS
  NO   OCC          E(Eh)            E(eV)
   0   1.0000      -7.642472      -207.9622
   1   1.0000      -0.699999       -19.0479
   2   1.0000      -0.527443       -14.3524
   3   1.0000      -0.347185        -9.4474
   4   0.0000       0.023849         0.6490
   5   0.0000       0.029232         0.7954
   6   0.0000       0.036512         0.9936
   7   0.0000       0.045255         1.2314
   8   0.0000       0.077917         2.1202

                 SPIN DOWN ORBITALS
  NO   OCC          E(Eh)            E(eV)
   0   1.0000      -7.624235      -207.4660
   1   1.0000      -0.648411       -17.6442
   2   1.0000      -0.514833       -14.0093
   3   0.0000       0.028765         0.7827
   4   0.0000       0.031091         0.8460
   5   0.0000       0.036672         0.9979
   6   0.0000       0.037710         1.0261
   7   0.0000       0.079311         2.1582

MULLIKEN ATOMIC CHARGES AND SPIN POPULATIONS
--------------------------------------------
   0 B :    0.282172    1.007532
   1 H :   -0.141086   -0.003766
   2 H :   -0.141086   -0.003766
Sum of atomic charges         :   -0.0000000

LOEWDIN ATOMIC CHARGES AND SPIN POPULATIONS
-------------------------------------------
   0 B :    0.739177    0.610085
   1 H :   -0.369589    0.194958
   2 H :   -0.369589    0.194958

  Mayer bond orders larger than 0.100000
B(  0-B ,  1-H ) :   0.9600 B(  0-B ,  2-H ) :   0.9600

MP2 TOTAL ENERGY:      -25.850322898 Eh
FINAL SINGLE POINT ENERGY       -25.850322897981

DIPOLE MOMENT
-------------
                                X             Y             Z
Electronic contribution:      0.00000       0.00000       0.66891
Nuclear contribution   :      0.00000       0.00000      -0.85637
                        -----------------------------------------
Total Dipole Moment    :      0.00000       0.00000      -0.18746
                        -----------------------------------------
Magnitude (a.u.)       :      0.18746
Magnitude (Debye)      :      0.47649

Rotational constants in cm-1:    39.108652     7.250369     6.116439
Rotational constants in MHz : 1172447.897292 217360.582275 183366.241745

                             ****ORCA TERMINATED NORMALLY****
TOTAL RUN TIME: 0 days 0 hours 2 minutes 12 seconds 993 msec
