                         Program Version 5.0.4 -  RELEASE  -
|  1> ! ri-mp2 aug-cc-pvdz aug-cc-pvdz/c tightscf
|  2> %pal nprocs 16 end
|  3> %maxcore 3800
|  4> %base "DZ_B-F_51_AB"
|  5> %scf
|  6> STABPerform true
|  7> STABRestartUHFifUnstable true
|  8> end
|  9>
| 10> *xyz 0 1
| 11> F         1.660845   -1.289152   -1.000307
| 12> B         1.312074   -0.336029   -0.167955
| 13> F         2.279617    0.402216    0.339182
| 14> C        -0.195512   -0.120557    0.305972
| 15> O        -1.008815   -0.631620   -0.724081
| 16> O        -0.486311    1.232994    0.573444
| 17> C        -2.398920   -0.668643   -0.467555
| 18> H        -2.883370   -0.847059   -1.424662
| 19> H        -2.755288    0.276885   -0.054081
| 20> H        -2.661151   -1.480465    0.215122
| 21> C        -0.298806    2.111063   -0.516243
| 22> H        -0.566307    3.105530   -0.167727
| 23> H        -0.931518    1.839794   -1.363362
| 24> H         0.746595    2.127384   -0.843843
| 25> C        -0.389521   -0.843569    1.634235
| 26> H        -0.296957   -1.921001    1.499943
| 27> H        -1.373117   -0.613791    2.040776
| 28> H         0.354151   -0.505457    2.354383
| 29> *
| 30>
| 31> $new_job
| 32> ! ri-mp2 aug-cc-pvtz aug-cc-pvtz/c tightscf
| 33> %pal nprocs 16 end
| 34> %maxcore 3800
| 35> %base "TZ_B-F_51_AB"
| 36>
| 37> *xyz 0 1
| 38> F         1.660845   -1.289152   -1.000307
| 39> B         1.312074   -0.336029   -0.167955
| 40> F         2.279617    0.402216    0.339182
| 41> C        -0.195512   -0.120557    0.305972
| 42> O        -1.008815   -0.631620   -0.724081
| 43> O        -0.486311    1.232994    0.573444
| 44> C        -2.398920   -0.668643   -0.467555
| 45> H        -2.883370   -0.847059   -1.424662
| 46> H        -2.755288    0.276885   -0.054081
| 47> H        -2.661151   -1.480465    0.215122
| 48> C        -0.298806    2.111063   -0.516243
| 49> H        -0.566307    3.105530   -0.167727
| 50> H        -0.931518    1.839794   -1.363362
| 51> H         0.746595    2.127384   -0.843843
| 52> C        -0.389521   -0.843569    1.634235
| 53> H        -0.296957   -1.921001    1.499943
| 54> H        -1.373117   -0.613791    2.040776
| 55> H         0.354151   -0.505457    2.354383
| 56> *
| 57>
| 58> $new_job
| 59> ! ri-mp2 aug-cc-pvqz aug-cc-pvqz/c tightscf
| 60> %pal nprocs 16 end
| 61> %maxcore 3800
| 62> %base "QZ_B-F_51_AB"
| 63>
| 64> *xyz 0 1
| 65> F         1.660845   -1.289152   -1.000307
| 66> B         1.312074   -0.336029   -0.167955
| 67> F         2.279617    0.402216    0.339182
| 68> C        -0.195512   -0.120557    0.305972
| 69> O        -1.008815   -0.631620   -0.724081
| 70> O        -0.486311    1.232994    0.573444
| 71> C        -2.398920   -0.668643   -0.467555
| 72> H        -2.883370   -0.847059   -1.424662
| 73> H        -2.755288    0.276885   -0.054081
| 74> H        -2.661151   -1.480465    0.215122
| 75> C        -0.298806    2.111063   -0.516243
| 76> H        -0.566307    3.105530   -0.167727
| 77> H        -0.931518    1.839794   -1.363362
| 78> H         0.746595    2.127384   -0.843843
| 79> C        -0.389521   -0.843569    1.634235
| 80> H        -0.296957   -1.921001    1.499943
| 81> H        -1.373117   -0.613791    2.040776
| 82> H         0.354151   -0.505457    2.354383
| 83> *
| 84>
| 85>
| 86>
| 87>
| 88>                          ****END OF INPUT****
 Total Charge           Charge          ....    0
 Multiplicity           Mult            ....    1
 Number of Electrons    NEL             ....   72
MP2 TOTAL ENERGY:     -531.631194232 Eh
FINAL SINGLE POINT ENERGY      -531.631194232268
MP2 TOTAL ENERGY:     -532.104066103 Eh
FINAL SINGLE POINT ENERGY      -532.104066102697

CARTESIAN COORDINATES (ANGSTROEM)
---------------------------------
  F      1.660845   -1.289152   -1.000307
  B      1.312074   -0.336029   -0.167955
  F      2.279617    0.402216    0.339182
  C     -0.195512   -0.120557    0.305972
  O     -1.008815   -0.631620   -0.724081
  O     -0.486311    1.232994    0.573444
  C     -2.398920   -0.668643   -0.467555
  H     -2.883370   -0.847059   -1.424662
  H     -2.755288    0.276885   -0.054081
  H     -2.661151   -1.480465    0.215122
  C     -0.298806    2.111063   -0.516243
  H     -0.566307    3.105530   -0.167727
  H     -0.931518    1.839794   -1.363362
  H      0.746595    2.127384   -0.843843
  C     -0.389521   -0.843569    1.634235
  H     -0.296957   -1.921001    1.499943
  H     -1.373117   -0.613791    2.040776
  H      0.354151   -0.505457    2.354383

 Multiplicity           Mult            ....    1
 Number of Electrons    NEL             ....   72
 Basis Dimension        Dim             .... 1134

ORBITAL ENERGIES
----------------

  NO   OCC          E(Eh)            E(eV)
   0   2.0000     -26.312130      -715.9895
   1   2.0000     -26.310538      -715.9461
   2   2.0000     -20.566861      -559.6528
   3   2.0000     -20.564732      -559.5948
   4   2.0000     -11.331060      -308.3338
   5   2.0000     -11.275607      -306.8249
   6   2.0000     -11.273096      -306.7565
   7   2.0000     -11.228800      -305.5512
   8   2.0000      -7.706185      -209.6960
   9   2.0000      -1.646573       -44.8055
  10   2.0000      -1.613756       -43.9125
  11   2.0000      -1.425778       -38.7974
  12   2.0000      -1.353328       -36.8259
  13   2.0000      -1.041754       -28.3476
  14   2.0000      -0.951340       -25.8873
  15   2.0000      -0.930627       -25.3236
  16   2.0000      -0.838527       -22.8175
  17   2.0000      -0.801296       -21.8044
  18   2.0000      -0.763772       -20.7833
  19   2.0000      -0.742563       -20.2062
  20   2.0000      -0.717000       -19.5106
  21   2.0000      -0.693754       -18.8780
  22   2.0000      -0.673849       -18.3364
  23   2.0000      -0.662853       -18.0371
  24   2.0000      -0.660256       -17.9665
  25   2.0000      -0.651133       -17.7182
  26   2.0000      -0.622812       -16.9476
  27   2.0000      -0.605479       -16.4759
  28   2.0000      -0.595678       -16.2092
  29   2.0000      -0.562528       -15.3072
  30   2.0000      -0.542105       -14.7514
  31   2.0000      -0.527792       -14.3620
  32   2.0000      -0.518124       -14.0989
  33   2.0000      -0.459944       -12.5157
  34   2.0000      -0.448567       -12.2061
  35   2.0000      -0.435359       -11.8467
  36   0.0000       0.022410         0.6098
  37   0.0000       0.029589         0.8052
  38   0.0000       0.032832         0.8934
  39   0.0000       0.034219         0.9312
  40   0.0000       0.046691         1.2705

MULLIKEN ATOMIC CHARGES
-----------------------
   0 F :   -0.939467
   1 B :    1.820397
   2 F :   -0.910461
   3 C :    1.842558
   4 O :   -0.916763
   5 O :   -0.917125
   6 C :   -0.800455
   7 H :    0.401664
   8 H :    0.283148
   9 H :    0.290239
  10 C :   -0.782124
  11 H :    0.412408
  12 H :    0.314176
  13 H :    0.260918
  14 C :   -1.232666
  15 H :    0.262734
  16 H :    0.288144
  17 H :    0.322675
Sum of atomic charges:   -0.0000000

LOEWDIN ATOMIC CHARGES
----------------------
   0 F :    0.855278
   1 B :   -1.848881
   2 F :    0.865444
   3 C :   -0.929159
   4 O :    0.868273
   5 O :    0.874979
   6 C :    0.575271
   7 H :   -0.314013
   8 H :   -0.314410
   9 H :   -0.309966
  10 C :    0.579272
  11 H :   -0.309198
  12 H :   -0.309514
  13 H :   -0.319097
  14 C :    0.874497
  15 H :   -0.267717
  16 H :   -0.296074
  17 H :   -0.274985

  Mayer bond orders larger than 0.100000
B(  0-F ,  1-B ) :   0.1914 B(  0-F ,  3-C ) :  -0.1387 B(  1-B ,  2-F ) :   0.2046
B(  1-B ,  3-C ) :   0.8204 B(  2-F ,  3-C ) :  -0.2717 B(  3-C ,  4-O ) :   0.2031
B(  3-C ,  5-O ) :   0.3103 B(  3-C ,  6-C ) :  -0.1344 B(  3-C , 10-C ) :  -0.1317
B(  3-C , 14-C ) :   0.6143 B(  4-O ,  6-C ) :   0.9817 B(  4-O , 14-C ) :   0.1008
B(  5-O , 10-C ) :   0.9692 B(  5-O , 14-C ) :   0.1571 B(  6-C ,  7-H ) :   0.8608
B(  6-C ,  8-H ) :   0.9004 B(  6-C ,  9-H ) :   0.9275 B( 10-C , 11-H ) :   0.8644
B( 10-C , 12-H ) :   0.9072 B( 10-C , 13-H ) :   0.9202 B( 14-C , 15-H ) :   0.9826
B( 14-C , 16-H ) :   0.9624 B( 14-C , 17-H ) :   0.9329

MP2 TOTAL ENERGY:     -532.253139608 Eh
FINAL SINGLE POINT ENERGY      -532.253139608154

DIPOLE MOMENT
-------------
                                X             Y             Z
Electronic contribution:     14.30733      -2.94050      -2.81198
Nuclear contribution   :    -15.03921       3.07660       2.98290
                        -----------------------------------------
Total Dipole Moment    :     -0.73188       0.13610       0.17092
                        -----------------------------------------
Magnitude (a.u.)       :      0.76380
Magnitude (Debye)      :      1.94142

Rotational constants in cm-1:     0.067507     0.044685     0.037592
Rotational constants in MHz :  2023.794720  1339.625443  1126.965602

                             ****ORCA TERMINATED NORMALLY****
TOTAL RUN TIME: 0 days 5 hours 11 minutes 25 seconds 607 msec
