                         Program Version 5.0.4 -  RELEASE  -
|  1> ! ri-mp2 aug-cc-pvdz aug-cc-pvdz/c tightscf
|  2> %pal nprocs 16 end
|  3> %maxcore 3800
|  4> %base "DZ_S-S_28_AB"
|  5> %scf
|  6> STABPerform true
|  7> STABRestartUHFifUnstable true
|  8> end
|  9>
| 10> *xyz 0 1
| 11> C        -1.914983    0.228035    0.047308
| 12> S        -0.749728   -0.973216   -0.681431
| 13> F        -2.983985    0.234253   -0.750937
| 14> F        -1.429294    1.460995    0.112485
| 15> F        -2.303599   -0.117109    1.270994
| 16> S         0.749728   -0.973216    0.681431
| 17> C         1.914983    0.228035   -0.047308
| 18> F         2.983985    0.234253    0.750937
| 19> F         1.429294    1.460995   -0.112485
| 20> F         2.303599   -0.117109   -1.270994
| 21> *
| 22>
| 23> $new_job
| 24> ! ri-mp2 aug-cc-pvtz aug-cc-pvtz/c tightscf
| 25> %pal nprocs 16 end
| 26> %maxcore 3800
| 27> %base "TZ_S-S_28_AB"
| 28>
| 29> *xyz 0 1
| 30> C        -1.914983    0.228035    0.047308
| 31> S        -0.749728   -0.973216   -0.681431
| 32> F        -2.983985    0.234253   -0.750937
| 33> F        -1.429294    1.460995    0.112485
| 34> F        -2.303599   -0.117109    1.270994
| 35> S         0.749728   -0.973216    0.681431
| 36> C         1.914983    0.228035   -0.047308
| 37> F         2.983985    0.234253    0.750937
| 38> F         1.429294    1.460995   -0.112485
| 39> F         2.303599   -0.117109   -1.270994
| 40> *
| 41>
| 42> $new_job
| 43> ! ri-mp2 aug-cc-pvqz aug-cc-pvqz/c tightscf
| 44> %pal nprocs 16 end
| 45> %maxcore 3800
| 46> %base "QZ_S-S_28_AB"
| 47>
| 48> *xyz 0 1
| 49> C        -1.914983    0.228035    0.047308
| 50> S        -0.749728   -0.973216   -0.681431
| 51> F        -2.983985    0.234253   -0.750937
| 52> F        -1.429294    1.460995    0.112485
| 53> F        -2.303599   -0.117109    1.270994
| 54> S         0.749728   -0.973216    0.681431
| 55> C         1.914983    0.228035   -0.047308
| 56> F         2.983985    0.234253    0.750937
| 57> F         1.429294    1.460995   -0.112485
| 58> F         2.303599   -0.117109   -1.270994
| 59> *
| 60>
| 61>
| 62>
| 63>
| 64>                          ****END OF INPUT****
 Total Charge           Charge          ....    0
 Multiplicity           Mult            ....    1
 Number of Electrons    NEL             ....   98
MP2 TOTAL ENERGY:    -1469.267813798 Eh
FINAL SINGLE POINT ENERGY     -1469.267813797677
MP2 TOTAL ENERGY:    -1469.934196018 Eh
FINAL SINGLE POINT ENERGY     -1469.934196018271

CARTESIAN COORDINATES (ANGSTROEM)
---------------------------------
  C     -1.914983    0.228035    0.047308
  S     -0.749728   -0.973216   -0.681431
  F     -2.983985    0.234253   -0.750937
  F     -1.429294    1.460995    0.112485
  F     -2.303599   -0.117109    1.270994
  S      0.749728   -0.973216    0.681431
  C      1.914983    0.228035   -0.047308
  F      2.983985    0.234253    0.750937
  F      1.429294    1.460995   -0.112485
  F      2.303599   -0.117109   -1.270994

 Multiplicity           Mult            ....    1
 Number of Electrons    NEL             ....   98
 Basis Dimension        Dim             ....  808

ORBITAL ENERGIES
----------------

  NO   OCC          E(Eh)            E(eV)
   0   2.0000     -92.038634     -2504.4985
   1   2.0000     -92.038631     -2504.4985
   2   2.0000     -26.365244      -717.4348
   3   2.0000     -26.365244      -717.4348
   4   2.0000     -26.361934      -717.3447
   5   2.0000     -26.361934      -717.3447
   6   2.0000     -26.361193      -717.3245
   7   2.0000     -26.361191      -717.3245
   8   2.0000     -11.552775      -314.3670
   9   2.0000     -11.552775      -314.3670
  10   2.0000      -9.039519      -245.9778
  11   2.0000      -9.039300      -245.9719
  12   2.0000      -6.720666      -182.8786
  13   2.0000      -6.720301      -182.8687
  14   2.0000      -6.719377      -182.8435
  15   2.0000      -6.719249      -182.8401
  16   2.0000      -6.718336      -182.8152
  17   2.0000      -6.718332      -182.8151
  18   2.0000      -1.761446       -47.9314
  19   2.0000      -1.760678       -47.9105
  20   2.0000      -1.665250       -45.3137
  21   2.0000      -1.664782       -45.3010
  22   2.0000      -1.662544       -45.2401
  23   2.0000      -1.661336       -45.2072
  24   2.0000      -1.143537       -31.1172
  25   2.0000      -1.044713       -28.4281
  26   2.0000      -0.975715       -26.5506
  27   2.0000      -0.922230       -25.0951
  28   2.0000      -0.856054       -23.2944
  29   2.0000      -0.853388       -23.2219
  30   2.0000      -0.852790       -23.2056
  31   2.0000      -0.850995       -23.1568
  32   2.0000      -0.827907       -22.5285
  33   2.0000      -0.767591       -20.8872
  34   2.0000      -0.738554       -20.0971
  35   2.0000      -0.736453       -20.0399
  36   2.0000      -0.736263       -20.0347
  37   2.0000      -0.732616       -19.9355
  38   2.0000      -0.697694       -18.9852
  39   2.0000      -0.692359       -18.8401
  40   2.0000      -0.691245       -18.8097
  41   2.0000      -0.684845       -18.6356
  42   2.0000      -0.674879       -18.3644
  43   2.0000      -0.673975       -18.3398
  44   2.0000      -0.590034       -16.0556
  45   2.0000      -0.562480       -15.3059
  46   2.0000      -0.523597       -14.2478
  47   2.0000      -0.433919       -11.8075
  48   2.0000      -0.427468       -11.6320
  49   0.0000       0.041876         1.1395
  50   0.0000       0.041905         1.1403
  51   0.0000       0.052182         1.4199
  52   0.0000       0.055552         1.5116
  53   0.0000       0.073147         1.9904

MULLIKEN ATOMIC CHARGES
-----------------------
   0 C :    1.609888
   1 S :    0.057366
   2 F :   -0.568397
   3 F :   -0.555000
   4 F :   -0.543858
   5 S :    0.057366
   6 C :    1.609888
   7 F :   -0.568397
   8 F :   -0.555000
   9 F :   -0.543858
Sum of atomic charges:   -0.0000000

LOEWDIN ATOMIC CHARGES
----------------------
   0 C :   -2.695661
   1 S :    0.650905
   2 F :    0.673238
   3 F :    0.689507
   4 F :    0.682011
   5 S :    0.650905
   6 C :   -2.695661
   7 F :    0.673238
   8 F :    0.689507
   9 F :    0.682011

  Mayer bond orders larger than 0.100000
B(  0-C ,  1-S ) :   0.9431 B(  0-C ,  2-F ) :   0.5589 B(  0-C ,  3-F ) :   0.5704
B(  0-C ,  4-F ) :   0.5748 B(  1-S ,  5-S ) :   1.1437 B(  5-S ,  6-C ) :   0.9431
B(  6-C ,  7-F ) :   0.5589 B(  6-C ,  8-F ) :   0.5704 B(  6-C ,  9-F ) :   0.5748

MP2 TOTAL ENERGY:    -1470.154065458 Eh
FINAL SINGLE POINT ENERGY     -1470.154065458495

DIPOLE MOMENT
-------------
                                X             Y             Z
Electronic contribution:      0.00000       2.34201       0.00000
Nuclear contribution   :     -0.00000      -2.78362      -0.00000
                        -----------------------------------------
Total Dipole Moment    :      0.00000      -0.44161       0.00000
                        -----------------------------------------
Magnitude (a.u.)       :      0.44161
Magnitude (Debye)      :      1.12248

Rotational constants in cm-1:     0.065149     0.019721     0.018998
Rotational constants in MHz :  1953.129518   591.211099   569.535355

                             ****ORCA TERMINATED NORMALLY****
TOTAL RUN TIME: 0 days 0 hours 40 minutes 32 seconds 383 msec
