                         Program Version 5.0.4 -  RELEASE  -
|  1> ! ri-mp2 aug-cc-pvdz aug-cc-pvdz/c tightscf
|  2> %pal nprocs 16 end
|  3> %maxcore 3800
|  4> %base "DZ_B-B_50_AB"
|  5> %scf
|  6> STABPerform true
|  7> STABRestartUHFifUnstable true
|  8> end
|  9>
| 10> *xyz 0 1
| 11> B        -0.611266    0.562542   -1.113840
| 12> B         0.611265   -0.562471   -1.113876
| 13> S         2.034017   -0.494820   -0.084077
| 14> S        -2.034018    0.494824   -0.084047
| 15> C         1.862054    1.017700    0.902276
| 16> H         2.688925    1.047648    1.607572
| 17> H         0.923966    1.016769    1.451205
| 18> H         1.908579    1.895413    0.262692
| 19> C        -1.862051   -1.017754    0.902216
| 20> H        -2.688922   -1.047747    1.607510
| 21> H        -0.923963   -1.016853    1.451146
| 22> H        -1.908572   -1.895430    0.262580
| 23> H         0.604964   -1.523607   -1.820599
| 24> H        -0.604965    1.523722   -1.820503
| 25> *
| 26>
| 27> $new_job
| 28> ! ri-mp2 aug-cc-pvtz aug-cc-pvtz/c tightscf
| 29> %pal nprocs 16 end
| 30> %maxcore 3800
| 31> %base "TZ_B-B_50_AB"
| 32>
| 33> *xyz 0 1
| 34> B        -0.611266    0.562542   -1.113840
| 35> B         0.611265   -0.562471   -1.113876
| 36> S         2.034017   -0.494820   -0.084077
| 37> S        -2.034018    0.494824   -0.084047
| 38> C         1.862054    1.017700    0.902276
| 39> H         2.688925    1.047648    1.607572
| 40> H         0.923966    1.016769    1.451205
| 41> H         1.908579    1.895413    0.262692
| 42> C        -1.862051   -1.017754    0.902216
| 43> H        -2.688922   -1.047747    1.607510
| 44> H        -0.923963   -1.016853    1.451146
| 45> H        -1.908572   -1.895430    0.262580
| 46> H         0.604964   -1.523607   -1.820599
| 47> H        -0.604965    1.523722   -1.820503
| 48> *
| 49>
| 50> $new_job
| 51> ! ri-mp2 aug-cc-pvqz aug-cc-pvqz/c tightscf
| 52> %pal nprocs 16 end
| 53> %maxcore 3800
| 54> %base "QZ_B-B_50_AB"
| 55>
| 56> *xyz 0 1
| 57> B        -0.611266    0.562542   -1.113840
| 58> B         0.611265   -0.562471   -1.113876
| 59> S         2.034017   -0.494820   -0.084077
| 60> S        -2.034018    0.494824   -0.084047
| 61> C         1.862054    1.017700    0.902276
| 62> H         2.688925    1.047648    1.607572
| 63> H         0.923966    1.016769    1.451205
| 64> H         1.908579    1.895413    0.262692
| 65> C        -1.862051   -1.017754    0.902216
| 66> H        -2.688922   -1.047747    1.607510
| 67> H        -0.923963   -1.016853    1.451146
| 68> H        -1.908572   -1.895430    0.262580
| 69> H         0.604964   -1.523607   -1.820599
| 70> H        -0.604965    1.523722   -1.820503
| 71> *
| 72>
| 73>
| 74>
| 75>
| 76>                          ****END OF INPUT****
 Total Charge           Charge          ....    0
 Multiplicity           Mult            ....    1
 Number of Electrons    NEL             ....   62
MP2 TOTAL ENERGY:     -925.630554204 Eh
FINAL SINGLE POINT ENERGY      -925.630554204340
MP2 TOTAL ENERGY:     -925.858737516 Eh
FINAL SINGLE POINT ENERGY      -925.858737516442

CARTESIAN COORDINATES (ANGSTROEM)
---------------------------------
  B     -0.611266    0.562542   -1.113840
  B      0.611265   -0.562471   -1.113876
  S      2.034017   -0.494820   -0.084077
  S     -2.034018    0.494824   -0.084047
  C      1.862054    1.017700    0.902276
  H      2.688925    1.047648    1.607572
  H      0.923966    1.016769    1.451205
  H      1.908579    1.895413    0.262692
  C     -1.862051   -1.017754    0.902216
  H     -2.688922   -1.047747    1.607510
  H     -0.923963   -1.016853    1.451146
  H     -1.908572   -1.895430    0.262580
  H      0.604964   -1.523607   -1.820599
  H     -0.604965    1.523722   -1.820503

 Multiplicity           Mult            ....    1
 Number of Electrons    NEL             ....   62
 Basis Dimension        Dim             ....  856

ORBITAL ENERGIES
----------------

  NO   OCC          E(Eh)            E(eV)
   0   2.0000     -91.951680     -2502.1324
   1   2.0000     -91.951680     -2502.1324
   2   2.0000     -11.258189      -306.3509
   3   2.0000     -11.258189      -306.3509
   4   2.0000      -8.955944      -243.7036
   5   2.0000      -8.955944      -243.7036
   6   2.0000      -7.601186      -206.8388
   7   2.0000      -7.600321      -206.8152
   8   2.0000      -6.637387      -180.6125
   9   2.0000      -6.637386      -180.6125
  10   2.0000      -6.636404      -180.5857
  11   2.0000      -6.636404      -180.5857
  12   2.0000      -6.636319      -180.5834
  13   2.0000      -6.636319      -180.5834
  14   2.0000      -1.051803       -28.6210
  15   2.0000      -1.043702       -28.4006
  16   2.0000      -0.888005       -24.1639
  17   2.0000      -0.881579       -23.9890
  18   2.0000      -0.700722       -19.0676
  19   2.0000      -0.623380       -16.9630
  20   2.0000      -0.606852       -16.5133
  21   2.0000      -0.599919       -16.3246
  22   2.0000      -0.592980       -16.1358
  23   2.0000      -0.589099       -16.0302
  24   2.0000      -0.528388       -14.3782
  25   2.0000      -0.483497       -13.1566
  26   2.0000      -0.476338       -12.9618
  27   2.0000      -0.449749       -12.2383
  28   2.0000      -0.391066       -10.6414
  29   2.0000      -0.380613       -10.3570
  30   2.0000      -0.377157       -10.2630
  31   0.0000       0.021812         0.5935
  32   0.0000       0.029918         0.8141
  33   0.0000       0.031339         0.8528
  34   0.0000       0.032787         0.8922
  35   0.0000       0.043690         1.1889

MULLIKEN ATOMIC CHARGES
-----------------------
   0 B :    0.400130
   1 B :    0.400130
   2 S :   -0.023423
   3 S :   -0.023423
   4 C :   -0.990539
   5 H :    0.405890
   6 H :    0.324601
   7 H :    0.269113
   8 C :   -0.990538
   9 H :    0.405890
  10 H :    0.324601
  11 H :    0.269113
  12 H :   -0.385773
  13 H :   -0.385772
Sum of atomic charges:   -0.0000000

LOEWDIN ATOMIC CHARGES
----------------------
   0 B :   -0.626989
   1 B :   -0.626988
   2 S :    1.446283
   3 S :    1.446283
   4 C :    0.557254
   5 H :   -0.373891
   6 H :   -0.376259
   7 H :   -0.355555
   8 C :    0.557254
   9 H :   -0.373891
  10 H :   -0.376259
  11 H :   -0.355554
  12 H :   -0.270844
  13 H :   -0.270844

  Mayer bond orders larger than 0.100000
B(  0-B ,  1-B ) :   0.9553 B(  0-B ,  3-S ) :   1.3705 B(  0-B , 13-H ) :   0.8001
B(  1-B ,  2-S ) :   1.3705 B(  1-B , 12-H ) :   0.8001 B(  2-S ,  4-C ) :   0.9887
B(  3-S ,  8-C ) :   0.9887 B(  4-C ,  5-H ) :   0.8369 B(  4-C ,  6-H ) :   0.8770
B(  4-C ,  7-H ) :   0.9057 B(  8-C ,  9-H ) :   0.8369 B(  8-C , 10-H ) :   0.8770
B(  8-C , 11-H ) :   0.9057

MP2 TOTAL ENERGY:     -925.930157430 Eh
FINAL SINGLE POINT ENERGY      -925.930157429568

DIPOLE MOMENT
-------------
                                X             Y             Z
Electronic contribution:     -0.00001       0.00013      -4.18219
Nuclear contribution   :      0.00001      -0.00014       4.74543
                        -----------------------------------------
Total Dipole Moment    :      0.00000      -0.00002       0.56324
                        -----------------------------------------
Magnitude (a.u.)       :      0.56324
Magnitude (Debye)      :      1.43164

Rotational constants in cm-1:     0.133803     0.037924     0.037911
Rotational constants in MHz :  4011.311347  1136.940005  1136.531939

                             ****ORCA TERMINATED NORMALLY****
TOTAL RUN TIME: 0 days 1 hours 33 minutes 49 seconds 418 msec
