                         Program Version 5.0.4 -  RELEASE  -
|  1> ! ri-mp2 aug-cc-pvdz aug-cc-pvdz/c tightscf
|  2> %pal nprocs 16 end
|  3> %maxcore 3800
|  4> %base "DZ_S-F_83_AB"
|  5>
|  6> *xyz 0 1
|  7> F         2.907740    0.534242    0.000001
|  8> S         1.783250   -0.666868   -0.000008
|  9> C         0.397359    0.380860   -0.000001
| 10> C        -0.886779   -0.158322    0.000001
| 11> C        -2.037432    0.615975    0.000005
| 12> C        -1.909623    1.982449    0.000007
| 13> C         0.502286    1.774425    0.000001
| 14> H         1.478548    2.231263    0.000000
| 15> C        -0.635434    2.549312    0.000005
| 16> H        -0.531909    3.626247    0.000007
| 17> H        -2.787692    2.611784    0.000010
| 18> N        -0.981819   -1.582262   -0.000002
| 19> O        -2.051747   -2.141170    0.000000
| 20> O         0.105203   -2.174127   -0.000001
| 21> H        -2.997788    0.122432    0.000006
| 22> *
| 23>
| 24> $new_job
| 25> ! ri-mp2 aug-cc-pvtz aug-cc-pvtz/c tightscf
| 26> %pal nprocs 16 end
| 27> %maxcore 3800
| 28> %base "TZ_S-F_83_AB"
| 29>
| 30> *xyz 0 1
| 31> F         2.907740    0.534242    0.000001
| 32> S         1.783250   -0.666868   -0.000008
| 33> C         0.397359    0.380860   -0.000001
| 34> C        -0.886779   -0.158322    0.000001
| 35> C        -2.037432    0.615975    0.000005
| 36> C        -1.909623    1.982449    0.000007
| 37> C         0.502286    1.774425    0.000001
| 38> H         1.478548    2.231263    0.000000
| 39> C        -0.635434    2.549312    0.000005
| 40> H        -0.531909    3.626247    0.000007
| 41> H        -2.787692    2.611784    0.000010
| 42> N        -0.981819   -1.582262   -0.000002
| 43> O        -2.051747   -2.141170    0.000000
| 44> O         0.105203   -2.174127   -0.000001
| 45> H        -2.997788    0.122432    0.000006
| 46> *
| 47>
| 48> $new_job
| 49> ! ri-mp2 aug-cc-pvqz aug-cc-pvqz/c tightscf
| 50> %pal nprocs 16 end
| 51> %maxcore 3800
| 52> %base "QZ_S-F_83_AB"
| 53>
| 54> *xyz 0 1
| 55> F         2.907740    0.534242    0.000001
| 56> S         1.783250   -0.666868   -0.000008
| 57> C         0.397359    0.380860   -0.000001
| 58> C        -0.886779   -0.158322    0.000001
| 59> C        -2.037432    0.615975    0.000005
| 60> C        -1.909623    1.982449    0.000007
| 61> C         0.502286    1.774425    0.000001
| 62> H         1.478548    2.231263    0.000000
| 63> C        -0.635434    2.549312    0.000005
| 64> H        -0.531909    3.626247    0.000007
| 65> H        -2.787692    2.611784    0.000010
| 66> N        -0.981819   -1.582262   -0.000002
| 67> O        -2.051747   -2.141170    0.000000
| 68> O         0.105203   -2.174127   -0.000001
| 69> H        -2.997788    0.122432    0.000006
| 70> *
| 71>
| 72>
| 73>
| 74>
| 75>                          ****END OF INPUT****
 Total Charge           Charge          ....    0
 Multiplicity           Mult            ....    1
 Number of Electrons    NEL             ....   88
MP2 TOTAL ENERGY:     -932.328638411 Eh
FINAL SINGLE POINT ENERGY      -932.328638411328
MP2 TOTAL ENERGY:     -932.826876038 Eh
FINAL SINGLE POINT ENERGY      -932.826876037802

CARTESIAN COORDINATES (ANGSTROEM)
---------------------------------
  F      2.907740    0.534242    0.000001
  S      1.783250   -0.666868   -0.000008
  C      0.397359    0.380860   -0.000001
  C     -0.886779   -0.158322    0.000001
  C     -2.037432    0.615975    0.000005
  C     -1.909623    1.982449    0.000007
  C      0.502286    1.774425    0.000001
  H      1.478548    2.231263    0.000000
  C     -0.635434    2.549312    0.000005
  H     -0.531909    3.626247    0.000007
  H     -2.787692    2.611784    0.000010
  N     -0.981819   -1.582262   -0.000002
  O     -2.051747   -2.141170    0.000000
  O      0.105203   -2.174127   -0.000001
  H     -2.997788    0.122432    0.000006

 Multiplicity           Mult            ....    1
 Number of Electrons    NEL             ....   88
 Basis Dimension        Dim             .... 1068

ORBITAL ENERGIES
----------------

  NO   OCC          E(Eh)            E(eV)
   0   2.0000     -92.053613     -2504.9062
   1   2.0000     -26.295998      -715.5505
   2   2.0000     -20.624578      -561.2233
   3   2.0000     -20.623229      -561.1866
   4   2.0000     -15.872075      -431.9011
   5   2.0000     -11.323897      -308.1389
   6   2.0000     -11.319174      -308.0104
   7   2.0000     -11.286388      -307.1182
   8   2.0000     -11.282239      -307.0053
   9   2.0000     -11.268769      -306.6388
  10   2.0000     -11.267600      -306.6070
  11   2.0000      -9.045886      -246.1511
  12   2.0000      -6.727041      -183.0521
  13   2.0000      -6.724481      -182.9824
  14   2.0000      -6.723151      -182.9462
  15   2.0000      -1.636234       -44.5242
  16   2.0000      -1.597381       -43.4669
  17   2.0000      -1.428668       -38.8760
  18   2.0000      -1.226949       -33.3870
  19   2.0000      -1.119871       -30.4733
  20   2.0000      -1.095383       -29.8069
  21   2.0000      -1.012259       -27.5450
  22   2.0000      -0.949481       -25.8367
  23   2.0000      -0.866125       -23.5685
  24   2.0000      -0.857293       -23.3281
  25   2.0000      -0.794760       -21.6265
  26   2.0000      -0.754672       -20.5357
  27   2.0000      -0.750931       -20.4339
  28   2.0000      -0.723458       -19.6863
  29   2.0000      -0.698100       -18.9963
  30   2.0000      -0.681248       -18.5377
  31   2.0000      -0.679899       -18.5010
  32   2.0000      -0.658394       -17.9158
  33   2.0000      -0.637172       -17.3383
  34   2.0000      -0.583585       -15.8802
  35   2.0000      -0.561342       -15.2749
  36   2.0000      -0.553959       -15.0740
  37   2.0000      -0.539039       -14.6680
  38   2.0000      -0.518917       -14.1204
  39   2.0000      -0.494805       -13.4643
  40   2.0000      -0.488967       -13.3055
  41   2.0000      -0.436030       -11.8650
  42   2.0000      -0.393176       -10.6989
  43   2.0000      -0.337991        -9.1972
  44   0.0000       0.017215         0.4684
  45   0.0000       0.018749         0.5102
  46   0.0000       0.026635         0.7248
  47   0.0000       0.035094         0.9549
  48   0.0000       0.046182         1.2567

MULLIKEN ATOMIC CHARGES
-----------------------
   0 F :   -0.732927
   1 S :    0.765846
   2 C :    0.115780
   3 C :    0.001132
   4 C :   -0.216063
   5 C :   -0.228744
   6 C :   -0.244668
   7 H :    0.345473
   8 C :   -0.232050
   9 H :    0.228881
  10 H :    0.281137
  11 N :    0.794585
  12 O :   -0.592934
  13 O :   -0.639666
  14 H :    0.354219
Sum of atomic charges:   -0.0000000

LOEWDIN ATOMIC CHARGES
----------------------
   0 F :    0.141065
   1 S :    0.713783
   2 C :   -0.567293
   3 C :   -0.439336
   4 C :    0.322780
   5 C :    0.365277
   6 C :    0.256682
   7 H :   -0.402729
   8 C :    0.357713
   9 H :   -0.307233
  10 H :   -0.317534
  11 N :   -0.819442
  12 O :    0.583448
  13 O :    0.447201
  14 H :   -0.334385

  Mayer bond orders larger than 0.100000
B(  0-F ,  1-S ) :   0.5146 B(  0-F ,  2-C ) :  -0.2499 B(  1-S ,  2-C ) :   0.8873
B(  1-S ,  6-C ) :  -0.1076 B(  1-S , 13-O ) :   0.2127 B(  2-C ,  3-C ) :   1.2082
B(  2-C ,  6-C ) :   1.0884 B(  2-C ,  8-C ) :  -0.1639 B(  2-C , 11-N ) :  -0.1020
B(  3-C ,  4-C ) :   1.1516 B(  3-C ,  5-C ) :  -0.2416 B(  3-C , 11-N ) :   0.7671
B(  3-C , 12-O ) :   0.1670 B(  3-C , 13-O ) :   0.1573 B(  4-C ,  5-C ) :   1.2602
B(  4-C ,  6-C ) :   0.1039 B(  4-C , 10-H ) :  -0.1215 B(  4-C , 14-H ) :   0.8739
B(  5-C ,  8-C ) :   1.1195 B(  5-C , 10-H ) :   1.0674 B(  6-C ,  7-H ) :   0.8608
B(  6-C ,  8-C ) :   1.1346 B(  6-C ,  9-H ) :  -0.1627 B(  8-C ,  9-H ) :   1.1491
B( 11-N , 12-O ) :   1.2371 B( 11-N , 13-O ) :   1.0672

MP2 TOTAL ENERGY:     -932.992488834 Eh
FINAL SINGLE POINT ENERGY      -932.992488833806

DIPOLE MOMENT
-------------
                                X             Y             Z
Electronic contribution:      6.57788      -5.97153      -0.00002
Nuclear contribution   :     -7.44645       7.64250       0.00002
                        -----------------------------------------
Total Dipole Moment    :     -0.86857       1.67096      -0.00000
                        -----------------------------------------
Magnitude (a.u.)       :      1.88323
Magnitude (Debye)      :      4.78678

Rotational constants in cm-1:     0.042422     0.035390     0.019294
Rotational constants in MHz :  1271.777208  1060.957909   578.420618

                             ****ORCA TERMINATED NORMALLY****
TOTAL RUN TIME: 0 days 0 hours 35 minutes 6 seconds 948 msec
