                         Program Version 5.0.4 -  RELEASE  -
|  1> ! ri-mp2 aug-cc-pvdz aug-cc-pvdz/c tightscf
|  2> %pal nprocs 16 end
|  3> %maxcore 3800
|  4> %base "DZ_Si-Si_150_AB"
|  5> %scf
|  6> STABPerform true
|  7> STABRestartUHFifUnstable true
|  8> end
|  9>
| 10> *xyz 0 1
| 11> Si         2.787518    0.248775    0.000002
| 12> Si         0.881705   -1.096296    0.000019
| 13> B        -0.782079    0.072333   -0.000026
| 14> H         0.906469   -1.991079    1.186942
| 15> H         0.906508   -1.991148   -1.186853
| 16> H         2.807196    1.112540   -1.202089
| 17> H         4.023164   -0.569536    0.000036
| 18> O        -2.069152   -0.354139   -0.000043
| 19> O        -0.551463    1.408085   -0.000015
| 20> C        -2.466657   -1.709137    0.000038
| 21> H        -3.070557   -1.901803   -0.886152
| 22> H        -3.068966   -1.902243    0.887220
| 23> H        -1.610508   -2.385568   -0.000906
| 24> C        -1.620762    2.344183   -0.000018
| 25> H        -1.181191    3.338612    0.000018
| 26> H        -2.244311    2.219685    0.885331
| 27> H        -2.244262    2.219730   -0.885409
| 28> H         2.807172    1.112602    1.202048
| 29> *
| 30>
| 31> $new_job
| 32> ! ri-mp2 aug-cc-pvtz aug-cc-pvtz/c tightscf
| 33> %pal nprocs 16 end
| 34> %maxcore 3800
| 35> %base "TZ_Si-Si_150_AB"
| 36>
| 37> *xyz 0 1
| 38> Si         2.787518    0.248775    0.000002
| 39> Si         0.881705   -1.096296    0.000019
| 40> B        -0.782079    0.072333   -0.000026
| 41> H         0.906469   -1.991079    1.186942
| 42> H         0.906508   -1.991148   -1.186853
| 43> H         2.807196    1.112540   -1.202089
| 44> H         4.023164   -0.569536    0.000036
| 45> O        -2.069152   -0.354139   -0.000043
| 46> O        -0.551463    1.408085   -0.000015
| 47> C        -2.466657   -1.709137    0.000038
| 48> H        -3.070557   -1.901803   -0.886152
| 49> H        -3.068966   -1.902243    0.887220
| 50> H        -1.610508   -2.385568   -0.000906
| 51> C        -1.620762    2.344183   -0.000018
| 52> H        -1.181191    3.338612    0.000018
| 53> H        -2.244311    2.219685    0.885331
| 54> H        -2.244262    2.219730   -0.885409
| 55> H         2.807172    1.112602    1.202048
| 56> *
| 57>
| 58> $new_job
| 59> ! ri-mp2 aug-cc-pvqz aug-cc-pvqz/c tightscf
| 60> %pal nprocs 16 end
| 61> %maxcore 3800
| 62> %base "QZ_Si-Si_150_AB"
| 63>
| 64> *xyz 0 1
| 65> Si         2.787518    0.248775    0.000002
| 66> Si         0.881705   -1.096296    0.000019
| 67> B        -0.782079    0.072333   -0.000026
| 68> H         0.906469   -1.991079    1.186942
| 69> H         0.906508   -1.991148   -1.186853
| 70> H         2.807196    1.112540   -1.202089
| 71> H         4.023164   -0.569536    0.000036
| 72> O        -2.069152   -0.354139   -0.000043
| 73> O        -0.551463    1.408085   -0.000015
| 74> C        -2.466657   -1.709137    0.000038
| 75> H        -3.070557   -1.901803   -0.886152
| 76> H        -3.068966   -1.902243    0.887220
| 77> H        -1.610508   -2.385568   -0.000906
| 78> C        -1.620762    2.344183   -0.000018
| 79> H        -1.181191    3.338612    0.000018
| 80> H        -2.244311    2.219685    0.885331
| 81> H        -2.244262    2.219730   -0.885409
| 82> H         2.807172    1.112602    1.202048
| 83> *
| 84>
| 85>
| 86>
| 87>
| 88>                          ****END OF INPUT****
 Total Charge           Charge          ....    0
 Multiplicity           Mult            ....    1
 Number of Electrons    NEL             ....   72
MP2 TOTAL ENERGY:     -835.500705424 Eh
FINAL SINGLE POINT ENERGY      -835.500705424444
MP2 TOTAL ENERGY:     -835.806402264 Eh
FINAL SINGLE POINT ENERGY      -835.806402263704

CARTESIAN COORDINATES (ANGSTROEM)
---------------------------------
  Si     2.787518    0.248775    0.000002
  Si     0.881705   -1.096296    0.000019
  B     -0.782079    0.072333   -0.000026
  H      0.906469   -1.991079    1.186942
  H      0.906508   -1.991148   -1.186853
  H      2.807196    1.112540   -1.202089
  H      4.023164   -0.569536    0.000036
  O     -2.069152   -0.354139   -0.000043
  O     -0.551463    1.408085   -0.000015
  C     -2.466657   -1.709137    0.000038
  H     -3.070557   -1.901803   -0.886152
  H     -3.068966   -1.902243    0.887220
  H     -1.610508   -2.385568   -0.000906
  C     -1.620762    2.344183   -0.000018
  H     -1.181191    3.338612    0.000018
  H     -2.244311    2.219685    0.885331
  H     -2.244262    2.219730   -0.885409
  H      2.807172    1.112602    1.202048

 Multiplicity           Mult            ....    1
 Number of Electrons    NEL             ....   72
 Basis Dimension        Dim             .... 1074

ORBITAL ENERGIES
----------------

  NO   OCC          E(Eh)            E(eV)
   0   2.0000     -68.754957     -1870.9175
   1   2.0000     -68.747124     -1870.7044
   2   2.0000     -20.567713      -559.6759
   3   2.0000     -20.560252      -559.4729
   4   2.0000     -11.285971      -307.1069
   5   2.0000     -11.273589      -306.7699
   6   2.0000      -7.634915      -207.7566
   7   2.0000      -6.105684      -166.1441
   8   2.0000      -6.099646      -165.9798
   9   2.0000      -4.211768      -114.6080
  10   2.0000      -4.211746      -114.6074
  11   2.0000      -4.211744      -114.6074
  12   2.0000      -4.205738      -114.4440
  13   2.0000      -4.205725      -114.4436
  14   2.0000      -4.205293      -114.4318
  15   2.0000      -1.396320       -37.9958
  16   2.0000      -1.357582       -36.9417
  17   2.0000      -0.953895       -25.9568
  18   2.0000      -0.939353       -25.5611
  19   2.0000      -0.756968       -20.5981
  20   2.0000      -0.726468       -19.7682
  21   2.0000      -0.688633       -18.7386
  22   2.0000      -0.671169       -18.2634
  23   2.0000      -0.653826       -17.7915
  24   2.0000      -0.630723       -17.1628
  25   2.0000      -0.623963       -16.9789
  26   2.0000      -0.601711       -16.3734
  27   2.0000      -0.518403       -14.1065
  28   2.0000      -0.500227       -13.6119
  29   2.0000      -0.499658       -13.5964
  30   2.0000      -0.484072       -13.1723
  31   2.0000      -0.473257       -12.8780
  32   2.0000      -0.459991       -12.5170
  33   2.0000      -0.453795       -12.3484
  34   2.0000      -0.417305       -11.3554
  35   2.0000      -0.382765       -10.4156
  36   0.0000       0.023452         0.6382
  37   0.0000       0.030213         0.8221
  38   0.0000       0.030934         0.8418
  39   0.0000       0.034564         0.9405
  40   0.0000       0.041547         1.1305

MULLIKEN ATOMIC CHARGES
-----------------------
   0 Si:    0.513615
   1 Si:    0.495151
   2 B :    1.548463
   3 H :   -0.204359
   4 H :   -0.204304
   5 H :   -0.150769
   6 H :   -0.228480
   7 O :   -1.193544
   8 O :   -1.139652
   9 C :   -0.727288
  10 H :    0.353259
  11 H :    0.353131
  12 H :    0.280627
  13 C :   -0.698699
  14 H :    0.499916
  15 H :    0.326849
  16 H :    0.326865
  17 H :   -0.150781
Sum of atomic charges:   -0.0000000

LOEWDIN ATOMIC CHARGES
----------------------
   0 Si:    1.020435
   1 Si:    0.814674
   2 B :   -1.413218
   3 H :   -0.272664
   4 H :   -0.272661
   5 H :   -0.306685
   6 H :   -0.319085
   7 O :    0.919474
   8 O :    0.874252
   9 C :    0.571385
  10 H :   -0.299668
  11 H :   -0.299643
  12 H :   -0.365143
  13 C :    0.579016
  14 H :   -0.314114
  15 H :   -0.304836
  16 H :   -0.304833
  17 H :   -0.306685

  Mayer bond orders larger than 0.100000
B(  0-Si,  1-Si) :   0.7193 B(  0-Si,  5-H ) :   0.7723 B(  0-Si,  6-H ) :   0.7768
B(  0-Si, 17-H ) :   0.7723 B(  1-Si,  2-B ) :   0.7673 B(  1-Si,  3-H ) :   0.8077
B(  1-Si,  4-H ) :   0.8077 B(  1-Si,  8-O ) :  -0.1180 B(  2-B ,  7-O ) :   0.2261
B(  2-B ,  8-O ) :   0.1439 B(  7-O ,  9-C ) :   0.9484 B(  8-O , 13-C ) :   0.9316
B(  9-C , 10-H ) :   0.8849 B(  9-C , 11-H ) :   0.8849 B(  9-C , 12-H ) :   0.8861
B( 13-C , 14-H ) :   0.7493 B( 13-C , 15-H ) :   0.8883 B( 13-C , 16-H ) :   0.8883

MP2 TOTAL ENERGY:     -835.902760387 Eh
FINAL SINGLE POINT ENERGY      -835.902760386954

DIPOLE MOMENT
-------------
                                X             Y             Z
Electronic contribution:      0.73162       0.54614      -0.00018
Nuclear contribution   :     -1.61667      -0.73458       0.00021
                        -----------------------------------------
Total Dipole Moment    :     -0.88505      -0.18843       0.00003
                        -----------------------------------------
Magnitude (a.u.)       :      0.90489
Magnitude (Debye)      :      2.30005

Rotational constants in cm-1:     0.075163     0.033673     0.023842
Rotational constants in MHz :  2253.344369  1009.504363   714.757336

                             ****ORCA TERMINATED NORMALLY****
TOTAL RUN TIME: 0 days 2 hours 33 minutes 8 seconds 28 msec
