                         Program Version 5.0.4 -  RELEASE  -
|  1> ! ri-mp2 aug-cc-pvdz aug-cc-pvdz/c tightscf
|  2> %pal nprocs 16 end
|  3> %maxcore 3800
|  4> %base "DZ_Si-Si_10_AB"
|  5> %scf
|  6> STABPerform true
|  7> STABRestartUHFifUnstable true
|  8> end
|  9>
| 10> *xyz 0 1
| 11> Si         1.323560    0.000000   -0.409281
| 12> Si        -0.976985    0.000000    0.002503
| 13> F        -1.658712    1.271787   -0.635426
| 14> F         1.946259   -1.283645    0.281539
| 15> F        -1.303222   -0.000011    1.543733
| 16> F         1.946259    1.283644    0.281539
| 17> F        -1.658714   -1.271775   -0.635446
| 18> H         1.701110    0.000000   -1.828552
| 19> *
| 20>
| 21> $new_job
| 22> ! ri-mp2 aug-cc-pvtz aug-cc-pvtz/c tightscf
| 23> %pal nprocs 16 end
| 24> %maxcore 3800
| 25> %base "TZ_Si-Si_10_AB"
| 26>
| 27> *xyz 0 1
| 28> Si         1.323560    0.000000   -0.409281
| 29> Si        -0.976985    0.000000    0.002503
| 30> F        -1.658712    1.271787   -0.635426
| 31> F         1.946259   -1.283645    0.281539
| 32> F        -1.303222   -0.000011    1.543733
| 33> F         1.946259    1.283644    0.281539
| 34> F        -1.658714   -1.271775   -0.635446
| 35> H         1.701110    0.000000   -1.828552
| 36> *
| 37>
| 38> $new_job
| 39> ! ri-mp2 aug-cc-pvqz aug-cc-pvqz/c tightscf
| 40> %pal nprocs 16 end
| 41> %maxcore 3800
| 42> %base "QZ_Si-Si_10_AB"
| 43>
| 44> *xyz 0 1
| 45> Si         1.323560    0.000000   -0.409281
| 46> Si        -0.976985    0.000000    0.002503
| 47> F        -1.658712    1.271787   -0.635426
| 48> F         1.946259   -1.283645    0.281539
| 49> F        -1.303222   -0.000011    1.543733
| 50> F         1.946259    1.283644    0.281539
| 51> F        -1.658714   -1.271775   -0.635446
| 52> H         1.701110    0.000000   -1.828552
| 53> *
| 54>
| 55>
| 56>
| 57>
| 58>                          ****END OF INPUT****
 Total Charge           Charge          ....    0
 Multiplicity           Mult            ....    1
 Number of Electrons    NEL             ....   74
MP2 TOTAL ENERGY:    -1077.220609320 Eh
FINAL SINGLE POINT ENERGY     -1077.220609319535
MP2 TOTAL ENERGY:    -1077.734235824 Eh
FINAL SINGLE POINT ENERGY     -1077.734235823571

CARTESIAN COORDINATES (ANGSTROEM)
---------------------------------
  Si     1.323560    0.000000   -0.409281
  Si    -0.976985    0.000000    0.002503
  F     -1.658712    1.271787   -0.635426
  F      1.946259   -1.283645    0.281539
  F     -1.303222   -0.000011    1.543733
  F      1.946259    1.283644    0.281539
  F     -1.658714   -1.271775   -0.635446
  H      1.701110    0.000000   -1.828552

 Multiplicity           Mult            ....    1
 Number of Electrons    NEL             ....   74
 Basis Dimension        Dim             ....  614

ORBITAL ENERGIES
----------------

  NO   OCC          E(Eh)            E(eV)
   0   2.0000     -68.899821     -1874.8594
   1   2.0000     -68.877953     -1874.2644
   2   2.0000     -26.324780      -716.3337
   3   2.0000     -26.324771      -716.3334
   4   2.0000     -26.324171      -716.3171
   5   2.0000     -26.319335      -716.1855
   6   2.0000     -26.319327      -716.1853
   7   2.0000      -6.235093      -169.6655
   8   2.0000      -6.217176      -169.1780
   9   2.0000      -4.343576      -118.1947
  10   2.0000      -4.343561      -118.1943
  11   2.0000      -4.342057      -118.1534
  12   2.0000      -4.325150      -117.6933
  13   2.0000      -4.324447      -117.6742
  14   2.0000      -4.323589      -117.6508
  15   2.0000      -1.649714       -44.8910
  16   2.0000      -1.633388       -44.4467
  17   2.0000      -1.621663       -44.1277
  18   2.0000      -1.621413       -44.1209
  19   2.0000      -1.615194       -43.9517
  20   2.0000      -0.847409       -23.0592
  21   2.0000      -0.817384       -22.2421
  22   2.0000      -0.760669       -20.6989
  23   2.0000      -0.760459       -20.6931
  24   2.0000      -0.743705       -20.2372
  25   2.0000      -0.743674       -20.2364
  26   2.0000      -0.722971       -19.6730
  27   2.0000      -0.711724       -19.3670
  28   2.0000      -0.709363       -19.3027
  29   2.0000      -0.709303       -19.3011
  30   2.0000      -0.689909       -18.7734
  31   2.0000      -0.682552       -18.5732
  32   2.0000      -0.682468       -18.5709
  33   2.0000      -0.671259       -18.2659
  34   2.0000      -0.666148       -18.1268
  35   2.0000      -0.598181       -16.2773
  36   2.0000      -0.478651       -13.0248
  37   0.0000       0.027890         0.7589
  38   0.0000       0.031636         0.8609
  39   0.0000       0.036115         0.9827
  40   0.0000       0.037686         1.0255
  41   0.0000       0.053789         1.4637

MULLIKEN ATOMIC CHARGES
-----------------------
   0 Si:    1.510240
   1 Si:    2.122374
   2 F :   -0.698605
   3 F :   -0.681353
   4 F :   -0.701436
   5 F :   -0.681353
   6 F :   -0.698604
   7 H :   -0.171264
Sum of atomic charges:    0.0000000

LOEWDIN ATOMIC CHARGES
----------------------
   0 Si:   -0.438776
   1 Si:   -1.251713
   2 F :    0.401593
   3 F :    0.387162
   4 F :    0.407044
   5 F :    0.387163
   6 F :    0.401594
   7 H :   -0.294068

  Mayer bond orders larger than 0.100000
B(  0-Si,  1-Si) :   0.9982 B(  0-Si,  3-F ) :   0.4116 B(  0-Si,  5-F ) :   0.4116
B(  0-Si,  7-H ) :   0.9459 B(  1-Si,  2-F ) :   0.4398 B(  1-Si,  4-F ) :   0.4406
B(  1-Si,  6-F ) :   0.4398

MP2 TOTAL ENERGY:    -1077.906962162 Eh
FINAL SINGLE POINT ENERGY     -1077.906962162482

DIPOLE MOMENT
-------------
                                X             Y             Z
Electronic contribution:     -1.92925      -0.00000       1.82649
Nuclear contribution   :      2.19116      -0.00000      -2.40146
                        -----------------------------------------
Total Dipole Moment    :      0.26192      -0.00000      -0.57497
                        -----------------------------------------
Magnitude (a.u.)       :      0.63181
Magnitude (Debye)      :      1.60594

Rotational constants in cm-1:     0.086158     0.039088     0.034848
Rotational constants in MHz :  2582.966680  1171.816049  1044.718317

                             ****ORCA TERMINATED NORMALLY****
TOTAL RUN TIME: 0 days 0 hours 13 minutes 26 seconds 343 msec
