                         Program Version 5.0.4 -  RELEASE  -
|  1> ! ri-mp2 aug-cc-pvdz aug-cc-pvdz/c tightscf
|  2> %pal nprocs 16 end
|  3> %maxcore 3800
|  4> %base "DZ_P-C_11_AB"
|  5> %scf
|  6> STABPerform true
|  7> STABRestartUHFifUnstable true
|  8> end
|  9>
| 10> *xyz 0 1
| 11> C         1.076820   -0.000004   -0.438729
| 12> P        -0.639946   -0.000013    0.089907
| 13> O        -0.917895    0.000021    1.529257
| 14> O        -1.249522   -1.263561   -0.674858
| 15> C         1.780415   -1.264695    0.048587
| 16> H         1.304925   -2.164737   -0.337804
| 17> H         1.773782   -1.313974    1.137909
| 18> C         1.780365    1.264745    0.048511
| 19> H         1.049206   -0.000035   -1.532115
| 20> H         1.773729    1.314092    1.137830
| 21> H         1.304846    2.164746   -0.337940
| 22> H         2.819106    1.260083   -0.282701
| 23> H         2.819155   -1.260014   -0.282629
| 24> O        -1.249631    1.263487   -0.674869
| 25> H        -1.867238    1.751858   -0.118695
| 26> H        -1.867536   -1.751670   -0.118905
| 27> *
| 28>
| 29> $new_job
| 30> ! ri-mp2 aug-cc-pvtz aug-cc-pvtz/c tightscf
| 31> %pal nprocs 16 end
| 32> %maxcore 3800
| 33> %base "TZ_P-C_11_AB"
| 34>
| 35> *xyz 0 1
| 36> C         1.076820   -0.000004   -0.438729
| 37> P        -0.639946   -0.000013    0.089907
| 38> O        -0.917895    0.000021    1.529257
| 39> O        -1.249522   -1.263561   -0.674858
| 40> C         1.780415   -1.264695    0.048587
| 41> H         1.304925   -2.164737   -0.337804
| 42> H         1.773782   -1.313974    1.137909
| 43> C         1.780365    1.264745    0.048511
| 44> H         1.049206   -0.000035   -1.532115
| 45> H         1.773729    1.314092    1.137830
| 46> H         1.304846    2.164746   -0.337940
| 47> H         2.819106    1.260083   -0.282701
| 48> H         2.819155   -1.260014   -0.282629
| 49> O        -1.249631    1.263487   -0.674869
| 50> H        -1.867238    1.751858   -0.118695
| 51> H        -1.867536   -1.751670   -0.118905
| 52> *
| 53>
| 54> $new_job
| 55> ! ri-mp2 aug-cc-pvqz aug-cc-pvqz/c tightscf
| 56> %pal nprocs 16 end
| 57> %maxcore 3800
| 58> %base "QZ_P-C_11_AB"
| 59>
| 60> *xyz 0 1
| 61> C         1.076820   -0.000004   -0.438729
| 62> P        -0.639946   -0.000013    0.089907
| 63> O        -0.917895    0.000021    1.529257
| 64> O        -1.249522   -1.263561   -0.674858
| 65> C         1.780415   -1.264695    0.048587
| 66> H         1.304925   -2.164737   -0.337804
| 67> H         1.773782   -1.313974    1.137909
| 68> C         1.780365    1.264745    0.048511
| 69> H         1.049206   -0.000035   -1.532115
| 70> H         1.773729    1.314092    1.137830
| 71> H         1.304846    2.164746   -0.337940
| 72> H         2.819106    1.260083   -0.282701
| 73> H         2.819155   -1.260014   -0.282629
| 74> O        -1.249631    1.263487   -0.674869
| 75> H        -1.867238    1.751858   -0.118695
| 76> H        -1.867536   -1.751670   -0.118905
| 77> *
| 78>
| 79>
| 80>
| 81>
| 82>                          ****END OF INPUT****
 Total Charge           Charge          ....    0
 Multiplicity           Mult            ....    1
 Number of Electrons    NEL             ....   66
MP2 TOTAL ENERGY:     -685.485717134 Eh
FINAL SINGLE POINT ENERGY      -685.485717133912
MP2 TOTAL ENERGY:     -685.869442379 Eh
FINAL SINGLE POINT ENERGY      -685.869442379361

CARTESIAN COORDINATES (ANGSTROEM)
---------------------------------
  C      1.076820   -0.000004   -0.438729
  P     -0.639946   -0.000013    0.089907
  O     -0.917895    0.000021    1.529257
  O     -1.249522   -1.263561   -0.674858
  C      1.780415   -1.264695    0.048587
  H      1.304925   -2.164737   -0.337804
  H      1.773782   -1.313974    1.137909
  C      1.780365    1.264745    0.048511
  H      1.049206   -0.000035   -1.532115
  H      1.773729    1.314092    1.137830
  H      1.304846    2.164746   -0.337940
  H      2.819106    1.260083   -0.282701
  H      2.819155   -1.260014   -0.282629
  O     -1.249631    1.263487   -0.674869
  H     -1.867238    1.751858   -0.118695
  H     -1.867536   -1.751670   -0.118905

 Multiplicity           Mult            ....    1
 Number of Electrons    NEL             ....   66
 Basis Dimension        Dim             ....  978

ORBITAL ENERGIES
----------------

  NO   OCC          E(Eh)            E(eV)
   0   2.0000     -80.059593     -2178.5323
   1   2.0000     -20.593768      -560.3849
   2   2.0000     -20.593754      -560.3845
   3   2.0000     -20.501341      -557.8699
   4   2.0000     -11.244336      -305.9739
   5   2.0000     -11.225288      -305.4556
   6   2.0000     -11.225268      -305.4551
   7   2.0000      -7.583287      -206.3517
   8   2.0000      -5.481393      -149.1563
   9   2.0000      -5.480843      -149.1413
  10   2.0000      -5.479729      -149.1110
  11   2.0000      -1.431775       -38.9606
  12   2.0000      -1.381830       -37.6015
  13   2.0000      -1.293571       -35.1998
  14   2.0000      -1.086925       -29.5767
  15   2.0000      -0.945444       -25.7268
  16   2.0000      -0.881813       -23.9953
  17   2.0000      -0.786804       -21.4100
  18   2.0000      -0.737386       -20.0653
  19   2.0000      -0.682748       -18.5785
  20   2.0000      -0.663544       -18.0559
  21   2.0000      -0.630915       -17.1681
  22   2.0000      -0.626865       -17.0579
  23   2.0000      -0.579721       -15.7750
  24   2.0000      -0.577407       -15.7120
  25   2.0000      -0.553349       -15.0574
  26   2.0000      -0.549390       -14.9496
  27   2.0000      -0.527567       -14.3558
  28   2.0000      -0.499048       -13.5798
  29   2.0000      -0.497826       -13.5465
  30   2.0000      -0.495869       -13.4933
  31   2.0000      -0.462173       -12.5764
  32   2.0000      -0.440683       -11.9916
  33   0.0000       0.024238         0.6596
  34   0.0000       0.030921         0.8414
  35   0.0000       0.030959         0.8424
  36   0.0000       0.038158         1.0383
  37   0.0000       0.046611         1.2684

MULLIKEN ATOMIC CHARGES
-----------------------
   0 C :    0.031672
   1 P :    2.540189
   2 O :   -1.256558
   3 O :   -1.009746
   4 C :   -0.965963
   5 H :    0.258233
   6 H :    0.234698
   7 C :   -0.965962
   8 H :    0.313754
   9 H :    0.234690
  10 H :    0.258251
  11 H :    0.292526
  12 H :    0.292534
  13 O :   -1.009753
  14 H :    0.375721
  15 H :    0.375715
Sum of atomic charges:    0.0000000

LOEWDIN ATOMIC CHARGES
----------------------
   0 C :    0.045601
   1 P :   -0.650096
   2 O :    0.342016
   3 O :    1.121097
   4 C :    0.877518
   5 H :   -0.289600
   6 H :   -0.283230
   7 C :    0.877515
   8 H :   -0.319755
   9 H :   -0.283230
  10 H :   -0.289600
  11 H :   -0.276357
  12 H :   -0.276357
  13 O :    1.121096
  14 H :   -0.858323
  15 H :   -0.858296

  Mayer bond orders larger than 0.100000
B(  0-C ,  1-P ) :   0.8229 B(  0-C ,  3-O ) :  -0.1963 B(  0-C ,  4-C ) :   0.7329
B(  0-C ,  7-C ) :   0.7329 B(  0-C ,  8-H ) :   0.8705 B(  0-C , 13-O ) :  -0.1962
B(  1-P ,  2-O ) :   1.2686 B(  1-P ,  3-O ) :   0.5513 B(  1-P , 13-O ) :   0.5512
B(  3-O , 15-H ) :   0.9356 B(  4-C ,  5-H ) :   0.9787 B(  4-C ,  6-H ) :   0.9657
B(  4-C , 12-H ) :   0.9680 B(  7-C ,  9-H ) :   0.9657 B(  7-C , 10-H ) :   0.9787
B(  7-C , 11-H ) :   0.9680 B( 13-O , 14-H ) :   0.9355

MP2 TOTAL ENERGY:     -685.991676280 Eh
FINAL SINGLE POINT ENERGY      -685.991676279783

DIPOLE MOMENT
-------------
                                X             Y             Z
Electronic contribution:     -9.49720      -0.00025       0.19592
Nuclear contribution   :      9.65598       0.00036      -0.81703
                        -----------------------------------------
Total Dipole Moment    :      0.15878       0.00011      -0.62111
                        -----------------------------------------
Magnitude (a.u.)       :      0.64109
Magnitude (Debye)      :      1.62951

Rotational constants in cm-1:     0.098112     0.064989     0.054167
Rotational constants in MHz :  2941.312766  1948.327072  1623.877468

                             ****ORCA TERMINATED NORMALLY****
TOTAL RUN TIME: 0 days 2 hours 28 minutes 48 seconds 227 msec
