                         Program Version 5.0.4 -  RELEASE  -
|  1> ! ri-mp2 aug-cc-pvdz aug-cc-pvdz/c tightscf
|  2> %pal nprocs 16 end
|  3> %maxcore 3800
|  4> %base "DZ_P-Si_40_AB"
|  5>
|  6> *xyz 0 1
|  7> P         0.119113   -1.016595   -0.372355
|  8> Si         1.846900    0.332453    0.204755
|  9> N        -1.207807    0.200389   -0.010039
| 10> O        -1.022919    1.328388   -0.425614
| 11> O        -2.206414   -0.183836    0.549047
| 12> H        -0.011026   -1.679704    0.864724
| 13> H         2.161683    1.201076   -0.940080
| 14> H         2.966340   -0.598839    0.463653
| 15> H         1.529034    1.112907    1.413265
| 16> *
| 17>
| 18> $new_job
| 19> ! ri-mp2 aug-cc-pvtz aug-cc-pvtz/c tightscf
| 20> %pal nprocs 16 end
| 21> %maxcore 3800
| 22> %base "TZ_P-Si_40_AB"
| 23>
| 24> *xyz 0 1
| 25> P         0.119113   -1.016595   -0.372355
| 26> Si         1.846900    0.332453    0.204755
| 27> N        -1.207807    0.200389   -0.010039
| 28> O        -1.022919    1.328388   -0.425614
| 29> O        -2.206414   -0.183836    0.549047
| 30> H        -0.011026   -1.679704    0.864724
| 31> H         2.161683    1.201076   -0.940080
| 32> H         2.966340   -0.598839    0.463653
| 33> H         1.529034    1.112907    1.413265
| 34> *
| 35>
| 36> $new_job
| 37> ! ri-mp2 aug-cc-pvqz aug-cc-pvqz/c tightscf
| 38> %pal nprocs 16 end
| 39> %maxcore 3800
| 40> %base "QZ_P-Si_40_AB"
| 41>
| 42> *xyz 0 1
| 43> P         0.119113   -1.016595   -0.372355
| 44> Si         1.846900    0.332453    0.204755
| 45> N        -1.207807    0.200389   -0.010039
| 46> O        -1.022919    1.328388   -0.425614
| 47> O        -2.206414   -0.183836    0.549047
| 48> H        -0.011026   -1.679704    0.864724
| 49> H         2.161683    1.201076   -0.940080
| 50> H         2.966340   -0.598839    0.463653
| 51> H         1.529034    1.112907    1.413265
| 52> *
| 53>
| 54>
| 55>
| 56>
| 57>                          ****END OF INPUT****
 Total Charge           Charge          ....    0
 Multiplicity           Mult            ....    1
 Number of Electrons    NEL             ....   56
MP2 TOTAL ENERGY:     -836.895157404 Eh
FINAL SINGLE POINT ENERGY      -836.895157403532
MP2 TOTAL ENERGY:     -837.140677302 Eh
FINAL SINGLE POINT ENERGY      -837.140677301515

CARTESIAN COORDINATES (ANGSTROEM)
---------------------------------
  P      0.119113   -1.016595   -0.372355
  Si     1.846900    0.332453    0.204755
  N     -1.207807    0.200389   -0.010039
  O     -1.022919    1.328388   -0.425614
  O     -2.206414   -0.183836    0.549047
  H     -0.011026   -1.679704    0.864724
  H      2.161683    1.201076   -0.940080
  H      2.966340   -0.598839    0.463653
  H      1.529034    1.112907    1.413265

 Multiplicity           Mult            ....    1
 Number of Electrons    NEL             ....   56
 Basis Dimension        Dim             ....  592

ORBITAL ENERGIES
----------------

  NO   OCC          E(Eh)            E(eV)
   0   2.0000     -80.006769     -2177.0949
   1   2.0000     -68.808999     -1872.3881
   2   2.0000     -20.608786      -560.7936
   3   2.0000     -20.604900      -560.6878
   4   2.0000     -15.840737      -431.0484
   5   2.0000      -7.548580      -205.4073
   6   2.0000      -6.158520      -167.5819
   7   2.0000      -5.442274      -148.0918
   8   2.0000      -5.441147      -148.0611
   9   2.0000      -5.440562      -148.0452
  10   2.0000      -4.265026      -116.0573
  11   2.0000      -4.264455      -116.0417
  12   2.0000      -4.264209      -116.0350
  13   2.0000      -1.613543       -43.9067
  14   2.0000      -1.410999       -38.3952
  15   2.0000      -1.006901       -27.3992
  16   2.0000      -0.845568       -23.0091
  17   2.0000      -0.760664       -20.6987
  18   2.0000      -0.732895       -19.9431
  19   2.0000      -0.720348       -19.6017
  20   2.0000      -0.702442       -19.1144
  21   2.0000      -0.545658       -14.8481
  22   2.0000      -0.521965       -14.2034
  23   2.0000      -0.510356       -13.8875
  24   2.0000      -0.492444       -13.4001
  25   2.0000      -0.465312       -12.6618
  26   2.0000      -0.459983       -12.5168
  27   2.0000      -0.408629       -11.1194
  28   0.0000       0.019517         0.5311
  29   0.0000       0.029069         0.7910
  30   0.0000       0.032977         0.8973
  31   0.0000       0.044202         1.2028
  32   0.0000       0.052088         1.4174

MULLIKEN ATOMIC CHARGES
-----------------------
   0 P :    0.412826
   1 Si:    0.537176
   2 N :    0.612943
   3 O :   -0.584501
   4 O :   -0.557994
   5 H :   -0.033777
   6 H :   -0.107808
   7 H :   -0.173456
   8 H :   -0.105409
Sum of atomic charges:   -0.0000000

LOEWDIN ATOMIC CHARGES
----------------------
   0 P :    0.950208
   1 Si:    0.840826
   2 N :   -1.181038
   3 O :    0.407485
   4 O :    0.421888
   5 H :   -0.525650
   6 H :   -0.306528
   7 H :   -0.315453
   8 H :   -0.291739

  Mayer bond orders larger than 0.100000
B(  0-P ,  1-Si) :   0.7986 B(  0-P ,  2-N ) :   0.6174 B(  0-P ,  5-H ) :   0.9294
B(  1-Si,  6-H ) :   0.7793 B(  1-Si,  7-H ) :   0.7721 B(  1-Si,  8-H ) :   0.7693
B(  2-N ,  3-O ) :   1.3419 B(  2-N ,  4-O ) :   1.3669 B(  3-O ,  4-O ) :   0.1473

MP2 TOTAL ENERGY:     -837.223656984 Eh
FINAL SINGLE POINT ENERGY      -837.223656984425

DIPOLE MOMENT
-------------
                                X             Y             Z
Electronic contribution:     -4.63777      -1.70632      -1.93963
Nuclear contribution   :      6.13357       0.96658       2.06845
                        -----------------------------------------
Total Dipole Moment    :      1.49580      -0.73973       0.12882
                        -----------------------------------------
Magnitude (a.u.)       :      1.67368
Magnitude (Debye)      :      4.25416

Rotational constants in cm-1:     0.193059     0.069118     0.056706
Rotational constants in MHz :  5787.750346  2072.099924  1699.991367

                             ****ORCA TERMINATED NORMALLY****
TOTAL RUN TIME: 0 days 0 hours 5 minutes 53 seconds 623 msec
