                         Program Version 5.0.4 -  RELEASE  -
|  1> ! ri-mp2 aug-cc-pvdz aug-cc-pvdz/c tightscf
|  2> %pal nprocs 16 end
|  3> %maxcore 3800
|  4> %base "DZ_Si-Si_108_AB"
|  5>
|  6> *xyz 0 1
|  7> Si        -0.462706    1.592995    0.435407
|  8> Si         1.116359    0.730787   -1.051617
|  9> C         1.478844   -1.088844   -0.719073
| 10> H         2.372571    1.507850   -0.964626
| 11> H         0.609709    0.819114   -2.438854
| 12> N         1.905579   -1.557422    0.375277
| 13> O         2.079179   -0.547038    1.319500
| 14> H         2.388165   -1.011538    2.103630
| 15> H         1.318703   -1.848780   -1.477310
| 16> C        -1.894789    0.388866    0.526696
| 17> H        -0.982494    2.895496   -0.048113
| 18> H         0.075678    1.809991    1.794806
| 19> N        -1.865937   -0.601926   -0.260713
| 20> H        -2.742958    0.497095    1.206237
| 21> O        -2.973891   -1.422585   -0.124293
| 22> H        -2.814650   -2.129875   -0.758167
| 23> *
| 24>
| 25> $new_job
| 26> ! ri-mp2 aug-cc-pvtz aug-cc-pvtz/c tightscf
| 27> %pal nprocs 16 end
| 28> %maxcore 3800
| 29> %base "TZ_Si-Si_108_AB"
| 30>
| 31> *xyz 0 1
| 32> Si        -0.462706    1.592995    0.435407
| 33> Si         1.116359    0.730787   -1.051617
| 34> C         1.478844   -1.088844   -0.719073
| 35> H         2.372571    1.507850   -0.964626
| 36> H         0.609709    0.819114   -2.438854
| 37> N         1.905579   -1.557422    0.375277
| 38> O         2.079179   -0.547038    1.319500
| 39> H         2.388165   -1.011538    2.103630
| 40> H         1.318703   -1.848780   -1.477310
| 41> C        -1.894789    0.388866    0.526696
| 42> H        -0.982494    2.895496   -0.048113
| 43> H         0.075678    1.809991    1.794806
| 44> N        -1.865937   -0.601926   -0.260713
| 45> H        -2.742958    0.497095    1.206237
| 46> O        -2.973891   -1.422585   -0.124293
| 47> H        -2.814650   -2.129875   -0.758167
| 48> *
| 49>
| 50> $new_job
| 51> ! ri-mp2 aug-cc-pvqz aug-cc-pvqz/c tightscf
| 52> %pal nprocs 16 end
| 53> %maxcore 3800
| 54> %base "QZ_Si-Si_108_AB"
| 55>
| 56> *xyz 0 1
| 57> Si        -0.462706    1.592995    0.435407
| 58> Si         1.116359    0.730787   -1.051617
| 59> C         1.478844   -1.088844   -0.719073
| 60> H         2.372571    1.507850   -0.964626
| 61> H         0.609709    0.819114   -2.438854
| 62> N         1.905579   -1.557422    0.375277
| 63> O         2.079179   -0.547038    1.319500
| 64> H         2.388165   -1.011538    2.103630
| 65> H         1.318703   -1.848780   -1.477310
| 66> C        -1.894789    0.388866    0.526696
| 67> H        -0.982494    2.895496   -0.048113
| 68> H         0.075678    1.809991    1.794806
| 69> N        -1.865937   -0.601926   -0.260713
| 70> H        -2.742958    0.497095    1.206237
| 71> O        -2.973891   -1.422585   -0.124293
| 72> H        -2.814650   -2.129875   -0.758167
| 73> *
| 74>
| 75>
| 76>
| 77>
| 78>                          ****END OF INPUT****
 Total Charge           Charge          ....    0
 Multiplicity           Mult            ....    1
 Number of Electrons    NEL             ....   78
MP2 TOTAL ENERGY:     -918.016957873 Eh
FINAL SINGLE POINT ENERGY      -918.016957872648
MP2 TOTAL ENERGY:     -918.373212619 Eh
FINAL SINGLE POINT ENERGY      -918.373212618641

CARTESIAN COORDINATES (ANGSTROEM)
---------------------------------
  Si    -0.462706    1.592995    0.435407
  Si     1.116359    0.730787   -1.051617
  C      1.478844   -1.088844   -0.719073
  H      2.372571    1.507850   -0.964626
  H      0.609709    0.819114   -2.438854
  N      1.905579   -1.557422    0.375277
  O      2.079179   -0.547038    1.319500
  H      2.388165   -1.011538    2.103630
  H      1.318703   -1.848780   -1.477310
  C     -1.894789    0.388866    0.526696
  H     -0.982494    2.895496   -0.048113
  H      0.075678    1.809991    1.794806
  N     -1.865937   -0.601926   -0.260713
  H     -2.742958    0.497095    1.206237
  O     -2.973891   -1.422585   -0.124293
  H     -2.814650   -2.129875   -0.758167

 Multiplicity           Mult            ....    1
 Number of Electrons    NEL             ....   78
 Basis Dimension        Dim             .... 1016

ORBITAL ENERGIES
----------------

  NO   OCC          E(Eh)            E(eV)
   0   2.0000     -68.773007     -1871.4087
   1   2.0000     -68.772987     -1871.4081
   2   2.0000     -20.605322      -560.6993
   3   2.0000     -20.604398      -560.6742
   4   2.0000     -15.640272      -425.5934
   5   2.0000     -15.633529      -425.4100
   6   2.0000     -11.260845      -306.4232
   7   2.0000     -11.257285      -306.3263
   8   2.0000      -6.123552      -166.6303
   9   2.0000      -6.123356      -166.6250
  10   2.0000      -4.229965      -115.1032
  11   2.0000      -4.229633      -115.0942
  12   2.0000      -4.229597      -115.0932
  13   2.0000      -4.229515      -115.0910
  14   2.0000      -4.229466      -115.0896
  15   2.0000      -4.229186      -115.0820
  16   2.0000      -1.440359       -39.1942
  17   2.0000      -1.437824       -39.1252
  18   2.0000      -1.164147       -31.6780
  19   2.0000      -1.159380       -31.5483
  20   2.0000      -0.832032       -22.6407
  21   2.0000      -0.821177       -22.3454
  22   2.0000      -0.756669       -20.5900
  23   2.0000      -0.732354       -19.9284
  24   2.0000      -0.698762       -19.0143
  25   2.0000      -0.674974       -18.3670
  26   2.0000      -0.647084       -17.6081
  27   2.0000      -0.618480       -16.8297
  28   2.0000      -0.606986       -16.5169
  29   2.0000      -0.602472       -16.3941
  30   2.0000      -0.545906       -14.8548
  31   2.0000      -0.518610       -14.1121
  32   2.0000      -0.498199       -13.5567
  33   2.0000      -0.477372       -12.9900
  34   2.0000      -0.439607       -11.9623
  35   2.0000      -0.435231       -11.8432
  36   2.0000      -0.416160       -11.3243
  37   2.0000      -0.403621       -10.9831
  38   2.0000      -0.388666       -10.5761
  39   0.0000       0.023193         0.6311
  40   0.0000       0.028140         0.7657
  41   0.0000       0.032921         0.8958
  42   0.0000       0.035122         0.9557
  43   0.0000       0.045087         1.2269

MULLIKEN ATOMIC CHARGES
-----------------------
   0 Si:    0.985110
   1 Si:    1.194739
   2 C :   -0.411357
   3 H :   -0.366584
   4 H :   -0.393699
   5 N :   -0.296664
   6 O :   -0.561914
   7 H :    0.327587
   8 H :    0.442648
   9 C :   -0.516066
  10 H :   -0.296097
  11 H :   -0.205885
  12 N :   -0.082668
  13 H :    0.516058
  14 O :   -0.685026
  15 H :    0.349817
Sum of atomic charges:   -0.0000000

LOEWDIN ATOMIC CHARGES
----------------------
   0 Si:    0.698759
   1 Si:    0.668794
   2 C :   -0.028799
   3 H :   -0.263475
   4 H :   -0.268137
   5 N :    0.215580
   6 O :    0.969285
   7 H :   -0.854204
   8 H :   -0.459820
   9 C :   -0.028283
  10 H :   -0.274656
  11 H :   -0.268123
  12 N :    0.170507
  13 H :   -0.418658
  14 O :    1.007810
  15 H :   -0.866579

  Mayer bond orders larger than 0.100000
B(  0-Si,  1-Si) :   0.9641 B(  0-Si,  9-C ) :   0.8428 B(  0-Si, 10-H ) :   0.8038
B(  0-Si, 11-H ) :   0.8426 B(  1-Si,  2-C ) :   0.6257 B(  1-Si,  3-H ) :   0.7188
B(  1-Si,  4-H ) :   0.7346 B(  2-C ,  5-N ) :   1.7369 B(  2-C ,  8-H ) :   0.8313
B(  5-N ,  6-O ) :   0.7906 B(  6-O ,  7-H ) :   0.9140 B(  9-C , 12-N ) :   1.8520
B(  9-C , 13-H ) :   0.6861 B( 12-N , 14-O ) :   0.6570 B( 14-O , 15-H ) :   0.9130

MP2 TOTAL ENERGY:     -918.491374837 Eh
FINAL SINGLE POINT ENERGY      -918.491374836955

DIPOLE MOMENT
-------------
                                X             Y             Z
Electronic contribution:     -0.22000      -2.33517       0.53774
Nuclear contribution   :      0.16912       2.32629      -0.51917
                        -----------------------------------------
Total Dipole Moment    :     -0.05089      -0.00889       0.01857
                        -----------------------------------------
Magnitude (a.u.)       :      0.05489
Magnitude (Debye)      :      0.13953

Rotational constants in cm-1:     0.056502     0.030842     0.025801
Rotational constants in MHz :  1693.880974   924.609535   773.481222

                             ****ORCA TERMINATED NORMALLY****
TOTAL RUN TIME: 0 days 0 hours 23 minutes 23 seconds 293 msec
