                         Program Version 5.0.4 -  RELEASE  -
|  1> ! ri-mp2 aug-cc-pvdz aug-cc-pvdz/c tightscf
|  2> %pal nprocs 16 end
|  3> %maxcore 3800
|  4> %base "DZ_S-S_14_AB"
|  5>
|  6> *xyz 0 1
|  7> C         0.652423    0.012017   -0.554211
|  8> O         0.076473    0.790307   -1.254413
|  9> S        -0.196795   -1.398083    0.206493
| 10> S        -2.026063   -1.240446   -0.644731
| 11> C        -2.749984    0.136293    0.285159
| 12> O        -2.194135    0.675804    1.188348
| 13> C         2.088476    0.132371   -0.193443
| 14> C         2.720807    1.338678   -0.474454
| 15> C         4.054378    1.510374   -0.161211
| 16> C         4.766050    0.477479    0.429285
| 17> C         4.142008   -0.727192    0.706023
| 18> C         2.805210   -0.900649    0.397705
| 19> H         2.329827   -1.849003    0.607253
| 20> H         2.147413    2.129392   -0.937013
| 21> H         4.542210    2.451303   -0.376823
| 22> H         5.811514    0.611906    0.673307
| 23> H         4.697940   -1.535231    1.161445
| 24> C        -4.104169    0.516019   -0.257772
| 25> C        -4.900840    1.377748    0.704516
| 26> H        -4.643972   -0.394010   -0.528991
| 27> H        -3.916002    1.046195   -1.195807
| 28> H        -5.105274    0.843189    1.631475
| 29> H        -5.851794    1.663578    0.256786
| 30> H        -4.350982    2.281427    0.959114
| 31> *
| 32>
| 33> $new_job
| 34> ! ri-mp2 aug-cc-pvtz aug-cc-pvtz/c tightscf
| 35> %pal nprocs 16 end
| 36> %maxcore 3800
| 37> %base "TZ_S-S_14_AB"
| 38>
| 39> *xyz 0 1
| 40> C         0.652423    0.012017   -0.554211
| 41> O         0.076473    0.790307   -1.254413
| 42> S        -0.196795   -1.398083    0.206493
| 43> S        -2.026063   -1.240446   -0.644731
| 44> C        -2.749984    0.136293    0.285159
| 45> O        -2.194135    0.675804    1.188348
| 46> C         2.088476    0.132371   -0.193443
| 47> C         2.720807    1.338678   -0.474454
| 48> C         4.054378    1.510374   -0.161211
| 49> C         4.766050    0.477479    0.429285
| 50> C         4.142008   -0.727192    0.706023
| 51> C         2.805210   -0.900649    0.397705
| 52> H         2.329827   -1.849003    0.607253
| 53> H         2.147413    2.129392   -0.937013
| 54> H         4.542210    2.451303   -0.376823
| 55> H         5.811514    0.611906    0.673307
| 56> H         4.697940   -1.535231    1.161445
| 57> C        -4.104169    0.516019   -0.257772
| 58> C        -4.900840    1.377748    0.704516
| 59> H        -4.643972   -0.394010   -0.528991
| 60> H        -3.916002    1.046195   -1.195807
| 61> H        -5.105274    0.843189    1.631475
| 62> H        -5.851794    1.663578    0.256786
| 63> H        -4.350982    2.281427    0.959114
| 64> *
| 65>
| 66> $new_job
| 67> ! ri-mp2 aug-cc-pvqz aug-cc-pvqz/c tightscf
| 68> %pal nprocs 16 end
| 69> %maxcore 3800
| 70> %base "QZ_S-S_14_AB"
| 71>
| 72> *xyz 0 1
| 73> C         0.652423    0.012017   -0.554211
| 74> O         0.076473    0.790307   -1.254413
| 75> S        -0.196795   -1.398083    0.206493
| 76> S        -2.026063   -1.240446   -0.644731
| 77> C        -2.749984    0.136293    0.285159
| 78> O        -2.194135    0.675804    1.188348
| 79> C         2.088476    0.132371   -0.193443
| 80> C         2.720807    1.338678   -0.474454
| 81> C         4.054378    1.510374   -0.161211
| 82> C         4.766050    0.477479    0.429285
| 83> C         4.142008   -0.727192    0.706023
| 84> C         2.805210   -0.900649    0.397705
| 85> H         2.329827   -1.849003    0.607253
| 86> H         2.147413    2.129392   -0.937013
| 87> H         4.542210    2.451303   -0.376823
| 88> H         5.811514    0.611906    0.673307
| 89> H         4.697940   -1.535231    1.161445
| 90> C        -4.104169    0.516019   -0.257772
| 91> C        -4.900840    1.377748    0.704516
| 92> H        -4.643972   -0.394010   -0.528991
| 93> H        -3.916002    1.046195   -1.195807
| 94> H        -5.105274    0.843189    1.631475
| 95> H        -5.851794    1.663578    0.256786
| 96> H        -4.350982    2.281427    0.959114
| 97> *
| 98>
| 99>
|100>
|101>
|102>                          ****END OF INPUT****
 Total Charge           Charge          ....    0
 Multiplicity           Mult            ....    1
 Number of Electrons    NEL             ....  118
MP2 TOTAL ENERGY:    -1331.409907459 Eh
FINAL SINGLE POINT ENERGY     -1331.409907458731
MP2 TOTAL ENERGY:    -1331.975880181 Eh
FINAL SINGLE POINT ENERGY     -1331.975880180687

CARTESIAN COORDINATES (ANGSTROEM)
---------------------------------
  C      0.652423    0.012017   -0.554211
  O      0.076473    0.790307   -1.254413
  S     -0.196795   -1.398083    0.206493
  S     -2.026063   -1.240446   -0.644731
  C     -2.749984    0.136293    0.285159
  O     -2.194135    0.675804    1.188348
  C      2.088476    0.132371   -0.193443
  C      2.720807    1.338678   -0.474454
  C      4.054378    1.510374   -0.161211
  C      4.766050    0.477479    0.429285
  C      4.142008   -0.727192    0.706023
  C      2.805210   -0.900649    0.397705
  H      2.329827   -1.849003    0.607253
  H      2.147413    2.129392   -0.937013
  H      4.542210    2.451303   -0.376823
  H      5.811514    0.611906    0.673307
  H      4.697940   -1.535231    1.161445
  C     -4.104169    0.516019   -0.257772
  C     -4.900840    1.377748    0.704516
  H     -4.643972   -0.394010   -0.528991
  H     -3.916002    1.046195   -1.195807
  H     -5.105274    0.843189    1.631475
  H     -5.851794    1.663578    0.256786
  H     -4.350982    2.281427    0.959114

 Multiplicity           Mult            ....    1
 Number of Electrons    NEL             ....  118
 Basis Dimension        Dim             .... 1588

ORBITAL ENERGIES
----------------

  NO   OCC          E(Eh)            E(eV)
   0   2.0000     -91.992465     -2503.2422
   1   2.0000     -91.990475     -2503.1881
   2   2.0000     -20.561835      -559.5160
   3   2.0000     -20.560825      -559.4885
   4   2.0000     -11.369227      -309.3724
   5   2.0000     -11.363402      -309.2139
   6   2.0000     -11.258972      -306.3722
   7   2.0000     -11.257670      -306.3368
   8   2.0000     -11.254838      -306.2597
   9   2.0000     -11.252048      -306.1838
  10   2.0000     -11.251142      -306.1591
  11   2.0000     -11.247603      -306.0628
  12   2.0000     -11.246132      -306.0228
  13   2.0000     -11.224461      -305.4331
  14   2.0000      -8.994058      -244.7408
  15   2.0000      -8.992118      -244.6880
  16   2.0000      -6.675331      -181.6450
  17   2.0000      -6.674018      -181.6093
  18   2.0000      -6.673379      -181.5919
  19   2.0000      -6.673308      -181.5900
  20   2.0000      -6.672031      -181.5552
  21   2.0000      -6.671379      -181.5374
  22   2.0000      -1.419713       -38.6324
  23   2.0000      -1.416097       -38.5340
  24   2.0000      -1.180811       -32.1315
  25   2.0000      -1.095737       -29.8165
  26   2.0000      -1.070606       -29.1327
  27   2.0000      -1.050425       -28.5835
  28   2.0000      -1.038109       -28.2484
  29   2.0000      -0.955853       -26.0101
  30   2.0000      -0.895097       -24.3568
  31   2.0000      -0.860827       -23.4243
  32   2.0000      -0.841760       -22.9055
  33   2.0000      -0.771754       -21.0005
  34   2.0000      -0.735271       -20.0077
  35   2.0000      -0.714919       -19.4539
  36   2.0000      -0.673493       -18.3267
  37   2.0000      -0.663332       -18.0502
  38   2.0000      -0.659535       -17.9468
  39   2.0000      -0.648240       -17.6395
  40   2.0000      -0.636029       -17.3072
  41   2.0000      -0.628030       -17.0896
  42   2.0000      -0.608581       -16.5603
  43   2.0000      -0.598989       -16.2993
  44   2.0000      -0.579976       -15.7819
  45   2.0000      -0.556732       -15.1494
  46   2.0000      -0.547953       -14.9106
  47   2.0000      -0.533538       -14.5183
  48   2.0000      -0.526161       -14.3176
  49   2.0000      -0.515213       -14.0197
  50   2.0000      -0.513220       -13.9654
  51   2.0000      -0.502979       -13.6868
  52   2.0000      -0.480566       -13.0769
  53   2.0000      -0.430699       -11.7199
  54   2.0000      -0.425707       -11.5841
  55   2.0000      -0.388273       -10.5655
  56   2.0000      -0.374183       -10.1820
  57   2.0000      -0.356106        -9.6901
  58   2.0000      -0.355363        -9.6699
  59   0.0000       0.021776         0.5925
  60   0.0000       0.025803         0.7021
  61   0.0000       0.028967         0.7882
  62   0.0000       0.035871         0.9761
  63   0.0000       0.038948         1.0598

MULLIKEN ATOMIC CHARGES
-----------------------
   0 C :    0.802478
   1 O :   -0.818921
   2 S :    0.027246
   3 S :    0.011105
   4 C :    0.529060
   5 O :   -0.801780
   6 C :   -0.122162
   7 C :   -0.295961
   8 C :   -0.284028
   9 C :   -0.274105
  10 C :   -0.415558
  11 C :   -0.120431
  12 H :    0.321481
  13 H :    0.343238
  14 H :    0.271330
  15 H :    0.324288
  16 H :    0.254559
  17 C :   -0.311128
  18 C :   -0.831324
  19 H :    0.265934
  20 H :    0.310213
  21 H :    0.236203
  22 H :    0.328577
  23 H :    0.249684
Sum of atomic charges:   -0.0000000

LOEWDIN ATOMIC CHARGES
----------------------
   0 C :   -1.152534
   1 O :    0.642164
   2 S :    0.761766
   3 S :    0.761180
   4 C :   -1.153378
   5 O :    0.652700
   6 C :   -0.236839
   7 C :    0.311907
   8 C :    0.359372
   9 C :    0.347912
  10 C :    0.355435
  11 C :    0.273166
  12 H :   -0.394449
  13 H :   -0.335438
  14 H :   -0.317753
  15 H :   -0.314122
  16 H :   -0.317778
  17 C :    0.347972
  18 C :    0.897959
  19 H :   -0.329060
  20 H :   -0.298283
  21 H :   -0.283913
  22 H :   -0.282288
  23 H :   -0.295695

  Mayer bond orders larger than 0.100000
B(  0-C ,  1-O ) :   1.0863 B(  0-C ,  2-S ) :   1.0011 B(  0-C ,  6-C ) :   0.8410
B(  0-C ,  7-C ) :  -0.3727 B(  0-C , 11-C ) :  -0.4306 B(  1-O ,  6-C ) :   0.3659
B(  2-S ,  3-S ) :   1.0297 B(  2-S ,  6-C ) :  -0.1416 B(  3-S ,  4-C ) :   0.9931
B(  4-C ,  5-O ) :   1.3619 B(  4-C , 17-C ) :   0.7728 B(  6-C ,  7-C ) :   1.1664
B(  6-C ,  8-C ) :  -0.2822 B(  6-C , 10-C ) :  -0.2506 B(  6-C , 11-C ) :   1.1073
B(  6-C , 12-H ) :  -0.1537 B(  7-C ,  8-C ) :   1.3096 B(  7-C , 10-C ) :   0.1399
B(  7-C , 13-H ) :   0.8579 B(  7-C , 14-H ) :  -0.1343 B(  8-C ,  9-C ) :   1.1355
B(  8-C , 11-C ) :   0.1192 B(  8-C , 14-H ) :   1.0878 B(  9-C , 10-C ) :   1.1814
B(  9-C , 15-H ) :   1.0022 B( 10-C , 11-C ) :   1.2178 B( 10-C , 16-H ) :   1.1132
B( 11-C , 12-H ) :   0.9246 B( 11-C , 16-H ) :  -0.1223 B( 17-C , 18-C ) :   0.9720
B( 17-C , 19-H ) :   0.9047 B( 17-C , 20-H ) :   0.8346 B( 18-C , 21-H ) :   0.9704
B( 18-C , 22-H ) :   0.9371 B( 18-C , 23-H ) :   0.9477

MP2 TOTAL ENERGY:    -1332.159192176 Eh
FINAL SINGLE POINT ENERGY     -1332.159192176218

DIPOLE MOMENT
-------------
                                X             Y             Z
Electronic contribution:      4.58283      -7.37360      -2.26883
Nuclear contribution   :     -4.21462       7.20071       2.21627
                        -----------------------------------------
Total Dipole Moment    :      0.36822      -0.17289      -0.05256
                        -----------------------------------------
Magnitude (a.u.)       :      0.41017
Magnitude (Debye)      :      1.04256

Rotational constants in cm-1:     0.048732     0.008390     0.007793
Rotational constants in MHz :  1460.934693   251.523452   233.627861

                             ****ORCA TERMINATED NORMALLY****
TOTAL RUN TIME: 0 days 1 hours 37 minutes 54 seconds 198 msec
