                         Program Version 5.0.4 -  RELEASE  -
|  1> ! ri-mp2 aug-cc-pvdz aug-cc-pvdz/c tightscf
|  2> %pal nprocs 16 end
|  3> %maxcore 3800
|  4> %base "DZ_B-P_26_A"
|  5> %scf
|  6> STABPerform true
|  7> STABRestartUHFifUnstable true
|  8> end
|  9>
| 10> *xyz 0 2
| 11> C         0.310723   -0.001830   -0.000000
| 12> C         0.776110   -0.748414   -1.250901
| 13> H         0.448766   -0.247781   -2.163002
| 14> H         0.395589   -1.770075   -1.270324
| 15> C         0.776101   -0.748403    1.250911
| 16> H         0.395574   -1.770061    1.270343
| 17> H         0.448757   -0.247758    2.163004
| 18> H         1.868526   -0.796102    1.270757
| 19> H         1.868536   -0.796106   -1.270745
| 20> C         0.888582    1.414070   -0.000004
| 21> H         1.980290    1.374581    0.000002
| 22> H         0.573814    1.973766    0.881959
| 23> H         0.573823    1.973757   -0.881976
| 24> P        -1.551236    0.138333   -0.000005
| 25> H        -1.794231   -1.261756    0.000035
| 26> *
| 27>
| 28> $new_job
| 29> ! ri-mp2 aug-cc-pvtz aug-cc-pvtz/c tightscf
| 30> %pal nprocs 16 end
| 31> %maxcore 3800
| 32> %base "TZ_B-P_26_A"
| 33>
| 34> *xyz 0 2
| 35> C         0.310723   -0.001830   -0.000000
| 36> C         0.776110   -0.748414   -1.250901
| 37> H         0.448766   -0.247781   -2.163002
| 38> H         0.395589   -1.770075   -1.270324
| 39> C         0.776101   -0.748403    1.250911
| 40> H         0.395574   -1.770061    1.270343
| 41> H         0.448757   -0.247758    2.163004
| 42> H         1.868526   -0.796102    1.270757
| 43> H         1.868536   -0.796106   -1.270745
| 44> C         0.888582    1.414070   -0.000004
| 45> H         1.980290    1.374581    0.000002
| 46> H         0.573814    1.973766    0.881959
| 47> H         0.573823    1.973757   -0.881976
| 48> P        -1.551236    0.138333   -0.000005
| 49> H        -1.794231   -1.261756    0.000035
| 50> *
| 51>
| 52> $new_job
| 53> ! ri-mp2 aug-cc-pvqz aug-cc-pvqz/c tightscf
| 54> %pal nprocs 16 end
| 55> %maxcore 3800
| 56> %base "QZ_B-P_26_A"
| 57>
| 58> *xyz 0 2
| 59> C         0.310723   -0.001830   -0.000000
| 60> C         0.776110   -0.748414   -1.250901
| 61> H         0.448766   -0.247781   -2.163002
| 62> H         0.395589   -1.770075   -1.270324
| 63> C         0.776101   -0.748403    1.250911
| 64> H         0.395574   -1.770061    1.270343
| 65> H         0.448757   -0.247758    2.163004
| 66> H         1.868526   -0.796102    1.270757
| 67> H         1.868536   -0.796106   -1.270745
| 68> C         0.888582    1.414070   -0.000004
| 69> H         1.980290    1.374581    0.000002
| 70> H         0.573814    1.973766    0.881959
| 71> H         0.573823    1.973757   -0.881976
| 72> P        -1.551236    0.138333   -0.000005
| 73> H        -1.794231   -1.261756    0.000035
| 74> *
| 75>
| 76>
| 77>
| 78>
| 79>                          ****END OF INPUT****
 Total Charge           Charge          ....    0
 Multiplicity           Mult            ....    2
 Number of Electrons    NEL             ....   49
MP2 TOTAL ENERGY:     -498.744873630 Eh
FINAL SINGLE POINT ENERGY      -498.744873630379
MP2 TOTAL ENERGY:     -498.937230821 Eh
FINAL SINGLE POINT ENERGY      -498.937230821197

CARTESIAN COORDINATES (ANGSTROEM)
---------------------------------
  C      0.310723   -0.001830   -0.000000
  C      0.776110   -0.748414   -1.250901
  H      0.448766   -0.247781   -2.163002
  H      0.395589   -1.770075   -1.270324
  C      0.776101   -0.748403    1.250911
  H      0.395574   -1.770061    1.270343
  H      0.448757   -0.247758    2.163004
  H      1.868526   -0.796102    1.270757
  H      1.868536   -0.796106   -1.270745
  C      0.888582    1.414070   -0.000004
  H      1.980290    1.374581    0.000002
  H      0.573814    1.973766    0.881959
  H      0.573823    1.973757   -0.881976
  P     -1.551236    0.138333   -0.000005
  H     -1.794231   -1.261756    0.000035

 Multiplicity           Mult            ....    2
 Number of Electrons    NEL             ....   49
 Basis Dimension        Dim             ....  864

ORBITAL ENERGIES
----------------
                 SPIN UP ORBITALS
  NO   OCC          E(Eh)            E(eV)
   0   1.0000     -79.937583     -2175.2122
   1   1.0000     -11.243264      -305.9448
   2   1.0000     -11.219672      -305.3028
   3   1.0000     -11.219653      -305.3023
   4   1.0000     -11.218044      -305.2585
   5   1.0000      -7.481299      -203.5765
   6   1.0000      -5.386214      -146.5663
   7   1.0000      -5.372043      -146.1807
   8   1.0000      -5.370276      -146.1326
   9   1.0000      -1.102638       -30.0043
  10   1.0000      -0.941112       -25.6090
  11   1.0000      -0.939980       -25.5782
  12   1.0000      -0.852243       -23.1907
  13   1.0000      -0.722105       -19.6495
  14   1.0000      -0.615611       -16.7516
  15   1.0000      -0.607368       -16.5273
  16   1.0000      -0.604153       -16.4398
  17   1.0000      -0.550361       -14.9761
  18   1.0000      -0.549396       -14.9498
  19   1.0000      -0.521621       -14.1940
  20   1.0000      -0.481101       -13.0914
  21   1.0000      -0.479356       -13.0439
  22   1.0000      -0.453248       -12.3335
  23   1.0000      -0.382585       -10.4107
  24   1.0000      -0.348178        -9.4744
  25   0.0000       0.025042         0.6814
  26   0.0000       0.032936         0.8962
  27   0.0000       0.033820         0.9203
  28   0.0000       0.037916         1.0317
  29   0.0000       0.052420         1.4264

                 SPIN DOWN ORBITALS
  NO   OCC          E(Eh)            E(eV)
   0   1.0000     -79.930569     -2175.0214
   1   1.0000     -11.244427      -305.9764
   2   1.0000     -11.218913      -305.2821
   3   1.0000     -11.218896      -305.2817
   4   1.0000     -11.217972      -305.2565
   5   1.0000      -7.472693      -203.3423
   6   1.0000      -5.367404      -146.0545
   7   1.0000      -5.366834      -146.0390
   8   1.0000      -5.353066      -145.6643
   9   1.0000      -1.099232       -29.9116
  10   1.0000      -0.939348       -25.5610
  11   1.0000      -0.938212       -25.5300
  12   1.0000      -0.811953       -22.0944
  13   1.0000      -0.703166       -19.1341
  14   1.0000      -0.613277       -16.6881
  15   1.0000      -0.603340       -16.4177
  16   1.0000      -0.597524       -16.2594
  17   1.0000      -0.547760       -14.9053
  18   1.0000      -0.545124       -14.8336
  19   1.0000      -0.521103       -14.1799
  20   1.0000      -0.478894       -13.0314
  21   1.0000      -0.475256       -12.9324
  22   1.0000      -0.445231       -12.1153
  23   1.0000      -0.367284        -9.9943
  24   0.0000       0.025320         0.6890
  25   0.0000       0.028947         0.7877
  26   0.0000       0.032981         0.8975
  27   0.0000       0.038247         1.0408
  28   0.0000       0.046767         1.2726

MULLIKEN ATOMIC CHARGES AND SPIN POPULATIONS
--------------------------------------------
   0 C :    0.621415   -0.053636
   1 C :   -1.051911    0.000551
   2 H :    0.284279   -0.007592
   3 H :    0.271486   -0.011219
   4 C :   -1.051931    0.000552
   5 H :    0.271491   -0.011219
   6 H :    0.284299   -0.007590
   7 H :    0.223435    0.010654
   8 H :    0.223436    0.010655
   9 C :   -0.969400    0.017602
  10 H :    0.248432   -0.002802
  11 H :    0.269833   -0.001722
  12 H :    0.269849   -0.001723
  13 P :    0.259744    1.129341
  14 H :   -0.154458   -0.071853
Sum of atomic charges         :   -0.0000000

LOEWDIN ATOMIC CHARGES AND SPIN POPULATIONS
-------------------------------------------
   0 C :   -0.606070    0.145149
   1 C :    0.803810    0.029830
   2 H :   -0.287867    0.014234
   3 H :   -0.296536    0.005182
   4 C :    0.803810    0.029829
   5 H :   -0.296538    0.005182
   6 H :   -0.287867    0.014234
   7 H :   -0.276238    0.003486
   8 H :   -0.276238    0.003486
   9 C :    0.788069    0.013488
  10 H :   -0.278294   -0.000590
  11 H :   -0.292947    0.002487
  12 H :   -0.292947    0.002487
  13 P :    1.340908    0.567560
  14 H :   -0.545055    0.163957

  Mayer bond orders larger than 0.100000
B(  0-C ,  1-C ) :   0.6762 B(  0-C ,  4-C ) :   0.6762 B(  0-C ,  9-C ) :   0.5604
B(  0-C , 13-P ) :   0.7056 B(  0-C , 14-H ) :  -0.1165 B(  1-C ,  2-H ) :   0.9704
B(  1-C ,  3-H ) :   0.9874 B(  1-C ,  8-H ) :   0.9833 B(  4-C ,  5-H ) :   0.9874
B(  4-C ,  6-H ) :   0.9704 B(  4-C ,  7-H ) :   0.9833 B(  9-C , 10-H ) :   0.9815
B(  9-C , 11-H ) :   0.9965 B(  9-C , 12-H ) :   0.9965 B( 13-P , 14-H ) :   0.9451

MP2 TOTAL ENERGY:     -498.995142349 Eh
FINAL SINGLE POINT ENERGY      -498.995142349480

DIPOLE MOMENT
-------------
                                X             Y             Z
Electronic contribution:     -7.97504       1.52388      -0.00005
Nuclear contribution   :      8.50744      -1.75511       0.00006
                        -----------------------------------------
Total Dipole Moment    :      0.53240      -0.23124       0.00001
                        -----------------------------------------
Magnitude (a.u.)       :      0.58045
Magnitude (Debye)      :      1.47538

Rotational constants in cm-1:     0.150399     0.099315     0.098221
Rotational constants in MHz :  4508.836035  2977.386344  2944.583316

                             ****ORCA TERMINATED NORMALLY****
TOTAL RUN TIME: 0 days 2 hours 52 minutes 55 seconds 688 msec
