                         Program Version 5.0.4 -  RELEASE  -
|  1> ! ri-mp2 aug-cc-pvdz aug-cc-pvdz/c tightscf
|  2> %pal nprocs 16 end
|  3> %maxcore 3800
|  4> %base "DZ_Si-Si_42_AB"
|  5> %scf
|  6> STABPerform true
|  7> STABRestartUHFifUnstable true
|  8> end
|  9>
| 10> *xyz 0 1
| 11> Si        -1.124684    1.276989    0.156165
| 12> Si         1.125387    1.240603   -0.448038
| 13> C         1.797847   -0.373088    0.367886
| 14> H         1.873160    2.377682    0.131614
| 15> H         1.291180    1.253727   -1.919034
| 16> O         1.652624   -0.463936    1.566119
| 17> C        -1.705711   -0.530865   -0.210298
| 18> H        -1.363991    1.621676    1.575166
| 19> H        -1.949068    2.183965   -0.678308
| 20> O        -0.977959   -1.218916   -0.893422
| 21> C         2.421856   -1.464081   -0.447798
| 22> H         3.258573   -1.069125   -1.028107
| 23> H         1.678858   -1.830813   -1.159423
| 24> H         2.756916   -2.275216    0.196371
| 25> C        -3.007586   -1.054601    0.321442
| 26> H        -3.825588   -0.392841    0.028292
| 27> H        -2.975552   -1.052699    1.413527
| 28> H        -3.190093   -2.064019   -0.042844
| 29> *
| 30>
| 31> $new_job
| 32> ! ri-mp2 aug-cc-pvtz aug-cc-pvtz/c tightscf
| 33> %pal nprocs 16 end
| 34> %maxcore 3800
| 35> %base "TZ_Si-Si_42_AB"
| 36>
| 37> *xyz 0 1
| 38> Si        -1.124684    1.276989    0.156165
| 39> Si         1.125387    1.240603   -0.448038
| 40> C         1.797847   -0.373088    0.367886
| 41> H         1.873160    2.377682    0.131614
| 42> H         1.291180    1.253727   -1.919034
| 43> O         1.652624   -0.463936    1.566119
| 44> C        -1.705711   -0.530865   -0.210298
| 45> H        -1.363991    1.621676    1.575166
| 46> H        -1.949068    2.183965   -0.678308
| 47> O        -0.977959   -1.218916   -0.893422
| 48> C         2.421856   -1.464081   -0.447798
| 49> H         3.258573   -1.069125   -1.028107
| 50> H         1.678858   -1.830813   -1.159423
| 51> H         2.756916   -2.275216    0.196371
| 52> C        -3.007586   -1.054601    0.321442
| 53> H        -3.825588   -0.392841    0.028292
| 54> H        -2.975552   -1.052699    1.413527
| 55> H        -3.190093   -2.064019   -0.042844
| 56> *
| 57>
| 58> $new_job
| 59> ! ri-mp2 aug-cc-pvqz aug-cc-pvqz/c tightscf
| 60> %pal nprocs 16 end
| 61> %maxcore 3800
| 62> %base "QZ_Si-Si_42_AB"
| 63>
| 64> *xyz 0 1
| 65> Si        -1.124684    1.276989    0.156165
| 66> Si         1.125387    1.240603   -0.448038
| 67> C         1.797847   -0.373088    0.367886
| 68> H         1.873160    2.377682    0.131614
| 69> H         1.291180    1.253727   -1.919034
| 70> O         1.652624   -0.463936    1.566119
| 71> C        -1.705711   -0.530865   -0.210298
| 72> H        -1.363991    1.621676    1.575166
| 73> H        -1.949068    2.183965   -0.678308
| 74> O        -0.977959   -1.218916   -0.893422
| 75> C         2.421856   -1.464081   -0.447798
| 76> H         3.258573   -1.069125   -1.028107
| 77> H         1.678858   -1.830813   -1.159423
| 78> H         2.756916   -2.275216    0.196371
| 79> C        -3.007586   -1.054601    0.321442
| 80> H        -3.825588   -0.392841    0.028292
| 81> H        -2.975552   -1.052699    1.413527
| 82> H        -3.190093   -2.064019   -0.042844
| 83> *
| 84>
| 85>
| 86>
| 87>
| 88>                          ****END OF INPUT****
 Total Charge           Charge          ....    0
 Multiplicity           Mult            ....    1
 Number of Electrons    NEL             ....   78
MP2 TOTAL ENERGY:     -886.060107391 Eh
FINAL SINGLE POINT ENERGY      -886.060107391333
MP2 TOTAL ENERGY:     -886.397162978 Eh
FINAL SINGLE POINT ENERGY      -886.397162977919

CARTESIAN COORDINATES (ANGSTROEM)
---------------------------------
  Si    -1.124684    1.276989    0.156165
  Si     1.125387    1.240603   -0.448038
  C      1.797847   -0.373088    0.367886
  H      1.873160    2.377682    0.131614
  H      1.291180    1.253727   -1.919034
  O      1.652624   -0.463936    1.566119
  C     -1.705711   -0.530865   -0.210298
  H     -1.363991    1.621676    1.575166
  H     -1.949068    2.183965   -0.678308
  O     -0.977959   -1.218916   -0.893422
  C      2.421856   -1.464081   -0.447798
  H      3.258573   -1.069125   -1.028107
  H      1.678858   -1.830813   -1.159423
  H      2.756916   -2.275216    0.196371
  C     -3.007586   -1.054601    0.321442
  H     -3.825588   -0.392841    0.028292
  H     -2.975552   -1.052699    1.413527
  H     -3.190093   -2.064019   -0.042844

 Multiplicity           Mult            ....    1
 Number of Electrons    NEL             ....   78
 Basis Dimension        Dim             .... 1108

ORBITAL ENERGIES
----------------

  NO   OCC          E(Eh)            E(eV)
   0   2.0000     -68.780971     -1871.6254
   1   2.0000     -68.776235     -1871.4965
   2   2.0000     -20.563701      -559.5668
   3   2.0000     -20.550253      -559.2008
   4   2.0000     -11.327523      -308.2376
   5   2.0000     -11.317111      -307.9543
   6   2.0000     -11.238125      -305.8049
   7   2.0000     -11.224277      -305.4281
   8   2.0000      -6.132171      -166.8649
   9   2.0000      -6.127412      -166.7353
  10   2.0000      -4.238130      -115.3254
  11   2.0000      -4.238078      -115.3240
  12   2.0000      -4.238035      -115.3228
  13   2.0000      -4.233444      -115.1979
  14   2.0000      -4.233385      -115.1963
  15   2.0000      -4.233207      -115.1914
  16   2.0000      -1.401482       -38.1363
  17   2.0000      -1.389015       -37.7970
  18   2.0000      -1.018851       -27.7243
  19   2.0000      -1.006362       -27.3845
  20   2.0000      -0.816337       -22.2137
  21   2.0000      -0.784045       -21.3349
  22   2.0000      -0.720776       -19.6133
  23   2.0000      -0.685180       -18.6447
  24   2.0000      -0.633988       -17.2517
  25   2.0000      -0.626385       -17.0448
  26   2.0000      -0.618637       -16.8340
  27   2.0000      -0.609737       -16.5918
  28   2.0000      -0.602103       -16.3840
  29   2.0000      -0.594184       -16.1686
  30   2.0000      -0.546604       -14.8739
  31   2.0000      -0.536345       -14.5947
  32   2.0000      -0.517547       -14.0832
  33   2.0000      -0.505410       -13.7529
  34   2.0000      -0.493494       -13.4287
  35   2.0000      -0.480640       -13.0789
  36   2.0000      -0.423301       -11.5186
  37   2.0000      -0.391217       -10.6456
  38   2.0000      -0.376445       -10.2436
  39   0.0000       0.020964         0.5705
  40   0.0000       0.026711         0.7269
  41   0.0000       0.033537         0.9126
  42   0.0000       0.036082         0.9818
  43   0.0000       0.042173         1.1476

MULLIKEN ATOMIC CHARGES
-----------------------
   0 Si:    0.795838
   1 Si:    0.940783
   2 C :    0.664634
   3 H :   -0.316726
   4 H :   -0.253270
   5 O :   -0.924534
   6 C :    0.477351
   7 H :   -0.207005
   8 H :   -0.242483
   9 O :   -0.919741
  10 C :   -0.986631
  11 H :    0.264443
  12 H :    0.312197
  13 H :    0.364227
  14 C :   -0.893235
  15 H :    0.286709
  16 H :    0.280008
  17 H :    0.357437
Sum of atomic charges:    0.0000000

LOEWDIN ATOMIC CHARGES
----------------------
   0 Si:    0.732629
   1 Si:    0.703853
   2 C :   -0.734059
   3 H :   -0.271301
   4 H :   -0.258906
   5 O :    0.647537
   6 C :   -0.702436
   7 H :   -0.258144
   8 H :   -0.268599
   9 O :    0.660630
  10 C :    0.818500
  11 H :   -0.309617
  12 H :   -0.331025
  13 H :   -0.317792
  14 C :    0.827373
  15 H :   -0.310179
  16 H :   -0.308541
  17 H :   -0.319922

  Mayer bond orders larger than 0.100000
B(  0-Si,  1-Si) :   0.8016 B(  0-Si,  6-C ) :   0.6753 B(  0-Si,  7-H ) :   0.8037
B(  0-Si,  8-H ) :   0.7908 B(  1-Si,  2-C ) :   0.6487 B(  1-Si,  3-H ) :   0.7496
B(  1-Si,  4-H ) :   0.8125 B(  2-C ,  5-O ) :   1.1777 B(  2-C , 10-C ) :   0.9287
B(  5-O , 10-C ) :   0.1476 B(  6-C ,  9-O ) :   1.3394 B(  6-C , 14-C ) :   0.8571
B(  9-O , 14-C ) :   0.1083 B( 10-C , 11-H ) :   0.9478 B( 10-C , 12-H ) :   0.8827
B( 10-C , 13-H ) :   0.9077 B( 14-C , 15-H ) :   0.9544 B( 14-C , 16-H ) :   0.9045
B( 14-C , 17-H ) :   0.9333

MP2 TOTAL ENERGY:     -886.506433803 Eh
FINAL SINGLE POINT ENERGY      -886.506433802824

DIPOLE MOMENT
-------------
                                X             Y             Z
Electronic contribution:      1.80053       1.88567       0.96078
Nuclear contribution   :     -2.43827      -1.42894      -1.45637
                        -----------------------------------------
Total Dipole Moment    :     -0.63773       0.45673      -0.49559
                        -----------------------------------------
Magnitude (a.u.)       :      0.92786
Magnitude (Debye)      :      2.35842

Rotational constants in cm-1:     0.063528     0.032153     0.026348
Rotational constants in MHz :  1904.532209   963.929829   789.901498

                             ****ORCA TERMINATED NORMALLY****
TOTAL RUN TIME: 0 days 2 hours 45 minutes 13 seconds 352 msec
