                         Program Version 5.0.4 -  RELEASE  -
|  1> ! ri-mp2 aug-cc-pvdz aug-cc-pvdz/c tightscf
|  2> %pal nprocs 16 end
|  3> %maxcore 3800
|  4> %base "DZ_B-B_55_AB"
|  5> %scf
|  6> STABPerform true
|  7> STABRestartUHFifUnstable true
|  8> end
|  9>
| 10> *xyz 0 1
| 11> B         0.650179    1.600635   -0.536585
| 12> B        -0.650179    1.600633    0.536586
| 13> N        -1.746441    0.747994    0.339100
| 14> C        -2.644966    0.003808    0.127316
| 15> S        -3.832970   -0.974557   -0.145671
| 16> N         1.746443    0.747997   -0.339100
| 17> C         2.644969    0.003811   -0.127316
| 18> S         3.832968   -0.974559    0.145670
| 19> H        -0.690700    2.330934    1.481421
| 20> H         0.690701    2.330939   -1.481417
| 21> *
| 22>
| 23> $new_job
| 24> ! ri-mp2 aug-cc-pvtz aug-cc-pvtz/c tightscf
| 25> %pal nprocs 16 end
| 26> %maxcore 3800
| 27> %base "TZ_B-B_55_AB"
| 28>
| 29> *xyz 0 1
| 30> B         0.650179    1.600635   -0.536585
| 31> B        -0.650179    1.600633    0.536586
| 32> N        -1.746441    0.747994    0.339100
| 33> C        -2.644966    0.003808    0.127316
| 34> S        -3.832970   -0.974557   -0.145671
| 35> N         1.746443    0.747997   -0.339100
| 36> C         2.644969    0.003811   -0.127316
| 37> S         3.832968   -0.974559    0.145670
| 38> H        -0.690700    2.330934    1.481421
| 39> H         0.690701    2.330939   -1.481417
| 40> *
| 41>
| 42> $new_job
| 43> ! ri-mp2 aug-cc-pvqz aug-cc-pvqz/c tightscf
| 44> %pal nprocs 16 end
| 45> %maxcore 3800
| 46> %base "QZ_B-B_55_AB"
| 47>
| 48> *xyz 0 1
| 49> B         0.650179    1.600635   -0.536585
| 50> B        -0.650179    1.600633    0.536586
| 51> N        -1.746441    0.747994    0.339100
| 52> C        -2.644966    0.003808    0.127316
| 53> S        -3.832970   -0.974557   -0.145671
| 54> N         1.746443    0.747997   -0.339100
| 55> C         2.644969    0.003811   -0.127316
| 56> S         3.832968   -0.974559    0.145670
| 57> H        -0.690700    2.330934    1.481421
| 58> H         0.690701    2.330939   -1.481417
| 59> *
| 60>
| 61>
| 62>
| 63>
| 64>                          ****END OF INPUT****
 Total Charge           Charge          ....    0
 Multiplicity           Mult            ....    1
 Number of Electrons    NEL             ....   70
MP2 TOTAL ENERGY:    -1031.301537213 Eh
FINAL SINGLE POINT ENERGY     -1031.301537212806
MP2 TOTAL ENERGY:    -1031.597513818 Eh
FINAL SINGLE POINT ENERGY     -1031.597513818224

CARTESIAN COORDINATES (ANGSTROEM)
---------------------------------
  B      0.650179    1.600635   -0.536585
  B     -0.650179    1.600633    0.536586
  N     -1.746441    0.747994    0.339100
  C     -2.644966    0.003808    0.127316
  S     -3.832970   -0.974557   -0.145671
  N      1.746443    0.747997   -0.339100
  C      2.644969    0.003811   -0.127316
  S      3.832968   -0.974559    0.145670
  H     -0.690700    2.330934    1.481421
  H      0.690701    2.330939   -1.481417

 Multiplicity           Mult            ....    1
 Number of Electrons    NEL             ....   70
 Basis Dimension        Dim             ....  740

ORBITAL ENERGIES
----------------

  NO   OCC          E(Eh)            E(eV)
   0   2.0000     -91.964950     -2502.4935
   1   2.0000     -91.964950     -2502.4935
   2   2.0000     -15.611840      -424.8198
   3   2.0000     -15.611840      -424.8198
   4   2.0000     -11.391299      -309.9730
   5   2.0000     -11.391299      -309.9730
   6   2.0000      -8.969583      -244.0748
   7   2.0000      -8.969583      -244.0748
   8   2.0000      -7.648928      -208.1379
   9   2.0000      -7.648154      -208.1168
  10   2.0000      -6.651416      -180.9942
  11   2.0000      -6.651416      -180.9942
  12   2.0000      -6.649114      -180.9316
  13   2.0000      -6.649114      -180.9316
  14   2.0000      -6.648786      -180.9227
  15   2.0000      -6.648786      -180.9227
  16   2.0000      -1.296830       -35.2885
  17   2.0000      -1.294841       -35.2344
  18   2.0000      -1.057962       -28.7886
  19   2.0000      -1.056361       -28.7450
  20   2.0000      -0.894668       -24.3452
  21   2.0000      -0.863659       -23.5014
  22   2.0000      -0.646797       -17.6002
  23   2.0000      -0.625216       -17.0130
  24   2.0000      -0.620339       -16.8803
  25   2.0000      -0.612486       -16.6666
  26   2.0000      -0.609191       -16.5769
  27   2.0000      -0.589623       -16.0445
  28   2.0000      -0.588755       -16.0209
  29   2.0000      -0.549209       -14.9447
  30   2.0000      -0.475240       -12.9319
  31   2.0000      -0.390241       -10.6190
  32   2.0000      -0.389683       -10.6038
  33   2.0000      -0.380037       -10.3413
  34   2.0000      -0.354207        -9.6385
  35   0.0000       0.022645         0.6162
  36   0.0000       0.022794         0.6203
  37   0.0000       0.024021         0.6536
  38   0.0000       0.026985         0.7343
  39   0.0000       0.041083         1.1179

MULLIKEN ATOMIC CHARGES
-----------------------
   0 B :    0.590931
   1 B :    0.590931
   2 N :   -0.595346
   3 C :    0.178175
   4 S :    0.128656
   5 N :   -0.595347
   6 C :    0.178176
   7 S :    0.128657
   8 H :   -0.302417
   9 H :   -0.302417
Sum of atomic charges:    0.0000000

LOEWDIN ATOMIC CHARGES
----------------------
   0 B :   -0.232097
   1 B :   -0.232098
   2 N :    0.449330
   3 C :   -1.021955
   4 S :    0.998000
   5 N :    0.449330
   6 C :   -1.021956
   7 S :    0.998001
   8 H :   -0.193277
   9 H :   -0.193278

  Mayer bond orders larger than 0.100000
B(  0-B ,  1-B ) :   1.0397 B(  0-B ,  5-N ) :   1.0128 B(  0-B ,  9-H ) :   0.8602
B(  1-B ,  2-N ) :   1.0128 B(  1-B ,  8-H ) :   0.8602 B(  2-N ,  3-C ) :   2.1974
B(  3-C ,  4-S ) :   1.5430 B(  5-N ,  6-C ) :   2.1974 B(  6-C ,  7-S ) :   1.5430

MP2 TOTAL ENERGY:    -1031.694791505 Eh
FINAL SINGLE POINT ENERGY     -1031.694791505007

DIPOLE MOMENT
-------------
                                X             Y             Z
Electronic contribution:      0.00000      -1.28276      -0.00000
Nuclear contribution   :      0.00000       2.02307       0.00000
                        -----------------------------------------
Total Dipole Moment    :      0.00000       0.74030       0.00000
                        -----------------------------------------
Magnitude (a.u.)       :      0.74030
Magnitude (Debye)      :      1.88170

Rotational constants in cm-1:     0.106355     0.013804     0.012501
Rotational constants in MHz :  3188.446372   413.821742   374.767308

                             ****ORCA TERMINATED NORMALLY****
TOTAL RUN TIME: 0 days 0 hours 48 minutes 25 seconds 338 msec
