                         Program Version 5.0.4 -  RELEASE  -
|  1> ! ri-mp2 aug-cc-pvdz aug-cc-pvdz/c tightscf
|  2> %pal nprocs 16 end
|  3> %maxcore 3800
|  4> %base "DZ_B-Cl_9_A"
|  5> %scf
|  6> STABPerform true
|  7> STABRestartUHFifUnstable true
|  8> end
|  9>
| 10> *xyz 0 2
| 11> Cl        -2.980462    0.000008   -0.274278
| 12> B        -1.413493   -0.000115   -0.916432
| 13> Si         0.375210   -0.000006   -0.064596
| 14> Cl         1.365013    1.666047   -0.691384
| 15> Cl         0.357503    0.000607    1.978804
| 16> Cl         1.364683   -1.666624   -0.690406
| 17> *
| 18>
| 19> $new_job
| 20> ! ri-mp2 aug-cc-pvtz aug-cc-pvtz/c tightscf
| 21> %pal nprocs 16 end
| 22> %maxcore 3800
| 23> %base "TZ_B-Cl_9_A"
| 24>
| 25> *xyz 0 2
| 26> Cl        -2.980462    0.000008   -0.274278
| 27> B        -1.413493   -0.000115   -0.916432
| 28> Si         0.375210   -0.000006   -0.064596
| 29> Cl         1.365013    1.666047   -0.691384
| 30> Cl         0.357503    0.000607    1.978804
| 31> Cl         1.364683   -1.666624   -0.690406
| 32> *
| 33>
| 34> $new_job
| 35> ! ri-mp2 aug-cc-pvqz aug-cc-pvqz/c tightscf
| 36> %pal nprocs 16 end
| 37> %maxcore 3800
| 38> %base "QZ_B-Cl_9_A"
| 39>
| 40> *xyz 0 2
| 41> Cl        -2.980462    0.000008   -0.274278
| 42> B        -1.413493   -0.000115   -0.916432
| 43> Si         0.375210   -0.000006   -0.064596
| 44> Cl         1.365013    1.666047   -0.691384
| 45> Cl         0.357503    0.000607    1.978804
| 46> Cl         1.364683   -1.666624   -0.690406
| 47> *
| 48>
| 49>
| 50>
| 51>
| 52>                          ****END OF INPUT****
 Total Charge           Charge          ....    0
 Multiplicity           Mult            ....    2
 Number of Electrons    NEL             ....   87
MP2 TOTAL ENERGY:    -2152.503381956 Eh
FINAL SINGLE POINT ENERGY     -2152.503381956020
MP2 TOTAL ENERGY:    -2152.801983196 Eh
FINAL SINGLE POINT ENERGY     -2152.801983196268

CARTESIAN COORDINATES (ANGSTROEM)
---------------------------------
  Cl    -2.980462    0.000008   -0.274278
  B     -1.413493   -0.000115   -0.916432
  Si     0.375210   -0.000006   -0.064596
  Cl     1.365013    1.666047   -0.691384
  Cl     0.357503    0.000607    1.978804
  Cl     1.364683   -1.666624   -0.690406

 Multiplicity           Mult            ....    2
 Number of Electrons    NEL             ....   87
 Basis Dimension        Dim             ....  500

ORBITAL ENERGIES
----------------
                 SPIN UP ORBITALS
  NO   OCC          E(Eh)            E(eV)
   0   1.0000    -104.875469     -2853.8066
   1   1.0000    -104.852406     -2853.1790
   2   1.0000    -104.852405     -2853.1790
   3   1.0000    -104.849620     -2853.1032
   4   1.0000     -68.902010     -1874.9190
   5   1.0000     -10.602855      -288.5183
   6   1.0000     -10.579966      -287.8955
   7   1.0000     -10.579960      -287.8954
   8   1.0000     -10.577118      -287.8180
   9   1.0000      -8.070263      -219.6030
  10   1.0000      -8.068629      -219.5586
  11   1.0000      -8.068069      -219.5433
  12   1.0000      -8.046647      -218.9604
  13   1.0000      -8.046646      -218.9604
  14   1.0000      -8.045571      -218.9311
  15   1.0000      -8.045570      -218.9311
  16   1.0000      -8.045469      -218.9283
  17   1.0000      -8.045468      -218.9283
  18   1.0000      -8.044367      -218.8984
  19   1.0000      -8.042689      -218.8527
  20   1.0000      -8.042553      -218.8490
  21   1.0000      -7.705817      -209.6859
  22   1.0000      -6.238621      -169.7615
  23   1.0000      -4.345810      -118.2555
  24   1.0000      -4.345591      -118.2495
  25   1.0000      -4.344299      -118.2144
  26   1.0000      -1.160520       -31.5794
  27   1.0000      -1.150633       -31.3103
  28   1.0000      -1.110337       -30.2138
  29   1.0000      -1.108451       -30.1625
  30   1.0000      -0.756653       -20.5896
  31   1.0000      -0.672060       -18.2877
  32   1.0000      -0.583318       -15.8729
  33   1.0000      -0.581327       -15.8187
  34   1.0000      -0.580682       -15.8012
  35   1.0000      -0.541600       -14.7377
  36   1.0000      -0.521032       -14.1780
  37   1.0000      -0.507783       -13.8175
  38   1.0000      -0.507264       -13.8034
  39   1.0000      -0.483810       -13.1651
  40   1.0000      -0.482366       -13.1258
  41   1.0000      -0.473572       -12.8866
  42   1.0000      -0.466525       -12.6948
  43   1.0000      -0.348022        -9.4702
  44   0.0000       0.017763         0.4834
  45   0.0000       0.027454         0.7471
  46   0.0000       0.036400         0.9905
  47   0.0000       0.039497         1.0748
  48   0.0000       0.042924         1.1680

                 SPIN DOWN ORBITALS
  NO   OCC          E(Eh)            E(eV)
   0   1.0000    -104.874839     -2853.7895
   1   1.0000    -104.852483     -2853.1811
   2   1.0000    -104.852482     -2853.1811
   3   1.0000    -104.849155     -2853.0905
   4   1.0000     -68.901432     -1874.9033
   5   1.0000     -10.602137      -288.4988
   6   1.0000     -10.580054      -287.8979
   7   1.0000     -10.580048      -287.8978
   8   1.0000     -10.576605      -287.8041
   9   1.0000      -8.069386      -219.5791
  10   1.0000      -8.068509      -219.5553
  11   1.0000      -8.065865      -219.4833
  12   1.0000      -8.046883      -218.9668
  13   1.0000      -8.046882      -218.9668
  14   1.0000      -8.045641      -218.9330
  15   1.0000      -8.045640      -218.9330
  16   1.0000      -8.045540      -218.9303
  17   1.0000      -8.045539      -218.9303
  18   1.0000      -8.043052      -218.8626
  19   1.0000      -8.042287      -218.8418
  20   1.0000      -8.041922      -218.8318
  21   1.0000      -7.687245      -209.1806
  22   1.0000      -6.237580      -169.7332
  23   1.0000      -4.345150      -118.2375
  24   1.0000      -4.345091      -118.2359
  25   1.0000      -4.343058      -118.1806
  26   1.0000      -1.153973       -31.4012
  27   1.0000      -1.148618       -31.2555
  28   1.0000      -1.110890       -30.2289
  29   1.0000      -1.106072       -30.0978
  30   1.0000      -0.733527       -19.9603
  31   1.0000      -0.651732       -17.7345
  32   1.0000      -0.580669       -15.8008
  33   1.0000      -0.578455       -15.7406
  34   1.0000      -0.569258       -15.4903
  35   1.0000      -0.521915       -14.2020
  36   1.0000      -0.513946       -13.9852
  37   1.0000      -0.508238       -13.8299
  38   1.0000      -0.502984       -13.6869
  39   1.0000      -0.482519       -13.1300
  40   1.0000      -0.479327       -13.0432
  41   1.0000      -0.466011       -12.6808
  42   1.0000      -0.455363       -12.3910
  43   0.0000       0.023942         0.6515
  44   0.0000       0.031693         0.8624
  45   0.0000       0.036299         0.9877
  46   0.0000       0.037750         1.0272
  47   0.0000       0.048161         1.3105

MULLIKEN ATOMIC CHARGES AND SPIN POPULATIONS
--------------------------------------------
   0 Cl:   -0.202814    0.027653
   1 B :    0.048745    0.945679
   2 Si:    1.875339    0.009265
   3 Cl:   -0.565732   -0.002094
   4 Cl:   -0.589812    0.021590
   5 Cl:   -0.565726   -0.002092
Sum of atomic charges         :   -0.0000000

LOEWDIN ATOMIC CHARGES AND SPIN POPULATIONS
-------------------------------------------
   0 Cl:    1.167221    0.189554
   1 B :   -1.321414    0.589206
   2 Si:   -2.424973    0.175274
   3 Cl:    0.865596    0.004412
   4 Cl:    0.847970    0.037140
   5 Cl:    0.865600    0.004414

  Mayer bond orders larger than 0.100000
B(  0-Cl,  1-B ) :   1.2008 B(  1-B ,  2-Si) :   0.9250 B(  2-Si,  3-Cl) :   0.5488
B(  2-Si,  4-Cl) :   0.5521 B(  2-Si,  5-Cl) :   0.5488

MP2 TOTAL ENERGY:    -2152.904122218 Eh
FINAL SINGLE POINT ENERGY     -2152.904122218425

DIPOLE MOMENT
-------------
                                X             Y             Z
Electronic contribution:     -1.29298      -0.00003      -0.35387
Nuclear contribution   :      0.87119       0.00003       0.25377
                        -----------------------------------------
Total Dipole Moment    :     -0.42179       0.00001      -0.10010
                        -----------------------------------------
Magnitude (a.u.)       :      0.43351
Magnitude (Debye)      :      1.10189

Rotational constants in cm-1:     0.044198     0.025479     0.025012
Rotational constants in MHz :  1325.020401   763.842759   749.842586

                             ****ORCA TERMINATED NORMALLY****
TOTAL RUN TIME: 0 days 0 hours 26 minutes 26 seconds 103 msec
