                         Program Version 5.0.4 -  RELEASE  -
|  1> ! ri-mp2 aug-cc-pvdz aug-cc-pvdz/c tightscf
|  2> %pal nprocs 16 end
|  3> %maxcore 3800
|  4> %base "DZ_P-Cl_6_A"
|  5> %scf
|  6> STABPerform true
|  7> STABRestartUHFifUnstable true
|  8> end
|  9>
| 10> *xyz 0 2
| 11> O        -2.800946   -0.821415   -0.163969
| 12> P         2.120466   -1.043492   -0.198902
| 13> N        -0.595351   -1.044541    0.420089
| 14> N         0.216996    0.954942   -0.247518
| 15> C         0.591060   -0.231163    0.513284
| 16> C        -1.691977   -0.373921   -0.017631
| 17> C        -1.230778    1.049792   -0.249678
| 18> C         0.916900    2.158167    0.127545
| 19> H        -0.635755   -2.014634    0.680585
| 20> H        -1.620849    1.437727   -1.189550
| 21> H        -1.623322    1.672090    0.569963
| 22> H         0.659549    2.960617   -0.562527
| 23> H         0.671061    2.488102    1.149086
| 24> H         1.993182    1.999127    0.066091
| 25> H         1.486844   -1.327314   -1.433979
| 26> H         0.807131    0.017928    1.566492
| 27> *
| 28>
| 29> $new_job
| 30> ! ri-mp2 aug-cc-pvtz aug-cc-pvtz/c tightscf
| 31> %pal nprocs 16 end
| 32> %maxcore 3800
| 33> %base "TZ_P-Cl_6_A"
| 34>
| 35> *xyz 0 2
| 36> O        -2.800946   -0.821415   -0.163969
| 37> P         2.120466   -1.043492   -0.198902
| 38> N        -0.595351   -1.044541    0.420089
| 39> N         0.216996    0.954942   -0.247518
| 40> C         0.591060   -0.231163    0.513284
| 41> C        -1.691977   -0.373921   -0.017631
| 42> C        -1.230778    1.049792   -0.249678
| 43> C         0.916900    2.158167    0.127545
| 44> H        -0.635755   -2.014634    0.680585
| 45> H        -1.620849    1.437727   -1.189550
| 46> H        -1.623322    1.672090    0.569963
| 47> H         0.659549    2.960617   -0.562527
| 48> H         0.671061    2.488102    1.149086
| 49> H         1.993182    1.999127    0.066091
| 50> H         1.486844   -1.327314   -1.433979
| 51> H         0.807131    0.017928    1.566492
| 52> *
| 53>
| 54> $new_job
| 55> ! ri-mp2 aug-cc-pvqz aug-cc-pvqz/c tightscf
| 56> %pal nprocs 16 end
| 57> %maxcore 3800
| 58> %base "QZ_P-Cl_6_A"
| 59>
| 60> *xyz 0 2
| 61> O        -2.800946   -0.821415   -0.163969
| 62> P         2.120466   -1.043492   -0.198902
| 63> N        -0.595351   -1.044541    0.420089
| 64> N         0.216996    0.954942   -0.247518
| 65> C         0.591060   -0.231163    0.513284
| 66> C        -1.691977   -0.373921   -0.017631
| 67> C        -1.230778    1.049792   -0.249678
| 68> C         0.916900    2.158167    0.127545
| 69> H        -0.635755   -2.014634    0.680585
| 70> H        -1.620849    1.437727   -1.189550
| 71> H        -1.623322    1.672090    0.569963
| 72> H         0.659549    2.960617   -0.562527
| 73> H         0.671061    2.488102    1.149086
| 74> H         1.993182    1.999127    0.066091
| 75> H         1.486844   -1.327314   -1.433979
| 76> H         0.807131    0.017928    1.566492
| 77> *
| 78>
| 79>
| 80>
| 81>
| 82>                          ****END OF INPUT****
 Total Charge           Charge          ....    0
 Multiplicity           Mult            ....    2
 Number of Electrons    NEL             ....   69
MP2 TOTAL ENERGY:     -681.854607187 Eh
FINAL SINGLE POINT ENERGY      -681.854607187082
MP2 TOTAL ENERGY:     -682.189359709 Eh
FINAL SINGLE POINT ENERGY      -682.189359708642

CARTESIAN COORDINATES (ANGSTROEM)
---------------------------------
  O     -2.800946   -0.821415   -0.163969
  P      2.120466   -1.043492   -0.198902
  N     -0.595351   -1.044541    0.420089
  N      0.216996    0.954942   -0.247518
  C      0.591060   -0.231163    0.513284
  C     -1.691977   -0.373921   -0.017631
  C     -1.230778    1.049792   -0.249678
  C      0.916900    2.158167    0.127545
  H     -0.635755   -2.014634    0.680585
  H     -1.620849    1.437727   -1.189550
  H     -1.623322    1.672090    0.569963
  H      0.659549    2.960617   -0.562527
  H      0.671061    2.488102    1.149086
  H      1.993182    1.999127    0.066091
  H      1.486844   -1.327314   -1.433979
  H      0.807131    0.017928    1.566492

 Multiplicity           Mult            ....    2
 Number of Electrons    NEL             ....   69
 Basis Dimension        Dim             .... 1012

ORBITAL ENERGIES
----------------
                 SPIN UP ORBITALS
  NO   OCC          E(Eh)            E(eV)
   0   1.0000     -79.959787     -2175.8164
   1   1.0000     -20.523257      -558.4662
   2   1.0000     -15.594868      -424.3579
   3   1.0000     -15.575887      -423.8414
   4   1.0000     -11.353361      -308.9407
   5   1.0000     -11.321486      -308.0733
   6   1.0000     -11.273216      -306.7598
   7   1.0000     -11.264705      -306.5282
   8   1.0000      -7.503585      -204.1829
   9   1.0000      -5.408484      -147.1723
  10   1.0000      -5.394306      -146.7865
  11   1.0000      -5.392494      -146.7372
  12   1.0000      -1.396390       -37.9977
  13   1.0000      -1.310473       -35.6598
  14   1.0000      -1.203287       -32.7431
  15   1.0000      -1.024600       -27.8808
  16   1.0000      -0.974575       -26.5195
  17   1.0000      -0.868690       -23.6383
  18   1.0000      -0.819809       -22.3081
  19   1.0000      -0.807293       -21.9676
  20   1.0000      -0.714314       -19.4375
  21   1.0000      -0.681938       -18.5565
  22   1.0000      -0.640127       -17.4188
  23   1.0000      -0.632325       -17.2064
  24   1.0000      -0.613846       -16.7036
  25   1.0000      -0.595395       -16.2015
  26   1.0000      -0.579595       -15.7716
  27   1.0000      -0.557056       -15.1583
  28   1.0000      -0.535209       -14.5638
  29   1.0000      -0.512727       -13.9520
  30   1.0000      -0.447222       -12.1695
  31   1.0000      -0.426143       -11.5959
  32   1.0000      -0.411481       -11.1970
  33   1.0000      -0.372081       -10.1248
  34   1.0000      -0.362886        -9.8746
  35   0.0000       0.021235         0.5778
  36   0.0000       0.028773         0.7830
  37   0.0000       0.031659         0.8615
  38   0.0000       0.036076         0.9817
  39   0.0000       0.046615         1.2685

                 SPIN DOWN ORBITALS
  NO   OCC          E(Eh)            E(eV)
   0   1.0000     -79.952744     -2175.6248
   1   1.0000     -20.523179      -558.4641
   2   1.0000     -15.594057      -424.3359
   3   1.0000     -15.574714      -423.8095
   4   1.0000     -11.353323      -308.9396
   5   1.0000     -11.322880      -308.1112
   6   1.0000     -11.273155      -306.7581
   7   1.0000     -11.264605      -306.5255
   8   1.0000      -7.494949      -203.9479
   9   1.0000      -5.389439      -146.6541
  10   1.0000      -5.389195      -146.6474
  11   1.0000      -5.375231      -146.2675
  12   1.0000      -1.395995       -37.9870
  13   1.0000      -1.308831       -35.6151
  14   1.0000      -1.201273       -32.6883
  15   1.0000      -1.020942       -27.7813
  16   1.0000      -0.970049       -26.3964
  17   1.0000      -0.851083       -23.1591
  18   1.0000      -0.818221       -22.2649
  19   1.0000      -0.770471       -20.9656
  20   1.0000      -0.712897       -19.3989
  21   1.0000      -0.675266       -18.3749
  22   1.0000      -0.638741       -17.3810
  23   1.0000      -0.629721       -17.1356
  24   1.0000      -0.613370       -16.6907
  25   1.0000      -0.593573       -16.1519
  26   1.0000      -0.577901       -15.7255
  27   1.0000      -0.555356       -15.1120
  28   1.0000      -0.533469       -14.5164
  29   1.0000      -0.509753       -13.8711
  30   1.0000      -0.431588       -11.7441
  31   1.0000      -0.422032       -11.4841
  32   1.0000      -0.404192       -10.9986
  33   1.0000      -0.358565        -9.7571
  34   0.0000       0.017229         0.4688
  35   0.0000       0.021566         0.5868
  36   0.0000       0.031146         0.8475
  37   0.0000       0.033079         0.9001
  38   0.0000       0.040147         1.0925

MULLIKEN ATOMIC CHARGES AND SPIN POPULATIONS
--------------------------------------------
   0 O :   -0.858896    0.001984
   1 P :    0.116560    1.144104
   2 N :   -0.727042    0.009363
   3 N :   -0.328488   -0.023124
   4 C :    0.362875   -0.063258
   5 C :    1.000309    0.001408
   6 C :   -0.595120   -0.001572
   7 C :   -0.869877   -0.002994
   8 H :    0.106552   -0.007135
   9 H :    0.347036   -0.000498
  10 H :    0.265569   -0.000332
  11 H :    0.302389   -0.000515
  12 H :    0.332640   -0.001434
  13 H :    0.291750    0.003345
  14 H :   -0.101362   -0.061469
  15 H :    0.355105    0.002127
Sum of atomic charges         :   -0.0000000

LOEWDIN ATOMIC CHARGES AND SPIN POPULATIONS
-------------------------------------------
   0 O :    0.686270    0.001233
   1 P :    1.347121    0.575352
   2 N :    0.761590    0.022138
   3 N :    0.374378    0.026581
   4 C :   -0.524395    0.153767
   5 C :   -0.855848    0.002603
   6 C :    0.310148    0.002732
   7 C :    0.726525    0.014788
   8 H :   -0.476753    0.012534
   9 H :   -0.276290    0.000326
  10 H :   -0.268735    0.000424
  11 H :   -0.283873    0.000592
  12 H :   -0.271590    0.000473
  13 H :   -0.310466    0.016859
  14 H :   -0.568520    0.162913
  15 H :   -0.369561    0.006686

  Mayer bond orders larger than 0.100000
B(  0-O ,  2-N ) :   0.2421 B(  0-O ,  5-C ) :   0.9583 B(  0-O ,  6-C ) :   0.2687
B(  1-P ,  4-C ) :   0.6725 B(  1-P , 14-H ) :   0.9877 B(  2-N ,  4-C ) :   0.5739
B(  2-N ,  5-C ) :   1.2134 B(  2-N ,  8-H ) :   1.1517 B(  3-N ,  4-C ) :   0.7345
B(  3-N ,  6-C ) :   0.9519 B(  3-N ,  7-C ) :   0.9210 B(  4-C , 15-H ) :   0.9155
B(  5-C ,  6-C ) :   1.2725 B(  6-C ,  9-H ) :   0.8628 B(  6-C , 10-H ) :   0.8717
B(  7-C , 11-H ) :   0.9487 B(  7-C , 12-H ) :   0.8829 B(  7-C , 13-H ) :   0.9595

MP2 TOTAL ENERGY:     -682.296988234 Eh
FINAL SINGLE POINT ENERGY      -682.296988233710

DIPOLE MOMENT
-------------
                                X             Y             Z
Electronic contribution:      1.44575      -7.42739      -0.56471
Nuclear contribution   :     -0.32424       8.11948       1.02212
                        -----------------------------------------
Total Dipole Moment    :      1.12152       0.69209       0.45742
                        -----------------------------------------
Magnitude (a.u.)       :      1.39500
Magnitude (Debye)      :      3.54580

Rotational constants in cm-1:     0.088323     0.045763     0.032157
Rotational constants in MHz :  2647.847037  1371.925418   964.042262

                             ****ORCA TERMINATED NORMALLY****
TOTAL RUN TIME: 0 days 6 hours 41 minutes 19 seconds 166 msec
