                         Program Version 5.0.4 -  RELEASE  -
|  1> ! ri-mp2 aug-cc-pvdz aug-cc-pvdz/c tightscf
|  2> %pal nprocs 16 end
|  3> %maxcore 3800
|  4> %base "DZ_B-Cl_27_A"
|  5> %scf
|  6> STABPerform true
|  7> STABRestartUHFifUnstable true
|  8> end
|  9>
| 10> *xyz 0 2
| 11> Cl        -1.893183   -0.006653   -0.114604
| 12> B        -0.389568    0.000223    0.649004
| 13> C         1.046584    0.130242    0.084264
| 14> O         1.642070    1.131265   -0.114528
| 15> F         1.635099   -1.079953   -0.098457
| 16> *
| 17>
| 18> $new_job
| 19> ! ri-mp2 aug-cc-pvtz aug-cc-pvtz/c tightscf
| 20> %pal nprocs 16 end
| 21> %maxcore 3800
| 22> %base "TZ_B-Cl_27_A"
| 23>
| 24> *xyz 0 2
| 25> Cl        -1.893183   -0.006653   -0.114604
| 26> B        -0.389568    0.000223    0.649004
| 27> C         1.046584    0.130242    0.084264
| 28> O         1.642070    1.131265   -0.114528
| 29> F         1.635099   -1.079953   -0.098457
| 30> *
| 31>
| 32> $new_job
| 33> ! ri-mp2 aug-cc-pvqz aug-cc-pvqz/c tightscf
| 34> %pal nprocs 16 end
| 35> %maxcore 3800
| 36> %base "QZ_B-Cl_27_A"
| 37>
| 38> *xyz 0 2
| 39> Cl        -1.893183   -0.006653   -0.114604
| 40> B        -0.389568    0.000223    0.649004
| 41> C         1.046584    0.130242    0.084264
| 42> O         1.642070    1.131265   -0.114528
| 43> F         1.635099   -1.079953   -0.098457
| 44> *
| 45>
| 46>
| 47>
| 48>
| 49>                          ****END OF INPUT****
 Total Charge           Charge          ....    0
 Multiplicity           Mult            ....    2
 Number of Electrons    NEL             ....   45
MP2 TOTAL ENERGY:     -697.091302056 Eh
FINAL SINGLE POINT ENERGY      -697.091302055559
MP2 TOTAL ENERGY:     -697.341901594 Eh
FINAL SINGLE POINT ENERGY      -697.341901593632

CARTESIAN COORDINATES (ANGSTROEM)
---------------------------------
  Cl    -1.893183   -0.006653   -0.114604
  B     -0.389568    0.000223    0.649004
  C      1.046584    0.130242    0.084264
  O      1.642070    1.131265   -0.114528
  F      1.635099   -1.079953   -0.098457

 Multiplicity           Mult            ....    2
 Number of Electrons    NEL             ....   45
 Basis Dimension        Dim             ....  404

ORBITAL ENERGIES
----------------
                 SPIN UP ORBITALS
  NO   OCC          E(Eh)            E(eV)
   0   1.0000    -104.890393     -2854.2127
   1   1.0000     -26.337625      -716.6832
   2   1.0000     -20.603472      -560.6490
   3   1.0000     -11.422327      -310.8173
   4   1.0000     -10.617707      -288.9225
   5   1.0000      -8.085252      -220.0109
   6   1.0000      -8.083388      -219.9602
   7   1.0000      -8.082815      -219.9446
   8   1.0000      -7.731067      -210.3730
   9   1.0000      -1.661392       -45.2088
  10   1.0000      -1.454812       -39.5875
  11   1.0000      -1.175722       -31.9930
  12   1.0000      -0.921248       -25.0684
  13   1.0000      -0.802669       -21.8417
  14   1.0000      -0.733512       -19.9599
  15   1.0000      -0.728760       -19.8306
  16   1.0000      -0.681905       -18.5556
  17   1.0000      -0.627868       -17.0851
  18   1.0000      -0.590169       -16.0593
  19   1.0000      -0.553636       -15.0652
  20   1.0000      -0.534918       -14.5559
  21   1.0000      -0.511114       -13.9081
  22   1.0000      -0.382362       -10.4046
  23   0.0000       0.026631         0.7247
  24   0.0000       0.029175         0.7939
  25   0.0000       0.035553         0.9674
  26   0.0000       0.040511         1.1024
  27   0.0000       0.044019         1.1978

                 SPIN DOWN ORBITALS
  NO   OCC          E(Eh)            E(eV)
   0   1.0000    -104.889745     -2854.1951
   1   1.0000     -26.338057      -716.6950
   2   1.0000     -20.596570      -560.4612
   3   1.0000     -11.423893      -310.8599
   4   1.0000     -10.616956      -288.9021
   5   1.0000      -8.084240      -219.9834
   6   1.0000      -8.083298      -219.9577
   7   1.0000      -8.080703      -219.8871
   8   1.0000      -7.710929      -209.8250
   9   1.0000      -1.662395       -45.2361
  10   1.0000      -1.440379       -39.1947
  11   1.0000      -1.167863       -31.7792
  12   1.0000      -0.908384       -24.7184
  13   1.0000      -0.792527       -21.5658
  14   1.0000      -0.728720       -19.8295
  15   1.0000      -0.727592       -19.7988
  16   1.0000      -0.663656       -18.0590
  17   1.0000      -0.620711       -16.8904
  18   1.0000      -0.549025       -14.9397
  19   1.0000      -0.536400       -14.5962
  20   1.0000      -0.521543       -14.1919
  21   1.0000      -0.494316       -13.4510
  22   0.0000       0.018855         0.5131
  23   0.0000       0.034118         0.9284
  24   0.0000       0.034900         0.9497
  25   0.0000       0.039322         1.0700
  26   0.0000       0.051615         1.4045

MULLIKEN ATOMIC CHARGES AND SPIN POPULATIONS
--------------------------------------------
   0 Cl:   -0.125879    0.027211
   1 B :    0.429471    0.938735
   2 C :    0.847997   -0.114493
   3 O :   -0.596278    0.151097
   4 F :   -0.555312   -0.002550
Sum of atomic charges         :   -0.0000000

LOEWDIN ATOMIC CHARGES AND SPIN POPULATIONS
-------------------------------------------
   0 Cl:    1.245280    0.174980
   1 B :   -1.181918    0.552880
   2 C :   -1.326298    0.162549
   3 O :    0.593288    0.110037
   4 F :    0.669647   -0.000445

  Mayer bond orders larger than 0.100000
B(  0-Cl,  1-B ) :   1.3021 B(  1-B ,  2-C ) :   0.9573 B(  2-C ,  3-O ) :   1.7442
B(  2-C ,  4-F ) :   0.6906

MP2 TOTAL ENERGY:     -697.426912662 Eh
FINAL SINGLE POINT ENERGY      -697.426912662253

DIPOLE MOMENT
-------------
                                X             Y             Z
Electronic contribution:     -2.24054      -1.27431       0.43323
Nuclear contribution   :      1.29889       0.99103      -0.23883
                        -----------------------------------------
Total Dipole Moment    :     -0.94165      -0.28328       0.19440
                        -----------------------------------------
Magnitude (a.u.)       :      1.00237
Magnitude (Debye)      :      2.54782

Rotational constants in cm-1:     0.348975     0.069865     0.060508
Rotational constants in MHz : 10461.992509  2094.504161  1813.994229

                             ****ORCA TERMINATED NORMALLY****
TOTAL RUN TIME: 0 days 0 hours 13 minutes 32 seconds 851 msec
