                         Program Version 5.0.4 -  RELEASE  -
|  1> ! ri-mp2 aug-cc-pvdz aug-cc-pvdz/c tightscf
|  2> %pal nprocs 16 end
|  3> %maxcore 3800
|  4> %base "DZ_B-B_5_AB"
|  5>
|  6> *xyz 0 1
|  7> B         0.720326    1.551025    0.410449
|  8> B        -0.720327    1.551026   -0.410447
|  9> C         1.929484    0.633628    0.131255
| 10> C         3.126384    0.780626    0.842487
| 11> C         1.871770   -0.383271   -0.830801
| 12> C         2.951380   -1.211217   -1.071941
| 13> C         4.212978   -0.040928    0.605881
| 14> C         4.123889   -1.037869   -0.352550
| 15> H         4.971902   -1.684182   -0.539546
| 16> H         2.884331   -1.991432   -1.818637
| 17> H         0.957903   -0.527699   -1.394263
| 18> H         3.194610    1.557545    1.593363
| 19> H         5.128959    0.090858    1.166678
| 20> C        -1.929484    0.633627   -0.131255
| 21> C        -3.126387    0.780631   -0.842481
| 22> C        -1.871766   -0.383280    0.830793
| 23> C        -2.951376   -1.211226    1.071933
| 24> C        -4.212981   -0.040924   -0.605875
| 25> C        -4.123888   -1.037872    0.352548
| 26> H        -0.957897   -0.527712    1.394251
| 27> H        -2.884324   -1.991447    1.818622
| 28> H        -5.128965    0.090867   -1.166666
| 29> H        -4.971901   -1.684185    0.539544
| 30> H        -3.194616    1.557556   -1.593350
| 31> H         0.856853    2.354002    1.293946
| 32> H        -0.856861    2.354017   -1.293929
| 33> *
| 34>
| 35> $new_job
| 36> ! ri-mp2 aug-cc-pvtz aug-cc-pvtz/c tightscf
| 37> %pal nprocs 16 end
| 38> %maxcore 3800
| 39> %base "TZ_B-B_5_AB"
| 40>
| 41> *xyz 0 1
| 42> B         0.720326    1.551025    0.410449
| 43> B        -0.720327    1.551026   -0.410447
| 44> C         1.929484    0.633628    0.131255
| 45> C         3.126384    0.780626    0.842487
| 46> C         1.871770   -0.383271   -0.830801
| 47> C         2.951380   -1.211217   -1.071941
| 48> C         4.212978   -0.040928    0.605881
| 49> C         4.123889   -1.037869   -0.352550
| 50> H         4.971902   -1.684182   -0.539546
| 51> H         2.884331   -1.991432   -1.818637
| 52> H         0.957903   -0.527699   -1.394263
| 53> H         3.194610    1.557545    1.593363
| 54> H         5.128959    0.090858    1.166678
| 55> C        -1.929484    0.633627   -0.131255
| 56> C        -3.126387    0.780631   -0.842481
| 57> C        -1.871766   -0.383280    0.830793
| 58> C        -2.951376   -1.211226    1.071933
| 59> C        -4.212981   -0.040924   -0.605875
| 60> C        -4.123888   -1.037872    0.352548
| 61> H        -0.957897   -0.527712    1.394251
| 62> H        -2.884324   -1.991447    1.818622
| 63> H        -5.128965    0.090867   -1.166666
| 64> H        -4.971901   -1.684185    0.539544
| 65> H        -3.194616    1.557556   -1.593350
| 66> H         0.856853    2.354002    1.293946
| 67> H        -0.856861    2.354017   -1.293929
| 68> *
| 69>
| 70> $new_job
| 71> ! ri-mp2 aug-cc-pvqz aug-cc-pvqz/c tightscf
| 72> %pal nprocs 16 end
| 73> %maxcore 3800
| 74> %base "QZ_B-B_5_AB"
| 75>
| 76> *xyz 0 1
| 77> B         0.720326    1.551025    0.410449
| 78> B        -0.720327    1.551026   -0.410447
| 79> C         1.929484    0.633628    0.131255
| 80> C         3.126384    0.780626    0.842487
| 81> C         1.871770   -0.383271   -0.830801
| 82> C         2.951380   -1.211217   -1.071941
| 83> C         4.212978   -0.040928    0.605881
| 84> C         4.123889   -1.037869   -0.352550
| 85> H         4.971902   -1.684182   -0.539546
| 86> H         2.884331   -1.991432   -1.818637
| 87> H         0.957903   -0.527699   -1.394263
| 88> H         3.194610    1.557545    1.593363
| 89> H         5.128959    0.090858    1.166678
| 90> C        -1.929484    0.633627   -0.131255
| 91> C        -3.126387    0.780631   -0.842481
| 92> C        -1.871766   -0.383280    0.830793
| 93> C        -2.951376   -1.211226    1.071933
| 94> C        -4.212981   -0.040924   -0.605875
| 95> C        -4.123888   -1.037872    0.352548
| 96> H        -0.957897   -0.527712    1.394251
| 97> H        -2.884324   -1.991447    1.818622
| 98> H        -5.128965    0.090867   -1.166666
| 99> H        -4.971901   -1.684185    0.539544
|100> H        -3.194616    1.557556   -1.593350
|101> H         0.856853    2.354002    1.293946
|102> H        -0.856861    2.354017   -1.293929
|103> *
|104>
|105>
|106>
|107>
|108>                          ****END OF INPUT****
 Total Charge           Charge          ....    0
 Multiplicity           Mult            ....    1
 Number of Electrons    NEL             ....   94
MP2 TOTAL ENERGY:     -512.582764889 Eh
FINAL SINGLE POINT ENERGY      -512.582764889394
MP2 TOTAL ENERGY:     -513.029250848 Eh
FINAL SINGLE POINT ENERGY      -513.029250848403

CARTESIAN COORDINATES (ANGSTROEM)
---------------------------------
  B      0.720326    1.551025    0.410449
  B     -0.720327    1.551026   -0.410447
  C      1.929484    0.633628    0.131255
  C      3.126384    0.780626    0.842487
  C      1.871770   -0.383271   -0.830801
  C      2.951380   -1.211217   -1.071941
  C      4.212978   -0.040928    0.605881
  C      4.123889   -1.037869   -0.352550
  H      4.971902   -1.684182   -0.539546
  H      2.884331   -1.991432   -1.818637
  H      0.957903   -0.527699   -1.394263
  H      3.194610    1.557545    1.593363
  H      5.128959    0.090858    1.166678
  C     -1.929484    0.633627   -0.131255
  C     -3.126387    0.780631   -0.842481
  C     -1.871766   -0.383280    0.830793
  C     -2.951376   -1.211226    1.071933
  C     -4.212981   -0.040924   -0.605875
  C     -4.123888   -1.037872    0.352548
  H     -0.957897   -0.527712    1.394251
  H     -2.884324   -1.991447    1.818622
  H     -5.128965    0.090867   -1.166666
  H     -4.971901   -1.684185    0.539544
  H     -3.194616    1.557556   -1.593350
  H      0.856853    2.354002    1.293946
  H     -0.856861    2.354017   -1.293929

 Multiplicity           Mult            ....    1
 Number of Electrons    NEL             ....   94
 Basis Dimension        Dim             .... 1672

ORBITAL ENERGIES
----------------

  NO   OCC          E(Eh)            E(eV)
   0   2.0000     -11.243777      -305.9587
   1   2.0000     -11.243777      -305.9587
   2   2.0000     -11.239457      -305.8412
   3   2.0000     -11.239456      -305.8411
   4   2.0000     -11.238275      -305.8090
   5   2.0000     -11.238275      -305.8090
   6   2.0000     -11.231829      -305.6336
   7   2.0000     -11.231829      -305.6336
   8   2.0000     -11.231449      -305.6233
   9   2.0000     -11.231449      -305.6233
  10   2.0000     -11.210122      -305.0429
  11   2.0000     -11.210121      -305.0429
  12   2.0000      -7.566694      -205.9002
  13   2.0000      -7.565792      -205.8757
  14   2.0000      -1.156496       -31.4699
  15   2.0000      -1.155839       -31.4520
  16   2.0000      -1.021116       -27.7860
  17   2.0000      -1.020163       -27.7600
  18   2.0000      -1.019442       -27.7404
  19   2.0000      -1.016677       -27.6652
  20   2.0000      -0.835886       -22.7456
  21   2.0000      -0.829456       -22.5706
  22   2.0000      -0.828080       -22.5332
  23   2.0000      -0.825306       -22.4577
  24   2.0000      -0.737361       -20.0646
  25   2.0000      -0.713704       -19.4209
  26   2.0000      -0.676831       -18.4175
  27   2.0000      -0.646428       -17.5902
  28   2.0000      -0.630918       -17.1682
  29   2.0000      -0.629005       -17.1161
  30   2.0000      -0.626486       -17.0476
  31   2.0000      -0.597309       -16.2536
  32   2.0000      -0.590883       -16.0787
  33   2.0000      -0.589579       -16.0433
  34   2.0000      -0.549057       -14.9406
  35   2.0000      -0.528673       -14.3859
  36   2.0000      -0.508114       -13.8265
  37   2.0000      -0.506983       -13.7957
  38   2.0000      -0.495526       -13.4840
  39   2.0000      -0.492880       -13.4120
  40   2.0000      -0.462738       -12.5917
  41   2.0000      -0.459649       -12.5077
  42   2.0000      -0.407188       -11.0802
  43   2.0000      -0.345833        -9.4106
  44   2.0000      -0.344477        -9.3737
  45   2.0000      -0.341788        -9.3005
  46   2.0000      -0.340094        -9.2544
  47   0.0000       0.020184         0.5492
  48   0.0000       0.024439         0.6650
  49   0.0000       0.028195         0.7672
  50   0.0000       0.028636         0.7792
  51   0.0000       0.034216         0.9311

MULLIKEN ATOMIC CHARGES
-----------------------
   0 B :    0.872433
   1 B :    0.872465
   2 C :    0.222716
   3 C :   -0.494056
   4 C :   -0.484589
   5 C :   -0.288877
   6 C :   -0.368717
   7 C :   -0.351445
   8 H :    0.349974
   9 H :    0.251020
  10 H :    0.288606
  11 H :    0.258055
  12 H :    0.237063
  13 C :    0.222725
  14 C :   -0.494136
  15 C :   -0.484564
  16 C :   -0.288874
  17 C :   -0.368695
  18 C :   -0.351450
  19 H :    0.288616
  20 H :    0.251031
  21 H :    0.237058
  22 H :    0.349978
  23 H :    0.258046
  24 H :   -0.492187
  25 H :   -0.492195
Sum of atomic charges:    0.0000000

LOEWDIN ATOMIC CHARGES
----------------------
   0 B :   -0.001811
   1 B :   -0.001811
   2 C :    0.036913
   3 C :    0.321753
   4 C :    0.327189
   5 C :    0.361489
   6 C :    0.355523
   7 C :    0.342292
   8 H :   -0.315355
   9 H :   -0.318981
  10 H :   -0.313328
  11 H :   -0.323739
  12 H :   -0.320899
  13 C :    0.036913
  14 C :    0.321754
  15 C :    0.327189
  16 C :    0.361490
  17 C :    0.355523
  18 C :    0.342291
  19 H :   -0.313328
  20 H :   -0.318981
  21 H :   -0.320899
  22 H :   -0.315355
  23 H :   -0.323739
  24 H :   -0.151045
  25 H :   -0.151046

  Mayer bond orders larger than 0.100000
B(  0-B ,  1-B ) :   1.2576 B(  0-B ,  2-C ) :   0.4891 B(  0-B , 15-C ) :   0.1034
B(  0-B , 24-H ) :   0.6182 B(  1-B ,  4-C ) :   0.1034 B(  1-B , 13-C ) :   0.4890
B(  1-B , 25-H ) :   0.6181 B(  2-C ,  3-C ) :   0.8246 B(  2-C ,  4-C ) :   0.9831
B(  2-C ,  5-C ) :  -0.3399 B(  2-C ,  6-C ) :  -0.4321 B(  2-C , 24-H ) :   0.1352
B(  3-C ,  5-C ) :   0.1442 B(  3-C ,  6-C ) :   1.3897 B(  3-C ,  7-C ) :   0.1202
B(  3-C , 11-H ) :   0.9854 B(  3-C , 12-H ) :  -0.1482 B(  4-C ,  5-C ) :   1.2576
B(  4-C ,  6-C ) :   0.1334 B(  4-C ,  9-H ) :  -0.1317 B(  4-C , 10-H ) :   0.9034
B(  5-C ,  7-C ) :   1.1790 B(  5-C ,  8-H ) :  -0.1001 B(  5-C ,  9-H ) :   1.1118
B(  6-C ,  7-C ) :   1.1692 B(  6-C , 12-H ) :   1.1529 B(  7-C ,  8-H ) :   0.9949
B( 13-C , 14-C ) :   0.8246 B( 13-C , 15-C ) :   0.9831 B( 13-C , 16-C ) :  -0.3399
B( 13-C , 17-C ) :  -0.4320 B( 13-C , 25-H ) :   0.1352 B( 14-C , 16-C ) :   0.1442
B( 14-C , 17-C ) :   1.3896 B( 14-C , 18-C ) :   0.1202 B( 14-C , 21-H ) :  -0.1482
B( 14-C , 23-H ) :   0.9854 B( 15-C , 16-C ) :   1.2576 B( 15-C , 17-C ) :   0.1334
B( 15-C , 19-H ) :   0.9033 B( 15-C , 20-H ) :  -0.1317 B( 16-C , 18-C ) :   1.1790
B( 16-C , 20-H ) :   1.1118 B( 16-C , 22-H ) :  -0.1001 B( 17-C , 18-C ) :   1.1692
B( 17-C , 21-H ) :   1.1529 B( 18-C , 22-H ) :   0.9948

MP2 TOTAL ENERGY:     -513.170640906 Eh
FINAL SINGLE POINT ENERGY      -513.170640906133

DIPOLE MOMENT
-------------
                                X             Y             Z
Electronic contribution:      0.00001       2.31130      -0.00002
Nuclear contribution   :     -0.00001      -2.88009       0.00001
                        -----------------------------------------
Total Dipole Moment    :      0.00000      -0.56879      -0.00000
                        -----------------------------------------
Magnitude (a.u.)       :      0.56879
Magnitude (Debye)      :      1.44576

Rotational constants in cm-1:     0.062257     0.009877     0.009478
Rotational constants in MHz :  1866.432423   296.096727   284.143430

                             ****ORCA TERMINATED NORMALLY****
TOTAL RUN TIME: 0 days 1 hours 22 minutes 46 seconds 793 msec
