                         Program Version 5.0.4 -  RELEASE  -
|  1> ! ri-mp2 aug-cc-pvdz aug-cc-pvdz/c tightscf
|  2> %pal nprocs 16 end
|  3> %maxcore 3800
|  4> %base "DZ_B-B_73_AB"
|  5>
|  6> *xyz 0 1
|  7> B         0.751900    1.531920   -0.348218
|  8> B        -0.751898    1.531918    0.348231
|  9> C        -1.933973    0.614077   -0.038759
| 10> C        -3.183782    0.768327    0.571186
| 11> C        -1.791620   -0.399201   -0.994755
| 12> C        -2.848015   -1.225281   -1.330729
| 13> C        -4.080793   -1.059040   -0.720400
| 14> C        -4.222676   -0.061493    0.220930
| 15> H        -0.833344   -0.543101   -1.477135
| 16> H        -2.719585   -2.003683   -2.070680
| 17> H        -4.926470   -1.688089   -0.961938
| 18> C         1.933973    0.614074    0.038763
| 19> C         3.183785    0.768335   -0.571173
| 20> C         1.791615   -0.399220    0.994741
| 21> C         2.848009   -1.225305    1.330707
| 22> C         4.080791   -1.059053    0.720387
| 23> C         4.222678   -0.061490   -0.220926
| 24> H         0.833337   -0.543128    1.477114
| 25> H         2.719576   -2.003720    2.070644
| 26> H         4.926467   -1.688105    0.961920
| 27> F        -5.418423    0.098385    0.814597
| 28> F         5.418427    0.098399   -0.814584
| 29> H        -3.344584    1.534185    1.317695
| 30> H         3.344590    1.534206   -1.317669
| 31> H        -0.962901    2.331403    1.218562
| 32> H         0.962907    2.331421   -1.218534
| 33> *
| 34>
| 35> $new_job
| 36> ! ri-mp2 aug-cc-pvtz aug-cc-pvtz/c tightscf
| 37> %pal nprocs 16 end
| 38> %maxcore 3800
| 39> %base "TZ_B-B_73_AB"
| 40>
| 41> *xyz 0 1
| 42> B         0.751900    1.531920   -0.348218
| 43> B        -0.751898    1.531918    0.348231
| 44> C        -1.933973    0.614077   -0.038759
| 45> C        -3.183782    0.768327    0.571186
| 46> C        -1.791620   -0.399201   -0.994755
| 47> C        -2.848015   -1.225281   -1.330729
| 48> C        -4.080793   -1.059040   -0.720400
| 49> C        -4.222676   -0.061493    0.220930
| 50> H        -0.833344   -0.543101   -1.477135
| 51> H        -2.719585   -2.003683   -2.070680
| 52> H        -4.926470   -1.688089   -0.961938
| 53> C         1.933973    0.614074    0.038763
| 54> C         3.183785    0.768335   -0.571173
| 55> C         1.791615   -0.399220    0.994741
| 56> C         2.848009   -1.225305    1.330707
| 57> C         4.080791   -1.059053    0.720387
| 58> C         4.222678   -0.061490   -0.220926
| 59> H         0.833337   -0.543128    1.477114
| 60> H         2.719576   -2.003720    2.070644
| 61> H         4.926467   -1.688105    0.961920
| 62> F        -5.418423    0.098385    0.814597
| 63> F         5.418427    0.098399   -0.814584
| 64> H        -3.344584    1.534185    1.317695
| 65> H         3.344590    1.534206   -1.317669
| 66> H        -0.962901    2.331403    1.218562
| 67> H         0.962907    2.331421   -1.218534
| 68> *
| 69>
| 70> $new_job
| 71> ! ri-mp2 aug-cc-pvqz aug-cc-pvqz/c tightscf
| 72> %pal nprocs 16 end
| 73> %maxcore 3800
| 74> %base "QZ_B-B_73_AB"
| 75>
| 76> *xyz 0 1
| 77> B         0.751900    1.531920   -0.348218
| 78> B        -0.751898    1.531918    0.348231
| 79> C        -1.933973    0.614077   -0.038759
| 80> C        -3.183782    0.768327    0.571186
| 81> C        -1.791620   -0.399201   -0.994755
| 82> C        -2.848015   -1.225281   -1.330729
| 83> C        -4.080793   -1.059040   -0.720400
| 84> C        -4.222676   -0.061493    0.220930
| 85> H        -0.833344   -0.543101   -1.477135
| 86> H        -2.719585   -2.003683   -2.070680
| 87> H        -4.926470   -1.688089   -0.961938
| 88> C         1.933973    0.614074    0.038763
| 89> C         3.183785    0.768335   -0.571173
| 90> C         1.791615   -0.399220    0.994741
| 91> C         2.848009   -1.225305    1.330707
| 92> C         4.080791   -1.059053    0.720387
| 93> C         4.222678   -0.061490   -0.220926
| 94> H         0.833337   -0.543128    1.477114
| 95> H         2.719576   -2.003720    2.070644
| 96> H         4.926467   -1.688105    0.961920
| 97> F        -5.418423    0.098385    0.814597
| 98> F         5.418427    0.098399   -0.814584
| 99> H        -3.344584    1.534185    1.317695
|100> H         3.344590    1.534206   -1.317669
|101> H        -0.962901    2.331403    1.218562
|102> H         0.962907    2.331421   -1.218534
|103> *
|104>
|105>
|106>
|107>
|108>                          ****END OF INPUT****
 Total Charge           Charge          ....    0
 Multiplicity           Mult            ....    1
 Number of Electrons    NEL             ....  110
MP2 TOTAL ENERGY:     -710.699860562 Eh
FINAL SINGLE POINT ENERGY      -710.699860561662
MP2 TOTAL ENERGY:     -711.304701484 Eh
FINAL SINGLE POINT ENERGY      -711.304701484001

CARTESIAN COORDINATES (ANGSTROEM)
---------------------------------
  B      0.751900    1.531920   -0.348218
  B     -0.751898    1.531918    0.348231
  C     -1.933973    0.614077   -0.038759
  C     -3.183782    0.768327    0.571186
  C     -1.791620   -0.399201   -0.994755
  C     -2.848015   -1.225281   -1.330729
  C     -4.080793   -1.059040   -0.720400
  C     -4.222676   -0.061493    0.220930
  H     -0.833344   -0.543101   -1.477135
  H     -2.719585   -2.003683   -2.070680
  H     -4.926470   -1.688089   -0.961938
  C      1.933973    0.614074    0.038763
  C      3.183785    0.768335   -0.571173
  C      1.791615   -0.399220    0.994741
  C      2.848009   -1.225305    1.330707
  C      4.080791   -1.059053    0.720387
  C      4.222678   -0.061490   -0.220926
  H      0.833337   -0.543128    1.477114
  H      2.719576   -2.003720    2.070644
  H      4.926467   -1.688105    0.961920
  F     -5.418423    0.098385    0.814597
  F      5.418427    0.098399   -0.814584
  H     -3.344584    1.534185    1.317695
  H      3.344590    1.534206   -1.317669
  H     -0.962901    2.331403    1.218562
  H      0.962907    2.331421   -1.218534

 Multiplicity           Mult            ....    1
 Number of Electrons    NEL             ....  110
 Basis Dimension        Dim             .... 1740

ORBITAL ENERGIES
----------------

  NO   OCC          E(Eh)            E(eV)
   0   2.0000     -26.308631      -715.8942
   1   2.0000     -26.308631      -715.8942
   2   2.0000     -11.327613      -308.2400
   3   2.0000     -11.327612      -308.2400
   4   2.0000     -11.255412      -306.2753
   5   2.0000     -11.255412      -306.2753
   6   2.0000     -11.250266      -306.1353
   7   2.0000     -11.250266      -306.1353
   8   2.0000     -11.249655      -306.1187
   9   2.0000     -11.249655      -306.1187
  10   2.0000     -11.247939      -306.0720
  11   2.0000     -11.247938      -306.0720
  12   2.0000     -11.228706      -305.5486
  13   2.0000     -11.228706      -305.5486
  14   2.0000      -7.580803      -206.2841
  15   2.0000      -7.579897      -206.2595
  16   2.0000      -1.629663       -44.3454
  17   2.0000      -1.629663       -44.3454
  18   2.0000      -1.173334       -31.9280
  19   2.0000      -1.172712       -31.9111
  20   2.0000      -1.040335       -28.3090
  21   2.0000      -1.039193       -28.2779
  22   2.0000      -1.031652       -28.0727
  23   2.0000      -1.029223       -28.0066
  24   2.0000      -0.868785       -23.6408
  25   2.0000      -0.861585       -23.4449
  26   2.0000      -0.848544       -23.0900
  27   2.0000      -0.848474       -23.0881
  28   2.0000      -0.767420       -20.8826
  29   2.0000      -0.752579       -20.4787
  30   2.0000      -0.713202       -19.4072
  31   2.0000      -0.705420       -19.1955
  32   2.0000      -0.698092       -18.9960
  33   2.0000      -0.698085       -18.9959
  34   2.0000      -0.694807       -18.9067
  35   2.0000      -0.693756       -18.8781
  36   2.0000      -0.689032       -18.7495
  37   2.0000      -0.631007       -17.1706
  38   2.0000      -0.623257       -16.9597
  39   2.0000      -0.622814       -16.9476
  40   2.0000      -0.603994       -16.4355
  41   2.0000      -0.598974       -16.2989
  42   2.0000      -0.568429       -15.4677
  43   2.0000      -0.546538       -14.8721
  44   2.0000      -0.529422       -14.4063
  45   2.0000      -0.529024       -14.3955
  46   2.0000      -0.518047       -14.0968
  47   2.0000      -0.517002       -14.0684
  48   2.0000      -0.477654       -12.9976
  49   2.0000      -0.474197       -12.9036
  50   2.0000      -0.422487       -11.4964
  51   2.0000      -0.361688        -9.8420
  52   2.0000      -0.361435        -9.8352
  53   2.0000      -0.349252        -9.5036
  54   2.0000      -0.346240        -9.4217
  55   0.0000       0.018698         0.5088
  56   0.0000       0.024539         0.6677
  57   0.0000       0.026941         0.7331
  58   0.0000       0.028340         0.7712
  59   0.0000       0.035948         0.9782

MULLIKEN ATOMIC CHARGES
-----------------------
   0 B :    0.880897
   1 B :    0.880950
   2 C :    0.227747
   3 C :   -0.862611
   4 C :   -0.413895
   5 C :   -0.343362
   6 C :   -0.570687
   7 C :    1.162421
   8 H :    0.264464
   9 H :    0.195247
  10 H :    0.434942
  11 C :    0.227658
  12 C :   -0.862576
  13 C :   -0.413887
  14 C :   -0.343353
  15 C :   -0.570688
  16 C :    1.162448
  17 H :    0.264488
  18 H :    0.195257
  19 H :    0.434915
  20 F :   -0.800063
  21 F :   -0.800062
  22 H :    0.313423
  23 H :    0.313417
  24 H :   -0.488544
  25 H :   -0.488544
Sum of atomic charges:   -0.0000000

LOEWDIN ATOMIC CHARGES
----------------------
   0 B :    0.004832
   1 B :    0.004833
   2 C :    0.030320
   3 C :    0.287015
   4 C :    0.329945
   5 C :    0.357144
   6 C :    0.310267
   7 C :   -0.672004
   8 H :   -0.315465
   9 H :   -0.314455
  10 H :   -0.321685
  11 C :    0.030320
  12 C :    0.287014
  13 C :    0.329945
  14 C :    0.357144
  15 C :    0.310268
  16 C :   -0.672005
  17 H :   -0.315466
  18 H :   -0.314455
  19 H :   -0.321685
  20 F :    0.781312
  21 F :    0.781313
  22 H :   -0.328508
  23 H :   -0.328507
  24 H :   -0.148717
  25 H :   -0.148717

  Mayer bond orders larger than 0.100000
B(  0-B ,  1-B ) :   1.2610 B(  0-B ,  4-C ) :   0.1022 B(  0-B , 11-C ) :   0.5876
B(  0-B , 25-H ) :   0.6233 B(  1-B ,  2-C ) :   0.5875 B(  1-B , 13-C ) :   0.1021
B(  1-B , 24-H ) :   0.6233 B(  2-C ,  3-C ) :   0.9264 B(  2-C ,  4-C ) :   0.9100
B(  2-C ,  5-C ) :  -0.3274 B(  2-C ,  7-C ) :  -0.5207 B(  2-C , 24-H ) :   0.1399
B(  3-C ,  6-C ) :   0.2010 B(  3-C ,  7-C ) :   1.6737 B(  3-C , 20-F ) :   0.2427
B(  3-C , 22-H ) :   0.8668 B(  4-C ,  5-C ) :   1.1923 B(  4-C ,  7-C ) :   0.1633
B(  4-C ,  8-H ) :   0.9364 B(  4-C ,  9-H ) :  -0.1668 B(  5-C ,  6-C ) :   1.2474
B(  5-C ,  7-C ) :  -0.1434 B(  5-C ,  9-H ) :   1.1989 B(  6-C ,  7-C ) :   1.3403
B(  6-C , 10-H ) :   0.7994 B(  6-C , 20-F ) :   0.1570 B(  7-C , 20-F ) :  -0.2565
B( 11-C , 12-C ) :   0.9265 B( 11-C , 13-C ) :   0.9100 B( 11-C , 14-C ) :  -0.3274
B( 11-C , 16-C ) :  -0.5207 B( 11-C , 25-H ) :   0.1398 B( 12-C , 15-C ) :   0.2010
B( 12-C , 16-C ) :   1.6737 B( 12-C , 21-F ) :   0.2427 B( 12-C , 23-H ) :   0.8669
B( 13-C , 14-C ) :   1.1923 B( 13-C , 16-C ) :   0.1633 B( 13-C , 17-H ) :   0.9364
B( 13-C , 18-H ) :  -0.1668 B( 14-C , 15-C ) :   1.2474 B( 14-C , 16-C ) :  -0.1434
B( 14-C , 18-H ) :   1.1989 B( 15-C , 16-C ) :   1.3403 B( 15-C , 19-H ) :   0.7994
B( 15-C , 21-F ) :   0.1570 B( 16-C , 21-F ) :  -0.2565

MP2 TOTAL ENERGY:     -711.499683377 Eh
FINAL SINGLE POINT ENERGY      -711.499683376884

DIPOLE MOMENT
-------------
                                X             Y             Z
Electronic contribution:      0.00001       2.59412       0.00003
Nuclear contribution   :     -0.00001      -3.28662      -0.00004
                        -----------------------------------------
Total Dipole Moment    :      0.00000      -0.69250      -0.00001
                        -----------------------------------------
Magnitude (a.u.)       :      0.69250
Magnitude (Debye)      :      1.76020

Rotational constants in cm-1:     0.054691     0.006046     0.005972
Rotational constants in MHz :  1639.588879   181.259810   179.046007

                             ****ORCA TERMINATED NORMALLY****
TOTAL RUN TIME: 0 days 1 hours 57 minutes 51 seconds 680 msec
