                         Program Version 5.0.4 -  RELEASE  -
|  1> ! ri-mp2 aug-cc-pvdz aug-cc-pvdz/c tightscf
|  2> %pal nprocs 16 end
|  3> %maxcore 3800
|  4> %base "DZ_Si-Si_58_AB"
|  5> %scf
|  6> STABPerform true
|  7> STABRestartUHFifUnstable true
|  8> end
|  9>
| 10> *xyz 0 1
| 11> Si         0.838294    0.877931   -0.528126
| 12> Si         2.367041   -0.716071    0.233922
| 13> C        -0.885961    0.421342    0.174977
| 14> O        -1.293886    0.783673    1.245740
| 15> H         0.783790    0.895274   -2.004691
| 16> H         1.160502    2.223545   -0.014945
| 17> O        -1.578103   -0.397322   -0.633786
| 18> H         3.722497   -0.387810   -0.260476
| 19> H         1.983159   -2.053970   -0.266637
| 20> H         2.380788   -0.735720    1.712005
| 21> C        -2.852487   -0.832233   -0.147047
| 22> H        -3.256286   -1.481878   -0.916899
| 23> H        -3.506753    0.021898    0.016853
| 24> H        -2.735778   -1.372837    0.790431
| 25> *
| 26>
| 27> $new_job
| 28> ! ri-mp2 aug-cc-pvtz aug-cc-pvtz/c tightscf
| 29> %pal nprocs 16 end
| 30> %maxcore 3800
| 31> %base "TZ_Si-Si_58_AB"
| 32>
| 33> *xyz 0 1
| 34> Si         0.838294    0.877931   -0.528126
| 35> Si         2.367041   -0.716071    0.233922
| 36> C        -0.885961    0.421342    0.174977
| 37> O        -1.293886    0.783673    1.245740
| 38> H         0.783790    0.895274   -2.004691
| 39> H         1.160502    2.223545   -0.014945
| 40> O        -1.578103   -0.397322   -0.633786
| 41> H         3.722497   -0.387810   -0.260476
| 42> H         1.983159   -2.053970   -0.266637
| 43> H         2.380788   -0.735720    1.712005
| 44> C        -2.852487   -0.832233   -0.147047
| 45> H        -3.256286   -1.481878   -0.916899
| 46> H        -3.506753    0.021898    0.016853
| 47> H        -2.735778   -1.372837    0.790431
| 48> *
| 49>
| 50> $new_job
| 51> ! ri-mp2 aug-cc-pvqz aug-cc-pvqz/c tightscf
| 52> %pal nprocs 16 end
| 53> %maxcore 3800
| 54> %base "QZ_Si-Si_58_AB"
| 55>
| 56> *xyz 0 1
| 57> Si         0.838294    0.877931   -0.528126
| 58> Si         2.367041   -0.716071    0.233922
| 59> C        -0.885961    0.421342    0.174977
| 60> O        -1.293886    0.783673    1.245740
| 61> H         0.783790    0.895274   -2.004691
| 62> H         1.160502    2.223545   -0.014945
| 63> O        -1.578103   -0.397322   -0.633786
| 64> H         3.722497   -0.387810   -0.260476
| 65> H         1.983159   -2.053970   -0.266637
| 66> H         2.380788   -0.735720    1.712005
| 67> C        -2.852487   -0.832233   -0.147047
| 68> H        -3.256286   -1.481878   -0.916899
| 69> H        -3.506753    0.021898    0.016853
| 70> H        -2.735778   -1.372837    0.790431
| 71> *
| 72>
| 73>
| 74>
| 75>
| 76>                          ****END OF INPUT****
 Total Charge           Charge          ....    0
 Multiplicity           Mult            ....    1
 Number of Electrons    NEL             ....   64
MP2 TOTAL ENERGY:     -808.889267647 Eh
FINAL SINGLE POINT ENERGY      -808.889267647212
MP2 TOTAL ENERGY:     -809.159788036 Eh
FINAL SINGLE POINT ENERGY      -809.159788035877

CARTESIAN COORDINATES (ANGSTROEM)
---------------------------------
  Si     0.838294    0.877931   -0.528126
  Si     2.367041   -0.716071    0.233922
  C     -0.885961    0.421342    0.174977
  O     -1.293886    0.783673    1.245740
  H      0.783790    0.895274   -2.004691
  H      1.160502    2.223545   -0.014945
  O     -1.578103   -0.397322   -0.633786
  H      3.722497   -0.387810   -0.260476
  H      1.983159   -2.053970   -0.266637
  H      2.380788   -0.735720    1.712005
  C     -2.852487   -0.832233   -0.147047
  H     -3.256286   -1.481878   -0.916899
  H     -3.506753    0.021898    0.016853
  H     -2.735778   -1.372837    0.790431

 Multiplicity           Mult            ....    1
 Number of Electrons    NEL             ....   64
 Basis Dimension        Dim             ....  856

ORBITAL ENERGIES
----------------

  NO   OCC          E(Eh)            E(eV)
   0   2.0000     -68.783595     -1871.6968
   1   2.0000     -68.776020     -1871.4907
   2   2.0000     -20.604726      -560.6831
   3   2.0000     -20.549836      -559.1895
   4   2.0000     -11.364146      -309.2341
   5   2.0000     -11.285481      -307.0936
   6   2.0000      -6.134596      -166.9308
   7   2.0000      -6.126940      -166.7225
   8   2.0000      -4.240722      -115.3959
   9   2.0000      -4.240571      -115.3918
  10   2.0000      -4.240548      -115.3912
  11   2.0000      -4.233102      -115.1886
  12   2.0000      -4.232985      -115.1854
  13   2.0000      -4.232944      -115.1843
  14   2.0000      -1.463570       -39.8258
  15   2.0000      -1.363705       -37.1083
  16   2.0000      -0.983086       -26.7511
  17   2.0000      -0.815137       -22.1810
  18   2.0000      -0.762046       -20.7363
  19   2.0000      -0.716091       -19.4858
  20   2.0000      -0.678962       -18.4755
  21   2.0000      -0.673344       -18.3226
  22   2.0000      -0.643126       -17.5003
  23   2.0000      -0.568181       -15.4610
  24   2.0000      -0.553025       -15.0486
  25   2.0000      -0.526785       -14.3345
  26   2.0000      -0.506857       -13.7923
  27   2.0000      -0.494142       -13.4463
  28   2.0000      -0.482235       -13.1223
  29   2.0000      -0.465908       -12.6780
  30   2.0000      -0.435381       -11.8473
  31   2.0000      -0.405526       -11.0349
  32   0.0000       0.023720         0.6455
  33   0.0000       0.028784         0.7833
  34   0.0000       0.031700         0.8626
  35   0.0000       0.038977         1.0606
  36   0.0000       0.044725         1.2170

MULLIKEN ATOMIC CHARGES
-----------------------
   0 Si:    0.942686
   1 Si:    0.332379
   2 C :    0.730363
   3 O :   -0.821459
   4 H :   -0.196532
   5 H :   -0.201885
   6 O :   -0.725367
   7 H :   -0.163766
   8 H :   -0.127321
   9 H :   -0.118162
  10 C :   -0.692919
  11 H :    0.426783
  12 H :    0.309778
  13 H :    0.305423
Sum of atomic charges:   -0.0000000

LOEWDIN ATOMIC CHARGES
----------------------
   0 Si:    0.679233
   1 Si:    1.048322
   2 C :   -1.180000
   3 O :    0.613746
   4 H :   -0.278081
   5 H :   -0.279229
   6 O :    0.746605
   7 H :   -0.318576
   8 H :   -0.312777
   9 H :   -0.311035
  10 C :    0.555985
  11 H :   -0.324823
  12 H :   -0.319242
  13 H :   -0.320130

  Mayer bond orders larger than 0.100000
B(  0-Si,  1-Si) :   0.7184 B(  0-Si,  2-C ) :   0.6806 B(  0-Si,  4-H ) :   0.8294
B(  0-Si,  5-H ) :   0.8298 B(  1-Si,  7-H ) :   0.7735 B(  1-Si,  8-H ) :   0.7665
B(  1-Si,  9-H ) :   0.7671 B(  2-C ,  3-O ) :   1.4422 B(  2-C ,  6-O ) :   0.9721
B(  3-O ,  6-O ) :   0.1040 B(  6-O , 10-C ) :   0.8680 B( 10-C , 11-H ) :   0.8237
B( 10-C , 12-H ) :   0.9091 B( 10-C , 13-H ) :   0.8997

MP2 TOTAL ENERGY:     -809.248195707 Eh
FINAL SINGLE POINT ENERGY      -809.248195706768

DIPOLE MOMENT
-------------
                                X             Y             Z
Electronic contribution:     -0.25274       2.48642       0.31172
Nuclear contribution   :      0.29191      -2.89381      -0.91640
                        -----------------------------------------
Total Dipole Moment    :      0.03917      -0.40739      -0.60467
                        -----------------------------------------
Magnitude (a.u.)       :      0.73016
Magnitude (Debye)      :      1.85591

Rotational constants in cm-1:     0.136569     0.036896     0.035050
Rotational constants in MHz :  4094.239235  1106.127399  1050.776805

                             ****ORCA TERMINATED NORMALLY****
TOTAL RUN TIME: 0 days 0 hours 57 minutes 12 seconds 698 msec
