                         Program Version 5.0.4 -  RELEASE  -
|  1> ! ri-mp2 aug-cc-pvdz aug-cc-pvdz/c tightscf
|  2> %pal nprocs 16 end
|  3> %maxcore 3800
|  4> %base "DZ_B-B_34_AB"
|  5> %scf
|  6> STABPerform true
|  7> STABRestartUHFifUnstable true
|  8> end
|  9>
| 10> *xyz 0 1
| 11> B        -1.883044   -0.379076   -0.139787
| 12> B        -0.654808    0.591227    0.328970
| 13> C         0.799561    0.443987   -0.220685
| 14> N         1.583609   -0.526987    0.019554
| 15> H         1.129220   -1.252125    0.577977
| 16> H         1.219663    1.258261   -0.822676
| 17> H        -0.832220    1.459345    1.133904
| 18> H        -2.089850   -1.435619    0.376534
| 19> H        -2.620186   -0.065633   -1.024418
| 20> *
| 21>
| 22> $new_job
| 23> ! ri-mp2 aug-cc-pvtz aug-cc-pvtz/c tightscf
| 24> %pal nprocs 16 end
| 25> %maxcore 3800
| 26> %base "TZ_B-B_34_AB"
| 27>
| 28> *xyz 0 1
| 29> B        -1.883044   -0.379076   -0.139787
| 30> B        -0.654808    0.591227    0.328970
| 31> C         0.799561    0.443987   -0.220685
| 32> N         1.583609   -0.526987    0.019554
| 33> H         1.129220   -1.252125    0.577977
| 34> H         1.219663    1.258261   -0.822676
| 35> H        -0.832220    1.459345    1.133904
| 36> H        -2.089850   -1.435619    0.376534
| 37> H        -2.620186   -0.065633   -1.024418
| 38> *
| 39>
| 40> $new_job
| 41> ! ri-mp2 aug-cc-pvqz aug-cc-pvqz/c tightscf
| 42> %pal nprocs 16 end
| 43> %maxcore 3800
| 44> %base "QZ_B-B_34_AB"
| 45>
| 46> *xyz 0 1
| 47> B        -1.883044   -0.379076   -0.139787
| 48> B        -0.654808    0.591227    0.328970
| 49> C         0.799561    0.443987   -0.220685
| 50> N         1.583609   -0.526987    0.019554
| 51> H         1.129220   -1.252125    0.577977
| 52> H         1.219663    1.258261   -0.822676
| 53> H        -0.832220    1.459345    1.133904
| 54> H        -2.089850   -1.435619    0.376534
| 55> H        -2.620186   -0.065633   -1.024418
| 56> *
| 57>
| 58>
| 59>
| 60>
| 61>                          ****END OF INPUT****
 Total Charge           Charge          ....    0
 Multiplicity           Mult            ....    1
 Number of Electrons    NEL             ....   28
MP2 TOTAL ENERGY:     -145.005330341 Eh
FINAL SINGLE POINT ENERGY      -145.005330341227
MP2 TOTAL ENERGY:     -145.133047843 Eh
FINAL SINGLE POINT ENERGY      -145.133047842891

CARTESIAN COORDINATES (ANGSTROEM)
---------------------------------
  B     -1.883044   -0.379076   -0.139787
  B     -0.654808    0.591227    0.328970
  C      0.799561    0.443987   -0.220685
  N      1.583609   -0.526987    0.019554
  H      1.129220   -1.252125    0.577977
  H      1.219663    1.258261   -0.822676
  H     -0.832220    1.459345    1.133904
  H     -2.089850   -1.435619    0.376534
  H     -2.620186   -0.065633   -1.024418

 Multiplicity           Mult            ....    1
 Number of Electrons    NEL             ....   28
 Basis Dimension        Dim             ....  550

ORBITAL ENERGIES
----------------

  NO   OCC          E(Eh)            E(eV)
   0   2.0000     -15.558745      -423.3750
   1   2.0000     -11.268120      -306.6211
   2   2.0000      -7.603439      -206.9001
   3   2.0000      -7.602400      -206.8718
   4   2.0000      -1.206423       -32.8284
   5   2.0000      -0.850565       -23.1451
   6   2.0000      -0.752956       -20.4890
   7   2.0000      -0.670018       -18.2321
   8   2.0000      -0.603303       -16.4167
   9   2.0000      -0.569026       -15.4840
  10   2.0000      -0.507010       -13.7964
  11   2.0000      -0.487738       -13.2720
  12   2.0000      -0.421391       -11.4666
  13   2.0000      -0.401422       -10.9232
  14   0.0000       0.021414         0.5827
  15   0.0000       0.027570         0.7502
  16   0.0000       0.028767         0.7828
  17   0.0000       0.030703         0.8355
  18   0.0000       0.043542         1.1848

MULLIKEN ATOMIC CHARGES
-----------------------
   0 B :    0.445665
   1 B :    0.313550
   2 C :   -0.255065
   3 N :   -0.721350
   4 H :    0.324520
   5 H :    0.502878
   6 H :   -0.220575
   7 H :   -0.187902
   8 H :   -0.201721
Sum of atomic charges:   -0.0000000

LOEWDIN ATOMIC CHARGES
----------------------
   0 B :    0.489609
   1 B :   -0.006790
   2 C :    0.180091
   3 N :    0.965499
   4 H :   -0.669006
   5 H :   -0.369944
   6 H :   -0.176080
   7 H :   -0.204498
   8 H :   -0.208881

  Mayer bond orders larger than 0.100000
B(  0-B ,  1-B ) :   1.0789 B(  0-B ,  7-H ) :   0.9642 B(  0-B ,  8-H ) :   0.9521
B(  1-B ,  2-C ) :   0.9095 B(  1-B ,  6-H ) :   0.9113 B(  2-C ,  3-N ) :   1.7338
B(  2-C ,  5-H ) :   0.7385 B(  3-N ,  4-H ) :   0.7973

MP2 TOTAL ENERGY:     -145.173546116 Eh
FINAL SINGLE POINT ENERGY      -145.173546116387

DIPOLE MOMENT
-------------
                                X             Y             Z
Electronic contribution:      0.28890       0.50068       0.03401
Nuclear contribution   :     -1.13708      -0.20945       0.08884
                        -----------------------------------------
Total Dipole Moment    :     -0.84818       0.29123       0.12285
                        -----------------------------------------
Magnitude (a.u.)       :      0.90516
Magnitude (Debye)      :      2.30073

Rotational constants in cm-1:     0.689835     0.158979     0.140959
Rotational constants in MHz : 20680.722437  4766.077425  4225.846001

                             ****ORCA TERMINATED NORMALLY****
TOTAL RUN TIME: 0 days 0 hours 16 minutes 31 seconds 986 msec
