                         Program Version 5.0.4 -  RELEASE  -
|  1> ! ri-mp2 aug-cc-pvdz aug-cc-pvdz/c tightscf
|  2> %pal nprocs 16 end
|  3> %maxcore 3800
|  4> %base "DZ_P-Si_15_AB"
|  5> %scf
|  6> STABPerform true
|  7> STABRestartUHFifUnstable true
|  8> end
|  9>
| 10> *xyz 0 1
| 11> N        -1.899366   -0.345436    0.005578
| 12> F        -1.993547   -0.459909   -1.389219
| 13> F        -1.590892   -1.655293    0.403257
| 14> Si        -0.369670    0.610988    0.306033
| 15> C        -0.156125    0.646096    2.142717
| 16> H        -1.011346    1.123961    2.621920
| 17> H         0.741845    1.208137    2.402796
| 18> H        -0.050286   -0.362159    2.540486
| 19> C        -0.656625    2.254544   -0.496552
| 20> H        -1.520946    2.751823   -0.054646
| 21> H        -0.834108    2.149349   -1.566353
| 22> H         0.214761    2.895367   -0.356210
| 23> P         1.358253   -0.523194   -0.731004
| 24> F         2.402637    0.685740   -0.532080
| 25> F         1.785549   -1.399226    0.537661
| 26> *
| 27>
| 28> $new_job
| 29> ! ri-mp2 aug-cc-pvtz aug-cc-pvtz/c tightscf
| 30> %pal nprocs 16 end
| 31> %maxcore 3800
| 32> %base "TZ_P-Si_15_AB"
| 33>
| 34> *xyz 0 1
| 35> N        -1.899366   -0.345436    0.005578
| 36> F        -1.993547   -0.459909   -1.389219
| 37> F        -1.590892   -1.655293    0.403257
| 38> Si        -0.369670    0.610988    0.306033
| 39> C        -0.156125    0.646096    2.142717
| 40> H        -1.011346    1.123961    2.621920
| 41> H         0.741845    1.208137    2.402796
| 42> H        -0.050286   -0.362159    2.540486
| 43> C        -0.656625    2.254544   -0.496552
| 44> H        -1.520946    2.751823   -0.054646
| 45> H        -0.834108    2.149349   -1.566353
| 46> H         0.214761    2.895367   -0.356210
| 47> P         1.358253   -0.523194   -0.731004
| 48> F         2.402637    0.685740   -0.532080
| 49> F         1.785549   -1.399226    0.537661
| 50> *
| 51>
| 52> $new_job
| 53> ! ri-mp2 aug-cc-pvqz aug-cc-pvqz/c tightscf
| 54> %pal nprocs 16 end
| 55> %maxcore 3800
| 56> %base "QZ_P-Si_15_AB"
| 57>
| 58> *xyz 0 1
| 59> N        -1.899366   -0.345436    0.005578
| 60> F        -1.993547   -0.459909   -1.389219
| 61> F        -1.590892   -1.655293    0.403257
| 62> Si        -0.369670    0.610988    0.306033
| 63> C        -0.156125    0.646096    2.142717
| 64> H        -1.011346    1.123961    2.621920
| 65> H         0.741845    1.208137    2.402796
| 66> H        -0.050286   -0.362159    2.540486
| 67> C        -0.656625    2.254544   -0.496552
| 68> H        -1.520946    2.751823   -0.054646
| 69> H        -0.834108    2.149349   -1.566353
| 70> H         0.214761    2.895367   -0.356210
| 71> P         1.358253   -0.523194   -0.731004
| 72> F         2.402637    0.685740   -0.532080
| 73> F         1.785549   -1.399226    0.537661
| 74> *
| 75>
| 76>
| 77>
| 78>
| 79>                          ****END OF INPUT****
 Total Charge           Charge          ....    0
 Multiplicity           Mult            ....    1
 Number of Electrons    NEL             ....   90
MP2 TOTAL ENERGY:    -1162.615235447 Eh
FINAL SINGLE POINT ENERGY     -1162.615235446973
MP2 TOTAL ENERGY:    -1163.154335867 Eh
FINAL SINGLE POINT ENERGY     -1163.154335867482

CARTESIAN COORDINATES (ANGSTROEM)
---------------------------------
  N     -1.899366   -0.345436    0.005578
  F     -1.993547   -0.459909   -1.389219
  F     -1.590892   -1.655293    0.403257
  Si    -0.369670    0.610988    0.306033
  C     -0.156125    0.646096    2.142717
  H     -1.011346    1.123961    2.621920
  H      0.741845    1.208137    2.402796
  H     -0.050286   -0.362159    2.540486
  C     -0.656625    2.254544   -0.496552
  H     -1.520946    2.751823   -0.054646
  H     -0.834108    2.149349   -1.566353
  H      0.214761    2.895367   -0.356210
  P      1.358253   -0.523194   -0.731004
  F      2.402637    0.685740   -0.532080
  F      1.785549   -1.399226    0.537661

 Multiplicity           Mult            ....    1
 Number of Electrons    NEL             ....   90
 Basis Dimension        Dim             .... 1004

ORBITAL ENERGIES
----------------

  NO   OCC          E(Eh)            E(eV)
   0   2.0000     -80.060172     -2178.5480
   1   2.0000     -68.814998     -1872.5513
   2   2.0000     -26.336198      -716.6444
   3   2.0000     -26.336131      -716.6425
   4   2.0000     -26.318570      -716.1647
   5   2.0000     -26.317482      -716.1351
   6   2.0000     -15.735805      -428.1930
   7   2.0000     -11.233456      -305.6779
   8   2.0000     -11.230940      -305.6094
   9   2.0000      -7.588433      -206.4918
  10   2.0000      -6.163881      -167.7277
  11   2.0000      -5.482337      -149.1820
  12   2.0000      -5.481189      -149.1507
  13   2.0000      -5.479493      -149.1046
  14   2.0000      -4.270467      -116.2053
  15   2.0000      -4.269609      -116.1820
  16   2.0000      -4.269324      -116.1742
  17   2.0000      -1.679406       -45.6990
  18   2.0000      -1.641294       -44.6619
  19   2.0000      -1.609838       -43.8059
  20   2.0000      -1.599676       -43.5294
  21   2.0000      -1.092363       -29.7247
  22   2.0000      -0.990734       -26.9592
  23   2.0000      -0.963316       -26.2132
  24   2.0000      -0.885630       -24.0992
  25   2.0000      -0.792529       -21.5658
  26   2.0000      -0.755057       -20.5461
  27   2.0000      -0.754851       -20.5406
  28   2.0000      -0.746587       -20.3157
  29   2.0000      -0.732255       -19.9257
  30   2.0000      -0.722989       -19.6735
  31   2.0000      -0.688122       -18.7248
  32   2.0000      -0.683114       -18.5885
  33   2.0000      -0.656020       -17.8512
  34   2.0000      -0.652997       -17.7690
  35   2.0000      -0.639634       -17.4053
  36   2.0000      -0.607903       -16.5419
  37   2.0000      -0.595820       -16.2131
  38   2.0000      -0.578098       -15.7309
  39   2.0000      -0.576405       -15.6848
  40   2.0000      -0.566670       -15.4199
  41   2.0000      -0.528712       -14.3870
  42   2.0000      -0.482345       -13.1253
  43   2.0000      -0.466057       -12.6820
  44   2.0000      -0.370337       -10.0774
  45   0.0000       0.018873         0.5136
  46   0.0000       0.032320         0.8795
  47   0.0000       0.035082         0.9546
  48   0.0000       0.039134         1.0649
  49   0.0000       0.049972         1.3598

MULLIKEN ATOMIC CHARGES
-----------------------
   0 N :    0.162728
   1 F :   -0.457488
   2 F :   -0.469069
   3 Si:    1.707557
   4 C :   -1.180315
   5 H :    0.298870
   6 H :    0.259211
   7 H :    0.276520
   8 C :   -1.162016
   9 H :    0.291815
  10 H :    0.270454
  11 H :    0.265790
  12 P :    1.153831
  13 F :   -0.708644
  14 F :   -0.709245
Sum of atomic charges:   -0.0000000

LOEWDIN ATOMIC CHARGES
----------------------
   0 N :   -0.659055
   1 F :    0.409336
   2 F :    0.412010
   3 Si:   -0.285059
   4 C :    0.940254
   5 H :   -0.338285
   6 H :   -0.341598
   7 H :   -0.354597
   8 C :    0.935014
   9 H :   -0.338955
  10 H :   -0.352404
  11 H :   -0.346669
  12 P :   -0.118174
  13 F :    0.214274
  14 F :    0.223909

  Mayer bond orders larger than 0.100000
B(  0-N ,  1-F ) :   0.6804 B(  0-N ,  2-F ) :   0.6944 B(  0-N ,  3-Si) :   0.4811
B(  1-F ,  3-Si) :  -0.1214 B(  2-F ,  3-Si) :  -0.1453 B(  3-Si,  4-C ) :   0.8659
B(  3-Si,  8-C ) :   0.8507 B(  3-Si, 12-P ) :   0.7855 B(  3-Si, 13-F ) :  -0.1558
B(  3-Si, 14-F ) :  -0.1677 B(  4-C ,  5-H ) :   0.9158 B(  4-C ,  6-H ) :   0.9457
B(  4-C ,  7-H ) :   0.9420 B(  8-C ,  9-H ) :   0.9258 B(  8-C , 10-H ) :   0.9597
B(  8-C , 11-H ) :   0.9441 B( 12-P , 13-F ) :   0.5047 B( 12-P , 14-F ) :   0.5253

MP2 TOTAL ENERGY:    -1163.329759930 Eh
FINAL SINGLE POINT ENERGY     -1163.329759930215

DIPOLE MOMENT
-------------
                                X             Y             Z
Electronic contribution:      4.09671     -11.09348      -6.39658
Nuclear contribution   :     -4.09392      12.28497       6.82588
                        -----------------------------------------
Total Dipole Moment    :      0.00279       1.19149       0.42929
                        -----------------------------------------
Magnitude (a.u.)       :      1.26647
Magnitude (Debye)      :      3.21911

Rotational constants in cm-1:     0.046727     0.029831     0.026886
Rotational constants in MHz :  1400.847562   894.304661   806.026101

                             ****ORCA TERMINATED NORMALLY****
TOTAL RUN TIME: 0 days 2 hours 4 minutes 12 seconds 685 msec
