                         Program Version 5.0.4 -  RELEASE  -
|  1> ! ri-mp2 aug-cc-pvdz aug-cc-pvdz/c tightscf
|  2> %pal nprocs 16 end
|  3> %maxcore 3800
|  4> %base "DZ_B-Si_54_AB"
|  5>
|  6> *xyz 0 1
|  7> C         1.734353    1.732224    0.510892
|  8> C         0.500395    1.171392    0.795621
|  9> C         2.746992    0.969127   -0.036871
| 10> C         2.538985   -0.381260   -0.307580
| 11> C         1.292604   -0.936828   -0.019989
| 12> C         0.267575   -0.180087    0.531806
| 13> H         1.130952   -1.986952   -0.237496
| 14> H         3.707268    1.417838   -0.260079
| 15> H         1.913878    2.778546    0.722452
| 16> H        -0.272914    1.786062    1.241564
| 17> B        -2.727251    0.075224   -0.382795
| 18> O        -2.311707    1.109856   -1.167951
| 19> O        -4.036811   -0.278183   -0.432424
| 20> N         3.531699   -1.145627   -0.898466
| 21> H         4.474362   -0.812021   -0.790869
| 22> H         3.448863   -2.141932   -0.788229
| 23> H        -1.371846    1.306541   -1.090766
| 24> H        -4.546796    0.265208   -1.045810
| 25> Si        -1.433736   -0.911552    0.830325
| 26> H        -1.382475   -2.362801    0.532914
| 27> H        -1.811907   -0.746290    2.254746
| 28> *
| 29>
| 30> $new_job
| 31> ! ri-mp2 aug-cc-pvtz aug-cc-pvtz/c tightscf
| 32> %pal nprocs 16 end
| 33> %maxcore 3800
| 34> %base "TZ_B-Si_54_AB"
| 35>
| 36> *xyz 0 1
| 37> C         1.734353    1.732224    0.510892
| 38> C         0.500395    1.171392    0.795621
| 39> C         2.746992    0.969127   -0.036871
| 40> C         2.538985   -0.381260   -0.307580
| 41> C         1.292604   -0.936828   -0.019989
| 42> C         0.267575   -0.180087    0.531806
| 43> H         1.130952   -1.986952   -0.237496
| 44> H         3.707268    1.417838   -0.260079
| 45> H         1.913878    2.778546    0.722452
| 46> H        -0.272914    1.786062    1.241564
| 47> B        -2.727251    0.075224   -0.382795
| 48> O        -2.311707    1.109856   -1.167951
| 49> O        -4.036811   -0.278183   -0.432424
| 50> N         3.531699   -1.145627   -0.898466
| 51> H         4.474362   -0.812021   -0.790869
| 52> H         3.448863   -2.141932   -0.788229
| 53> H        -1.371846    1.306541   -1.090766
| 54> H        -4.546796    0.265208   -1.045810
| 55> Si        -1.433736   -0.911552    0.830325
| 56> H        -1.382475   -2.362801    0.532914
| 57> H        -1.811907   -0.746290    2.254746
| 58> *
| 59>
| 60> $new_job
| 61> ! ri-mp2 aug-cc-pvqz aug-cc-pvqz/c tightscf
| 62> %pal nprocs 16 end
| 63> %maxcore 3800
| 64> %base "QZ_B-Si_54_AB"
| 65>
| 66> *xyz 0 1
| 67> C         1.734353    1.732224    0.510892
| 68> C         0.500395    1.171392    0.795621
| 69> C         2.746992    0.969127   -0.036871
| 70> C         2.538985   -0.381260   -0.307580
| 71> C         1.292604   -0.936828   -0.019989
| 72> C         0.267575   -0.180087    0.531806
| 73> H         1.130952   -1.986952   -0.237496
| 74> H         3.707268    1.417838   -0.260079
| 75> H         1.913878    2.778546    0.722452
| 76> H        -0.272914    1.786062    1.241564
| 77> B        -2.727251    0.075224   -0.382795
| 78> O        -2.311707    1.109856   -1.167951
| 79> O        -4.036811   -0.278183   -0.432424
| 80> N         3.531699   -1.145627   -0.898466
| 81> H         4.474362   -0.812021   -0.790869
| 82> H         3.448863   -2.141932   -0.788229
| 83> H        -1.371846    1.306541   -1.090766
| 84> H        -4.546796    0.265208   -1.045810
| 85> Si        -1.433736   -0.911552    0.830325
| 86> H        -1.382475   -2.362801    0.532914
| 87> H        -1.811907   -0.746290    2.254746
| 88> *
| 89>
| 90>
| 91>
| 92>
| 93>                          ****END OF INPUT****
 Total Charge           Charge          ....    0
 Multiplicity           Mult            ....    1
 Number of Electrons    NEL             ....   88
MP2 TOTAL ENERGY:     -752.570438810 Eh
FINAL SINGLE POINT ENERGY      -752.570438809859
MP2 TOTAL ENERGY:     -753.010866153 Eh
FINAL SINGLE POINT ENERGY      -753.010866152874

CARTESIAN COORDINATES (ANGSTROEM)
---------------------------------
  C      1.734353    1.732224    0.510892
  C      0.500395    1.171392    0.795621
  C      2.746992    0.969127   -0.036871
  C      2.538985   -0.381260   -0.307580
  C      1.292604   -0.936828   -0.019989
  C      0.267575   -0.180087    0.531806
  H      1.130952   -1.986952   -0.237496
  H      3.707268    1.417838   -0.260079
  H      1.913878    2.778546    0.722452
  H     -0.272914    1.786062    1.241564
  B     -2.727251    0.075224   -0.382795
  O     -2.311707    1.109856   -1.167951
  O     -4.036811   -0.278183   -0.432424
  N      3.531699   -1.145627   -0.898466
  H      4.474362   -0.812021   -0.790869
  H      3.448863   -2.141932   -0.788229
  H     -1.371846    1.306541   -1.090766
  H     -4.546796    0.265208   -1.045810
  Si    -1.433736   -0.911552    0.830325
  H     -1.382475   -2.362801    0.532914
  H     -1.811907   -0.746290    2.254746

 Multiplicity           Mult            ....    1
 Number of Electrons    NEL             ....   88
 Basis Dimension        Dim             .... 1344

ORBITAL ENERGIES
----------------

  NO   OCC          E(Eh)            E(eV)
   0   2.0000     -68.750153     -1870.7868
   1   2.0000     -20.566476      -559.6423
   2   2.0000     -20.562895      -559.5448
   3   2.0000     -15.569558      -423.6692
   4   2.0000     -11.283146      -307.0300
   5   2.0000     -11.240208      -305.8616
   6   2.0000     -11.228969      -305.5558
   7   2.0000     -11.228749      -305.5498
   8   2.0000     -11.226444      -305.4871
   9   2.0000     -11.225243      -305.4544
  10   2.0000      -7.632657      -207.6951
  11   2.0000      -6.101868      -166.0403
  12   2.0000      -4.208244      -114.5121
  13   2.0000      -4.208008      -114.5057
  14   2.0000      -4.207695      -114.4972
  15   2.0000      -1.383323       -37.6421
  16   2.0000      -1.342681       -36.5362
  17   2.0000      -1.235733       -33.6260
  18   2.0000      -1.136685       -30.9308
  19   2.0000      -1.020528       -27.7700
  20   2.0000      -0.995407       -27.0864
  21   2.0000      -0.841475       -22.8977
  22   2.0000      -0.823212       -22.4007
  23   2.0000      -0.771709       -20.9993
  24   2.0000      -0.741480       -20.1767
  25   2.0000      -0.719668       -19.5832
  26   2.0000      -0.698721       -19.0132
  27   2.0000      -0.673977       -18.3398
  28   2.0000      -0.657091       -17.8803
  29   2.0000      -0.611004       -16.6263
  30   2.0000      -0.603810       -16.4305
  31   2.0000      -0.596225       -16.2241
  32   2.0000      -0.571479       -15.5507
  33   2.0000      -0.563055       -15.3215
  34   2.0000      -0.550061       -14.9679
  35   2.0000      -0.544175       -14.8078
  36   2.0000      -0.510259       -13.8849
  37   2.0000      -0.499236       -13.5849
  38   2.0000      -0.475566       -12.9408
  39   2.0000      -0.460543       -12.5320
  40   2.0000      -0.445100       -12.1118
  41   2.0000      -0.412351       -11.2206
  42   2.0000      -0.343364        -9.3434
  43   2.0000      -0.302471        -8.2306
  44   0.0000       0.018943         0.5155
  45   0.0000       0.026093         0.7100
  46   0.0000       0.027837         0.7575
  47   0.0000       0.034112         0.9282
  48   0.0000       0.039650         1.0789

MULLIKEN ATOMIC CHARGES
-----------------------
   0 C :   -0.361724
   1 C :   -0.320227
   2 C :   -0.384605
   3 C :    0.669269
   4 C :   -0.685028
   5 C :    0.121902
   6 H :    0.305676
   7 H :    0.302455
   8 H :    0.191487
   9 H :    0.306839
  10 B :    1.399767
  11 O :   -1.191939
  12 O :   -1.101070
  13 N :   -0.844141
  14 H :    0.262711
  15 H :    0.278237
  16 H :    0.404968
  17 H :    0.326777
  18 Si:    0.753835
  19 H :   -0.251150
  20 H :   -0.184039
Sum of atomic charges:   -0.0000000

LOEWDIN ATOMIC CHARGES
----------------------
   0 C :    0.339824
   1 C :    0.244232
   2 C :    0.341998
   3 C :   -0.240886
   4 C :    0.262734
   5 C :   -0.126485
   6 H :   -0.345269
   7 H :   -0.319916
   8 H :   -0.314481
   9 H :   -0.333431
  10 B :   -1.181069
  11 O :    1.325363
  12 O :    1.277219
  13 N :    1.276574
  14 H :   -0.503458
  15 H :   -0.503548
  16 H :   -0.852417
  17 H :   -0.808449
  18 Si:    0.909093
  19 H :   -0.222477
  20 H :   -0.225147

  Mayer bond orders larger than 0.100000
B(  0-C ,  1-C ) :   1.2185 B(  0-C ,  2-C ) :   1.2962 B(  0-C ,  3-C ) :  -0.2371
B(  0-C ,  4-C ) :   0.1201 B(  0-C ,  5-C ) :  -0.3027 B(  0-C ,  8-H ) :   1.2266
B(  1-C ,  2-C ) :   0.1189 B(  1-C ,  3-C ) :   0.1141 B(  1-C ,  5-C ) :   0.9428
B(  1-C ,  8-H ) :  -0.1340 B(  1-C ,  9-H ) :   0.9565 B(  1-C , 18-Si) :  -0.1180
B(  2-C ,  3-C ) :   1.0967 B(  2-C ,  7-H ) :   0.9360 B(  2-C ,  8-H ) :  -0.1539
B(  3-C ,  4-C ) :   1.4743 B(  3-C ,  5-C ) :  -0.4622 B(  3-C ,  7-H ) :  -0.1151
B(  3-C , 13-N ) :   0.6929 B(  4-C ,  5-C ) :   0.8442 B(  4-C ,  6-H ) :   0.8988
B(  4-C , 18-Si) :  -0.2302 B(  5-C ,  6-H ) :  -0.1286 B(  5-C ,  9-H ) :  -0.1527
B(  5-C , 18-Si) :   0.9291 B(  5-C , 19-H ) :  -0.1593 B( 10-B , 11-O ) :   0.4192
B( 10-B , 12-O ) :   0.4128 B( 10-B , 18-Si) :   0.7364 B( 11-O , 12-O ) :  -0.1394
B( 11-O , 16-H ) :   0.8610 B( 12-O , 17-H ) :   0.9417 B( 12-O , 18-Si) :  -0.1808
B( 13-N , 14-H ) :   0.9588 B( 13-N , 15-H ) :   0.9307 B( 18-Si, 19-H ) :   0.6943
B( 18-Si, 20-H ) :   0.7041

MP2 TOTAL ENERGY:     -753.153286671 Eh
FINAL SINGLE POINT ENERGY      -753.153286671082

DIPOLE MOMENT
-------------
                                X             Y             Z
Electronic contribution:     -6.28760       0.58438      -0.88700
Nuclear contribution   :      7.41499      -0.48943       0.75783
                        -----------------------------------------
Total Dipole Moment    :      1.12739       0.09495      -0.12917
                        -----------------------------------------
Magnitude (a.u.)       :      1.13874
Magnitude (Debye)      :      2.89444

Rotational constants in cm-1:     0.066638     0.016064     0.014846
Rotational constants in MHz :  1997.760656   481.591194   445.083119

                             ****ORCA TERMINATED NORMALLY****
TOTAL RUN TIME: 0 days 1 hours 1 minutes 37 seconds 963 msec
