                         Program Version 5.0.4 -  RELEASE  -
|  1> ! ri-mp2 aug-cc-pvdz aug-cc-pvdz/c tightscf
|  2> %pal nprocs 16 end
|  3> %maxcore 3800
|  4> %base "DZ_Si-S_57_AB"
|  5> %scf
|  6> STABPerform true
|  7> STABRestartUHFifUnstable true
|  8> end
|  9>
| 10> *xyz 0 1
| 11> S         0.453357   -1.028002   -0.003607
| 12> C        -1.010207    0.116411    0.000956
| 13> C        -2.209673   -0.793584   -0.240804
| 14> H        -3.126630   -0.201317   -0.222853
| 15> H        -2.284443   -1.559701    0.530839
| 16> H        -2.139237   -1.288555   -1.208932
| 17> C        -1.138351    0.798635    1.356102
| 18> H        -0.283084    1.439466    1.566649
| 19> H        -1.217352    0.064151    2.156305
| 20> H        -2.035677    1.421863    1.370600
| 21> Si         2.165125    0.230918    0.001357
| 22> C        -0.906246    1.146008   -1.114678
| 23> H        -0.764400    0.665951   -2.081994
| 24> H        -0.080034    1.838870   -0.953860
| 25> H        -1.824688    1.736022   -1.153744
| 26> H         3.298586   -0.696435    0.183821
| 27> H         2.138449    1.214192    1.106390
| 28> H         2.339907    0.975852   -1.263957
| 29> *
| 30>
| 31> $new_job
| 32> ! ri-mp2 aug-cc-pvtz aug-cc-pvtz/c tightscf
| 33> %pal nprocs 16 end
| 34> %maxcore 3800
| 35> %base "TZ_Si-S_57_AB"
| 36>
| 37> *xyz 0 1
| 38> S         0.453357   -1.028002   -0.003607
| 39> C        -1.010207    0.116411    0.000956
| 40> C        -2.209673   -0.793584   -0.240804
| 41> H        -3.126630   -0.201317   -0.222853
| 42> H        -2.284443   -1.559701    0.530839
| 43> H        -2.139237   -1.288555   -1.208932
| 44> C        -1.138351    0.798635    1.356102
| 45> H        -0.283084    1.439466    1.566649
| 46> H        -1.217352    0.064151    2.156305
| 47> H        -2.035677    1.421863    1.370600
| 48> Si         2.165125    0.230918    0.001357
| 49> C        -0.906246    1.146008   -1.114678
| 50> H        -0.764400    0.665951   -2.081994
| 51> H        -0.080034    1.838870   -0.953860
| 52> H        -1.824688    1.736022   -1.153744
| 53> H         3.298586   -0.696435    0.183821
| 54> H         2.138449    1.214192    1.106390
| 55> H         2.339907    0.975852   -1.263957
| 56> *
| 57>
| 58> $new_job
| 59> ! ri-mp2 aug-cc-pvqz aug-cc-pvqz/c tightscf
| 60> %pal nprocs 16 end
| 61> %maxcore 3800
| 62> %base "QZ_Si-S_57_AB"
| 63>
| 64> *xyz 0 1
| 65> S         0.453357   -1.028002   -0.003607
| 66> C        -1.010207    0.116411    0.000956
| 67> C        -2.209673   -0.793584   -0.240804
| 68> H        -3.126630   -0.201317   -0.222853
| 69> H        -2.284443   -1.559701    0.530839
| 70> H        -2.139237   -1.288555   -1.208932
| 71> C        -1.138351    0.798635    1.356102
| 72> H        -0.283084    1.439466    1.566649
| 73> H        -1.217352    0.064151    2.156305
| 74> H        -2.035677    1.421863    1.370600
| 75> Si         2.165125    0.230918    0.001357
| 76> C        -0.906246    1.146008   -1.114678
| 77> H        -0.764400    0.665951   -2.081994
| 78> H        -0.080034    1.838870   -0.953860
| 79> H        -1.824688    1.736022   -1.153744
| 80> H         3.298586   -0.696435    0.183821
| 81> H         2.138449    1.214192    1.106390
| 82> H         2.339907    0.975852   -1.263957
| 83> *
| 84>
| 85>
| 86>
| 87>
| 88>                          ****END OF INPUT****
 Total Charge           Charge          ....    0
 Multiplicity           Mult            ....    1
 Number of Electrons    NEL             ....   66
MP2 TOTAL ENERGY:     -845.827567703 Eh
FINAL SINGLE POINT ENERGY      -845.827567703247
MP2 TOTAL ENERGY:     -846.071328308 Eh
FINAL SINGLE POINT ENERGY      -846.071328307941

CARTESIAN COORDINATES (ANGSTROEM)
---------------------------------
  S      0.453357   -1.028002   -0.003607
  C     -1.010207    0.116411    0.000956
  C     -2.209673   -0.793584   -0.240804
  H     -3.126630   -0.201317   -0.222853
  H     -2.284443   -1.559701    0.530839
  H     -2.139237   -1.288555   -1.208932
  C     -1.138351    0.798635    1.356102
  H     -0.283084    1.439466    1.566649
  H     -1.217352    0.064151    2.156305
  H     -2.035677    1.421863    1.370600
  Si     2.165125    0.230918    0.001357
  C     -0.906246    1.146008   -1.114678
  H     -0.764400    0.665951   -2.081994
  H     -0.080034    1.838870   -0.953860
  H     -1.824688    1.736022   -1.153744
  H      3.298586   -0.696435    0.183821
  H      2.138449    1.214192    1.106390
  H      2.339907    0.975852   -1.263957

 Multiplicity           Mult            ....    1
 Number of Electrons    NEL             ....   66
 Basis Dimension        Dim             .... 1040

ORBITAL ENERGIES
----------------

  NO   OCC          E(Eh)            E(eV)
   0   2.0000     -91.929399     -2501.5261
   1   2.0000     -68.786317     -1871.7708
   2   2.0000     -11.277379      -306.8731
   3   2.0000     -11.224204      -305.4261
   4   2.0000     -11.221656      -305.3568
   5   2.0000     -11.220766      -305.3326
   6   2.0000      -8.934199      -243.1119
   7   2.0000      -6.615611      -180.0199
   8   2.0000      -6.614835      -179.9988
   9   2.0000      -6.614193      -179.9814
  10   2.0000      -6.133917      -166.9124
  11   2.0000      -4.240493      -115.3897
  12   2.0000      -4.240160      -115.3806
  13   2.0000      -4.239870      -115.3727
  14   2.0000      -1.121311       -30.5124
  15   2.0000      -0.948301       -25.8046
  16   2.0000      -0.945991       -25.7417
  17   2.0000      -0.936482       -25.4830
  18   2.0000      -0.756429       -20.5835
  19   2.0000      -0.692998       -18.8574
  20   2.0000      -0.623438       -16.9646
  21   2.0000      -0.615378       -16.7453
  22   2.0000      -0.612317       -16.6620
  23   2.0000      -0.557815       -15.1789
  24   2.0000      -0.554963       -15.1013
  25   2.0000      -0.526776       -14.3343
  26   2.0000      -0.500298       -13.6138
  27   2.0000      -0.490923       -13.3587
  28   2.0000      -0.486839       -13.2476
  29   2.0000      -0.485423       -13.2090
  30   2.0000      -0.443869       -12.0783
  31   2.0000      -0.410181       -11.1616
  32   2.0000      -0.353294        -9.6136
  33   0.0000       0.023445         0.6380
  34   0.0000       0.030123         0.8197
  35   0.0000       0.033231         0.9043
  36   0.0000       0.033632         0.9152
  37   0.0000       0.045530         1.2389

MULLIKEN ATOMIC CHARGES
-----------------------
   0 S :   -0.533470
   1 C :    1.195928
   2 C :   -1.131646
   3 H :    0.279394
   4 H :    0.275044
   5 H :    0.271187
   6 C :   -1.139867
   7 H :    0.329219
   8 H :    0.284688
   9 H :    0.257234
  10 Si:    0.872626
  11 C :   -1.141366
  12 H :    0.268628
  13 H :    0.301089
  14 H :    0.306138
  15 H :   -0.333547
  16 H :   -0.181812
  17 H :   -0.179466
Sum of atomic charges:    0.0000000

LOEWDIN ATOMIC CHARGES
----------------------
   0 S :    1.191529
   1 C :   -0.716426
   2 C :    0.796489
   3 H :   -0.276237
   4 H :   -0.293309
   5 H :   -0.291821
   6 C :    0.811685
   7 H :   -0.323562
   8 H :   -0.287497
   9 H :   -0.272289
  10 Si:    0.621154
  11 C :    0.804987
  12 H :   -0.284568
  13 H :   -0.324152
  14 H :   -0.270240
  15 H :   -0.318853
  16 H :   -0.280783
  17 H :   -0.286105

  Mayer bond orders larger than 0.100000
B(  0-S ,  1-C ) :   0.5325 B(  0-S , 10-Si) :   0.8116 B(  1-C ,  2-C ) :   0.3121
B(  1-C ,  4-H ) :  -0.1283 B(  1-C ,  5-H ) :  -0.1272 B(  1-C ,  6-C ) :   0.6048
B(  1-C , 10-Si) :  -0.1121 B(  1-C , 11-C ) :   0.6213 B(  2-C ,  3-H ) :   0.9727
B(  2-C ,  4-H ) :   1.0268 B(  2-C ,  5-H ) :   1.0201 B(  2-C ,  6-C ) :   0.1352
B(  2-C , 11-C ) :   0.1278 B(  6-C ,  7-H ) :   0.9527 B(  6-C ,  8-H ) :   1.0063
B(  6-C ,  9-H ) :   0.9463 B( 10-Si, 15-H ) :   0.7861 B( 10-Si, 16-H ) :   0.7828
B( 10-Si, 17-H ) :   0.7939 B( 11-C , 12-H ) :   1.0104 B( 11-C , 13-H ) :   0.9916
B( 11-C , 14-H ) :   0.9145

MP2 TOTAL ENERGY:     -846.146741049 Eh
FINAL SINGLE POINT ENERGY      -846.146741049459

DIPOLE MOMENT
-------------
                                X             Y             Z
Electronic contribution:      5.84961      -5.20966      -0.04248
Nuclear contribution   :     -6.31072       5.79963       0.03018
                        -----------------------------------------
Total Dipole Moment    :     -0.46110       0.58997      -0.01229
                        -----------------------------------------
Magnitude (a.u.)       :      0.74889
Magnitude (Debye)      :      1.90352

Rotational constants in cm-1:     0.118330     0.049162     0.045659
Rotational constants in MHz :  3547.438225  1473.846410  1368.824884

                             ****ORCA TERMINATED NORMALLY****
TOTAL RUN TIME: 0 days 2 hours 55 minutes 20 seconds 649 msec
