                         Program Version 5.0.4 -  RELEASE  -
|  1> ! ri-mp2 aug-cc-pvdz aug-cc-pvdz/c tightscf
|  2> %pal nprocs 16 end
|  3> %maxcore 3800
|  4> %base "DZ_B-Si_1_A"
|  5> %scf
|  6> STABPerform true
|  7> STABRestartUHFifUnstable true
|  8> end
|  9>
| 10> *xyz 0 2
| 11> Si        -1.840910   -0.001551    0.000002
| 12> C         2.405216    0.032531   -0.000001
| 13> C        -0.067902    0.617251   -0.000013
| 14> C         0.979600   -0.500892    0.000006
| 15> H         0.076295    1.259184    0.873427
| 16> H         0.076292    1.259152   -0.873477
| 17> H         0.830749   -1.141141   -0.873132
| 18> H         0.830748   -1.141113    0.873165
| 19> H         2.591231    0.649542    0.880903
| 20> H         2.591232    0.649515   -0.880923
| 21> H         3.133761   -0.779268    0.000012
| 22> H        -2.129529   -0.813779   -1.209499
| 23> H        -2.129531   -0.813716    1.209544
| 24> *
| 25>
| 26> $new_job
| 27> ! ri-mp2 aug-cc-pvtz aug-cc-pvtz/c tightscf
| 28> %pal nprocs 16 end
| 29> %maxcore 3800
| 30> %base "TZ_B-Si_1_A"
| 31>
| 32> *xyz 0 2
| 33> Si        -1.840910   -0.001551    0.000002
| 34> C         2.405216    0.032531   -0.000001
| 35> C        -0.067902    0.617251   -0.000013
| 36> C         0.979600   -0.500892    0.000006
| 37> H         0.076295    1.259184    0.873427
| 38> H         0.076292    1.259152   -0.873477
| 39> H         0.830749   -1.141141   -0.873132
| 40> H         0.830748   -1.141113    0.873165
| 41> H         2.591231    0.649542    0.880903
| 42> H         2.591232    0.649515   -0.880923
| 43> H         3.133761   -0.779268    0.000012
| 44> H        -2.129529   -0.813779   -1.209499
| 45> H        -2.129531   -0.813716    1.209544
| 46> *
| 47>
| 48> $new_job
| 49> ! ri-mp2 aug-cc-pvqz aug-cc-pvqz/c tightscf
| 50> %pal nprocs 16 end
| 51> %maxcore 3800
| 52> %base "QZ_B-Si_1_A"
| 53>
| 54> *xyz 0 2
| 55> Si        -1.840910   -0.001551    0.000002
| 56> C         2.405216    0.032531   -0.000001
| 57> C        -0.067902    0.617251   -0.000013
| 58> C         0.979600   -0.500892    0.000006
| 59> H         0.076295    1.259184    0.873427
| 60> H         0.076292    1.259152   -0.873477
| 61> H         0.830749   -1.141141   -0.873132
| 62> H         0.830748   -1.141113    0.873165
| 63> H         2.591231    0.649542    0.880903
| 64> H         2.591232    0.649515   -0.880923
| 65> H         3.133761   -0.779268    0.000012
| 66> H        -2.129529   -0.813779   -1.209499
| 67> H        -2.129531   -0.813716    1.209544
| 68> *
| 69>
| 70>
| 71>
| 72>
| 73>                          ****END OF INPUT****
 Total Charge           Charge          ....    0
 Multiplicity           Mult            ....    2
 Number of Electrons    NEL             ....   41
MP2 TOTAL ENERGY:     -408.292696864 Eh
FINAL SINGLE POINT ENERGY      -408.292696864343
MP2 TOTAL ENERGY:     -408.444418146 Eh
FINAL SINGLE POINT ENERGY      -408.444418145518

CARTESIAN COORDINATES (ANGSTROEM)
---------------------------------
  Si    -1.840910   -0.001551    0.000002
  C      2.405216    0.032531   -0.000001
  C     -0.067902    0.617251   -0.000013
  C      0.979600   -0.500892    0.000006
  H      0.076295    1.259184    0.873427
  H      0.076292    1.259152   -0.873477
  H      0.830749   -1.141141   -0.873132
  H      0.830748   -1.141113    0.873165
  H      2.591231    0.649542    0.880903
  H      2.591232    0.649515   -0.880923
  H      3.133761   -0.779268    0.000012
  H     -2.129529   -0.813779   -1.209499
  H     -2.129531   -0.813716    1.209544

 Multiplicity           Mult            ....    2
 Number of Electrons    NEL             ....   41
 Basis Dimension        Dim             ....  738

ORBITAL ENERGIES
----------------
                 SPIN UP ORBITALS
  NO   OCC          E(Eh)            E(eV)
   0   1.0000     -68.769066     -1871.3014
   1   1.0000     -11.226733      -305.4949
   2   1.0000     -11.213199      -305.1267
   3   1.0000     -11.212889      -305.1182
   4   1.0000      -6.119688      -166.5252
   5   1.0000      -4.232462      -115.1712
   6   1.0000      -4.222616      -114.9032
   7   1.0000      -4.222260      -114.8935
   8   1.0000      -1.062515       -28.9125
   9   1.0000      -0.932770       -25.3820
  10   1.0000      -0.810538       -22.0559
  11   1.0000      -0.695977       -18.9385
  12   1.0000      -0.636089       -17.3089
  13   1.0000      -0.580229       -15.7888
  14   1.0000      -0.545965       -14.8565
  15   1.0000      -0.541534       -14.7359
  16   1.0000      -0.486734       -13.2447
  17   1.0000      -0.480502       -13.0751
  18   1.0000      -0.469885       -12.7862
  19   1.0000      -0.435324       -11.8458
  20   1.0000      -0.319066        -8.6822
  21   0.0000       0.025073         0.6823
  22   0.0000       0.031982         0.8703
  23   0.0000       0.033388         0.9085
  24   0.0000       0.034443         0.9372
  25   0.0000       0.048079         1.3083

                 SPIN DOWN ORBITALS
  NO   OCC          E(Eh)            E(eV)
   0   1.0000     -68.763416     -1871.1477
   1   1.0000     -11.225763      -305.4686
   2   1.0000     -11.212702      -305.1131
   3   1.0000     -11.212588      -305.1100
   4   1.0000      -6.111029      -166.2895
   5   1.0000      -4.218831      -114.8002
   6   1.0000      -4.218483      -114.7908
   7   1.0000      -4.210166      -114.5644
   8   1.0000      -1.059568       -28.8323
   9   1.0000      -0.928996       -25.2793
  10   1.0000      -0.807529       -21.9740
  11   1.0000      -0.658781       -17.9263
  12   1.0000      -0.635130       -17.2828
  13   1.0000      -0.577249       -15.7077
  14   1.0000      -0.544608       -14.8195
  15   1.0000      -0.534025       -14.5315
  16   1.0000      -0.483046       -13.1444
  17   1.0000      -0.478660       -13.0250
  18   1.0000      -0.463617       -12.6157
  19   1.0000      -0.426765       -11.6129
  20   0.0000       0.023881         0.6498
  21   0.0000       0.028920         0.7869
  22   0.0000       0.032809         0.8928
  23   0.0000       0.034559         0.9404
  24   0.0000       0.043766         1.1909

MULLIKEN ATOMIC CHARGES AND SPIN POPULATIONS
--------------------------------------------
   0 Si:    0.500303    0.990532
   1 C :   -0.848621    0.007621
   2 C :   -0.535177   -0.030754
   3 C :   -0.362490    0.021042
   4 H :    0.231883    0.001575
   5 H :    0.231857    0.001575
   6 H :    0.244921   -0.001198
   7 H :    0.244899   -0.001197
   8 H :    0.230937   -0.000739
   9 H :    0.230939   -0.000740
  10 H :    0.267751    0.001848
  11 H :   -0.218601    0.005217
  12 H :   -0.218600    0.005218
Sum of atomic charges         :    0.0000000

LOEWDIN ATOMIC CHARGES AND SPIN POPULATIONS
-------------------------------------------
   0 Si:    1.101267    0.540824
   1 C :    0.917253    0.004713
   2 C :    0.403382    0.136397
   3 C :    0.405267    0.020460
   4 H :   -0.361857    0.014167
   5 H :   -0.361857    0.014167
   6 H :   -0.292597    0.006584
   7 H :   -0.292597    0.006584
   8 H :   -0.286439    0.000556
   9 H :   -0.286440    0.000555
  10 H :   -0.282629    0.001429
  11 H :   -0.331376    0.126782
  12 H :   -0.331377    0.126782

  Mayer bond orders larger than 0.100000
B(  0-Si,  2-C ) :   0.8567 B(  0-Si, 11-H ) :   0.8453 B(  0-Si, 12-H ) :   0.8453
B(  1-C ,  3-C ) :   0.9443 B(  1-C ,  8-H ) :   0.9559 B(  1-C ,  9-H ) :   0.9559
B(  1-C , 10-H ) :   0.9730 B(  2-C ,  3-C ) :   0.8821 B(  2-C ,  4-H ) :   0.9298
B(  2-C ,  5-H ) :   0.9298 B(  3-C ,  6-H ) :   0.8707 B(  3-C ,  7-H ) :   0.8708

MP2 TOTAL ENERGY:     -408.489991083 Eh
FINAL SINGLE POINT ENERGY      -408.489991082735

DIPOLE MOMENT
-------------
                                X             Y             Z
Electronic contribution:     -5.92910       0.99377      -0.00002
Nuclear contribution   :      6.29445      -0.91690       0.00002
                        -----------------------------------------
Total Dipole Moment    :      0.36535       0.07687      -0.00000
                        -----------------------------------------
Magnitude (a.u.)       :      0.37335
Magnitude (Debye)      :      0.94899

Rotational constants in cm-1:     0.709342     0.077553     0.074606
Rotational constants in MHz : 21265.541537  2324.982328  2236.619225

                             ****ORCA TERMINATED NORMALLY****
TOTAL RUN TIME: 0 days 1 hours 19 minutes 49 seconds 18 msec
