                         Program Version 5.0.4 -  RELEASE  -
|  1> ! ri-mp2 aug-cc-pvdz aug-cc-pvdz/c tightscf
|  2> %pal nprocs 16 end
|  3> %maxcore 3800
|  4> %base "DZ_Si-Si_77_AB"
|  5> %scf
|  6> STABPerform true
|  7> STABRestartUHFifUnstable true
|  8> end
|  9>
| 10> *xyz 0 1
| 11> Si        -1.170684   -0.575326   -0.065908
| 12> Si         1.170684   -0.575326    0.065908
| 13> N         1.627577    1.080814   -0.081990
| 14> H         1.751684   -1.489393   -0.955711
| 15> H         1.662555   -1.069386    1.374216
| 16> N        -1.627577    1.080814    0.081990
| 17> H        -1.751684   -1.489394    0.955711
| 18> H        -1.662555   -1.069385   -1.374217
| 19> H        -1.130279    1.672774    0.727635
| 20> H        -2.584510    1.374872   -0.025434
| 21> H         1.130278    1.672774   -0.727634
| 22> H         2.584509    1.374873    0.025433
| 23> *
| 24>
| 25> $new_job
| 26> ! ri-mp2 aug-cc-pvtz aug-cc-pvtz/c tightscf
| 27> %pal nprocs 16 end
| 28> %maxcore 3800
| 29> %base "TZ_Si-Si_77_AB"
| 30>
| 31> *xyz 0 1
| 32> Si        -1.170684   -0.575326   -0.065908
| 33> Si         1.170684   -0.575326    0.065908
| 34> N         1.627577    1.080814   -0.081990
| 35> H         1.751684   -1.489393   -0.955711
| 36> H         1.662555   -1.069386    1.374216
| 37> N        -1.627577    1.080814    0.081990
| 38> H        -1.751684   -1.489394    0.955711
| 39> H        -1.662555   -1.069385   -1.374217
| 40> H        -1.130279    1.672774    0.727635
| 41> H        -2.584510    1.374872   -0.025434
| 42> H         1.130278    1.672774   -0.727634
| 43> H         2.584509    1.374873    0.025433
| 44> *
| 45>
| 46> $new_job
| 47> ! ri-mp2 aug-cc-pvqz aug-cc-pvqz/c tightscf
| 48> %pal nprocs 16 end
| 49> %maxcore 3800
| 50> %base "QZ_Si-Si_77_AB"
| 51>
| 52> *xyz 0 1
| 53> Si        -1.170684   -0.575326   -0.065908
| 54> Si         1.170684   -0.575326    0.065908
| 55> N         1.627577    1.080814   -0.081990
| 56> H         1.751684   -1.489393   -0.955711
| 57> H         1.662555   -1.069386    1.374216
| 58> N        -1.627577    1.080814    0.081990
| 59> H        -1.751684   -1.489394    0.955711
| 60> H        -1.662555   -1.069385   -1.374217
| 61> H        -1.130279    1.672774    0.727635
| 62> H        -2.584510    1.374872   -0.025434
| 63> H         1.130278    1.672774   -0.727634
| 64> H         2.584509    1.374873    0.025433
| 65> *
| 66>
| 67>
| 68>
| 69>
| 70>                          ****END OF INPUT****
 Total Charge           Charge          ....    0
 Multiplicity           Mult            ....    1
 Number of Electrons    NEL             ....   50
MP2 TOTAL ENERGY:     -692.058926328 Eh
FINAL SINGLE POINT ENERGY      -692.058926328468
MP2 TOTAL ENERGY:     -692.245842324 Eh
FINAL SINGLE POINT ENERGY      -692.245842323996

CARTESIAN COORDINATES (ANGSTROEM)
---------------------------------
  Si    -1.170684   -0.575326   -0.065908
  Si     1.170684   -0.575326    0.065908
  N      1.627577    1.080814   -0.081990
  H      1.751684   -1.489393   -0.955711
  H      1.662555   -1.069386    1.374216
  N     -1.627577    1.080814    0.081990
  H     -1.751684   -1.489394    0.955711
  H     -1.662555   -1.069385   -1.374217
  H     -1.130279    1.672774    0.727635
  H     -2.584510    1.374872   -0.025434
  H      1.130278    1.672774   -0.727634
  H      2.584509    1.374873    0.025433

 Multiplicity           Mult            ....    1
 Number of Electrons    NEL             ....   50
 Basis Dimension        Dim             ....  696

ORBITAL ENERGIES
----------------

  NO   OCC          E(Eh)            E(eV)
   0   2.0000     -68.765827     -1871.2133
   1   2.0000     -68.765826     -1871.2133
   2   2.0000     -15.532767      -422.6681
   3   2.0000     -15.532765      -422.6680
   4   2.0000      -6.113507      -166.3570
   5   2.0000      -6.113361      -166.3530
   6   2.0000      -4.220468      -114.8448
   7   2.0000      -4.219951      -114.8307
   8   2.0000      -4.219940      -114.8304
   9   2.0000      -4.219791      -114.8263
  10   2.0000      -4.219642      -114.8223
  11   2.0000      -4.219587      -114.8208
  12   2.0000      -1.137534       -30.9539
  13   2.0000      -1.129255       -30.7286
  14   2.0000      -0.739792       -20.1308
  15   2.0000      -0.679083       -18.4788
  16   2.0000      -0.666129       -18.1263
  17   2.0000      -0.646300       -17.5867
  18   2.0000      -0.557241       -15.1633
  19   2.0000      -0.535761       -14.5788
  20   2.0000      -0.497180       -13.5290
  21   2.0000      -0.477552       -12.9948
  22   2.0000      -0.410659       -11.1746
  23   2.0000      -0.400396       -10.8953
  24   2.0000      -0.377103       -10.2615
  25   0.0000       0.023379         0.6362
  26   0.0000       0.029513         0.8031
  27   0.0000       0.038038         1.0351
  28   0.0000       0.042134         1.1465
  29   0.0000       0.047458         1.2914

MULLIKEN ATOMIC CHARGES
-----------------------
   0 Si:    0.827115
   1 Si:    0.827115
   2 N :   -0.901308
   3 H :   -0.230838
   4 H :   -0.200183
   5 N :   -0.901309
   6 H :   -0.230839
   7 H :   -0.200183
   8 H :    0.297756
   9 H :    0.207459
  10 H :    0.297756
  11 H :    0.207458
Sum of atomic charges:    0.0000000

LOEWDIN ATOMIC CHARGES
----------------------
   0 Si:    0.620102
   1 Si:    0.620103
   2 N :    1.125271
   3 H :   -0.278347
   4 H :   -0.273332
   5 N :    1.125270
   6 H :   -0.278346
   7 H :   -0.273331
   8 H :   -0.609604
   9 H :   -0.584091
  10 H :   -0.609604
  11 H :   -0.584092

  Mayer bond orders larger than 0.100000
B(  0-Si,  1-Si) :   0.8321 B(  0-Si,  5-N ) :   0.8180 B(  0-Si,  6-H ) :   0.8198
B(  0-Si,  7-H ) :   0.8617 B(  1-Si,  2-N ) :   0.8180 B(  1-Si,  3-H ) :   0.8198
B(  1-Si,  4-H ) :   0.8617 B(  2-N , 10-H ) :   0.9224 B(  2-N , 11-H ) :   1.0288
B(  5-N ,  8-H ) :   0.9224 B(  5-N ,  9-H ) :   1.0288

MP2 TOTAL ENERGY:     -692.304958202 Eh
FINAL SINGLE POINT ENERGY      -692.304958202107

DIPOLE MOMENT
-------------
                                X             Y             Z
Electronic contribution:      0.00000      -0.48195       0.00000
Nuclear contribution   :     -0.00000       1.07928      -0.00000
                        -----------------------------------------
Total Dipole Moment    :     -0.00000       0.59733       0.00000
                        -----------------------------------------
Magnitude (a.u.)       :      0.59733
Magnitude (Debye)      :      1.51830

Rotational constants in cm-1:     0.225719     0.090563     0.068380
Rotational constants in MHz :  6766.888927  2715.011748  2049.981571

                             ****ORCA TERMINATED NORMALLY****
TOTAL RUN TIME: 0 days 0 hours 34 minutes 56 seconds 278 msec
