                         Program Version 5.0.4 -  RELEASE  -
|  1> ! ri-mp2 aug-cc-pvdz aug-cc-pvdz/c tightscf
|  2> %pal nprocs 16 end
|  3> %maxcore 3800
|  4> %base "DZ_S-F_57_AB"
|  5> %scf
|  6> STABPerform true
|  7> STABRestartUHFifUnstable true
|  8> end
|  9>
| 10> *xyz 0 1
| 11> F        -1.050822    0.997102   -0.000017
| 12> S        -0.728952   -0.582547    0.000008
| 13> C         1.019154   -0.506261    0.000014
| 14> N         1.761697    0.503286   -0.000005
| 15> H         1.236731    1.377000    0.000000
| 16> H         1.437101   -1.515608   -0.000019
| 17> *
| 18>
| 19> $new_job
| 20> ! ri-mp2 aug-cc-pvtz aug-cc-pvtz/c tightscf
| 21> %pal nprocs 16 end
| 22> %maxcore 3800
| 23> %base "TZ_S-F_57_AB"
| 24>
| 25> *xyz 0 1
| 26> F        -1.050822    0.997102   -0.000017
| 27> S        -0.728952   -0.582547    0.000008
| 28> C         1.019154   -0.506261    0.000014
| 29> N         1.761697    0.503286   -0.000005
| 30> H         1.236731    1.377000    0.000000
| 31> H         1.437101   -1.515608   -0.000019
| 32> *
| 33>
| 34> $new_job
| 35> ! ri-mp2 aug-cc-pvqz aug-cc-pvqz/c tightscf
| 36> %pal nprocs 16 end
| 37> %maxcore 3800
| 38> %base "QZ_S-F_57_AB"
| 39>
| 40> *xyz 0 1
| 41> F        -1.050822    0.997102   -0.000017
| 42> S        -0.728952   -0.582547    0.000008
| 43> C         1.019154   -0.506261    0.000014
| 44> N         1.761697    0.503286   -0.000005
| 45> H         1.236731    1.377000    0.000000
| 46> H         1.437101   -1.515608   -0.000019
| 47> *
| 48>
| 49>
| 50>
| 51>
| 52>                          ****END OF INPUT****
 Total Charge           Charge          ....    0
 Multiplicity           Mult            ....    1
 Number of Electrons    NEL             ....   40
MP2 TOTAL ENERGY:     -591.073069491 Eh
FINAL SINGLE POINT ENERGY      -591.073069491421
MP2 TOTAL ENERGY:     -591.290426269 Eh
FINAL SINGLE POINT ENERGY      -591.290426269488

CARTESIAN COORDINATES (ANGSTROEM)
---------------------------------
  F     -1.050822    0.997102   -0.000017
  S     -0.728952   -0.582547    0.000008
  C      1.019154   -0.506261    0.000014
  N      1.761697    0.503286   -0.000005
  H      1.236731    1.377000    0.000000
  H      1.437101   -1.515608   -0.000019

 Multiplicity           Mult            ....    1
 Number of Electrons    NEL             ....   40
 Basis Dimension        Dim             ....  416

ORBITAL ENERGIES
----------------

  NO   OCC          E(Eh)            E(eV)
   0   2.0000     -92.060689     -2505.0987
   1   2.0000     -26.336301      -716.6472
   2   2.0000     -15.572774      -423.7567
   3   2.0000     -11.333137      -308.3903
   4   2.0000      -9.055670      -246.4173
   5   2.0000      -6.737273      -183.3305
   6   2.0000      -6.735165      -183.2732
   7   2.0000      -6.734036      -183.2424
   8   2.0000      -1.637848       -44.5681
   9   2.0000      -1.243656       -33.8416
  10   2.0000      -1.026292       -27.9268
  11   2.0000      -0.841518       -22.8989
  12   2.0000      -0.744453       -20.2576
  13   2.0000      -0.717967       -19.5369
  14   2.0000      -0.701396       -19.0860
  15   2.0000      -0.633256       -17.2318
  16   2.0000      -0.577265       -15.7082
  17   2.0000      -0.513852       -13.9826
  18   2.0000      -0.435741       -11.8571
  19   2.0000      -0.384364       -10.4591
  20   0.0000       0.026505         0.7212
  21   0.0000       0.035621         0.9693
  22   0.0000       0.049496         1.3468
  23   0.0000       0.062504         1.7008
  24   0.0000       0.073154         1.9906

MULLIKEN ATOMIC CHARGES
-----------------------
   0 F :   -0.605749
   1 S :    0.721215
   2 C :   -0.347518
   3 N :   -0.593359
   4 H :    0.350193
   5 H :    0.475218
Sum of atomic charges:    0.0000000

LOEWDIN ATOMIC CHARGES
----------------------
   0 F :    0.108551
   1 S :    0.692290
   2 C :   -0.426876
   3 N :    0.864841
   4 H :   -0.753998
   5 H :   -0.484808

  Mayer bond orders larger than 0.100000
B(  0-F ,  1-S ) :   0.6044 B(  1-S ,  2-C ) :   1.0071 B(  2-C ,  3-N ) :   1.8546
B(  2-C ,  5-H ) :   0.7393 B(  3-N ,  4-H ) :   0.7950

MP2 TOTAL ENERGY:     -591.362542623 Eh
FINAL SINGLE POINT ENERGY      -591.362542622790

DIPOLE MOMENT
-------------
                                X             Y             Z
Electronic contribution:     -3.92095       0.44143       0.00001
Nuclear contribution   :      3.55654      -1.04708      -0.00000
                        -----------------------------------------
Total Dipole Moment    :     -0.36441      -0.60565       0.00001
                        -----------------------------------------
Magnitude (a.u.)       :      0.70683
Magnitude (Debye)      :      1.79662

Rotational constants in cm-1:     0.415197     0.173052     0.122143
Rotational constants in MHz : 12447.300792  5187.958100  3661.759397

                             ****ORCA TERMINATED NORMALLY****
TOTAL RUN TIME: 0 days 0 hours 5 minutes 39 seconds 726 msec
