                         Program Version 5.0.4 -  RELEASE  -
|  1> ! ri-mp2 aug-cc-pvdz aug-cc-pvdz/c tightscf
|  2> %pal nprocs 16 end
|  3> %maxcore 3800
|  4> %base "DZ_Si-F_8_AB"
|  5> %scf
|  6> STABPerform true
|  7> STABRestartUHFifUnstable true
|  8> end
|  9>
| 10> *xyz 0 1
| 11> Si         0.735597    0.000000    0.328155
| 12> C        -1.024882    0.000000   -0.379601
| 13> F         1.477307   -1.279306   -0.230741
| 14> F         1.477307    1.279306   -0.230743
| 15> H        -1.103360    0.000001   -1.469677
| 16> F        -1.688679    1.103603    0.084188
| 17> F        -1.688679   -1.103603    0.084187
| 18> H         0.758999    0.000001    1.791095
| 19> *
| 20>
| 21> $new_job
| 22> ! ri-mp2 aug-cc-pvtz aug-cc-pvtz/c tightscf
| 23> %pal nprocs 16 end
| 24> %maxcore 3800
| 25> %base "TZ_Si-F_8_AB"
| 26>
| 27> *xyz 0 1
| 28> Si         0.735597    0.000000    0.328155
| 29> C        -1.024882    0.000000   -0.379601
| 30> F         1.477307   -1.279306   -0.230741
| 31> F         1.477307    1.279306   -0.230743
| 32> H        -1.103360    0.000001   -1.469677
| 33> F        -1.688679    1.103603    0.084188
| 34> F        -1.688679   -1.103603    0.084187
| 35> H         0.758999    0.000001    1.791095
| 36> *
| 37>
| 38> $new_job
| 39> ! ri-mp2 aug-cc-pvqz aug-cc-pvqz/c tightscf
| 40> %pal nprocs 16 end
| 41> %maxcore 3800
| 42> %base "QZ_Si-F_8_AB"
| 43>
| 44> *xyz 0 1
| 45> Si         0.735597    0.000000    0.328155
| 46> C        -1.024882    0.000000   -0.379601
| 47> F         1.477307   -1.279306   -0.230741
| 48> F         1.477307    1.279306   -0.230743
| 49> H        -1.103360    0.000001   -1.469677
| 50> F        -1.688679    1.103603    0.084188
| 51> F        -1.688679   -1.103603    0.084187
| 52> H         0.758999    0.000001    1.791095
| 53> *
| 54>
| 55>
| 56>
| 57>
| 58>                          ****END OF INPUT****
 Total Charge           Charge          ....    0
 Multiplicity           Mult            ....    1
 Number of Electrons    NEL             ....   58
MP2 TOTAL ENERGY:     -726.934695092 Eh
FINAL SINGLE POINT ENERGY      -726.934695091725
MP2 TOTAL ENERGY:     -727.349214908 Eh
FINAL SINGLE POINT ENERGY      -727.349214907791

CARTESIAN COORDINATES (ANGSTROEM)
---------------------------------
  Si     0.735597    0.000000    0.328155
  C     -1.024882    0.000000   -0.379601
  F      1.477307   -1.279306   -0.230741
  F      1.477307    1.279306   -0.230743
  H     -1.103360    0.000001   -1.469677
  F     -1.688679    1.103603    0.084188
  F     -1.688679   -1.103603    0.084187
  H      0.758999    0.000001    1.791095

 Multiplicity           Mult            ....    1
 Number of Electrons    NEL             ....   58
 Basis Dimension        Dim             ....  576

ORBITAL ENERGIES
----------------

  NO   OCC          E(Eh)            E(eV)
   0   2.0000     -68.872189     -1874.1075
   1   2.0000     -26.323151      -716.2894
   2   2.0000     -26.323135      -716.2889
   3   2.0000     -26.318568      -716.1646
   4   2.0000     -26.318559      -716.1644
   5   2.0000     -11.407040      -310.4013
   6   2.0000      -6.212399      -169.0480
   7   2.0000      -4.320566      -117.5686
   8   2.0000      -4.319731      -117.5458
   9   2.0000      -4.318775      -117.5198
  10   2.0000      -1.669882       -45.4398
  11   2.0000      -1.633313       -44.4447
  12   2.0000      -1.615192       -43.9516
  13   2.0000      -1.610935       -43.8358
  14   2.0000      -0.975801       -26.5529
  15   2.0000      -0.829427       -22.5699
  16   2.0000      -0.786223       -21.3942
  17   2.0000      -0.766580       -20.8597
  18   2.0000      -0.765642       -20.8342
  19   2.0000      -0.741949       -20.1894
  20   2.0000      -0.720984       -19.6190
  21   2.0000      -0.704927       -19.1820
  22   2.0000      -0.688178       -18.7263
  23   2.0000      -0.682684       -18.5768
  24   2.0000      -0.670022       -18.2322
  25   2.0000      -0.645106       -17.5542
  26   2.0000      -0.622302       -16.9337
  27   2.0000      -0.582528       -15.8514
  28   2.0000      -0.487471       -13.2648
  29   0.0000       0.026540         0.7222
  30   0.0000       0.035633         0.9696
  31   0.0000       0.040564         1.1038
  32   0.0000       0.041241         1.1222
  33   0.0000       0.058642         1.5957

MULLIKEN ATOMIC CHARGES
-----------------------
   0 Si:    1.862524
   1 C :    0.634577
   2 F :   -0.686237
   3 F :   -0.686237
   4 H :    0.321425
   5 F :   -0.627631
   6 F :   -0.627631
   7 H :   -0.190790
Sum of atomic charges:    0.0000000

LOEWDIN ATOMIC CHARGES
----------------------
   0 Si:   -0.486045
   1 C :   -1.048358
   2 F :    0.432649
   3 F :    0.432649
   4 H :   -0.465806
   5 F :    0.690900
   6 F :    0.690900
   7 H :   -0.246888

  Mayer bond orders larger than 0.100000
B(  0-Si,  1-C ) :   0.8398 B(  0-Si,  2-F ) :   0.4499 B(  0-Si,  3-F ) :   0.4499
B(  0-Si,  7-H ) :   0.9339 B(  1-C ,  4-H ) :   0.8519 B(  1-C ,  5-F ) :   0.5506
B(  1-C ,  6-F ) :   0.5506

MP2 TOTAL ENERGY:     -727.486775594 Eh
FINAL SINGLE POINT ENERGY      -727.486775593965

DIPOLE MOMENT
-------------
                                X             Y             Z
Electronic contribution:      0.16705      -0.00000      -0.60508
Nuclear contribution   :      0.02627       0.00000       0.54505
                        -----------------------------------------
Total Dipole Moment    :      0.19332      -0.00000      -0.06003
                        -----------------------------------------
Magnitude (a.u.)       :      0.20243
Magnitude (Debye)      :      0.51452

Rotational constants in cm-1:     0.139498     0.072241     0.051172
Rotational constants in MHz :  4182.058860  2165.743435  1534.098944

                             ****ORCA TERMINATED NORMALLY****
TOTAL RUN TIME: 0 days 0 hours 17 minutes 13 seconds 147 msec
