                         Program Version 5.0.4 -  RELEASE  -
|  1> ! ri-mp2 aug-cc-pvdz aug-cc-pvdz/c tightscf
|  2> %pal nprocs 16 end
|  3> %maxcore 3800
|  4> %base "DZ_P-N_71_AB"
|  5> %scf
|  6> STABPerform true
|  7> STABRestartUHFifUnstable true
|  8> end
|  9>
| 10> *xyz 0 1
| 11> P         0.645131   -0.722329   -0.077177
| 12> N        -1.009656   -0.499733    0.297287
| 13> O        -1.602480    0.719390   -0.140482
| 14> C         1.410021    0.936624    0.112751
| 15> H        -2.292552    0.431326   -0.747412
| 16> H         0.796277    1.722641   -0.321256
| 17> H         2.383604    0.925664   -0.380077
| 18> H         1.572554    1.146965    1.169686
| 19> H         0.500792   -0.684684   -1.482290
| 20> H        -1.210326   -0.583715    1.285350
| 21> *
| 22>
| 23> $new_job
| 24> ! ri-mp2 aug-cc-pvtz aug-cc-pvtz/c tightscf
| 25> %pal nprocs 16 end
| 26> %maxcore 3800
| 27> %base "TZ_P-N_71_AB"
| 28>
| 29> *xyz 0 1
| 30> P         0.645131   -0.722329   -0.077177
| 31> N        -1.009656   -0.499733    0.297287
| 32> O        -1.602480    0.719390   -0.140482
| 33> C         1.410021    0.936624    0.112751
| 34> H        -2.292552    0.431326   -0.747412
| 35> H         0.796277    1.722641   -0.321256
| 36> H         2.383604    0.925664   -0.380077
| 37> H         1.572554    1.146965    1.169686
| 38> H         0.500792   -0.684684   -1.482290
| 39> H        -1.210326   -0.583715    1.285350
| 40> *
| 41>
| 42> $new_job
| 43> ! ri-mp2 aug-cc-pvqz aug-cc-pvqz/c tightscf
| 44> %pal nprocs 16 end
| 45> %maxcore 3800
| 46> %base "QZ_P-N_71_AB"
| 47>
| 48> *xyz 0 1
| 49> P         0.645131   -0.722329   -0.077177
| 50> N        -1.009656   -0.499733    0.297287
| 51> O        -1.602480    0.719390   -0.140482
| 52> C         1.410021    0.936624    0.112751
| 53> H        -2.292552    0.431326   -0.747412
| 54> H         0.796277    1.722641   -0.321256
| 55> H         2.383604    0.925664   -0.380077
| 56> H         1.572554    1.146965    1.169686
| 57> H         0.500792   -0.684684   -1.482290
| 58> H        -1.210326   -0.583715    1.285350
| 59> *
| 60>
| 61>
| 62>
| 63>
| 64>                          ****END OF INPUT****
 Total Charge           Charge          ....    0
 Multiplicity           Mult            ....    1
 Number of Electrons    NEL             ....   42
MP2 TOTAL ENERGY:     -512.035005236 Eh
FINAL SINGLE POINT ENERGY      -512.035005236048
MP2 TOTAL ENERGY:     -512.237567377 Eh
FINAL SINGLE POINT ENERGY      -512.237567376603

CARTESIAN COORDINATES (ANGSTROEM)
---------------------------------
  P      0.645131   -0.722329   -0.077177
  N     -1.009656   -0.499733    0.297287
  O     -1.602480    0.719390   -0.140482
  C      1.410021    0.936624    0.112751
  H     -2.292552    0.431326   -0.747412
  H      0.796277    1.722641   -0.321256
  H      2.383604    0.925664   -0.380077
  H      1.572554    1.146965    1.169686
  H      0.500792   -0.684684   -1.482290
  H     -1.210326   -0.583715    1.285350

 Multiplicity           Mult            ....    1
 Number of Electrons    NEL             ....   42
 Basis Dimension        Dim             ....  600

ORBITAL ENERGIES
----------------

  NO   OCC          E(Eh)            E(eV)
   0   2.0000     -79.952858     -2175.6279
   1   2.0000     -20.595592      -560.4345
   2   2.0000     -15.604949      -424.6322
   3   2.0000     -11.217441      -305.2421
   4   2.0000      -7.492299      -203.8758
   5   2.0000      -5.386627      -146.5776
   6   2.0000      -5.386098      -146.5632
   7   2.0000      -5.385350      -146.5428
   8   2.0000      -1.406834       -38.2819
   9   2.0000      -1.099571       -29.9209
  10   2.0000      -0.968643       -26.3581
  11   2.0000      -0.789425       -21.4814
  12   2.0000      -0.700175       -19.0527
  13   2.0000      -0.651160       -17.7190
  14   2.0000      -0.611872       -16.6499
  15   2.0000      -0.574455       -15.6317
  16   2.0000      -0.551489       -15.0068
  17   2.0000      -0.505993       -13.7688
  18   2.0000      -0.481614       -13.1054
  19   2.0000      -0.403824       -10.9886
  20   2.0000      -0.357063        -9.7162
  21   0.0000       0.026088         0.7099
  22   0.0000       0.035341         0.9617
  23   0.0000       0.036234         0.9860
  24   0.0000       0.043156         1.1743
  25   0.0000       0.055789         1.5181

MULLIKEN ATOMIC CHARGES
-----------------------
   0 P :    0.663055
   1 N :   -0.420572
   2 O :   -0.582848
   3 C :   -1.028440
   4 H :    0.336035
   5 H :    0.307874
   6 H :    0.313866
   7 H :    0.253646
   8 H :   -0.102336
   9 H :    0.259721
Sum of atomic charges:   -0.0000000

LOEWDIN ATOMIC CHARGES
----------------------
   0 P :    1.050774
   1 N :    0.283599
   2 O :    1.034679
   3 C :    0.726557
   4 H :   -0.846928
   5 H :   -0.378750
   6 H :   -0.377936
   7 H :   -0.373498
   8 H :   -0.437375
   9 H :   -0.681122

  Mayer bond orders larger than 0.100000
B(  0-P ,  1-N ) :   0.7587 B(  0-P ,  3-C ) :   0.8859 B(  0-P ,  8-H ) :   0.9463
B(  1-N ,  2-O ) :   0.7866 B(  1-N ,  9-H ) :   0.9345 B(  2-O ,  4-H ) :   0.9101
B(  3-C ,  5-H ) :   0.8988 B(  3-C ,  6-H ) :   0.9061 B(  3-C ,  7-H ) :   0.9345

MP2 TOTAL ENERGY:     -512.301834638 Eh
FINAL SINGLE POINT ENERGY      -512.301834637519

DIPOLE MOMENT
-------------
                                X             Y             Z
Electronic contribution:     -1.27241      -3.42999       0.32984
Nuclear contribution   :      1.10252       3.64714      -0.40215
                        -----------------------------------------
Total Dipole Moment    :     -0.16989       0.21715      -0.07231
                        -----------------------------------------
Magnitude (a.u.)       :      0.28503
Magnitude (Debye)      :      0.72450

Rotational constants in cm-1:     0.323996     0.144842     0.110541
Rotational constants in MHz :  9713.157937  4342.242849  3313.937053

                             ****ORCA TERMINATED NORMALLY****
TOTAL RUN TIME: 0 days 0 hours 20 minutes 28 seconds 128 msec
