                         Program Version 5.0.4 -  RELEASE  -
|  1> ! ri-mp2 aug-cc-pvdz aug-cc-pvdz/c tightscf
|  2> %pal nprocs 16 end
|  3> %maxcore 3800
|  4> %base "DZ_B-Cl_13_A"
|  5> %scf
|  6> STABPerform true
|  7> STABRestartUHFifUnstable true
|  8> end
|  9>
| 10> *xyz 0 2
| 11> Cl        -2.284471   -0.091956    0.093842
| 12> B        -0.720424   -0.806252    0.016141
| 13> P         0.880405   -0.054060   -0.520183
| 14> C         2.191434   -0.977424    0.374530
| 15> C         0.959719    1.636798    0.206742
| 16> H         2.106037   -2.034783    0.130884
| 17> H         2.126319   -0.857692    1.454898
| 18> H         3.167132   -0.628596    0.038089
| 19> H         0.105358    2.212526   -0.145247
| 20> H         1.866994    2.133784   -0.135336
| 21> H         0.953290    1.623933    1.295796
| 22> *
| 23>
| 24> $new_job
| 25> ! ri-mp2 aug-cc-pvtz aug-cc-pvtz/c tightscf
| 26> %pal nprocs 16 end
| 27> %maxcore 3800
| 28> %base "TZ_B-Cl_13_A"
| 29>
| 30> *xyz 0 2
| 31> Cl        -2.284471   -0.091956    0.093842
| 32> B        -0.720424   -0.806252    0.016141
| 33> P         0.880405   -0.054060   -0.520183
| 34> C         2.191434   -0.977424    0.374530
| 35> C         0.959719    1.636798    0.206742
| 36> H         2.106037   -2.034783    0.130884
| 37> H         2.126319   -0.857692    1.454898
| 38> H         3.167132   -0.628596    0.038089
| 39> H         0.105358    2.212526   -0.145247
| 40> H         1.866994    2.133784   -0.135336
| 41> H         0.953290    1.623933    1.295796
| 42> *
| 43>
| 44> $new_job
| 45> ! ri-mp2 aug-cc-pvqz aug-cc-pvqz/c tightscf
| 46> %pal nprocs 16 end
| 47> %maxcore 3800
| 48> %base "QZ_B-Cl_13_A"
| 49>
| 50> *xyz 0 2
| 51> Cl        -2.284471   -0.091956    0.093842
| 52> B        -0.720424   -0.806252    0.016141
| 53> P         0.880405   -0.054060   -0.520183
| 54> C         2.191434   -0.977424    0.374530
| 55> C         0.959719    1.636798    0.206742
| 56> H         2.106037   -2.034783    0.130884
| 57> H         2.126319   -0.857692    1.454898
| 58> H         3.167132   -0.628596    0.038089
| 59> H         0.105358    2.212526   -0.145247
| 60> H         1.866994    2.133784   -0.135336
| 61> H         0.953290    1.623933    1.295796
| 62> *
| 63>
| 64>
| 65>
| 66>
| 67>                          ****END OF INPUT****
 Total Charge           Charge          ....    0
 Multiplicity           Mult            ....    2
 Number of Electrons    NEL             ....   55
MP2 TOTAL ENERGY:     -904.790777961 Eh
FINAL SINGLE POINT ENERGY      -904.790777960612
MP2 TOTAL ENERGY:     -904.992662793 Eh
FINAL SINGLE POINT ENERGY      -904.992662792857

CARTESIAN COORDINATES (ANGSTROEM)
---------------------------------
  Cl    -2.284471   -0.091956    0.093842
  B     -0.720424   -0.806252    0.016141
  P      0.880405   -0.054060   -0.520183
  C      2.191434   -0.977424    0.374530
  C      0.959719    1.636798    0.206742
  H      2.106037   -2.034783    0.130884
  H      2.126319   -0.857692    1.454898
  H      3.167132   -0.628596    0.038089
  H      0.105358    2.212526   -0.145247
  H      1.866994    2.133784   -0.135336
  H      0.953290    1.623933    1.295796

 Multiplicity           Mult            ....    2
 Number of Electrons    NEL             ....   55
 Basis Dimension        Dim             ....  684

ORBITAL ENERGIES
----------------
                 SPIN UP ORBITALS
  NO   OCC          E(Eh)            E(eV)
   0   1.0000    -104.843766     -2852.9439
   1   1.0000     -79.931920     -2175.0581
   2   1.0000     -11.233916      -305.6904
   3   1.0000     -11.233009      -305.6657
   4   1.0000     -10.571126      -287.6550
   5   1.0000      -8.038614      -218.7418
   6   1.0000      -8.036896      -218.6951
   7   1.0000      -8.036516      -218.6847
   8   1.0000      -7.671753      -208.7590
   9   1.0000      -7.476460      -203.4448
  10   1.0000      -5.371642      -146.1698
  11   1.0000      -5.370584      -146.1410
  12   1.0000      -5.369973      -146.1244
  13   1.0000      -1.125946       -30.6386
  14   1.0000      -1.013988       -27.5920
  15   1.0000      -0.950245       -25.8575
  16   1.0000      -0.785924       -21.3861
  17   1.0000      -0.645041       -17.5525
  18   1.0000      -0.595965       -16.2170
  19   1.0000      -0.594020       -16.1641
  20   1.0000      -0.574657       -15.6372
  21   1.0000      -0.565952       -15.4003
  22   1.0000      -0.517698       -14.0873
  23   1.0000      -0.500492       -13.6191
  24   1.0000      -0.490656       -13.3514
  25   1.0000      -0.470715       -12.8088
  26   1.0000      -0.349921        -9.5218
  27   1.0000      -0.312694        -8.5088
  28   0.0000       0.021312         0.5799
  29   0.0000       0.032555         0.8859
  30   0.0000       0.033948         0.9238
  31   0.0000       0.037299         1.0150
  32   0.0000       0.049214         1.3392

                 SPIN DOWN ORBITALS
  NO   OCC          E(Eh)            E(eV)
   0   1.0000    -104.843080     -2852.9252
   1   1.0000     -79.931789     -2175.0546
   2   1.0000     -11.233192      -305.6707
   3   1.0000     -11.232983      -305.6650
   4   1.0000     -10.570335      -287.6334
   5   1.0000      -8.037610      -218.7145
   6   1.0000      -8.036583      -218.6865
   7   1.0000      -8.034404      -218.6273
   8   1.0000      -7.652711      -208.2409
   9   1.0000      -7.476210      -203.4380
  10   1.0000      -5.371082      -146.1546
  11   1.0000      -5.370387      -146.1357
  12   1.0000      -5.369982      -146.1247
  13   1.0000      -1.117708       -30.4144
  14   1.0000      -1.011469       -27.5235
  15   1.0000      -0.948892       -25.8207
  16   1.0000      -0.768739       -20.9185
  17   1.0000      -0.622872       -16.9492
  18   1.0000      -0.595113       -16.1938
  19   1.0000      -0.589759       -16.0482
  20   1.0000      -0.569730       -15.5031
  21   1.0000      -0.565359       -15.3842
  22   1.0000      -0.498075       -13.5533
  23   1.0000      -0.490032       -13.3344
  24   1.0000      -0.478839       -13.0299
  25   1.0000      -0.457763       -12.4564
  26   1.0000      -0.336546        -9.1579
  27   0.0000       0.021014         0.5718
  28   0.0000       0.031403         0.8545
  29   0.0000       0.033764         0.9188
  30   0.0000       0.037225         1.0129
  31   0.0000       0.049259         1.3404

MULLIKEN ATOMIC CHARGES AND SPIN POPULATIONS
--------------------------------------------
   0 Cl:   -0.258254    0.021662
   1 B :   -0.013744    0.999474
   2 P :    0.597287   -0.024137
   3 C :   -1.124427   -0.024183
   4 C :   -1.118421    0.032478
   5 H :    0.367983   -0.006258
   6 H :    0.288950   -0.000764
   7 H :    0.318849   -0.003124
   8 H :    0.352125   -0.000571
   9 H :    0.308896    0.008166
  10 H :    0.280756   -0.002743
Sum of atomic charges         :    0.0000000

LOEWDIN ATOMIC CHARGES AND SPIN POPULATIONS
-------------------------------------------
   0 Cl:    1.146753    0.185712
   1 B :   -1.279953    0.589651
   2 P :    0.828535    0.156405
   3 C :    0.729008    0.018856
   4 C :    0.732865    0.023091
   5 H :   -0.371935    0.010855
   6 H :   -0.348442    0.003040
   7 H :   -0.358720   -0.000405
   8 H :   -0.374155    0.004104
   9 H :   -0.357010    0.006255
  10 H :   -0.346945    0.002436

  Mayer bond orders larger than 0.100000
B(  0-Cl,  1-B ) :   1.1041 B(  1-B ,  2-P ) :   1.1669 B(  2-P ,  3-C ) :   0.8948
B(  2-P ,  4-C ) :   0.8922 B(  3-C ,  5-H ) :   0.8774 B(  3-C ,  6-H ) :   0.8982
B(  3-C ,  7-H ) :   0.8967 B(  4-C ,  8-H ) :   0.8773 B(  4-C ,  9-H ) :   0.9019
B(  4-C , 10-H ) :   0.9029

MP2 TOTAL ENERGY:     -905.056633597 Eh
FINAL SINGLE POINT ENERGY      -905.056633597485

DIPOLE MOMENT
-------------
                                X             Y             Z
Electronic contribution:    -12.18152      -2.87422      -2.43082
Nuclear contribution   :     12.83676       3.15916       2.87552
                        -----------------------------------------
Total Dipole Moment    :      0.65523       0.28494       0.44470
                        -----------------------------------------
Magnitude (a.u.)       :      0.84159
Magnitude (Debye)      :      2.13915

Rotational constants in cm-1:     0.203033     0.052671     0.045086
Rotational constants in MHz :  6086.778758  1579.039506  1351.638006

                             ****ORCA TERMINATED NORMALLY****
TOTAL RUN TIME: 0 days 1 hours 12 minutes 47 seconds 538 msec
