                         Program Version 5.0.4 -  RELEASE  -
|  1> ! ri-mp2 aug-cc-pvdz aug-cc-pvdz/c tightscf
|  2> %pal nprocs 16 end
|  3> %maxcore 3800
|  4> %base "DZ_B-S_38_A"
|  5> %scf
|  6> STABPerform true
|  7> STABRestartUHFifUnstable true
|  8> end
|  9>
| 10> *xyz 0 2
| 11> C        -0.922071    0.232836   -0.375767
| 12> C         0.340971   -0.519914   -0.022176
| 13> S         1.887867    0.330285   -0.062653
| 14> O         0.393206   -1.686922    0.260272
| 15> C        -0.961105    1.613632    0.271154
| 16> H        -0.990009    1.533149    1.358441
| 17> H        -1.852669    2.149282   -0.053285
| 18> H        -0.095955    2.219521   -0.000115
| 19> C        -2.150989   -0.599770   -0.046889
| 20> H        -0.863234    0.369202   -1.461861
| 21> H        -2.237825   -0.752326    1.029239
| 22> H        -2.103344   -1.579586   -0.516857
| 23> H        -3.049332   -0.089125   -0.393222
| 24> *
| 25>
| 26> $new_job
| 27> ! ri-mp2 aug-cc-pvtz aug-cc-pvtz/c tightscf
| 28> %pal nprocs 16 end
| 29> %maxcore 3800
| 30> %base "TZ_B-S_38_A"
| 31>
| 32> *xyz 0 2
| 33> C        -0.922071    0.232836   -0.375767
| 34> C         0.340971   -0.519914   -0.022176
| 35> S         1.887867    0.330285   -0.062653
| 36> O         0.393206   -1.686922    0.260272
| 37> C        -0.961105    1.613632    0.271154
| 38> H        -0.990009    1.533149    1.358441
| 39> H        -1.852669    2.149282   -0.053285
| 40> H        -0.095955    2.219521   -0.000115
| 41> C        -2.150989   -0.599770   -0.046889
| 42> H        -0.863234    0.369202   -1.461861
| 43> H        -2.237825   -0.752326    1.029239
| 44> H        -2.103344   -1.579586   -0.516857
| 45> H        -3.049332   -0.089125   -0.393222
| 46> *
| 47>
| 48> $new_job
| 49> ! ri-mp2 aug-cc-pvqz aug-cc-pvqz/c tightscf
| 50> %pal nprocs 16 end
| 51> %maxcore 3800
| 52> %base "QZ_B-S_38_A"
| 53>
| 54> *xyz 0 2
| 55> C        -0.922071    0.232836   -0.375767
| 56> C         0.340971   -0.519914   -0.022176
| 57> S         1.887867    0.330285   -0.062653
| 58> O         0.393206   -1.686922    0.260272
| 59> C        -0.961105    1.613632    0.271154
| 60> H        -0.990009    1.533149    1.358441
| 61> H        -1.852669    2.149282   -0.053285
| 62> H        -0.095955    2.219521   -0.000115
| 63> C        -2.150989   -0.599770   -0.046889
| 64> H        -0.863234    0.369202   -1.461861
| 65> H        -2.237825   -0.752326    1.029239
| 66> H        -2.103344   -1.579586   -0.516857
| 67> H        -3.049332   -0.089125   -0.393222
| 68> *
| 69>
| 70>
| 71>
| 72>
| 73>                          ****END OF INPUT****
 Total Charge           Charge          ....    0
 Multiplicity           Mult            ....    2
 Number of Electrons    NEL             ....   55
MP2 TOTAL ENERGY:     -628.845904832 Eh
FINAL SINGLE POINT ENERGY      -628.845904831566
MP2 TOTAL ENERGY:     -629.099001208 Eh
FINAL SINGLE POINT ENERGY      -629.099001207605

CARTESIAN COORDINATES (ANGSTROEM)
---------------------------------
  C     -0.922071    0.232836   -0.375767
  C      0.340971   -0.519914   -0.022176
  S      1.887867    0.330285   -0.062653
  O      0.393206   -1.686922    0.260272
  C     -0.961105    1.613632    0.271154
  H     -0.990009    1.533149    1.358441
  H     -1.852669    2.149282   -0.053285
  H     -0.095955    2.219521   -0.000115
  C     -2.150989   -0.599770   -0.046889
  H     -0.863234    0.369202   -1.461861
  H     -2.237825   -0.752326    1.029239
  H     -2.103344   -1.579586   -0.516857
  H     -3.049332   -0.089125   -0.393222

 Multiplicity           Mult            ....    2
 Number of Electrons    NEL             ....   55
 Basis Dimension        Dim             ....  806

ORBITAL ENERGIES
----------------
                 SPIN UP ORBITALS
  NO   OCC          E(Eh)            E(eV)
   0   1.0000     -91.995112     -2503.3143
   1   1.0000     -20.561492      -559.5066
   2   1.0000     -11.365788      -309.2788
   3   1.0000     -11.261111      -306.4304
   4   1.0000     -11.238268      -305.8088
   5   1.0000     -11.224947      -305.4463
   6   1.0000      -8.998305      -244.8563
   7   1.0000      -6.694422      -182.1645
   8   1.0000      -6.675305      -181.6443
   9   1.0000      -6.674162      -181.6132
  10   1.0000      -1.417375       -38.5687
  11   1.0000      -1.112630       -30.2762
  12   1.0000      -1.028385       -27.9838
  13   1.0000      -0.952255       -25.9122
  14   1.0000      -0.872639       -23.7457
  15   1.0000      -0.732400       -19.9296
  16   1.0000      -0.677728       -18.4419
  17   1.0000      -0.644351       -17.5337
  18   1.0000      -0.632321       -17.2063
  19   1.0000      -0.578721       -15.7478
  20   1.0000      -0.560309       -15.2468
  21   1.0000      -0.553898       -15.0723
  22   1.0000      -0.547317       -14.8932
  23   1.0000      -0.503516       -13.7014
  24   1.0000      -0.496570       -13.5124
  25   1.0000      -0.463908       -12.6236
  26   1.0000      -0.418358       -11.3841
  27   1.0000      -0.403187       -10.9713
  28   0.0000       0.022990         0.6256
  29   0.0000       0.032921         0.8958
  30   0.0000       0.033738         0.9181
  31   0.0000       0.040052         1.0899
  32   0.0000       0.052083         1.4173

                 SPIN DOWN ORBITALS
  NO   OCC          E(Eh)            E(eV)
   0   1.0000     -91.985687     -2503.0578
   1   1.0000     -20.559670      -559.4571
   2   1.0000     -11.366756      -309.3051
   3   1.0000     -11.261091      -306.4299
   4   1.0000     -11.237892      -305.7986
   5   1.0000     -11.224913      -305.4454
   6   1.0000      -8.987894      -244.5730
   7   1.0000      -6.670332      -181.5090
   8   1.0000      -6.668483      -181.4586
   9   1.0000      -6.652025      -181.0108
  10   1.0000      -1.412151       -38.4266
  11   1.0000      -1.108805       -30.1721
  12   1.0000      -0.972422       -26.4610
  13   1.0000      -0.946592       -25.7581
  14   1.0000      -0.856113       -23.2960
  15   1.0000      -0.723327       -19.6827
  16   1.0000      -0.666782       -18.1441
  17   1.0000      -0.641167       -17.4470
  18   1.0000      -0.617072       -16.7914
  19   1.0000      -0.573573       -15.6077
  20   1.0000      -0.558834       -15.2066
  21   1.0000      -0.550811       -14.9883
  22   1.0000      -0.542087       -14.7509
  23   1.0000      -0.502457       -13.6726
  24   1.0000      -0.495909       -13.4944
  25   1.0000      -0.410130       -11.1602
  26   1.0000      -0.383308       -10.4303
  27   0.0000       0.003657         0.0995
  28   0.0000       0.023530         0.6403
  29   0.0000       0.033276         0.9055
  30   0.0000       0.034489         0.9385
  31   0.0000       0.040433         1.1002

MULLIKEN ATOMIC CHARGES AND SPIN POPULATIONS
--------------------------------------------
   0 C :    0.110308    0.015490
   1 C :    0.594375   -0.148088
   2 S :   -0.037426    1.125041
   3 O :   -0.792819    0.018197
   4 C :   -0.863678    0.000673
   5 H :    0.229477   -0.001316
   6 H :    0.262610    0.002116
   7 H :    0.273103   -0.010896
   8 C :   -0.861390   -0.001332
   9 H :    0.324674   -0.000272
  10 H :    0.217152   -0.000417
  11 H :    0.255219    0.000055
  12 H :    0.288395    0.000750
Sum of atomic charges         :    0.0000000

LOEWDIN ATOMIC CHARGES AND SPIN POPULATIONS
-------------------------------------------
   0 C :   -0.073328    0.014317
   1 C :   -1.317028    0.176962
   2 S :    1.068425    0.718628
   3 O :    0.608023    0.035296
   4 C :    0.857074    0.019062
   5 H :   -0.274617    0.001288
   6 H :   -0.273853    0.001772
   7 H :   -0.330491    0.029592
   8 C :    0.884590    0.000965
   9 H :   -0.303182    0.001400
  10 H :   -0.277378    0.000143
  11 H :   -0.292008    0.000236
  12 H :   -0.276225    0.000339

  Mayer bond orders larger than 0.100000
B(  0-C ,  1-C ) :   0.8542 B(  0-C ,  2-S ) :  -0.1323 B(  0-C ,  3-O ) :   0.1874
B(  0-C ,  4-C ) :   0.8211 B(  0-C ,  8-C ) :   0.7784 B(  0-C ,  9-H ) :   0.7807
B(  1-C ,  2-S ) :   0.9495 B(  1-C ,  3-O ) :   1.2977 B(  4-C ,  5-H ) :   0.9624
B(  4-C ,  6-H ) :   0.9575 B(  4-C ,  7-H ) :   0.9544 B(  8-C , 10-H ) :   0.9839
B(  8-C , 11-H ) :   0.9687 B(  8-C , 12-H ) :   0.9650

MP2 TOTAL ENERGY:     -629.179737342 Eh
FINAL SINGLE POINT ENERGY      -629.179737341775

DIPOLE MOMENT
-------------
                                X             Y             Z
Electronic contribution:     10.61393      -2.77972      -0.25634
Nuclear contribution   :    -11.25914       3.81832      -0.03167
                        -----------------------------------------
Total Dipole Moment    :     -0.64521       1.03861      -0.28800
                        -----------------------------------------
Magnitude (a.u.)       :      1.25616
Magnitude (Debye)      :      3.19291

Rotational constants in cm-1:     0.149288     0.074194     0.052432
Rotational constants in MHz :  4475.532887  2224.286608  1571.868805

                             ****ORCA TERMINATED NORMALLY****
TOTAL RUN TIME: 0 days 2 hours 6 minutes 46 seconds 377 msec
