                         Program Version 5.0.4 -  RELEASE  -
|  1> ! ri-mp2 aug-cc-pvdz aug-cc-pvdz/c tightscf
|  2> %pal nprocs 16 end
|  3> %maxcore 3800
|  4> %base "DZ_Si-Cl_52_A"
|  5> %scf
|  6> STABPerform true
|  7> STABRestartUHFifUnstable true
|  8> end
|  9>
| 10> *xyz 0 2
| 11> Si         0.408812   -0.005107    0.423317
| 12> Cl        -1.590422   -0.020786   -0.105650
| 13> O         1.126402   -1.336648   -0.178851
| 14> H         1.963827   -1.226708   -0.638586
| 15> O         1.185342    1.272964   -0.246453
| 16> H         0.856033    2.161044   -0.089360
| 17> *
| 18>
| 19> $new_job
| 20> ! ri-mp2 aug-cc-pvtz aug-cc-pvtz/c tightscf
| 21> %pal nprocs 16 end
| 22> %maxcore 3800
| 23> %base "TZ_Si-Cl_52_A"
| 24>
| 25> *xyz 0 2
| 26> Si         0.408812   -0.005107    0.423317
| 27> Cl        -1.590422   -0.020786   -0.105650
| 28> O         1.126402   -1.336648   -0.178851
| 29> H         1.963827   -1.226708   -0.638586
| 30> O         1.185342    1.272964   -0.246453
| 31> H         0.856033    2.161044   -0.089360
| 32> *
| 33>
| 34> $new_job
| 35> ! ri-mp2 aug-cc-pvqz aug-cc-pvqz/c tightscf
| 36> %pal nprocs 16 end
| 37> %maxcore 3800
| 38> %base "QZ_Si-Cl_52_A"
| 39>
| 40> *xyz 0 2
| 41> Si         0.408812   -0.005107    0.423317
| 42> Cl        -1.590422   -0.020786   -0.105650
| 43> O         1.126402   -1.336648   -0.178851
| 44> H         1.963827   -1.226708   -0.638586
| 45> O         1.185342    1.272964   -0.246453
| 46> H         0.856033    2.161044   -0.089360
| 47> *
| 48>
| 49>
| 50>
| 51>
| 52>                          ****END OF INPUT****
 Total Charge           Charge          ....    0
 Multiplicity           Mult            ....    2
 Number of Electrons    NEL             ....   49
MP2 TOTAL ENERGY:     -900.087503119 Eh
FINAL SINGLE POINT ENERGY      -900.087503119128
MP2 TOTAL ENERGY:     -900.324801483 Eh
FINAL SINGLE POINT ENERGY      -900.324801483238

CARTESIAN COORDINATES (ANGSTROEM)
---------------------------------
  Si     0.408812   -0.005107    0.423317
  Cl    -1.590422   -0.020786   -0.105650
  O      1.126402   -1.336648   -0.178851
  H      1.963827   -1.226708   -0.638586
  O      1.185342    1.272964   -0.246453
  H      0.856033    2.161044   -0.089360

 Multiplicity           Mult            ....    2
 Number of Electrons    NEL             ....   49
 Basis Dimension        Dim             ....  420

ORBITAL ENERGIES
----------------
                 SPIN UP ORBITALS
  NO   OCC          E(Eh)            E(eV)
   0   1.0000    -104.829850     -2852.5652
   1   1.0000     -68.861474     -1873.8160
   2   1.0000     -20.585425      -560.1579
   3   1.0000     -20.577479      -559.9417
   4   1.0000     -10.557220      -287.2765
   5   1.0000      -8.025915      -218.3963
   6   1.0000      -8.022534      -218.3042
   7   1.0000      -8.022374      -218.2999
   8   1.0000      -6.200140      -168.7144
   9   1.0000      -4.310336      -117.2902
  10   1.0000      -4.303848      -117.1137
  11   1.0000      -4.303544      -117.1054
  12   1.0000      -1.385766       -37.7086
  13   1.0000      -1.358366       -36.9630
  14   1.0000      -1.101343       -29.9691
  15   1.0000      -0.787304       -21.4236
  16   1.0000      -0.735429       -20.0120
  17   1.0000      -0.629686       -17.1346
  18   1.0000      -0.595245       -16.1975
  19   1.0000      -0.579416       -15.7667
  20   1.0000      -0.552609       -15.0372
  21   1.0000      -0.545474       -14.8431
  22   1.0000      -0.476888       -12.9768
  23   1.0000      -0.471429       -12.8282
  24   1.0000      -0.354675        -9.6512
  25   0.0000       0.024185         0.6581
  26   0.0000       0.035461         0.9649
  27   0.0000       0.043198         1.1755
  28   0.0000       0.044026         1.1980
  29   0.0000       0.057933         1.5764

                 SPIN DOWN ORBITALS
  NO   OCC          E(Eh)            E(eV)
   0   1.0000    -104.828253     -2852.5218
   1   1.0000     -68.855413     -1873.6510
   2   1.0000     -20.581305      -560.0458
   3   1.0000     -20.573879      -559.8437
   4   1.0000     -10.555422      -287.2276
   5   1.0000      -8.021729      -218.2823
   6   1.0000      -8.021484      -218.2757
   7   1.0000      -8.019703      -218.2272
   8   1.0000      -6.189569      -168.4267
   9   1.0000      -4.300209      -117.0146
  10   1.0000      -4.299658      -116.9996
  11   1.0000      -4.291800      -116.7858
  12   1.0000      -1.374322       -37.3972
  13   1.0000      -1.347407       -36.6648
  14   1.0000      -1.088585       -29.6219
  15   1.0000      -0.772048       -21.0085
  16   1.0000      -0.727844       -19.8056
  17   1.0000      -0.610926       -16.6241
  18   1.0000      -0.571771       -15.5587
  19   1.0000      -0.570470       -15.5233
  20   1.0000      -0.533194       -14.5089
  21   1.0000      -0.526468       -14.3259
  22   1.0000      -0.468757       -12.7555
  23   1.0000      -0.468657       -12.7528
  24   0.0000       0.015028         0.4089
  25   0.0000       0.036086         0.9819
  26   0.0000       0.039562         1.0765
  27   0.0000       0.044676         1.2157
  28   0.0000       0.057118         1.5543

MULLIKEN ATOMIC CHARGES AND SPIN POPULATIONS
--------------------------------------------
   0 Si:    1.691193    0.887583
   1 Cl:   -0.542508    0.063123
   2 O :   -0.945882    0.018863
   3 H :    0.366151   -0.000442
   4 O :   -0.918569    0.046618
   5 H :    0.349614   -0.015745
Sum of atomic charges         :    0.0000000

LOEWDIN ATOMIC CHARGES AND SPIN POPULATIONS
-------------------------------------------
   0 Si:   -0.884807    0.561600
   1 Cl:    0.776347    0.153075
   2 O :    0.972862    0.117338
   3 H :   -0.922674    0.018645
   4 O :    0.993136    0.122235
   5 H :   -0.934864    0.027107

  Mayer bond orders larger than 0.100000
B(  0-Si,  1-Cl) :   0.6562 B(  0-Si,  2-O ) :   0.5995 B(  0-Si,  4-O ) :   0.6667
B(  2-O ,  3-H ) :   0.8789 B(  4-O ,  5-H ) :   0.9011

MP2 TOTAL ENERGY:     -900.403109845 Eh
FINAL SINGLE POINT ENERGY      -900.403109844501

DIPOLE MOMENT
-------------
                                X             Y             Z
Electronic contribution:     -4.18474      -0.25666       0.68460
Nuclear contribution   :      4.81747       0.90879      -0.57468
                        -----------------------------------------
Total Dipole Moment    :      0.63274       0.65213       0.10991
                        -----------------------------------------
Magnitude (a.u.)       :      0.91527
Magnitude (Debye)      :      2.32642

Rotational constants in cm-1:     0.247742     0.113264     0.083339
Rotational constants in MHz :  7427.122062  3395.555437  2498.452082

                             ****ORCA TERMINATED NORMALLY****
TOTAL RUN TIME: 0 days 0 hours 19 minutes 39 seconds 871 msec
