                         Program Version 5.0.4 -  RELEASE  -
|  1> ! ri-mp2 aug-cc-pvdz aug-cc-pvdz/c tightscf
|  2> %pal nprocs 16 end
|  3> %maxcore 3800
|  4> %base "DZ_Si-Cl_30_A"
|  5> %scf
|  6> STABPerform true
|  7> STABRestartUHFifUnstable true
|  8> end
|  9>
| 10> *xyz 0 2
| 11> Si        -1.563193   -0.124013   -0.000001
| 12> C         0.041443    0.858570   -0.000002
| 13> H         0.133839    1.486372    0.882365
| 14> H         0.133840    1.486368   -0.882371
| 15> Cl         1.451658   -0.263140    0.000001
| 16> H        -1.654906   -0.957296    1.219594
| 17> H        -1.654904   -0.957302   -1.219591
| 18> *
| 19>
| 20> $new_job
| 21> ! ri-mp2 aug-cc-pvtz aug-cc-pvtz/c tightscf
| 22> %pal nprocs 16 end
| 23> %maxcore 3800
| 24> %base "TZ_Si-Cl_30_A"
| 25>
| 26> *xyz 0 2
| 27> Si        -1.563193   -0.124013   -0.000001
| 28> C         0.041443    0.858570   -0.000002
| 29> H         0.133839    1.486372    0.882365
| 30> H         0.133840    1.486368   -0.882371
| 31> Cl         1.451658   -0.263140    0.000001
| 32> H        -1.654906   -0.957296    1.219594
| 33> H        -1.654904   -0.957302   -1.219591
| 34> *
| 35>
| 36> $new_job
| 37> ! ri-mp2 aug-cc-pvqz aug-cc-pvqz/c tightscf
| 38> %pal nprocs 16 end
| 39> %maxcore 3800
| 40> %base "QZ_Si-Cl_30_A"
| 41>
| 42> *xyz 0 2
| 43> Si        -1.563193   -0.124013   -0.000001
| 44> C         0.041443    0.858570   -0.000002
| 45> H         0.133839    1.486372    0.882365
| 46> H         0.133840    1.486368   -0.882371
| 47> Cl         1.451658   -0.263140    0.000001
| 48> H        -1.654906   -0.957296    1.219594
| 49> H        -1.654904   -0.957302   -1.219591
| 50> *
| 51>
| 52>
| 53>
| 54>
| 55>                          ****END OF INPUT****
 Total Charge           Charge          ....    0
 Multiplicity           Mult            ....    2
 Number of Electrons    NEL             ....   41
MP2 TOTAL ENERGY:     -788.979274680 Eh
FINAL SINGLE POINT ENERGY      -788.979274680421
MP2 TOTAL ENERGY:     -789.112555353 Eh
FINAL SINGLE POINT ENERGY      -789.112555352906

CARTESIAN COORDINATES (ANGSTROEM)
---------------------------------
  Si    -1.563193   -0.124013   -0.000001
  C      0.041443    0.858570   -0.000002
  H      0.133839    1.486372    0.882365
  H      0.133840    1.486368   -0.882371
  Cl     1.451658   -0.263140    0.000001
  H     -1.654906   -0.957296    1.219594
  H     -1.654904   -0.957302   -1.219591

 Multiplicity           Mult            ....    2
 Number of Electrons    NEL             ....   41
 Basis Dimension        Dim             ....  432

ORBITAL ENERGIES
----------------
                 SPIN UP ORBITALS
  NO   OCC          E(Eh)            E(eV)
   0   1.0000    -104.829939     -2852.5677
   1   1.0000     -68.791195     -1871.9036
   2   1.0000     -11.286115      -307.1108
   3   1.0000     -10.555216      -287.2220
   4   1.0000      -8.023156      -218.3212
   5   1.0000      -8.020517      -218.2494
   6   1.0000      -8.020355      -218.2450
   7   1.0000      -6.141617      -167.1219
   8   1.0000      -4.254510      -115.7711
   9   1.0000      -4.244360      -115.4949
  10   1.0000      -4.244321      -115.4939
  11   1.0000      -1.129969       -30.7480
  12   1.0000      -0.917240       -24.9594
  13   1.0000      -0.717106       -19.5134
  14   1.0000      -0.627437       -17.0734
  15   1.0000      -0.566499       -15.4152
  16   1.0000      -0.519817       -14.1450
  17   1.0000      -0.494495       -13.4559
  18   1.0000      -0.441545       -12.0150
  19   1.0000      -0.432150       -11.7594
  20   1.0000      -0.336238        -9.1495
  21   0.0000       0.023444         0.6380
  22   0.0000       0.034533         0.9397
  23   0.0000       0.034857         0.9485
  24   0.0000       0.045176         1.2293
  25   0.0000       0.056682         1.5424

                 SPIN DOWN ORBITALS
  NO   OCC          E(Eh)            E(eV)
   0   1.0000    -104.829182     -2852.5471
   1   1.0000     -68.785563     -1871.7503
   2   1.0000     -11.285576      -307.0961
   3   1.0000     -10.554381      -287.1993
   4   1.0000      -8.020956      -218.2613
   5   1.0000      -8.019904      -218.2327
   6   1.0000      -8.019339      -218.2173
   7   1.0000      -6.132999      -166.8874
   8   1.0000      -4.240629      -115.3934
   9   1.0000      -4.240625      -115.3933
  10   1.0000      -4.232074      -115.1606
  11   1.0000      -1.124905       -30.6102
  12   1.0000      -0.911414       -24.8008
  13   1.0000      -0.680911       -18.5285
  14   1.0000      -0.626068       -17.0362
  15   1.0000      -0.553425       -15.0595
  16   1.0000      -0.515375       -14.0241
  17   1.0000      -0.485740       -13.2177
  18   1.0000      -0.440395       -11.9837
  19   1.0000      -0.420777       -11.4499
  20   0.0000       0.016624         0.4524
  21   0.0000       0.031539         0.8582
  22   0.0000       0.035179         0.9573
  23   0.0000       0.035331         0.9614
  24   0.0000       0.057247         1.5578

MULLIKEN ATOMIC CHARGES AND SPIN POPULATIONS
--------------------------------------------
   0 Si:    0.658677    0.959146
   1 C :   -0.578615   -0.019670
   2 H :    0.293030    0.000051
   3 H :    0.293030    0.000051
   4 Cl:   -0.254614    0.042982
   5 H :   -0.205754    0.008721
   6 H :   -0.205754    0.008721
Sum of atomic charges         :    0.0000000

LOEWDIN ATOMIC CHARGES AND SPIN POPULATIONS
-------------------------------------------
   0 Si:    0.934255    0.542597
   1 C :   -0.277479    0.136058
   2 H :   -0.498569    0.012074
   3 H :   -0.498570    0.012074
   4 Cl:    1.042068    0.048389
   5 H :   -0.350852    0.124404
   6 H :   -0.350853    0.124404

  Mayer bond orders larger than 0.100000
B(  0-Si,  1-C ) :   0.8112 B(  0-Si,  5-H ) :   0.8851 B(  0-Si,  6-H ) :   0.8851
B(  1-C ,  2-H ) :   0.8924 B(  1-C ,  3-H ) :   0.8924 B(  1-C ,  4-Cl) :   0.9082

MP2 TOTAL ENERGY:     -789.155412427 Eh
FINAL SINGLE POINT ENERGY      -789.155412426858

DIPOLE MOMENT
-------------
                                X             Y             Z
Electronic contribution:      4.36412      -0.86630       0.00000
Nuclear contribution   :     -4.86112       1.39536      -0.00000
                        -----------------------------------------
Total Dipole Moment    :     -0.49699       0.52906      -0.00000
                        -----------------------------------------
Magnitude (a.u.)       :      0.72588
Magnitude (Debye)      :      1.84504

Rotational constants in cm-1:     0.750465     0.109969     0.101173
Rotational constants in MHz : 22498.384031  3296.774463  3033.096508

                             ****ORCA TERMINATED NORMALLY****
TOTAL RUN TIME: 0 days 0 hours 20 minutes 28 seconds 817 msec
