                         Program Version 5.0.4 -  RELEASE  -
|  1> ! ri-mp2 aug-cc-pvdz aug-cc-pvdz/c tightscf
|  2> %pal nprocs 16 end
|  3> %maxcore 3800
|  4> %base "DZ_Si-Si_125_AB"
|  5> %scf
|  6> STABPerform true
|  7> STABRestartUHFifUnstable true
|  8> end
|  9>
| 10> *xyz 0 1
| 11> Si        -0.487428   -1.066858    0.039388
| 12> Si         0.487419    1.066840    0.039399
| 13> S         2.566067    0.817799   -0.597625
| 14> H         0.469489    1.689881    1.372707
| 15> H        -0.078286    1.958023   -0.987404
| 16> C         2.839230   -0.566703    0.328405
| 17> N         2.989199   -1.521792    0.950683
| 18> S        -2.566084   -0.817804   -0.597607
| 19> H        -0.469482   -1.689920    1.372685
| 20> H         0.078262   -1.958024   -0.987438
| 21> C        -2.839212    0.566723    0.328395
| 22> N        -2.989156    1.521829    0.950652
| 23> *
| 24>
| 25> $new_job
| 26> ! ri-mp2 aug-cc-pvtz aug-cc-pvtz/c tightscf
| 27> %pal nprocs 16 end
| 28> %maxcore 3800
| 29> %base "TZ_Si-Si_125_AB"
| 30>
| 31> *xyz 0 1
| 32> Si        -0.487428   -1.066858    0.039388
| 33> Si         0.487419    1.066840    0.039399
| 34> S         2.566067    0.817799   -0.597625
| 35> H         0.469489    1.689881    1.372707
| 36> H        -0.078286    1.958023   -0.987404
| 37> C         2.839230   -0.566703    0.328405
| 38> N         2.989199   -1.521792    0.950683
| 39> S        -2.566084   -0.817804   -0.597607
| 40> H        -0.469482   -1.689920    1.372685
| 41> H         0.078262   -1.958024   -0.987438
| 42> C        -2.839212    0.566723    0.328395
| 43> N        -2.989156    1.521829    0.950652
| 44> *
| 45>
| 46> $new_job
| 47> ! ri-mp2 aug-cc-pvqz aug-cc-pvqz/c tightscf
| 48> %pal nprocs 16 end
| 49> %maxcore 3800
| 50> %base "QZ_Si-Si_125_AB"
| 51>
| 52> *xyz 0 1
| 53> Si        -0.487428   -1.066858    0.039388
| 54> Si         0.487419    1.066840    0.039399
| 55> S         2.566067    0.817799   -0.597625
| 56> H         0.469489    1.689881    1.372707
| 57> H        -0.078286    1.958023   -0.987404
| 58> C         2.839230   -0.566703    0.328405
| 59> N         2.989199   -1.521792    0.950683
| 60> S        -2.566084   -0.817804   -0.597607
| 61> H        -0.469482   -1.689920    1.372685
| 62> H         0.078262   -1.958024   -0.987438
| 63> C        -2.839212    0.566723    0.328395
| 64> N        -2.989156    1.521829    0.950652
| 65> *
| 66>
| 67>
| 68>
| 69>
| 70>                          ****END OF INPUT****
 Total Charge           Charge          ....    0
 Multiplicity           Mult            ....    1
 Number of Electrons    NEL             ....   90
MP2 TOTAL ENERGY:    -1560.989114884 Eh
FINAL SINGLE POINT ENERGY     -1560.989114883526
MP2 TOTAL ENERGY:    -1561.311766032 Eh
FINAL SINGLE POINT ENERGY     -1561.311766031992

CARTESIAN COORDINATES (ANGSTROEM)
---------------------------------
  Si    -0.487428   -1.066858    0.039388
  Si     0.487419    1.066840    0.039399
  S      2.566067    0.817799   -0.597625
  H      0.469489    1.689881    1.372707
  H     -0.078286    1.958023   -0.987404
  C      2.839230   -0.566703    0.328405
  N      2.989199   -1.521792    0.950683
  S     -2.566084   -0.817804   -0.597607
  H     -0.469482   -1.689920    1.372685
  H      0.078262   -1.958024   -0.987438
  C     -2.839212    0.566723    0.328395
  N     -2.989156    1.521829    0.950652

 Multiplicity           Mult            ....    1
 Number of Electrons    NEL             ....   90
 Basis Dimension        Dim             ....  840

ORBITAL ENERGIES
----------------

  NO   OCC          E(Eh)            E(eV)
   0   2.0000     -92.017358     -2503.9196
   1   2.0000     -92.017357     -2503.9196
   2   2.0000     -68.836440     -1873.1348
   3   2.0000     -68.836438     -1873.1347
   4   2.0000     -15.592919      -424.3049
   5   2.0000     -15.592919      -424.3049
   6   2.0000     -11.312719      -307.8347
   7   2.0000     -11.312719      -307.8347
   8   2.0000      -9.020480      -245.4597
   9   2.0000      -9.020480      -245.4597
  10   2.0000      -6.702211      -182.3764
  11   2.0000      -6.702211      -182.3764
  12   2.0000      -6.700696      -182.3352
  13   2.0000      -6.700696      -182.3352
  14   2.0000      -6.700001      -182.3163
  15   2.0000      -6.700000      -182.3163
  16   2.0000      -6.184242      -168.2818
  17   2.0000      -6.184098      -168.2778
  18   2.0000      -4.290785      -116.7582
  19   2.0000      -4.290782      -116.7581
  20   2.0000      -4.290057      -116.7384
  21   2.0000      -4.289601      -116.7260
  22   2.0000      -4.289520      -116.7238
  23   2.0000      -4.289269      -116.7169
  24   2.0000      -1.250360       -34.0240
  25   2.0000      -1.250251       -34.0211
  26   2.0000      -1.062311       -28.9070
  27   2.0000      -1.059762       -28.8376
  28   2.0000      -0.792701       -21.5705
  29   2.0000      -0.736808       -20.0496
  30   2.0000      -0.673802       -18.3351
  31   2.0000      -0.649056       -17.6617
  32   2.0000      -0.577821       -15.7233
  33   2.0000      -0.576832       -15.6964
  34   2.0000      -0.572927       -15.5901
  35   2.0000      -0.567260       -15.4359
  36   2.0000      -0.550701       -14.9853
  37   2.0000      -0.547969       -14.9110
  38   2.0000      -0.526344       -14.3226
  39   2.0000      -0.518955       -14.1215
  40   2.0000      -0.471178       -12.8214
  41   2.0000      -0.450972       -12.2716
  42   2.0000      -0.447187       -12.1686
  43   2.0000      -0.410186       -11.1617
  44   2.0000      -0.394259       -10.7283
  45   0.0000       0.022946         0.6244
  46   0.0000       0.023475         0.6388
  47   0.0000       0.033941         0.9236
  48   0.0000       0.036972         1.0061
  49   0.0000       0.043674         1.1884

MULLIKEN ATOMIC CHARGES
-----------------------
   0 Si:    0.899349
   1 Si:    0.899365
   2 S :    0.121795
   3 H :   -0.169753
   4 H :   -0.197345
   5 C :   -0.120941
   6 N :   -0.533118
   7 S :    0.121797
   8 H :   -0.169753
   9 H :   -0.197341
  10 C :   -0.120937
  11 N :   -0.533117
Sum of atomic charges:    0.0000000

LOEWDIN ATOMIC CHARGES
----------------------
   0 Si:    0.243910
   1 Si:    0.243902
   2 S :    1.056484
   3 H :   -0.278659
   4 H :   -0.290954
   5 C :   -1.029216
   6 N :    0.298440
   7 S :    1.056485
   8 H :   -0.278662
   9 H :   -0.290955
  10 C :   -1.029218
  11 N :    0.298441

  Mayer bond orders larger than 0.100000
B(  0-Si,  1-Si) :   0.7770 B(  0-Si,  7-S ) :   0.5612 B(  0-Si,  8-H ) :   0.8298
B(  0-Si,  9-H ) :   0.8009 B(  1-Si,  2-S ) :   0.5612 B(  1-Si,  3-H ) :   0.8298
B(  1-Si,  4-H ) :   0.8009 B(  2-S ,  5-C ) :   0.8987 B(  5-C ,  6-N ) :   2.5655
B(  7-S , 10-C ) :   0.8987 B( 10-C , 11-N ) :   2.5655

MP2 TOTAL ENERGY:    -1561.418970684 Eh
FINAL SINGLE POINT ENERGY     -1561.418970683504

DIPOLE MOMENT
-------------
                                X             Y             Z
Electronic contribution:     -0.00002       0.00001      -1.77291
Nuclear contribution   :     -0.00001      -0.00004       0.77997
                        -----------------------------------------
Total Dipole Moment    :     -0.00003      -0.00002      -0.99294
                        -----------------------------------------
Magnitude (a.u.)       :      0.99294
Magnitude (Debye)      :      2.52385

Rotational constants in cm-1:     0.067552     0.017998     0.015713
Rotational constants in MHz :  2025.156205   539.572172   471.054991

                             ****ORCA TERMINATED NORMALLY****
TOTAL RUN TIME: 0 days 1 hours 15 minutes 19 seconds 900 msec
