                         Program Version 5.0.4 -  RELEASE  -
|  1> ! ri-mp2 aug-cc-pvdz aug-cc-pvdz/c tightscf
|  2> %pal nprocs 16 end
|  3> %maxcore 3800
|  4> %base "DZ_B-F_31_AB"
|  5> %scf
|  6> STABPerform true
|  7> STABRestartUHFifUnstable true
|  8> end
|  9>
| 10> *xyz 0 1
| 11> F        -1.105584   -1.130482   -0.000001
| 12> F        -1.105582    1.130483   -0.000001
| 13> B        -0.453028   -0.000000    0.000001
| 14> C         1.088898   -0.000001    0.000002
| 15> N         2.233177   -0.000000   -0.000000
| 16> *
| 17>
| 18> $new_job
| 19> ! ri-mp2 aug-cc-pvtz aug-cc-pvtz/c tightscf
| 20> %pal nprocs 16 end
| 21> %maxcore 3800
| 22> %base "TZ_B-F_31_AB"
| 23>
| 24> *xyz 0 1
| 25> F        -1.105584   -1.130482   -0.000001
| 26> F        -1.105582    1.130483   -0.000001
| 27> B        -0.453028   -0.000000    0.000001
| 28> C         1.088898   -0.000001    0.000002
| 29> N         2.233177   -0.000000   -0.000000
| 30> *
| 31>
| 32> $new_job
| 33> ! ri-mp2 aug-cc-pvqz aug-cc-pvqz/c tightscf
| 34> %pal nprocs 16 end
| 35> %maxcore 3800
| 36> %base "QZ_B-F_31_AB"
| 37>
| 38> *xyz 0 1
| 39> F        -1.105584   -1.130482   -0.000001
| 40> F        -1.105582    1.130483   -0.000001
| 41> B        -0.453028   -0.000000    0.000001
| 42> C         1.088898   -0.000001    0.000002
| 43> N         2.233177   -0.000000   -0.000000
| 44> *
| 45>
| 46>
| 47>
| 48>
| 49>                          ****END OF INPUT****
 Total Charge           Charge          ....    0
 Multiplicity           Mult            ....    1
 Number of Electrons    NEL             ....   36
MP2 TOTAL ENERGY:     -316.796179727 Eh
FINAL SINGLE POINT ENERGY      -316.796179727285
MP2 TOTAL ENERGY:     -317.066008115 Eh
FINAL SINGLE POINT ENERGY      -317.066008114737

CARTESIAN COORDINATES (ANGSTROEM)
---------------------------------
  F     -1.105584   -1.130482   -0.000001
  F     -1.105582    1.130483   -0.000001
  B     -0.453028   -0.000000    0.000001
  C      1.088898   -0.000001    0.000002
  N      2.233177   -0.000000   -0.000000

 Multiplicity           Mult            ....    1
 Number of Electrons    NEL             ....   36
 Basis Dimension        Dim             ....  400

ORBITAL ENERGIES
----------------

  NO   OCC          E(Eh)            E(eV)
   0   2.0000     -26.358113      -717.2407
   1   2.0000     -26.358096      -717.2403
   2   2.0000     -15.617132      -424.9638
   3   2.0000     -11.284059      -307.0549
   4   2.0000      -7.782365      -211.7689
   5   2.0000      -1.693471       -46.0817
   6   2.0000      -1.663348       -45.2620
   7   2.0000      -1.257810       -34.2268
   8   2.0000      -0.889797       -24.2126
   9   2.0000      -0.830276       -22.5930
  10   2.0000      -0.812545       -22.1105
  11   2.0000      -0.760475       -20.6936
  12   2.0000      -0.703555       -19.1447
  13   2.0000      -0.699409       -19.0319
  14   2.0000      -0.692469       -18.8430
  15   2.0000      -0.593073       -16.1383
  16   2.0000      -0.515660       -14.0318
  17   2.0000      -0.515157       -14.0181
  18   0.0000       0.028437         0.7738
  19   0.0000       0.030850         0.8395
  20   0.0000       0.035949         0.9782
  21   0.0000       0.038610         1.0506
  22   0.0000       0.056566         1.5392

MULLIKEN ATOMIC CHARGES
-----------------------
   0 F :   -0.697873
   1 F :   -0.697873
   2 B :    1.691899
   3 C :    0.149210
   4 N :   -0.445362
Sum of atomic charges:    0.0000000

LOEWDIN ATOMIC CHARGES
----------------------
   0 F :    0.813588
   1 F :    0.813589
   2 B :   -1.815944
   3 C :   -0.194596
   4 N :    0.383363

  Mayer bond orders larger than 0.100000
B(  0-F ,  2-B ) :   0.5013 B(  1-F ,  2-B ) :   0.5013 B(  2-B ,  3-C ) :   0.8976
B(  3-C ,  4-N ) :   2.6379

MP2 TOTAL ENERGY:     -317.152895298 Eh
FINAL SINGLE POINT ENERGY      -317.152895298470

DIPOLE MOMENT
-------------
                                X             Y             Z
Electronic contribution:     -3.02919       0.00000       0.00000
Nuclear contribution   :      2.31491      -0.00000       0.00000
                        -----------------------------------------
Total Dipole Moment    :     -0.71429      -0.00000       0.00000
                        -----------------------------------------
Magnitude (a.u.)       :      0.71429
Magnitude (Debye)      :      1.81558

Rotational constants in cm-1:     0.347161     0.127064     0.093018
Rotational constants in MHz : 10407.634626  3809.284980  2788.624214

                             ****ORCA TERMINATED NORMALLY****
TOTAL RUN TIME: 0 days 0 hours 5 minutes 15 seconds 162 msec
