                         Program Version 5.0.4 -  RELEASE  -
|  1> ! ri-mp2 aug-cc-pvdz aug-cc-pvdz/c tightscf
|  2> %pal nprocs 16 end
|  3> %maxcore 3800
|  4> %base "DZ_Si-S_16_AB"
|  5> %scf
|  6> STABPerform true
|  7> STABRestartUHFifUnstable true
|  8> end
|  9>
| 10> *xyz 0 1
| 11> C         0.022426   -1.122581    0.727120
| 12> C         1.182464   -0.144639    0.815688
| 13> C         2.095425   -0.142914   -0.399906
| 14> H         1.766029   -0.403763    1.705231
| 15> H         0.802427    0.866092    0.988014
| 16> C         3.246998    0.839941   -0.262692
| 17> H         1.509544    0.095282   -1.289284
| 18> H         2.487894   -1.152841   -0.552739
| 19> H         2.878147    1.860244   -0.141528
| 20> H         3.890984    0.823228   -1.142119
| 21> H         3.865381    0.607644    0.606632
| 22> S        -1.171724   -0.805003   -0.623952
| 23> H        -0.528076   -1.158775    1.666333
| 24> H         0.391268   -2.129707    0.531385
| 25> Si        -2.167351    0.923356    0.108619
| 26> H        -3.315574    1.140718   -0.792332
| 27> H        -1.312066    2.130476    0.105411
| 28> H        -2.629338    0.695617    1.496307
| 29> *
| 30>
| 31> $new_job
| 32> ! ri-mp2 aug-cc-pvtz aug-cc-pvtz/c tightscf
| 33> %pal nprocs 16 end
| 34> %maxcore 3800
| 35> %base "TZ_Si-S_16_AB"
| 36>
| 37> *xyz 0 1
| 38> C         0.022426   -1.122581    0.727120
| 39> C         1.182464   -0.144639    0.815688
| 40> C         2.095425   -0.142914   -0.399906
| 41> H         1.766029   -0.403763    1.705231
| 42> H         0.802427    0.866092    0.988014
| 43> C         3.246998    0.839941   -0.262692
| 44> H         1.509544    0.095282   -1.289284
| 45> H         2.487894   -1.152841   -0.552739
| 46> H         2.878147    1.860244   -0.141528
| 47> H         3.890984    0.823228   -1.142119
| 48> H         3.865381    0.607644    0.606632
| 49> S        -1.171724   -0.805003   -0.623952
| 50> H        -0.528076   -1.158775    1.666333
| 51> H         0.391268   -2.129707    0.531385
| 52> Si        -2.167351    0.923356    0.108619
| 53> H        -3.315574    1.140718   -0.792332
| 54> H        -1.312066    2.130476    0.105411
| 55> H        -2.629338    0.695617    1.496307
| 56> *
| 57>
| 58> $new_job
| 59> ! ri-mp2 aug-cc-pvqz aug-cc-pvqz/c tightscf
| 60> %pal nprocs 16 end
| 61> %maxcore 3800
| 62> %base "QZ_Si-S_16_AB"
| 63>
| 64> *xyz 0 1
| 65> C         0.022426   -1.122581    0.727120
| 66> C         1.182464   -0.144639    0.815688
| 67> C         2.095425   -0.142914   -0.399906
| 68> H         1.766029   -0.403763    1.705231
| 69> H         0.802427    0.866092    0.988014
| 70> C         3.246998    0.839941   -0.262692
| 71> H         1.509544    0.095282   -1.289284
| 72> H         2.487894   -1.152841   -0.552739
| 73> H         2.878147    1.860244   -0.141528
| 74> H         3.890984    0.823228   -1.142119
| 75> H         3.865381    0.607644    0.606632
| 76> S        -1.171724   -0.805003   -0.623952
| 77> H        -0.528076   -1.158775    1.666333
| 78> H         0.391268   -2.129707    0.531385
| 79> Si        -2.167351    0.923356    0.108619
| 80> H        -3.315574    1.140718   -0.792332
| 81> H        -1.312066    2.130476    0.105411
| 82> H        -2.629338    0.695617    1.496307
| 83> *
| 84>
| 85>
| 86>
| 87>
| 88>                          ****END OF INPUT****
 Total Charge           Charge          ....    0
 Multiplicity           Mult            ....    1
 Number of Electrons    NEL             ....   66
MP2 TOTAL ENERGY:     -845.817213372 Eh
FINAL SINGLE POINT ENERGY      -845.817213372363
MP2 TOTAL ENERGY:     -846.062867836 Eh
FINAL SINGLE POINT ENERGY      -846.062867835722

CARTESIAN COORDINATES (ANGSTROEM)
---------------------------------
  C      0.022426   -1.122581    0.727120
  C      1.182464   -0.144639    0.815688
  C      2.095425   -0.142914   -0.399906
  H      1.766029   -0.403763    1.705231
  H      0.802427    0.866092    0.988014
  C      3.246998    0.839941   -0.262692
  H      1.509544    0.095282   -1.289284
  H      2.487894   -1.152841   -0.552739
  H      2.878147    1.860244   -0.141528
  H      3.890984    0.823228   -1.142119
  H      3.865381    0.607644    0.606632
  S     -1.171724   -0.805003   -0.623952
  H     -0.528076   -1.158775    1.666333
  H      0.391268   -2.129707    0.531385
  Si    -2.167351    0.923356    0.108619
  H     -3.315574    1.140718   -0.792332
  H     -1.312066    2.130476    0.105411
  H     -2.629338    0.695617    1.496307

 Multiplicity           Mult            ....    1
 Number of Electrons    NEL             ....   66
 Basis Dimension        Dim             .... 1040

ORBITAL ENERGIES
----------------

  NO   OCC          E(Eh)            E(eV)
   0   2.0000     -91.934575     -2501.6670
   1   2.0000     -68.788553     -1871.8317
   2   2.0000     -11.262411      -306.4658
   3   2.0000     -11.227902      -305.5268
   4   2.0000     -11.217561      -305.2453
   5   2.0000     -11.212062      -305.0957
   6   2.0000      -8.938969      -243.2417
   7   2.0000      -6.620429      -180.1510
   8   2.0000      -6.619701      -180.1312
   9   2.0000      -6.619008      -180.1124
  10   2.0000      -6.136159      -166.9734
  11   2.0000      -4.242747      -115.4510
  12   2.0000      -4.242357      -115.4404
  13   2.0000      -4.242097      -115.4333
  14   2.0000      -1.096613       -29.8403
  15   2.0000      -1.022523       -27.8243
  16   2.0000      -0.932620       -25.3779
  17   2.0000      -0.847241       -23.0546
  18   2.0000      -0.792874       -21.5752
  19   2.0000      -0.700650       -19.0657
  20   2.0000      -0.645493       -17.5648
  21   2.0000      -0.613216       -16.6865
  22   2.0000      -0.595876       -16.2146
  23   2.0000      -0.565210       -15.3801
  24   2.0000      -0.535807       -14.5800
  25   2.0000      -0.504751       -13.7350
  26   2.0000      -0.496664       -13.5149
  27   2.0000      -0.490183       -13.3386
  28   2.0000      -0.477925       -13.0050
  29   2.0000      -0.472223       -12.8498
  30   2.0000      -0.457352       -12.4452
  31   2.0000      -0.415566       -11.3081
  32   2.0000      -0.354395        -9.6436
  33   0.0000       0.023958         0.6519
  34   0.0000       0.030282         0.8240
  35   0.0000       0.030840         0.8392
  36   0.0000       0.033143         0.9019
  37   0.0000       0.044636         1.2146

MULLIKEN ATOMIC CHARGES
-----------------------
   0 C :   -0.539239
   1 C :   -0.350151
   2 C :   -0.362075
   3 H :    0.292226
   4 H :    0.315801
   5 C :   -0.848278
   6 H :    0.261754
   7 H :    0.223000
   8 H :    0.230960
   9 H :    0.253365
  10 H :    0.221423
  11 S :   -0.443368
  12 H :    0.252675
  13 H :    0.315213
  14 Si:    0.786938
  15 H :   -0.275009
  16 H :   -0.152134
  17 H :   -0.183101
Sum of atomic charges:   -0.0000000

LOEWDIN ATOMIC CHARGES
----------------------
   0 C :    0.087615
   1 C :    0.405174
   2 C :    0.470934
   3 H :   -0.269678
   4 H :   -0.317928
   5 C :    0.927000
   6 H :   -0.306708
   7 H :   -0.270288
   8 H :   -0.282744
   9 H :   -0.281367
  10 H :   -0.283129
  11 S :    1.151273
  12 H :   -0.369644
  13 H :   -0.371450
  14 Si:    0.613077
  15 H :   -0.321115
  16 H :   -0.291700
  17 H :   -0.289322

  Mayer bond orders larger than 0.100000
B(  0-C ,  1-C ) :   0.9172 B(  0-C , 11-S ) :   0.8683 B(  0-C , 12-H ) :   0.9964
B(  0-C , 13-H ) :   0.8494 B(  1-C ,  2-C ) :   0.8571 B(  1-C ,  3-H ) :   0.8389
B(  1-C ,  4-H ) :   0.8533 B(  1-C , 11-S ) :  -0.1321 B(  2-C ,  5-C ) :   0.9365
B(  2-C ,  6-H ) :   0.8870 B(  2-C ,  7-H ) :   0.9102 B(  5-C ,  8-H ) :   0.9525
B(  5-C ,  9-H ) :   1.0190 B(  5-C , 10-H ) :   0.9626 B( 11-S , 14-Si) :   0.8484
B( 14-Si, 15-H ) :   0.7609 B( 14-Si, 16-H ) :   0.7654 B( 14-Si, 17-H ) :   0.7788

MP2 TOTAL ENERGY:     -846.138731621 Eh
FINAL SINGLE POINT ENERGY      -846.138731620961

DIPOLE MOMENT
-------------
                                X             Y             Z
Electronic contribution:     -9.87768      -3.34108      -2.78444
Nuclear contribution   :     10.27841       3.44491       3.29133
                        -----------------------------------------
Total Dipole Moment    :      0.40073       0.10383       0.50689
                        -----------------------------------------
Magnitude (a.u.)       :      0.65445
Magnitude (Debye)      :      1.66348

Rotational constants in cm-1:     0.128467     0.034704     0.031772
Rotational constants in MHz :  3851.355807  1040.390295   952.503677

                             ****ORCA TERMINATED NORMALLY****
TOTAL RUN TIME: 0 days 2 hours 21 minutes 30 seconds 668 msec
