                         Program Version 5.0.4 -  RELEASE  -
|  1> ! ri-mp2 aug-cc-pvdz aug-cc-pvdz/c tightscf
|  2> %pal nprocs 16 end
|  3> %maxcore 3800
|  4> %base "DZ_P-O_6_AB"
|  5> %scf
|  6> STABPerform true
|  7> STABRestartUHFifUnstable true
|  8> end
|  9>
| 10> *xyz 0 1
| 11> C         1.706351    0.367073    0.259660
| 12> O         0.648529   -0.365788   -0.383748
| 13> P        -0.867882   -0.100971   -0.106671
| 14> O        -1.780052   -0.954478   -0.849845
| 15> O        -1.043890   -0.200001    1.477411
| 16> C         3.016656   -0.250144   -0.148997
| 17> H         1.559324    0.315824    1.339547
| 18> H         1.640445    1.409903   -0.051824
| 19> H         3.064774   -1.293172    0.161409
| 20> H         3.840727    0.289660    0.318427
| 21> H         3.141276   -0.205074   -1.230104
| 22> O        -0.974031    1.462462   -0.355019
| 23> H        -1.881008    1.775050   -0.439769
| 24> H        -1.489793   -1.016762    1.727996
| 25> *
| 26>
| 27> $new_job
| 28> ! ri-mp2 aug-cc-pvtz aug-cc-pvtz/c tightscf
| 29> %pal nprocs 16 end
| 30> %maxcore 3800
| 31> %base "TZ_P-O_6_AB"
| 32>
| 33> *xyz 0 1
| 34> C         1.706351    0.367073    0.259660
| 35> O         0.648529   -0.365788   -0.383748
| 36> P        -0.867882   -0.100971   -0.106671
| 37> O        -1.780052   -0.954478   -0.849845
| 38> O        -1.043890   -0.200001    1.477411
| 39> C         3.016656   -0.250144   -0.148997
| 40> H         1.559324    0.315824    1.339547
| 41> H         1.640445    1.409903   -0.051824
| 42> H         3.064774   -1.293172    0.161409
| 43> H         3.840727    0.289660    0.318427
| 44> H         3.141276   -0.205074   -1.230104
| 45> O        -0.974031    1.462462   -0.355019
| 46> H        -1.881008    1.775050   -0.439769
| 47> H        -1.489793   -1.016762    1.727996
| 48> *
| 49>
| 50> $new_job
| 51> ! ri-mp2 aug-cc-pvqz aug-cc-pvqz/c tightscf
| 52> %pal nprocs 16 end
| 53> %maxcore 3800
| 54> %base "QZ_P-O_6_AB"
| 55>
| 56> *xyz 0 1
| 57> C         1.706351    0.367073    0.259660
| 58> O         0.648529   -0.365788   -0.383748
| 59> P        -0.867882   -0.100971   -0.106671
| 60> O        -1.780052   -0.954478   -0.849845
| 61> O        -1.043890   -0.200001    1.477411
| 62> C         3.016656   -0.250144   -0.148997
| 63> H         1.559324    0.315824    1.339547
| 64> H         1.640445    1.409903   -0.051824
| 65> H         3.064774   -1.293172    0.161409
| 66> H         3.840727    0.289660    0.318427
| 67> H         3.141276   -0.205074   -1.230104
| 68> O        -0.974031    1.462462   -0.355019
| 69> H        -1.881008    1.775050   -0.439769
| 70> H        -1.489793   -1.016762    1.727996
| 71> *
| 72>
| 73>
| 74>
| 75>
| 76>                          ****END OF INPUT****
 Total Charge           Charge          ....    0
 Multiplicity           Mult            ....    1
 Number of Electrons    NEL             ....   66
MP2 TOTAL ENERGY:     -721.368378176 Eh
FINAL SINGLE POINT ENERGY      -721.368378176319
MP2 TOTAL ENERGY:     -721.788198873 Eh
FINAL SINGLE POINT ENERGY      -721.788198873352

CARTESIAN COORDINATES (ANGSTROEM)
---------------------------------
  C      1.706351    0.367073    0.259660
  O      0.648529   -0.365788   -0.383748
  P     -0.867882   -0.100971   -0.106671
  O     -1.780052   -0.954478   -0.849845
  O     -1.043890   -0.200001    1.477411
  C      3.016656   -0.250144   -0.148997
  H      1.559324    0.315824    1.339547
  H      1.640445    1.409903   -0.051824
  H      3.064774   -1.293172    0.161409
  H      3.840727    0.289660    0.318427
  H      3.141276   -0.205074   -1.230104
  O     -0.974031    1.462462   -0.355019
  H     -1.881008    1.775050   -0.439769
  H     -1.489793   -1.016762    1.727996

 Multiplicity           Mult            ....    1
 Number of Electrons    NEL             ....   66
 Basis Dimension        Dim             ....  886

ORBITAL ENERGIES
----------------

  NO   OCC          E(Eh)            E(eV)
   0   2.0000     -80.090459     -2179.3722
   1   2.0000     -20.603935      -560.6616
   2   2.0000     -20.601221      -560.5877
   3   2.0000     -20.589171      -560.2598
   4   2.0000     -20.505372      -557.9795
   5   2.0000     -11.301180      -307.5207
   6   2.0000     -11.227786      -305.5236
   7   2.0000      -7.608811      -207.0463
   8   2.0000      -5.507710      -149.8724
   9   2.0000      -5.507502      -149.8667
  10   2.0000      -5.506334      -149.8350
  11   2.0000      -1.464046       -39.8387
  12   2.0000      -1.390998       -37.8510
  13   2.0000      -1.390212       -37.8296
  14   2.0000      -1.300594       -35.3910
  15   2.0000      -1.044929       -28.4340
  16   2.0000      -0.879572       -23.9344
  17   2.0000      -0.848078       -23.0774
  18   2.0000      -0.761539       -20.7225
  19   2.0000      -0.728243       -19.8165
  20   2.0000      -0.675452       -18.3800
  21   2.0000      -0.671878       -18.2827
  22   2.0000      -0.641601       -17.4589
  23   2.0000      -0.611687       -16.6449
  24   2.0000      -0.594691       -16.1824
  25   2.0000      -0.571365       -15.5476
  26   2.0000      -0.560309       -15.2468
  27   2.0000      -0.548370       -14.9219
  28   2.0000      -0.535123       -14.5614
  29   2.0000      -0.510212       -13.8836
  30   2.0000      -0.484618       -13.1871
  31   2.0000      -0.472444       -12.8559
  32   2.0000      -0.467669       -12.7259
  33   0.0000       0.022263         0.6058
  34   0.0000       0.030362         0.8262
  35   0.0000       0.032147         0.8748
  36   0.0000       0.038020         1.0346
  37   0.0000       0.047147         1.2829

MULLIKEN ATOMIC CHARGES
-----------------------
   0 C :   -0.052772
   1 O :   -0.859392
   2 P :    2.569795
   3 O :   -1.191609
   4 O :   -0.867940
   5 C :   -0.839380
   6 H :    0.296564
   7 H :    0.293352
   8 H :    0.255067
   9 H :    0.288761
  10 H :    0.253784
  11 O :   -0.879740
  12 H :    0.363716
  13 H :    0.369795
Sum of atomic charges:   -0.0000000

LOEWDIN ATOMIC CHARGES
----------------------
   0 C :    0.117518
   1 O :    0.674333
   2 P :   -0.990215
   3 O :    0.289404
   4 O :    1.101280
   5 C :    0.910470
   6 H :   -0.314798
   7 H :   -0.313104
   8 H :   -0.289439
   9 H :   -0.288102
  10 H :   -0.289289
  11 O :    1.102822
  12 H :   -0.844716
  13 H :   -0.866165

  Mayer bond orders larger than 0.100000
B(  0-C ,  1-O ) :   0.8238 B(  0-C ,  5-C ) :   0.9326 B(  0-C ,  6-H ) :   0.8452
B(  0-C ,  7-H ) :   0.8425 B(  1-O ,  2-P ) :   0.7807 B(  1-O ,  3-O ) :  -0.1708
B(  2-P ,  3-O ) :   1.3711 B(  2-P ,  4-O ) :   0.6469 B(  2-P , 11-O ) :   0.6036
B(  4-O , 13-H ) :   0.9270 B(  5-C ,  8-H ) :   0.9358 B(  5-C ,  9-H ) :   0.9586
B(  5-C , 10-H ) :   0.9321 B( 11-O , 12-H ) :   0.9251

MP2 TOTAL ENERGY:     -721.922175092 Eh
FINAL SINGLE POINT ENERGY      -721.922175092471

DIPOLE MOMENT
-------------
                                X             Y             Z
Electronic contribution:     -9.84424      -0.60466      -0.88887
Nuclear contribution   :     10.47557       1.34790       1.89351
                        -----------------------------------------
Total Dipole Moment    :      0.63134       0.74323       1.00464
                        -----------------------------------------
Magnitude (a.u.)       :      1.40010
Magnitude (Debye)      :      3.55878

Rotational constants in cm-1:     0.139020     0.046824     0.046145
Rotational constants in MHz :  4167.702950  1403.734660  1383.391906

                             ****ORCA TERMINATED NORMALLY****
TOTAL RUN TIME: 0 days 1 hours 11 minutes 8 seconds 535 msec
