                         Program Version 5.0.4 -  RELEASE  -
|  1> ! ri-mp2 aug-cc-pvdz aug-cc-pvdz/c tightscf
|  2> %pal nprocs 16 end
|  3> %maxcore 3800
|  4> %base "DZ_P-P_3_AB"
|  5>
|  6> *xyz 0 1
|  7> P         0.573926    0.660127   -0.866079
|  8> N         1.674350   -0.560858   -0.018071
|  9> C         0.867327    2.104169    0.202340
| 10> P        -1.306552   -0.080755    0.005366
| 11> H         1.835732    2.536558   -0.037535
| 12> H         0.824762    1.861050    1.260950
| 13> H         0.090505    2.831665   -0.039573
| 14> O         1.356710   -1.740390   -0.097785
| 15> O         2.686856   -0.163298    0.497640
| 16> O        -2.415321    0.793987   -0.355846
| 17> O        -1.398428   -1.563959   -0.499901
| 18> O        -1.037126   -0.188424    1.574760
| 19> H        -1.676819    0.316759    2.091948
| 20> H        -0.550735   -2.038943   -0.403592
| 21> *
| 22>
| 23> $new_job
| 24> ! ri-mp2 aug-cc-pvtz aug-cc-pvtz/c tightscf
| 25> %pal nprocs 16 end
| 26> %maxcore 3800
| 27> %base "TZ_P-P_3_AB"
| 28>
| 29> *xyz 0 1
| 30> P         0.573926    0.660127   -0.866079
| 31> N         1.674350   -0.560858   -0.018071
| 32> C         0.867327    2.104169    0.202340
| 33> P        -1.306552   -0.080755    0.005366
| 34> H         1.835732    2.536558   -0.037535
| 35> H         0.824762    1.861050    1.260950
| 36> H         0.090505    2.831665   -0.039573
| 37> O         1.356710   -1.740390   -0.097785
| 38> O         2.686856   -0.163298    0.497640
| 39> O        -2.415321    0.793987   -0.355846
| 40> O        -1.398428   -1.563959   -0.499901
| 41> O        -1.037126   -0.188424    1.574760
| 42> H        -1.676819    0.316759    2.091948
| 43> H        -0.550735   -2.038943   -0.403592
| 44> *
| 45>
| 46> $new_job
| 47> ! ri-mp2 aug-cc-pvqz aug-cc-pvqz/c tightscf
| 48> %pal nprocs 16 end
| 49> %maxcore 3800
| 50> %base "QZ_P-P_3_AB"
| 51>
| 52> *xyz 0 1
| 53> P         0.573926    0.660127   -0.866079
| 54> N         1.674350   -0.560858   -0.018071
| 55> C         0.867327    2.104169    0.202340
| 56> P        -1.306552   -0.080755    0.005366
| 57> H         1.835732    2.536558   -0.037535
| 58> H         0.824762    1.861050    1.260950
| 59> H         0.090505    2.831665   -0.039573
| 60> O         1.356710   -1.740390   -0.097785
| 61> O         2.686856   -0.163298    0.497640
| 62> O        -2.415321    0.793987   -0.355846
| 63> O        -1.398428   -1.563959   -0.499901
| 64> O        -1.037126   -0.188424    1.574760
| 65> H        -1.676819    0.316759    2.091948
| 66> H        -0.550735   -2.038943   -0.403592
| 67> *
| 68>
| 69>
| 70>
| 71>
| 72>                          ****END OF INPUT****
 Total Charge           Charge          ....    0
 Multiplicity           Mult            ....    1
 Number of Electrons    NEL             ....   88
MP2 TOTAL ENERGY:    -1152.626367700 Eh
FINAL SINGLE POINT ENERGY     -1152.626367700010
MP2 TOTAL ENERGY:    -1153.141791968 Eh
FINAL SINGLE POINT ENERGY     -1153.141791968462

CARTESIAN COORDINATES (ANGSTROEM)
---------------------------------
  P      0.573926    0.660127   -0.866079
  N      1.674350   -0.560858   -0.018071
  C      0.867327    2.104169    0.202340
  P     -1.306552   -0.080755    0.005366
  H      1.835732    2.536558   -0.037535
  H      0.824762    1.861050    1.260950
  H      0.090505    2.831665   -0.039573
  O      1.356710   -1.740390   -0.097785
  O      2.686856   -0.163298    0.497640
  O     -2.415321    0.793987   -0.355846
  O     -1.398428   -1.563959   -0.499901
  O     -1.037126   -0.188424    1.574760
  H     -1.676819    0.316759    2.091948
  H     -0.550735   -2.038943   -0.403592

 Multiplicity           Mult            ....    1
 Number of Electrons    NEL             ....   88
 Basis Dimension        Dim             ....  958

ORBITAL ENERGIES
----------------

  NO   OCC          E(Eh)            E(eV)
   0   2.0000     -80.098165     -2179.5819
   1   2.0000     -80.029276     -2177.7073
   2   2.0000     -20.633800      -561.4743
   3   2.0000     -20.624064      -561.2093
   4   2.0000     -20.622363      -561.1630
   5   2.0000     -20.612660      -560.8990
   6   2.0000     -20.532335      -558.7132
   7   2.0000     -15.858166      -431.5226
   8   2.0000     -11.272201      -306.7322
   9   2.0000      -7.620516      -207.3648
  10   2.0000      -7.569784      -205.9843
  11   2.0000      -5.518525      -150.1667
  12   2.0000      -5.518243      -150.1590
  13   2.0000      -5.517405      -150.1362
  14   2.0000      -5.463477      -148.6688
  15   2.0000      -5.462230      -148.6348
  16   2.0000      -5.461379      -148.6117
  17   2.0000      -1.633215       -44.4421
  18   2.0000      -1.460077       -39.7307
  19   2.0000      -1.429810       -38.9071
  20   2.0000      -1.406062       -38.2609
  21   2.0000      -1.325565       -36.0705
  22   2.0000      -1.065329       -28.9891
  23   2.0000      -0.978017       -26.6132
  24   2.0000      -0.877291       -23.8723
  25   2.0000      -0.840634       -22.8748
  26   2.0000      -0.780402       -21.2358
  27   2.0000      -0.753565       -20.5055
  28   2.0000      -0.747148       -20.3309
  29   2.0000      -0.738761       -20.1027
  30   2.0000      -0.678954       -18.4753
  31   2.0000      -0.660118       -17.9627
  32   2.0000      -0.645106       -17.5542
  33   2.0000      -0.613977       -16.7072
  34   2.0000      -0.610272       -16.6064
  35   2.0000      -0.591459       -16.0944
  36   2.0000      -0.563108       -15.3229
  37   2.0000      -0.532880       -14.5004
  38   2.0000      -0.531259       -14.4563
  39   2.0000      -0.502502       -13.6738
  40   2.0000      -0.495898       -13.4941
  41   2.0000      -0.484853       -13.1935
  42   2.0000      -0.463732       -12.6188
  43   2.0000      -0.417175       -11.3519
  44   0.0000       0.018953         0.5157
  45   0.0000       0.028186         0.7670
  46   0.0000       0.036652         0.9973
  47   0.0000       0.040667         1.1066
  48   0.0000       0.049280         1.3410

MULLIKEN ATOMIC CHARGES
-----------------------
   0 P :    0.707319
   1 N :    0.692768
   2 C :   -1.129053
   3 P :    2.261931
   4 H :    0.374725
   5 H :    0.307742
   6 H :    0.350111
   7 O :   -0.638602
   8 O :   -0.586501
   9 O :   -1.216111
  10 O :   -0.994031
  11 O :   -0.894647
  12 H :    0.372021
  13 H :    0.392327
Sum of atomic charges:   -0.0000000

LOEWDIN ATOMIC CHARGES
----------------------
   0 P :    0.765076
   1 N :   -1.025714
   2 C :    0.713547
   3 P :   -0.813949
   4 H :   -0.361422
   5 H :   -0.364188
   6 H :   -0.360167
   7 O :    0.507763
   8 O :    0.471677
   9 O :    0.259141
  10 O :    1.064375
  11 O :    1.079155
  12 H :   -0.859483
  13 H :   -1.075812

  Mayer bond orders larger than 0.100000
B(  0-P ,  1-N ) :   0.5909 B(  0-P ,  2-C ) :   0.9423 B(  0-P ,  3-P ) :   0.9455
B(  1-N ,  7-O ) :   1.1659 B(  1-N ,  8-O ) :   1.3114 B(  2-C ,  4-H ) :   0.8490
B(  2-C ,  5-H ) :   0.8893 B(  2-C ,  6-H ) :   0.8811 B(  3-P ,  9-O ) :   1.3121
B(  3-P , 10-O ) :   0.5592 B(  3-P , 11-O ) :   0.6402 B(  7-O ,  8-O ) :   0.1316
B( 10-O , 13-H ) :   0.8230 B( 11-O , 12-H ) :   0.9259

MP2 TOTAL ENERGY:    -1153.311045993 Eh
FINAL SINGLE POINT ENERGY     -1153.311045993467

DIPOLE MOMENT
-------------
                                X             Y             Z
Electronic contribution:     -0.77961      -3.70951      -3.02367
Nuclear contribution   :      1.16384       4.68764       3.54369
                        -----------------------------------------
Total Dipole Moment    :      0.38423       0.97813       0.52002
                        -----------------------------------------
Magnitude (a.u.)       :      1.17251
Magnitude (Debye)      :      2.98029

Rotational constants in cm-1:     0.062066     0.034753     0.028203
Rotational constants in MHz :  1860.688963  1041.860532   845.508090

                             ****ORCA TERMINATED NORMALLY****
TOTAL RUN TIME: 0 days 0 hours 24 minutes 5 seconds 322 msec
