                         Program Version 5.0.4 -  RELEASE  -
|  1> ! ri-mp2 aug-cc-pvdz aug-cc-pvdz/c tightscf
|  2> %pal nprocs 16 end
|  3> %maxcore 3800
|  4> %base "DZ_P-S_11_AB"
|  5> %scf
|  6> STABPerform true
|  7> STABRestartUHFifUnstable true
|  8> end
|  9>
| 10> *xyz 0 1
| 11> C        -1.668931    0.670727   -0.000025
| 12> S        -0.498999   -0.714019    0.000002
| 13> H        -1.554446    1.283713    0.890286
| 14> H        -2.663645    0.228762   -0.000014
| 15> H        -1.554450    1.283678   -0.890360
| 16> P         1.321026    0.354237    0.000014
| 17> H         1.977366   -0.354859   -1.031099
| 18> H         1.977362   -0.354900    1.031100
| 19> *
| 20>
| 21> $new_job
| 22> ! ri-mp2 aug-cc-pvtz aug-cc-pvtz/c tightscf
| 23> %pal nprocs 16 end
| 24> %maxcore 3800
| 25> %base "TZ_P-S_11_AB"
| 26>
| 27> *xyz 0 1
| 28> C        -1.668931    0.670727   -0.000025
| 29> S        -0.498999   -0.714019    0.000002
| 30> H        -1.554446    1.283713    0.890286
| 31> H        -2.663645    0.228762   -0.000014
| 32> H        -1.554450    1.283678   -0.890360
| 33> P         1.321026    0.354237    0.000014
| 34> H         1.977366   -0.354859   -1.031099
| 35> H         1.977362   -0.354900    1.031100
| 36> *
| 37>
| 38> $new_job
| 39> ! ri-mp2 aug-cc-pvqz aug-cc-pvqz/c tightscf
| 40> %pal nprocs 16 end
| 41> %maxcore 3800
| 42> %base "QZ_P-S_11_AB"
| 43>
| 44> *xyz 0 1
| 45> C        -1.668931    0.670727   -0.000025
| 46> S        -0.498999   -0.714019    0.000002
| 47> H        -1.554446    1.283713    0.890286
| 48> H        -2.663645    0.228762   -0.000014
| 49> H        -1.554450    1.283678   -0.890360
| 50> P         1.321026    0.354237    0.000014
| 51> H         1.977366   -0.354859   -1.031099
| 52> H         1.977362   -0.354900    1.031100
| 53> *
| 54>
| 55>
| 56>
| 57>
| 58>                          ****END OF INPUT****
 Total Charge           Charge          ....    0
 Multiplicity           Mult            ....    1
 Number of Electrons    NEL             ....   42
MP2 TOTAL ENERGY:     -779.481921005 Eh
FINAL SINGLE POINT ENERGY      -779.481921005171
MP2 TOTAL ENERGY:     -779.621959521 Eh
FINAL SINGLE POINT ENERGY      -779.621959521255

CARTESIAN COORDINATES (ANGSTROEM)
---------------------------------
  C     -1.668931    0.670727   -0.000025
  S     -0.498999   -0.714019    0.000002
  H     -1.554446    1.283713    0.890286
  H     -2.663645    0.228762   -0.000014
  H     -1.554450    1.283678   -0.890360
  P      1.321026    0.354237    0.000014
  H      1.977366   -0.354859   -1.031099
  H      1.977362   -0.354900    1.031100

 Multiplicity           Mult            ....    1
 Number of Electrons    NEL             ....   42
 Basis Dimension        Dim             ....  478

ORBITAL ENERGIES
----------------

  NO   OCC          E(Eh)            E(eV)
   0   2.0000     -91.952659     -2502.1591
   1   2.0000     -79.964282     -2175.9387
   2   2.0000     -11.256500      -306.3049
   3   2.0000      -8.954974      -243.6772
   4   2.0000      -7.505252      -204.2283
   5   2.0000      -6.636354      -180.5844
   6   2.0000      -6.635570      -180.5630
   7   2.0000      -6.634730      -180.5402
   8   2.0000      -5.398934      -146.9125
   9   2.0000      -5.398583      -146.9029
  10   2.0000      -5.398012      -146.8874
  11   2.0000      -1.045811       -28.4580
  12   2.0000      -0.903198       -24.5773
  13   2.0000      -0.781153       -21.2563
  14   2.0000      -0.599698       -16.3186
  15   2.0000      -0.596221       -16.2240
  16   2.0000      -0.537387       -14.6230
  17   2.0000      -0.502818       -13.6824
  18   2.0000      -0.470250       -12.7961
  19   2.0000      -0.366488        -9.9726
  20   2.0000      -0.355844        -9.6830
  21   0.0000       0.026887         0.7316
  22   0.0000       0.034445         0.9373
  23   0.0000       0.040230         1.0947
  24   0.0000       0.043178         1.1749
  25   0.0000       0.055139         1.5004

MULLIKEN ATOMIC CHARGES
-----------------------
   0 C :   -0.869149
   1 S :   -0.136492
   2 H :    0.263231
   3 H :    0.360014
   4 H :    0.263230
   5 P :    0.221091
   6 H :   -0.050962
   7 H :   -0.050962
Sum of atomic charges:    0.0000000

LOEWDIN ATOMIC CHARGES
----------------------
   0 C :    0.420004
   1 S :    0.897553
   2 H :   -0.394413
   3 H :   -0.407372
   4 H :   -0.394412
   5 P :    1.014597
   6 H :   -0.567977
   7 H :   -0.567979

  Mayer bond orders larger than 0.100000
B(  0-C ,  1-S ) :   0.9522 B(  0-C ,  2-H ) :   0.9209 B(  0-C ,  3-H ) :   0.8342
B(  0-C ,  4-H ) :   0.9209 B(  1-S ,  5-P ) :   1.0027 B(  5-P ,  6-H ) :   0.8974
B(  5-P ,  7-H ) :   0.8974

MP2 TOTAL ENERGY:     -779.665802610 Eh
FINAL SINGLE POINT ENERGY      -779.665802609599

DIPOLE MOMENT
-------------
                                X             Y             Z
Electronic contribution:      2.92044      -1.43926       0.00009
Nuclear contribution   :     -3.01444       1.74439      -0.00010
                        -----------------------------------------
Total Dipole Moment    :     -0.09400       0.30513      -0.00001
                        -----------------------------------------
Magnitude (a.u.)       :      0.31928
Magnitude (Debye)      :      0.81155

Rotational constants in cm-1:     0.519012     0.141058     0.116657
Rotational constants in MHz : 15559.591059  4228.824222  3497.296054

                             ****ORCA TERMINATED NORMALLY****
TOTAL RUN TIME: 0 days 0 hours 9 minutes 25 seconds 6 msec
