                         Program Version 5.0.4 -  RELEASE  -
|  1> ! ri-mp2 aug-cc-pvdz aug-cc-pvdz/c tightscf
|  2> %pal nprocs 16 end
|  3> %maxcore 3800
|  4> %base "DZ_P-C_42_AB"
|  5> %scf
|  6> STABPerform true
|  7> STABRestartUHFifUnstable true
|  8> end
|  9>
| 10> *xyz 0 1
| 11> P        -1.200559   -0.040598    0.000000
| 12> C         0.514553    0.652592   -0.000001
| 13> C         1.657125   -0.350337    0.000000
| 14> H         0.579838    1.309372    0.870450
| 15> H         0.579837    1.309371   -0.870452
| 16> H         1.613858   -0.993397    0.879722
| 17> H         2.626062    0.152767   -0.000001
| 18> H         1.613858   -0.993398   -0.879721
| 19> H        -1.017570   -0.994637    1.030452
| 20> H        -1.017571   -0.994638   -1.030451
| 21> *
| 22>
| 23> $new_job
| 24> ! ri-mp2 aug-cc-pvtz aug-cc-pvtz/c tightscf
| 25> %pal nprocs 16 end
| 26> %maxcore 3800
| 27> %base "TZ_P-C_42_AB"
| 28>
| 29> *xyz 0 1
| 30> P        -1.200559   -0.040598    0.000000
| 31> C         0.514553    0.652592   -0.000001
| 32> C         1.657125   -0.350337    0.000000
| 33> H         0.579838    1.309372    0.870450
| 34> H         0.579837    1.309371   -0.870452
| 35> H         1.613858   -0.993397    0.879722
| 36> H         2.626062    0.152767   -0.000001
| 37> H         1.613858   -0.993398   -0.879721
| 38> H        -1.017570   -0.994637    1.030452
| 39> H        -1.017571   -0.994638   -1.030451
| 40> *
| 41>
| 42> $new_job
| 43> ! ri-mp2 aug-cc-pvqz aug-cc-pvqz/c tightscf
| 44> %pal nprocs 16 end
| 45> %maxcore 3800
| 46> %base "QZ_P-C_42_AB"
| 47>
| 48> *xyz 0 1
| 49> P        -1.200559   -0.040598    0.000000
| 50> C         0.514553    0.652592   -0.000001
| 51> C         1.657125   -0.350337    0.000000
| 52> H         0.579838    1.309372    0.870450
| 53> H         0.579837    1.309371   -0.870452
| 54> H         1.613858   -0.993397    0.879722
| 55> H         2.626062    0.152767   -0.000001
| 56> H         1.613858   -0.993398   -0.879721
| 57> H        -1.017570   -0.994637    1.030452
| 58> H        -1.017571   -0.994638   -1.030451
| 59> *
| 60>
| 61>
| 62>
| 63>
| 64>                          ****END OF INPUT****
 Total Charge           Charge          ....    0
 Multiplicity           Mult            ....    1
 Number of Electrons    NEL             ....   34
MP2 TOTAL ENERGY:     -420.988676986 Eh
FINAL SINGLE POINT ENERGY      -420.988676986081
MP2 TOTAL ENERGY:     -421.114419315 Eh
FINAL SINGLE POINT ENERGY      -421.114419315140

CARTESIAN COORDINATES (ANGSTROEM)
---------------------------------
  P     -1.200559   -0.040598    0.000000
  C      0.514553    0.652592   -0.000001
  C      1.657125   -0.350337    0.000000
  H      0.579838    1.309372    0.870450
  H      0.579837    1.309371   -0.870452
  H      1.613858   -0.993397    0.879722
  H      2.626062    0.152767   -0.000001
  H      1.613858   -0.993398   -0.879721
  H     -1.017570   -0.994637    1.030452
  H     -1.017571   -0.994638   -1.030451

 Multiplicity           Mult            ....    1
 Number of Electrons    NEL             ....   34
 Basis Dimension        Dim             ....  566

ORBITAL ENERGIES
----------------

  NO   OCC          E(Eh)            E(eV)
   0   2.0000     -79.931740     -2175.0532
   1   2.0000     -11.231860      -305.6344
   2   2.0000     -11.220400      -305.3226
   3   2.0000      -7.474718      -203.3974
   4   2.0000      -5.368688      -146.0894
   5   2.0000      -5.368549      -146.0856
   6   2.0000      -5.367490      -146.0568
   7   2.0000      -1.041433       -28.3388
   8   2.0000      -0.882908       -24.0252
   9   2.0000      -0.781876       -21.2759
  10   2.0000      -0.623237       -16.9591
  11   2.0000      -0.577829       -15.7235
  12   2.0000      -0.535928       -14.5833
  13   2.0000      -0.517999       -14.0955
  14   2.0000      -0.485013       -13.1979
  15   2.0000      -0.460268       -12.5245
  16   2.0000      -0.358611        -9.7583
  17   0.0000       0.026073         0.7095
  18   0.0000       0.035837         0.9752
  19   0.0000       0.037044         1.0080
  20   0.0000       0.038928         1.0593
  21   0.0000       0.055497         1.5102

MULLIKEN ATOMIC CHARGES
-----------------------
   0 P :    0.276157
   1 C :   -0.551343
   2 C :   -0.841086
   3 H :    0.255790
   4 H :    0.255790
   5 H :    0.252848
   6 H :    0.270322
   7 H :    0.252848
   8 H :   -0.085663
   9 H :   -0.085663
Sum of atomic charges:    0.0000000

LOEWDIN ATOMIC CHARGES
----------------------
   0 P :    1.501020
   1 C :    0.259971
   2 C :    0.830408
   3 H :   -0.367453
   4 H :   -0.367454
   5 H :   -0.308188
   6 H :   -0.288473
   7 H :   -0.308188
   8 H :   -0.475821
   9 H :   -0.475822

  Mayer bond orders larger than 0.100000
B(  0-P ,  1-C ) :   0.8115 B(  0-P ,  8-H ) :   0.9136 B(  0-P ,  9-H ) :   0.9136
B(  1-C ,  2-C ) :   0.9788 B(  1-C ,  3-H ) :   0.8983 B(  1-C ,  4-H ) :   0.8983
B(  2-C ,  5-H ) :   0.9321 B(  2-C ,  6-H ) :   0.9352 B(  2-C ,  7-H ) :   0.9321

MP2 TOTAL ENERGY:     -421.152334491 Eh
FINAL SINGLE POINT ENERGY      -421.152334490637

DIPOLE MOMENT
-------------
                                X             Y             Z
Electronic contribution:     -5.76795       1.14450      -0.00000
Nuclear contribution   :      6.29951      -1.19976       0.00000
                        -----------------------------------------
Total Dipole Moment    :      0.53156      -0.05526      -0.00000
                        -----------------------------------------
Magnitude (a.u.)       :      0.53443
Magnitude (Debye)      :      1.35841

Rotational constants in cm-1:     0.873143     0.167887     0.154288
Rotational constants in MHz : 26176.164311  5033.135931  4625.449300

                             ****ORCA TERMINATED NORMALLY****
TOTAL RUN TIME: 0 days 0 hours 19 minutes 14 seconds 350 msec
