                         Program Version 5.0.4 -  RELEASE  -
|  1> ! ri-mp2 aug-cc-pvdz aug-cc-pvdz/c tightscf
|  2> %pal nprocs 16 end
|  3> %maxcore 3800
|  4> %base "DZ_Si-S_12_AB"
|  5>
|  6> *xyz 0 1
|  7> C         2.100346   -1.352241    0.252421
|  8> C         0.777721   -1.016858    0.476411
|  9> C         0.316085    0.276929    0.234467
| 10> C         1.220308    1.223007   -0.242307
| 11> C         2.546057    0.890851   -0.467799
| 12> C         2.986719   -0.397129   -0.219833
| 13> H         2.441915   -2.360781    0.444548
| 14> H         0.093768   -1.775073    0.838370
| 15> H         0.886426    2.233474   -0.444051
| 16> H         3.234413    1.638130   -0.839935
| 17> H         4.021591   -0.659341   -0.396578
| 18> Si        -1.455708    0.739733    0.549243
| 19> S        -2.667915   -0.600066   -0.603564
| 20> H        -3.808829   -0.322906    0.043065
| 21> H        -1.657802    2.148688    0.148959
| 22> H        -1.828350    0.595261    1.973093
| 23> *
| 24>
| 25> $new_job
| 26> ! ri-mp2 aug-cc-pvtz aug-cc-pvtz/c tightscf
| 27> %pal nprocs 16 end
| 28> %maxcore 3800
| 29> %base "TZ_Si-S_12_AB"
| 30>
| 31> *xyz 0 1
| 32> C         2.100346   -1.352241    0.252421
| 33> C         0.777721   -1.016858    0.476411
| 34> C         0.316085    0.276929    0.234467
| 35> C         1.220308    1.223007   -0.242307
| 36> C         2.546057    0.890851   -0.467799
| 37> C         2.986719   -0.397129   -0.219833
| 38> H         2.441915   -2.360781    0.444548
| 39> H         0.093768   -1.775073    0.838370
| 40> H         0.886426    2.233474   -0.444051
| 41> H         3.234413    1.638130   -0.839935
| 42> H         4.021591   -0.659341   -0.396578
| 43> Si        -1.455708    0.739733    0.549243
| 44> S        -2.667915   -0.600066   -0.603564
| 45> H        -3.808829   -0.322906    0.043065
| 46> H        -1.657802    2.148688    0.148959
| 47> H        -1.828350    0.595261    1.973093
| 48> *
| 49>
| 50> $new_job
| 51> ! ri-mp2 aug-cc-pvqz aug-cc-pvqz/c tightscf
| 52> %pal nprocs 16 end
| 53> %maxcore 3800
| 54> %base "QZ_Si-S_12_AB"
| 55>
| 56> *xyz 0 1
| 57> C         2.100346   -1.352241    0.252421
| 58> C         0.777721   -1.016858    0.476411
| 59> C         0.316085    0.276929    0.234467
| 60> C         1.220308    1.223007   -0.242307
| 61> C         2.546057    0.890851   -0.467799
| 62> C         2.986719   -0.397129   -0.219833
| 63> H         2.441915   -2.360781    0.444548
| 64> H         0.093768   -1.775073    0.838370
| 65> H         0.886426    2.233474   -0.444051
| 66> H         3.234413    1.638130   -0.839935
| 67> H         4.021591   -0.659341   -0.396578
| 68> Si        -1.455708    0.739733    0.549243
| 69> S        -2.667915   -0.600066   -0.603564
| 70> H        -3.808829   -0.322906    0.043065
| 71> H        -1.657802    2.148688    0.148959
| 72> H        -1.828350    0.595261    1.973093
| 73> *
| 74>
| 75>
| 76>
| 77>
| 78>                          ****END OF INPUT****
 Total Charge           Charge          ....    0
 Multiplicity           Mult            ....    1
 Number of Electrons    NEL             ....   74
MP2 TOTAL ENERGY:     -919.447894072 Eh
FINAL SINGLE POINT ENERGY      -919.447894071563
MP2 TOTAL ENERGY:     -919.742223197 Eh
FINAL SINGLE POINT ENERGY      -919.742223196979

CARTESIAN COORDINATES (ANGSTROEM)
---------------------------------
  C      2.100346   -1.352241    0.252421
  C      0.777721   -1.016858    0.476411
  C      0.316085    0.276929    0.234467
  C      1.220308    1.223007   -0.242307
  C      2.546057    0.890851   -0.467799
  C      2.986719   -0.397129   -0.219833
  H      2.441915   -2.360781    0.444548
  H      0.093768   -1.775073    0.838370
  H      0.886426    2.233474   -0.444051
  H      3.234413    1.638130   -0.839935
  H      4.021591   -0.659341   -0.396578
  Si    -1.455708    0.739733    0.549243
  S     -2.667915   -0.600066   -0.603564
  H     -3.808829   -0.322906    0.043065
  H     -1.657802    2.148688    0.148959
  H     -1.828350    0.595261    1.973093

 Multiplicity           Mult            ....    1
 Number of Electrons    NEL             ....   74
 Basis Dimension        Dim             .... 1016

ORBITAL ENERGIES
----------------

  NO   OCC          E(Eh)            E(eV)
   0   2.0000     -91.944494     -2501.9369
   1   2.0000     -68.792641     -1871.9429
   2   2.0000     -11.243422      -305.9491
   3   2.0000     -11.242462      -305.9229
   4   2.0000     -11.242237      -305.9168
   5   2.0000     -11.237073      -305.7763
   6   2.0000     -11.236911      -305.7719
   7   2.0000     -11.227035      -305.5031
   8   2.0000      -8.949170      -243.5193
   9   2.0000      -6.630673      -180.4298
  10   2.0000      -6.629875      -180.4081
  11   2.0000      -6.629053      -180.3857
  12   2.0000      -6.139780      -167.0719
  13   2.0000      -4.246499      -115.5531
  14   2.0000      -4.245921      -115.5374
  15   2.0000      -4.245767      -115.5332
  16   2.0000      -1.161692       -31.6112
  17   2.0000      -1.024934       -27.8899
  18   2.0000      -1.024607       -27.8810
  19   2.0000      -0.965362       -26.2688
  20   2.0000      -0.833380       -22.6774
  21   2.0000      -0.831547       -22.6276
  22   2.0000      -0.730608       -19.8808
  23   2.0000      -0.679754       -18.4970
  24   2.0000      -0.633933       -17.2502
  25   2.0000      -0.631007       -17.1706
  26   2.0000      -0.595289       -16.1986
  27   2.0000      -0.562162       -15.2972
  28   2.0000      -0.550115       -14.9694
  29   2.0000      -0.513577       -13.9751
  30   2.0000      -0.501093       -13.6354
  31   2.0000      -0.493976       -13.4418
  32   2.0000      -0.454628       -12.3711
  33   2.0000      -0.443657       -12.0725
  34   2.0000      -0.375172       -10.2089
  35   2.0000      -0.346588        -9.4311
  36   2.0000      -0.344750        -9.3811
  37   0.0000       0.021892         0.5957
  38   0.0000       0.027935         0.7602
  39   0.0000       0.028890         0.7861
  40   0.0000       0.038818         1.0563
  41   0.0000       0.040022         1.0891

MULLIKEN ATOMIC CHARGES
-----------------------
   0 C :   -0.204607
   1 C :   -0.479218
   2 C :    0.232371
   3 C :   -0.589693
   4 C :   -0.281456
   5 C :   -0.389775
   6 H :    0.269736
   7 H :    0.333957
   8 H :    0.323573
   9 H :    0.253739
  10 H :    0.338607
  11 Si:    1.081539
  12 S :   -0.469297
  13 H :    0.055103
  14 H :   -0.286260
  15 H :   -0.188319
Sum of atomic charges:   -0.0000000

LOEWDIN ATOMIC CHARGES
----------------------
   0 C :    0.340818
   1 C :    0.234893
   2 C :   -0.163656
   3 C :    0.244356
   4 C :    0.339866
   5 C :    0.336743
   6 H :   -0.319456
   7 H :   -0.341822
   8 H :   -0.346732
   9 H :   -0.320051
  10 H :   -0.318041
  11 Si:    0.253743
  12 S :    1.451666
  13 H :   -0.888260
  14 H :   -0.251223
  15 H :   -0.252845

  Mayer bond orders larger than 0.100000
B(  0-C ,  1-C ) :   1.2332 B(  0-C ,  2-C ) :  -0.2894 B(  0-C ,  3-C ) :   0.1230
B(  0-C ,  4-C ) :  -0.1041 B(  0-C ,  5-C ) :   1.1528 B(  0-C ,  6-H ) :   1.0818
B(  1-C ,  2-C ) :   1.0042 B(  1-C ,  3-C ) :   0.1157 B(  1-C ,  4-C ) :   0.1314
B(  1-C ,  5-C ) :   0.1039 B(  1-C ,  6-H ) :  -0.1393 B(  1-C ,  7-H ) :   0.9295
B(  1-C , 11-Si) :  -0.1144 B(  2-C ,  3-C ) :   0.7680 B(  2-C ,  4-C ) :  -0.3360
B(  2-C ,  7-H ) :  -0.1491 B(  2-C ,  8-H ) :  -0.1426 B(  2-C , 11-Si) :   0.9938
B(  2-C , 12-S ) :  -0.1350 B(  2-C , 14-H ) :  -0.1664 B(  3-C ,  4-C ) :   1.3519
B(  3-C ,  5-C ) :   0.1697 B(  3-C ,  8-H ) :   0.9395 B(  3-C ,  9-H ) :  -0.1495
B(  3-C , 11-Si) :  -0.1200 B(  4-C ,  5-C ) :   1.1571 B(  4-C ,  9-H ) :   1.1172
B(  5-C , 10-H ) :   0.9826 B( 11-Si, 12-S ) :   0.6324 B( 11-Si, 14-H ) :   0.7167
B( 11-Si, 15-H ) :   0.7642 B( 12-S , 13-H ) :   1.0609

MP2 TOTAL ENERGY:     -919.836461234 Eh
FINAL SINGLE POINT ENERGY      -919.836461234331

DIPOLE MOMENT
-------------
                                X             Y             Z
Electronic contribution:     -3.14200      -1.27823      -1.45704
Nuclear contribution   :      3.52093       1.45744       1.73652
                        -----------------------------------------
Total Dipole Moment    :      0.37893       0.17921       0.27948
                        -----------------------------------------
Magnitude (a.u.)       :      0.50380
Magnitude (Debye)      :      1.28056

Rotational constants in cm-1:     0.114171     0.026322     0.023404
Rotational constants in MHz :  3422.756622   789.123345   701.643707

                             ****ORCA TERMINATED NORMALLY****
TOTAL RUN TIME: 0 days 0 hours 24 minutes 11 seconds 346 msec
