                         Program Version 5.0.4 -  RELEASE  -
|  1> ! ri-mp2 aug-cc-pvdz aug-cc-pvdz/c tightscf
|  2> %pal nprocs 16 end
|  3> %maxcore 3800
|  4> %base "DZ_Si-Cl_22_AB"
|  5> %scf
|  6> STABPerform true
|  7> STABRestartUHFifUnstable true
|  8> end
|  9>
| 10> *xyz 0 1
| 11> Si         0.057396    0.734927    0.052483
| 12> C        -1.412537   -0.297466    0.475954
| 13> C        -2.468959   -0.383665   -0.321403
| 14> H        -1.422186   -0.847857    1.412382
| 15> H        -2.512517    0.138611   -1.270835
| 16> H        -3.338000   -0.979396   -0.066329
| 17> Cl         1.739901   -0.449340   -0.093117
| 18> H         0.342475    1.736482    1.096496
| 19> H        -0.162660    1.388749   -1.250796
| 20> *
| 21>
| 22> $new_job
| 23> ! ri-mp2 aug-cc-pvtz aug-cc-pvtz/c tightscf
| 24> %pal nprocs 16 end
| 25> %maxcore 3800
| 26> %base "TZ_Si-Cl_22_AB"
| 27>
| 28> *xyz 0 1
| 29> Si         0.057396    0.734927    0.052483
| 30> C        -1.412537   -0.297466    0.475954
| 31> C        -2.468959   -0.383665   -0.321403
| 32> H        -1.422186   -0.847857    1.412382
| 33> H        -2.512517    0.138611   -1.270835
| 34> H        -3.338000   -0.979396   -0.066329
| 35> Cl         1.739901   -0.449340   -0.093117
| 36> H         0.342475    1.736482    1.096496
| 37> H        -0.162660    1.388749   -1.250796
| 38> *
| 39>
| 40> $new_job
| 41> ! ri-mp2 aug-cc-pvqz aug-cc-pvqz/c tightscf
| 42> %pal nprocs 16 end
| 43> %maxcore 3800
| 44> %base "QZ_Si-Cl_22_AB"
| 45>
| 46> *xyz 0 1
| 47> Si         0.057396    0.734927    0.052483
| 48> C        -1.412537   -0.297466    0.475954
| 49> C        -2.468959   -0.383665   -0.321403
| 50> H        -1.422186   -0.847857    1.412382
| 51> H        -2.512517    0.138611   -1.270835
| 52> H        -3.338000   -0.979396   -0.066329
| 53> Cl         1.739901   -0.449340   -0.093117
| 54> H         0.342475    1.736482    1.096496
| 55> H        -0.162660    1.388749   -1.250796
| 56> *
| 57>
| 58>
| 59>
| 60>
| 61>                          ****END OF INPUT****
 Total Charge           Charge          ....    0
 Multiplicity           Mult            ....    1
 Number of Electrons    NEL             ....   48
MP2 TOTAL ENERGY:     -827.648273963 Eh
FINAL SINGLE POINT ENERGY      -827.648273962867
MP2 TOTAL ENERGY:     -827.821817009 Eh
FINAL SINGLE POINT ENERGY      -827.821817009322

CARTESIAN COORDINATES (ANGSTROEM)
---------------------------------
  Si     0.057396    0.734927    0.052483
  C     -1.412537   -0.297466    0.475954
  C     -2.468959   -0.383665   -0.321403
  H     -1.422186   -0.847857    1.412382
  H     -2.512517    0.138611   -1.270835
  H     -3.338000   -0.979396   -0.066329
  Cl     1.739901   -0.449340   -0.093117
  H      0.342475    1.736482    1.096496
  H     -0.162660    1.388749   -1.250796

 Multiplicity           Mult            ....    1
 Number of Electrons    NEL             ....   48
 Basis Dimension        Dim             ....  558

ORBITAL ENERGIES
----------------

  NO   OCC          E(Eh)            E(eV)
   0   2.0000    -104.820646     -2852.3148
   1   2.0000     -68.811041     -1872.4436
   2   2.0000     -11.254138      -306.2407
   3   2.0000     -11.230507      -305.5976
   4   2.0000     -10.548153      -287.0298
   5   2.0000      -8.014949      -218.0979
   6   2.0000      -8.013865      -218.0684
   7   2.0000      -8.013847      -218.0679
   8   2.0000      -6.156547      -167.5281
   9   2.0000      -4.263593      -116.0183
  10   2.0000      -4.262664      -115.9930
  11   2.0000      -4.262355      -115.9846
  12   2.0000      -1.092163       -29.7193
  13   2.0000      -1.052548       -28.6413
  14   2.0000      -0.809168       -22.0186
  15   2.0000      -0.711569       -19.3628
  16   2.0000      -0.639549       -17.4030
  17   2.0000      -0.583413       -15.8755
  18   2.0000      -0.526596       -14.3294
  19   2.0000      -0.520134       -14.1536
  20   2.0000      -0.492497       -13.4015
  21   2.0000      -0.446611       -12.1529
  22   2.0000      -0.441734       -12.0202
  23   2.0000      -0.396698       -10.7947
  24   0.0000       0.023798         0.6476
  25   0.0000       0.032769         0.8917
  26   0.0000       0.034703         0.9443
  27   0.0000       0.041684         1.1343
  28   0.0000       0.048042         1.3073

MULLIKEN ATOMIC CHARGES
-----------------------
   0 Si:    1.375556
   1 C :   -0.760485
   2 C :   -0.832701
   3 H :    0.451697
   4 H :    0.402861
   5 H :    0.374867
   6 Cl:   -0.596727
   7 H :   -0.200767
   8 H :   -0.214302
Sum of atomic charges:   -0.0000000

LOEWDIN ATOMIC CHARGES
----------------------
   0 Si:   -0.064222
   1 C :    0.246238
   2 C :    0.680408
   3 H :   -0.422456
   4 H :   -0.378203
   5 H :   -0.345536
   6 Cl:    0.864081
   7 H :   -0.298093
   8 H :   -0.282217

  Mayer bond orders larger than 0.100000
B(  0-Si,  1-C ) :   0.8695 B(  0-Si,  6-Cl) :   0.4638 B(  0-Si,  7-H ) :   0.8420
B(  0-Si,  8-H ) :   0.8430 B(  1-C ,  2-C ) :   1.8246 B(  1-C ,  3-H ) :   0.7338
B(  2-C ,  4-H ) :   0.8261 B(  2-C ,  5-H ) :   0.8964

MP2 TOTAL ENERGY:     -827.878414656 Eh
FINAL SINGLE POINT ENERGY      -827.878414655585

DIPOLE MOMENT
-------------
                                X             Y             Z
Electronic contribution:      8.49590      -1.82455      -0.00759
Nuclear contribution   :     -9.33160       1.98091       0.04960
                        -----------------------------------------
Total Dipole Moment    :     -0.83570       0.15636       0.04201
                        -----------------------------------------
Magnitude (a.u.)       :      0.85124
Magnitude (Debye)      :      2.16368

Rotational constants in cm-1:     0.397457     0.071960     0.066033
Rotational constants in MHz : 11915.468107  2157.299908  1979.621627

                             ****ORCA TERMINATED NORMALLY****
TOTAL RUN TIME: 0 days 0 hours 18 minutes 43 seconds 555 msec
