                         Program Version 5.0.4 -  RELEASE  -
|  1> ! ri-mp2 aug-cc-pvdz aug-cc-pvdz/c tightscf
|  2> %pal nprocs 16 end
|  3> %maxcore 3800
|  4> %base "DZ_P-F_20_A"
|  5> %scf
|  6> STABPerform true
|  7> STABRestartUHFifUnstable true
|  8> end
|  9>
| 10> *xyz 0 2
| 11> Cl        1.774682    1.342749    1.145175
| 12> P         1.487785   -0.813239   -1.082514
| 13> C         1.469523    0.953076   -0.576189
| 14> F         2.630363   -1.396120   -0.139748
| 15> P        -0.000052    1.864140   -1.258667
| 16> C         0.000056   -1.513119   -0.242605
| 17> C        -1.469583    0.952991   -0.576205
| 18> Cl        0.000066   -1.569151    1.535072
| 19> P        -1.487725   -0.813334   -1.082506
| 20> Cl       -1.774807    1.342676    1.145144
| 21> F        -2.630265   -1.396282   -0.139734
| 22> H         2.308310    1.395966   -1.114222
| 23> H         0.000090   -2.558006   -0.562533
| 24> H        -2.308386    1.395821   -1.114262
| 25> *
| 26>
| 27> $new_job
| 28> ! ri-mp2 aug-cc-pvtz aug-cc-pvtz/c tightscf
| 29> %pal nprocs 16 end
| 30> %maxcore 3800
| 31> %base "TZ_P-F_20_A"
| 32>
| 33> *xyz 0 2
| 34> Cl        1.774682    1.342749    1.145175
| 35> P         1.487785   -0.813239   -1.082514
| 36> C         1.469523    0.953076   -0.576189
| 37> F         2.630363   -1.396120   -0.139748
| 38> P        -0.000052    1.864140   -1.258667
| 39> C         0.000056   -1.513119   -0.242605
| 40> C        -1.469583    0.952991   -0.576205
| 41> Cl        0.000066   -1.569151    1.535072
| 42> P        -1.487725   -0.813334   -1.082506
| 43> Cl       -1.774807    1.342676    1.145144
| 44> F        -2.630265   -1.396282   -0.139734
| 45> H         2.308310    1.395966   -1.114222
| 46> H         0.000090   -2.558006   -0.562533
| 47> H        -2.308386    1.395821   -1.114262
| 48> *
| 49>
| 50> $new_job
| 51> ! ri-mp2 aug-cc-pvqz aug-cc-pvqz/c tightscf
| 52> %pal nprocs 16 end
| 53> %maxcore 3800
| 54> %base "QZ_P-F_20_A"
| 55>
| 56> *xyz 0 2
| 57> Cl        1.774682    1.342749    1.145175
| 58> P         1.487785   -0.813239   -1.082514
| 59> C         1.469523    0.953076   -0.576189
| 60> F         2.630363   -1.396120   -0.139748
| 61> P        -0.000052    1.864140   -1.258667
| 62> C         0.000056   -1.513119   -0.242605
| 63> C        -1.469583    0.952991   -0.576205
| 64> Cl        0.000066   -1.569151    1.535072
| 65> P        -1.487725   -0.813334   -1.082506
| 66> Cl       -1.774807    1.342676    1.145144
| 67> F        -2.630265   -1.396282   -0.139734
| 68> H         2.308310    1.395966   -1.114222
| 69> H         0.000090   -2.558006   -0.562533
| 70> H        -2.308386    1.395821   -1.114262
| 71> *
| 72>
| 73>
| 74>
| 75>
| 76>                          ****END OF INPUT****
 Total Charge           Charge          ....    0
 Multiplicity           Mult            ....    2
 Number of Electrons    NEL             ....  135
MP2 TOTAL ENERGY:    -2716.616173139 Eh
FINAL SINGLE POINT ENERGY     -2716.616173139187
MP2 TOTAL ENERGY:    -2717.195577365 Eh
FINAL SINGLE POINT ENERGY     -2717.195577364544

CARTESIAN COORDINATES (ANGSTROEM)
---------------------------------
  Cl     1.774682    1.342749    1.145175
  P      1.487785   -0.813239   -1.082514
  C      1.469523    0.953076   -0.576189
  F      2.630363   -1.396120   -0.139748
  P     -0.000052    1.864140   -1.258667
  C      0.000056   -1.513119   -0.242605
  C     -1.469583    0.952991   -0.576205
  Cl     0.000066   -1.569151    1.535072
  P     -1.487725   -0.813334   -1.082506
  Cl    -1.774807    1.342676    1.145144
  F     -2.630265   -1.396282   -0.139734
  H      2.308310    1.395966   -1.114222
  H      0.000090   -2.558006   -0.562533
  H     -2.308386    1.395821   -1.114262

 Multiplicity           Mult            ....    2
 Number of Electrons    NEL             ....  135
 Basis Dimension        Dim             .... 1042

ORBITAL ENERGIES
----------------
                 SPIN UP ORBITALS
  NO   OCC          E(Eh)            E(eV)
   0   1.0000    -104.846991     -2853.0317
   1   1.0000    -104.846990     -2853.0317
   2   1.0000    -104.842713     -2852.9153
   3   1.0000     -80.042237     -2178.0600
   4   1.0000     -80.042237     -2178.0600
   5   1.0000     -80.002788     -2176.9865
   6   1.0000     -26.322147      -716.2620
   7   1.0000     -26.322147      -716.2620
   8   1.0000     -11.328679      -308.2690
   9   1.0000     -11.328670      -308.2688
  10   1.0000     -11.324590      -308.1578
  11   1.0000     -10.572386      -287.6893
  12   1.0000     -10.572385      -287.6892
  13   1.0000     -10.568227      -287.5761
  14   1.0000      -8.040321      -218.7882
  15   1.0000      -8.040320      -218.7882
  16   1.0000      -8.037452      -218.7102
  17   1.0000      -8.037451      -218.7102
  18   1.0000      -8.037299      -218.7060
  19   1.0000      -8.037299      -218.7060
  20   1.0000      -8.035284      -218.6512
  21   1.0000      -8.033350      -218.5986
  22   1.0000      -8.033335      -218.5982
  23   1.0000      -7.576215      -206.1593
  24   1.0000      -7.576214      -206.1593
  25   1.0000      -7.544798      -205.3044
  26   1.0000      -5.470277      -148.8538
  27   1.0000      -5.470263      -148.8534
  28   1.0000      -5.469549      -148.8340
  29   1.0000      -5.469545      -148.8339
  30   1.0000      -5.468208      -148.7975
  31   1.0000      -5.468205      -148.7974
  32   1.0000      -5.449338      -148.2840
  33   1.0000      -5.435138      -147.8976
  34   1.0000      -5.433108      -147.8424
  35   1.0000      -1.632285       -44.4167
  36   1.0000      -1.632121       -44.4123
  37   1.0000      -1.178290       -32.0629
  38   1.0000      -1.151125       -31.3237
  39   1.0000      -1.149573       -31.2815
  40   1.0000      -1.030631       -28.0449
  41   1.0000      -0.968561       -26.3559
  42   1.0000      -0.967618       -26.3302
  43   1.0000      -0.845457       -23.0061
  44   1.0000      -0.837025       -22.7766
  45   1.0000      -0.764282       -20.7972
  46   1.0000      -0.722968       -19.6730
  47   1.0000      -0.721544       -19.6342
  48   1.0000      -0.712885       -19.3986
  49   1.0000      -0.703031       -19.1305
  50   1.0000      -0.690571       -18.7914
  51   1.0000      -0.663714       -18.0606
  52   1.0000      -0.631967       -17.1967
  53   1.0000      -0.598539       -16.2871
  54   1.0000      -0.597963       -16.2714
  55   1.0000      -0.574864       -15.6429
  56   1.0000      -0.564509       -15.3611
  57   1.0000      -0.552231       -15.0270
  58   1.0000      -0.502630       -13.6772
  59   1.0000      -0.491578       -13.3765
  60   1.0000      -0.489247       -13.3131
  61   1.0000      -0.445522       -12.1233
  62   1.0000      -0.435303       -11.8452
  63   1.0000      -0.429373       -11.6838
  64   1.0000      -0.425689       -11.5836
  65   1.0000      -0.392290       -10.6748
  66   1.0000      -0.387153       -10.5350
  67   1.0000      -0.380437       -10.3522
  68   0.0000       0.021211         0.5772
  69   0.0000       0.028012         0.7622
  70   0.0000       0.028578         0.7776
  71   0.0000       0.046434         1.2635
  72   0.0000       0.048721         1.3258

                 SPIN DOWN ORBITALS
  NO   OCC          E(Eh)            E(eV)
   0   1.0000    -104.846291     -2853.0126
   1   1.0000    -104.846290     -2853.0126
   2   1.0000    -104.842728     -2852.9157
   3   1.0000     -80.042048     -2178.0549
   4   1.0000     -80.042048     -2178.0549
   5   1.0000     -79.995679     -2176.7931
   6   1.0000     -26.321815      -716.2530
   7   1.0000     -26.321815      -716.2530
   8   1.0000     -11.330071      -308.3069
   9   1.0000     -11.330062      -308.3067
  10   1.0000     -11.324737      -308.1618
  11   1.0000     -10.571632      -287.6687
  12   1.0000     -10.571630      -287.6687
  13   1.0000     -10.568242      -287.5765
  14   1.0000      -8.038042      -218.7262
  15   1.0000      -8.038041      -218.7262
  16   1.0000      -8.036907      -218.6954
  17   1.0000      -8.036907      -218.6954
  18   1.0000      -8.036502      -218.6843
  19   1.0000      -8.036501      -218.6843
  20   1.0000      -8.035327      -218.6524
  21   1.0000      -8.033364      -218.5989
  22   1.0000      -8.033355      -218.5987
  23   1.0000      -7.575865      -206.1498
  24   1.0000      -7.575865      -206.1498
  25   1.0000      -7.535965      -205.0640
  26   1.0000      -5.470236      -148.8527
  27   1.0000      -5.470223      -148.8523
  28   1.0000      -5.469140      -148.8229
  29   1.0000      -5.469137      -148.8228
  30   1.0000      -5.468019      -148.7924
  31   1.0000      -5.468015      -148.7923
  32   1.0000      -5.430374      -147.7680
  33   1.0000      -5.430145      -147.7618
  34   1.0000      -5.415724      -147.3693
  35   1.0000      -1.631252       -44.3886
  36   1.0000      -1.631087       -44.3841
  37   1.0000      -1.173872       -31.9427
  38   1.0000      -1.147427       -31.2231
  39   1.0000      -1.147392       -31.2221
  40   1.0000      -1.022436       -27.8219
  41   1.0000      -0.965670       -26.2772
  42   1.0000      -0.956575       -26.0297
  43   1.0000      -0.844654       -22.9842
  44   1.0000      -0.819866       -22.3097
  45   1.0000      -0.741579       -20.1794
  46   1.0000      -0.721439       -19.6314
  47   1.0000      -0.720795       -19.6138
  48   1.0000      -0.712219       -19.3805
  49   1.0000      -0.701888       -19.0993
  50   1.0000      -0.685133       -18.6434
  51   1.0000      -0.661976       -18.0133
  52   1.0000      -0.621700       -16.9173
  53   1.0000      -0.595395       -16.2015
  54   1.0000      -0.595148       -16.1948
  55   1.0000      -0.567212       -15.4346
  56   1.0000      -0.561849       -15.2887
  57   1.0000      -0.551772       -15.0145
  58   1.0000      -0.493572       -13.4308
  59   1.0000      -0.490401       -13.3445
  60   1.0000      -0.487689       -13.2707
  61   1.0000      -0.435044       -11.8381
  62   1.0000      -0.431920       -11.7531
  63   1.0000      -0.428155       -11.6507
  64   1.0000      -0.423325       -11.5193
  65   1.0000      -0.386943       -10.5293
  66   1.0000      -0.379536       -10.3277
  67   0.0000      -0.009199        -0.2503
  68   0.0000       0.021705         0.5906
  69   0.0000       0.028067         0.7637
  70   0.0000       0.029131         0.7927
  71   0.0000       0.048009         1.3064

MULLIKEN ATOMIC CHARGES AND SPIN POPULATIONS
--------------------------------------------
   0 Cl:   -0.366188    0.047823
   1 P :    1.126680    0.002758
   2 C :   -0.385730   -0.095166
   3 F :   -0.750618    0.001937
   4 P :    0.390285    1.097943
   5 C :   -0.306950   -0.002678
   6 C :   -0.385723   -0.095166
   7 Cl:   -0.400517   -0.001290
   8 P :    1.126676    0.002758
   9 Cl:   -0.366187    0.047823
  10 F :   -0.750616    0.001937
  11 H :    0.364876   -0.004524
  12 H :    0.339143    0.000367
  13 H :    0.364868   -0.004524
Sum of atomic charges         :   -0.0000000

LOEWDIN ATOMIC CHARGES AND SPIN POPULATIONS
-------------------------------------------
   0 Cl:    1.073436    0.045711
   1 P :    0.082498    0.031247
   2 C :   -1.010987    0.141413
   3 F :    0.331072    0.005301
   4 P :    0.760075    0.533716
   5 C :   -0.938147    0.002448
   6 C :   -1.010986    0.141412
   7 Cl:    1.105177   -0.001019
   8 P :    0.082501    0.031246
   9 Cl:    1.073437    0.045711
  10 F :    0.331071    0.005301
  11 H :   -0.636035    0.009059
  12 H :   -0.607073   -0.000603
  13 H :   -0.636038    0.009059

  Mayer bond orders larger than 0.100000
B(  0-Cl,  2-C ) :   0.7217 B(  1-P ,  2-C ) :   0.7807 B(  1-P ,  3-F ) :   0.5154
B(  1-P ,  5-C ) :   0.7707 B(  2-C ,  4-P ) :   0.7900 B(  2-C , 11-H ) :   0.8644
B(  4-P ,  6-C ) :   0.7900 B(  5-C ,  7-Cl) :   0.6341 B(  5-C ,  8-P ) :   0.7707
B(  5-C , 12-H ) :   0.8670 B(  6-C ,  8-P ) :   0.7807 B(  6-C ,  9-Cl) :   0.7217
B(  6-C , 13-H ) :   0.8644 B(  8-P , 10-F ) :   0.5154

MP2 TOTAL ENERGY:    -2717.386428276 Eh
FINAL SINGLE POINT ENERGY     -2717.386428276159

DIPOLE MOMENT
-------------
                                X             Y             Z
Electronic contribution:      0.00001      -0.84512       3.15528
Nuclear contribution   :     -0.00001       1.07191      -4.33726
                        -----------------------------------------
Total Dipole Moment    :      0.00001       0.22679      -1.18198
                        -----------------------------------------
Magnitude (a.u.)       :      1.20354
Magnitude (Debye)      :      3.05915

Rotational constants in cm-1:     0.020863     0.016921     0.014242
Rotational constants in MHz :   625.468556   507.270116   426.976479

                             ****ORCA TERMINATED NORMALLY****
TOTAL RUN TIME: 0 days 5 hours 44 minutes 22 seconds 739 msec
