                         Program Version 5.0.4 -  RELEASE  -
|  1> ! ri-mp2 aug-cc-pvdz aug-cc-pvdz/c tightscf
|  2> %pal nprocs 16 end
|  3> %maxcore 3800
|  4> %base "DZ_P-O_4_A"
|  5> %scf
|  6> STABPerform true
|  7> STABRestartUHFifUnstable true
|  8> end
|  9>
| 10> *xyz 0 2
| 11> O         0.000024    2.015356   -0.426621
| 12> O         0.000009    1.275638    0.642549
| 13> C        -0.000002   -0.127468    0.347256
| 14> F        -0.000008   -0.684516    1.549863
| 15> Cl         1.452519   -0.570675   -0.522344
| 16> Cl        -1.452530   -0.570649   -0.522346
| 17> *
| 18>
| 19> $new_job
| 20> ! ri-mp2 aug-cc-pvtz aug-cc-pvtz/c tightscf
| 21> %pal nprocs 16 end
| 22> %maxcore 3800
| 23> %base "TZ_P-O_4_A"
| 24>
| 25> *xyz 0 2
| 26> O         0.000024    2.015356   -0.426621
| 27> O         0.000009    1.275638    0.642549
| 28> C        -0.000002   -0.127468    0.347256
| 29> F        -0.000008   -0.684516    1.549863
| 30> Cl         1.452519   -0.570675   -0.522344
| 31> Cl        -1.452530   -0.570649   -0.522346
| 32> *
| 33>
| 34> $new_job
| 35> ! ri-mp2 aug-cc-pvqz aug-cc-pvqz/c tightscf
| 36> %pal nprocs 16 end
| 37> %maxcore 3800
| 38> %base "QZ_P-O_4_A"
| 39>
| 40> *xyz 0 2
| 41> O         0.000024    2.015356   -0.426621
| 42> O         0.000009    1.275638    0.642549
| 43> C        -0.000002   -0.127468    0.347256
| 44> F        -0.000008   -0.684516    1.549863
| 45> Cl         1.452519   -0.570675   -0.522344
| 46> Cl        -1.452530   -0.570649   -0.522346
| 47> *
| 48>
| 49>
| 50>
| 51>
| 52>                          ****END OF INPUT****
 Total Charge           Charge          ....    0
 Multiplicity           Mult            ....    2
 Number of Electrons    NEL             ....   65
MP2 TOTAL ENERGY:    -1206.921035432 Eh
FINAL SINGLE POINT ENERGY     -1206.921035432235
MP2 TOTAL ENERGY:    -1207.277670709 Eh
FINAL SINGLE POINT ENERGY     -1207.277670708769

CARTESIAN COORDINATES (ANGSTROEM)
---------------------------------
  O      0.000024    2.015356   -0.426621
  O      0.000009    1.275638    0.642549
  C     -0.000002   -0.127468    0.347256
  F     -0.000008   -0.684516    1.549863
  Cl     1.452519   -0.570675   -0.522344
  Cl    -1.452530   -0.570649   -0.522346

 Multiplicity           Mult            ....    2
 Number of Electrons    NEL             ....   65
 Basis Dimension        Dim             ....  488

ORBITAL ENERGIES
----------------
                 SPIN UP ORBITALS
  NO   OCC          E(Eh)            E(eV)
   0   1.0000    -104.882530     -2853.9987
   1   1.0000    -104.882530     -2853.9987
   2   1.0000     -26.368779      -717.5309
   3   1.0000     -20.719069      -563.7945
   4   1.0000     -20.714468      -563.6693
   5   1.0000     -11.534244      -313.8627
   6   1.0000     -10.608724      -288.6781
   7   1.0000     -10.608713      -288.6778
   8   1.0000      -8.075891      -219.7562
   9   1.0000      -8.075888      -219.7561
  10   1.0000      -8.073697      -219.6965
  11   1.0000      -8.073696      -219.6964
  12   1.0000      -8.073643      -219.6950
  13   1.0000      -8.073642      -219.6950
  14   1.0000      -1.712400       -46.5968
  15   1.0000      -1.632243       -44.4156
  16   1.0000      -1.280939       -34.8561
  17   1.0000      -1.194215       -32.4963
  18   1.0000      -1.144325       -31.1387
  19   1.0000      -0.919555       -25.0224
  20   1.0000      -0.822259       -22.3748
  21   1.0000      -0.817750       -22.2521
  22   1.0000      -0.784680       -21.3522
  23   1.0000      -0.766594       -20.8601
  24   1.0000      -0.695884       -18.9360
  25   1.0000      -0.676183       -18.3999
  26   1.0000      -0.618100       -16.8194
  27   1.0000      -0.560310       -15.2468
  28   1.0000      -0.534327       -14.5398
  29   1.0000      -0.520009       -14.1502
  30   1.0000      -0.509810       -13.8726
  31   1.0000      -0.496926       -13.5220
  32   1.0000      -0.478074       -13.0091
  33   0.0000       0.044154         1.2015
  34   0.0000       0.054734         1.4894
  35   0.0000       0.063487         1.7276
  36   0.0000       0.070686         1.9235
  37   0.0000       0.089832         2.4444

                 SPIN DOWN ORBITALS
  NO   OCC          E(Eh)            E(eV)
   0   1.0000    -104.882482     -2853.9974
   1   1.0000    -104.882482     -2853.9974
   2   1.0000     -26.368984      -717.5365
   3   1.0000     -20.707049      -563.4675
   4   1.0000     -20.678533      -562.6915
   5   1.0000     -11.534986      -313.8829
   6   1.0000     -10.608685      -288.6770
   7   1.0000     -10.608674      -288.6767
   8   1.0000      -8.075607      -219.7484
   9   1.0000      -8.075604      -219.7484
  10   1.0000      -8.073701      -219.6966
  11   1.0000      -8.073700      -219.6965
  12   1.0000      -8.073633      -219.6947
  13   1.0000      -8.073631      -219.6947
  14   1.0000      -1.711214       -46.5645
  15   1.0000      -1.575402       -42.8689
  16   1.0000      -1.235796       -33.6277
  17   1.0000      -1.144000       -31.1298
  18   1.0000      -1.143548       -31.1175
  19   1.0000      -0.907955       -24.7067
  20   1.0000      -0.811211       -22.0742
  21   1.0000      -0.780796       -21.2465
  22   1.0000      -0.779087       -21.2000
  23   1.0000      -0.677524       -18.4364
  24   1.0000      -0.669431       -18.2162
  25   1.0000      -0.660316       -17.9681
  26   1.0000      -0.559706       -15.2304
  27   1.0000      -0.542161       -14.7529
  28   1.0000      -0.516580       -14.0569
  29   1.0000      -0.496919       -13.5218
  30   1.0000      -0.494207       -13.4480
  31   1.0000      -0.478110       -13.0100
  32   0.0000       0.044233         1.2036
  33   0.0000       0.054519         1.4836
  34   0.0000       0.063567         1.7297
  35   0.0000       0.067102         1.8259
  36   0.0000       0.071127         1.9355

MULLIKEN ATOMIC CHARGES AND SPIN POPULATIONS
--------------------------------------------
   0 O :   -0.122145    0.948677
   1 O :   -0.187176    0.059182
   2 C :    1.013485   -0.020269
   3 F :   -0.512227   -0.001525
   4 Cl:   -0.095968    0.006968
   5 Cl:   -0.095968    0.006968
Sum of atomic charges         :    0.0000000

LOEWDIN ATOMIC CHARGES AND SPIN POPULATIONS
-------------------------------------------
   0 O :    0.237793    0.786840
   1 O :    0.021712    0.216528
   2 C :   -2.946718   -0.002937
   3 F :    0.626558   -0.003538
   4 Cl:    1.030328    0.001553
   5 Cl:    1.030327    0.001554

  Mayer bond orders larger than 0.100000
B(  0-O ,  1-O ) :   0.9934 B(  1-O ,  2-C ) :   0.7661 B(  2-C ,  3-F ) :   0.6222
B(  2-C ,  4-Cl) :   0.9282 B(  2-C ,  5-Cl) :   0.9282

MP2 TOTAL ENERGY:    -1207.396700142 Eh
FINAL SINGLE POINT ENERGY     -1207.396700141794

DIPOLE MOMENT
-------------
                                X             Y             Z
Electronic contribution:     -0.00002      -2.37344      -0.19285
Nuclear contribution   :      0.00002       2.15205      -0.02975
                        -----------------------------------------
Total Dipole Moment    :     -0.00000      -0.22140      -0.22260
                        -----------------------------------------
Magnitude (a.u.)       :      0.31396
Magnitude (Debye)      :      0.79801

Rotational constants in cm-1:     0.084665     0.074742     0.061803
Rotational constants in MHz :  2538.188727  2240.700326  1852.809887

                             ****ORCA TERMINATED NORMALLY****
TOTAL RUN TIME: 0 days 0 hours 21 minutes 2 seconds 341 msec
