                         Program Version 5.0.4 -  RELEASE  -
|  1> ! ri-mp2 aug-cc-pvdz aug-cc-pvdz/c tightscf
|  2> %pal nprocs 16 end
|  3> %maxcore 3800
|  4> %base "DZ_B-F_13_A"
|  5> %scf
|  6> STABPerform true
|  7> STABRestartUHFifUnstable true
|  8> end
|  9>
| 10> *xyz 0 2
| 11> F        -2.327131   -0.216047    0.165104
| 12> B        -1.170948   -0.826369    0.105899
| 13> P         0.423531   -0.039031   -0.555030
| 14> C         1.734143   -0.943726    0.363995
| 15> C         0.443307    1.631019    0.232829
| 16> H         1.671692   -2.002381    0.117475
| 17> H         1.653839   -0.828961    1.443932
| 18> H         2.708862   -0.579225    0.041490
| 19> H        -0.425340    2.194445   -0.104882
| 20> H         1.335914    2.166254   -0.090115
| 21> H         0.436295    1.587835    1.321183
| 22> *
| 23>
| 24> $new_job
| 25> ! ri-mp2 aug-cc-pvtz aug-cc-pvtz/c tightscf
| 26> %pal nprocs 16 end
| 27> %maxcore 3800
| 28> %base "TZ_B-F_13_A"
| 29>
| 30> *xyz 0 2
| 31> F        -2.327131   -0.216047    0.165104
| 32> B        -1.170948   -0.826369    0.105899
| 33> P         0.423531   -0.039031   -0.555030
| 34> C         1.734143   -0.943726    0.363995
| 35> C         0.443307    1.631019    0.232829
| 36> H         1.671692   -2.002381    0.117475
| 37> H         1.653839   -0.828961    1.443932
| 38> H         2.708862   -0.579225    0.041490
| 39> H        -0.425340    2.194445   -0.104882
| 40> H         1.335914    2.166254   -0.090115
| 41> H         0.436295    1.587835    1.321183
| 42> *
| 43>
| 44> $new_job
| 45> ! ri-mp2 aug-cc-pvqz aug-cc-pvqz/c tightscf
| 46> %pal nprocs 16 end
| 47> %maxcore 3800
| 48> %base "QZ_B-F_13_A"
| 49>
| 50> *xyz 0 2
| 51> F        -2.327131   -0.216047    0.165104
| 52> B        -1.170948   -0.826369    0.105899
| 53> P         0.423531   -0.039031   -0.555030
| 54> C         1.734143   -0.943726    0.363995
| 55> C         0.443307    1.631019    0.232829
| 56> H         1.671692   -2.002381    0.117475
| 57> H         1.653839   -0.828961    1.443932
| 58> H         2.708862   -0.579225    0.041490
| 59> H        -0.425340    2.194445   -0.104882
| 60> H         1.335914    2.166254   -0.090115
| 61> H         0.436295    1.587835    1.321183
| 62> *
| 63>
| 64>
| 65>
| 66>
| 67>                          ****END OF INPUT****
 Total Charge           Charge          ....    0
 Multiplicity           Mult            ....    2
 Number of Electrons    NEL             ....   47
MP2 TOTAL ENERGY:     -544.798914004 Eh
FINAL SINGLE POINT ENERGY      -544.798914003536
MP2 TOTAL ENERGY:     -545.029116265 Eh
FINAL SINGLE POINT ENERGY      -545.029116264855

CARTESIAN COORDINATES (ANGSTROEM)
---------------------------------
  F     -2.327131   -0.216047    0.165104
  B     -1.170948   -0.826369    0.105899
  P      0.423531   -0.039031   -0.555030
  C      1.734143   -0.943726    0.363995
  C      0.443307    1.631019    0.232829
  H      1.671692   -2.002381    0.117475
  H      1.653839   -0.828961    1.443932
  H      2.708862   -0.579225    0.041490
  H     -0.425340    2.194445   -0.104882
  H      1.335914    2.166254   -0.090115
  H      0.436295    1.587835    1.321183

 Multiplicity           Mult            ....    2
 Number of Electrons    NEL             ....   47
 Basis Dimension        Dim             ....  680

ORBITAL ENERGIES
----------------
                 SPIN UP ORBITALS
  NO   OCC          E(Eh)            E(eV)
   0   1.0000     -79.930975     -2175.0324
   1   1.0000     -26.318662      -716.1672
   2   1.0000     -11.233336      -305.6746
   3   1.0000     -11.231050      -305.6124
   4   1.0000      -7.680652      -209.0012
   5   1.0000      -7.475299      -203.4132
   6   1.0000      -5.371293      -146.1603
   7   1.0000      -5.369092      -146.1004
   8   1.0000      -5.368314      -146.0792
   9   1.0000      -1.636051       -44.5192
  10   1.0000      -1.013821       -27.5875
  11   1.0000      -0.948578       -25.8121
  12   1.0000      -0.814589       -22.1661
  13   1.0000      -0.759445       -20.6656
  14   1.0000      -0.709270       -19.3002
  15   1.0000      -0.688815       -18.7436
  16   1.0000      -0.604054       -16.4371
  17   1.0000      -0.593684       -16.1550
  18   1.0000      -0.569141       -15.4871
  19   1.0000      -0.564618       -15.3640
  20   1.0000      -0.509214       -13.8564
  21   1.0000      -0.475891       -12.9496
  22   1.0000      -0.365737        -9.9522
  23   1.0000      -0.312642        -8.5074
  24   0.0000       0.022679         0.6171
  25   0.0000       0.032860         0.8942
  26   0.0000       0.034120         0.9284
  27   0.0000       0.036004         0.9797
  28   0.0000       0.049451         1.3456

                 SPIN DOWN ORBITALS
  NO   OCC          E(Eh)            E(eV)
   0   1.0000     -79.929955     -2175.0046
   1   1.0000     -26.315200      -716.0730
   2   1.0000     -11.232917      -305.6632
   3   1.0000     -11.231130      -305.6146
   4   1.0000      -7.663049      -208.5222
   5   1.0000      -7.473915      -203.3756
   6   1.0000      -5.368633      -146.0879
   7   1.0000      -5.367963      -146.0697
   8   1.0000      -5.366562      -146.0316
   9   1.0000      -1.626852       -44.2689
  10   1.0000      -1.010111       -27.4865
  11   1.0000      -0.947678       -25.7876
  12   1.0000      -0.797982       -21.7142
  13   1.0000      -0.746454       -20.3120
  14   1.0000      -0.688254       -18.7283
  15   1.0000      -0.679870       -18.5002
  16   1.0000      -0.597531       -16.2596
  17   1.0000      -0.592919       -16.1341
  18   1.0000      -0.567487       -15.4421
  19   1.0000      -0.563716       -15.3395
  20   1.0000      -0.478836       -13.0298
  21   1.0000      -0.471119       -12.8198
  22   1.0000      -0.341575        -9.2947
  23   0.0000       0.021452         0.5837
  24   0.0000       0.031525         0.8578
  25   0.0000       0.033535         0.9125
  26   0.0000       0.036376         0.9898
  27   0.0000       0.049423         1.3449

MULLIKEN ATOMIC CHARGES AND SPIN POPULATIONS
--------------------------------------------
   0 F :   -0.732218   -0.000419
   1 B :    0.536271    0.940959
   2 P :    0.536223    0.071727
   3 C :   -1.121853   -0.028091
   4 C :   -1.122826    0.017623
   5 H :    0.362819   -0.006741
   6 H :    0.284631    0.000738
   7 H :    0.319212   -0.004257
   8 H :    0.354030   -0.000481
   9 H :    0.304826    0.007865
  10 H :    0.278886    0.001077
Sum of atomic charges         :   -0.0000000

LOEWDIN ATOMIC CHARGES AND SPIN POPULATIONS
-------------------------------------------
   0 F :    0.664061    0.157414
   1 B :   -0.882498    0.586082
   2 P :    0.923985    0.170009
   3 C :    0.712783    0.026196
   4 C :    0.738478    0.030273
   5 H :   -0.373289    0.009904
   6 H :   -0.351691    0.004517
   7 H :   -0.360903    0.001054
   8 H :   -0.364606    0.003755
   9 H :   -0.358843    0.008006
  10 H :   -0.347477    0.002790

  Mayer bond orders larger than 0.100000
B(  0-F ,  1-B ) :   0.3237 B(  1-B ,  2-P ) :   1.1450 B(  2-P ,  3-C ) :   0.8921
B(  2-P ,  4-C ) :   0.8921 B(  3-C ,  5-H ) :   0.8777 B(  3-C ,  6-H ) :   0.8998
B(  3-C ,  7-H ) :   0.9023 B(  4-C ,  8-H ) :   0.8738 B(  4-C ,  9-H ) :   0.9060
B(  4-C , 10-H ) :   0.9091

MP2 TOTAL ENERGY:     -545.100143610 Eh
FINAL SINGLE POINT ENERGY      -545.100143610143

DIPOLE MOMENT
-------------
                                X             Y             Z
Electronic contribution:     -9.30808      -3.09663      -2.49860
Nuclear contribution   :      9.92920       3.35620       2.92375
                        -----------------------------------------
Total Dipole Moment    :      0.62112       0.25957       0.42515
                        -----------------------------------------
Magnitude (a.u.)       :      0.79619
Magnitude (Debye)      :      2.02375

Rotational constants in cm-1:     0.200790     0.087728     0.069118
Rotational constants in MHz :  6019.519917  2630.033523  2072.098541

                             ****ORCA TERMINATED NORMALLY****
TOTAL RUN TIME: 0 days 1 hours 4 minutes 5 seconds 224 msec
