                         Program Version 5.0.4 -  RELEASE  -
|  1> ! ri-mp2 aug-cc-pvdz aug-cc-pvdz/c tightscf
|  2> %pal nprocs 16 end
|  3> %maxcore 3800
|  4> %base "DZ_S-Cl_54_A"
|  5> %scf
|  6> STABPerform true
|  7> STABRestartUHFifUnstable true
|  8> end
|  9>
| 10> *xyz 0 2
| 11> S        -1.703401   -0.652445    0.000002
| 12> C        -0.110513   -0.155899   -0.000004
| 13> S        -0.000256    1.500275    0.000007
| 14> O         0.871210   -1.020562   -0.000008
| 15> C         2.218048   -0.530633   -0.000007
| 16> H         2.843653   -1.416822   -0.000014
| 17> H         2.399977    0.067604    0.890821
| 18> H         2.399973    0.067616   -0.890829
| 19> *
| 20>
| 21> $new_job
| 22> ! ri-mp2 aug-cc-pvtz aug-cc-pvtz/c tightscf
| 23> %pal nprocs 16 end
| 24> %maxcore 3800
| 25> %base "TZ_S-Cl_54_A"
| 26>
| 27> *xyz 0 2
| 28> S        -1.703401   -0.652445    0.000002
| 29> C        -0.110513   -0.155899   -0.000004
| 30> S        -0.000256    1.500275    0.000007
| 31> O         0.871210   -1.020562   -0.000008
| 32> C         2.218048   -0.530633   -0.000007
| 33> H         2.843653   -1.416822   -0.000014
| 34> H         2.399977    0.067604    0.890821
| 35> H         2.399973    0.067616   -0.890829
| 36> *
| 37>
| 38> $new_job
| 39> ! ri-mp2 aug-cc-pvqz aug-cc-pvqz/c tightscf
| 40> %pal nprocs 16 end
| 41> %maxcore 3800
| 42> %base "QZ_S-Cl_54_A"
| 43>
| 44> *xyz 0 2
| 45> S        -1.703401   -0.652445    0.000002
| 46> C        -0.110513   -0.155899   -0.000004
| 47> S        -0.000256    1.500275    0.000007
| 48> O         0.871210   -1.020562   -0.000008
| 49> C         2.218048   -0.530633   -0.000007
| 50> H         2.843653   -1.416822   -0.000014
| 51> H         2.399977    0.067604    0.890821
| 52> H         2.399973    0.067616   -0.890829
| 53> *
| 54>
| 55>
| 56>
| 57>
| 58>                          ****END OF INPUT****
 Total Charge           Charge          ....    0
 Multiplicity           Mult            ....    2
 Number of Electrons    NEL             ....   55
MP2 TOTAL ENERGY:     -948.127289954 Eh
FINAL SINGLE POINT ENERGY      -948.127289954121
MP2 TOTAL ENERGY:     -948.356806995 Eh
FINAL SINGLE POINT ENERGY      -948.356806994620

CARTESIAN COORDINATES (ANGSTROEM)
---------------------------------
  S     -1.703401   -0.652445    0.000002
  C     -0.110513   -0.155899   -0.000004
  S     -0.000256    1.500275    0.000007
  O      0.871210   -1.020562   -0.000008
  C      2.218048   -0.530633   -0.000007
  H      2.843653   -1.416822   -0.000014
  H      2.399977    0.067604    0.890821
  H      2.399973    0.067616   -0.890829

 Multiplicity           Mult            ....    2
 Number of Electrons    NEL             ....   55
 Basis Dimension        Dim             ....  546

ORBITAL ENERGIES
----------------
                 SPIN UP ORBITALS
  NO   OCC          E(Eh)            E(eV)
   0   1.0000     -92.005026     -2503.5840
   1   1.0000     -91.935274     -2501.6860
   2   1.0000     -20.645333      -561.7881
   3   1.0000     -11.412068      -310.5382
   4   1.0000     -11.307830      -307.7017
   5   1.0000      -9.008350      -245.1297
   6   1.0000      -8.939557      -243.2577
   7   1.0000      -6.702945      -182.3964
   8   1.0000      -6.685662      -181.9261
   9   1.0000      -6.684585      -181.8968
  10   1.0000      -6.622947      -180.2195
  11   1.0000      -6.619739      -180.1322
  12   1.0000      -6.618702      -180.1040
  13   1.0000      -1.481589       -40.3161
  14   1.0000      -1.130368       -30.7589
  15   1.0000      -0.994262       -27.0552
  16   1.0000      -0.965804       -26.2809
  17   1.0000      -0.790073       -21.4990
  18   1.0000      -0.696207       -18.9448
  19   1.0000      -0.690858       -18.7992
  20   1.0000      -0.648971       -17.6594
  21   1.0000      -0.574374       -15.6295
  22   1.0000      -0.557512       -15.1707
  23   1.0000      -0.506474       -13.7819
  24   1.0000      -0.475399       -12.9363
  25   1.0000      -0.448955       -12.2167
  26   1.0000      -0.356846        -9.7103
  27   1.0000      -0.355749        -9.6804
  28   0.0000       0.023175         0.6306
  29   0.0000       0.040764         1.1092
  30   0.0000       0.041733         1.1356
  31   0.0000       0.044472         1.2101
  32   0.0000       0.064213         1.7473

                 SPIN DOWN ORBITALS
  NO   OCC          E(Eh)            E(eV)
   0   1.0000     -91.996181     -2503.3434
   1   1.0000     -91.932939     -2501.6225
   2   1.0000     -20.645727      -561.7988
   3   1.0000     -11.412570      -310.5518
   4   1.0000     -11.307808      -307.7011
   5   1.0000      -8.998538      -244.8627
   6   1.0000      -8.936914      -243.1858
   7   1.0000      -6.681375      -181.8094
   8   1.0000      -6.678868      -181.7412
   9   1.0000      -6.663570      -181.3250
  10   1.0000      -6.618746      -180.1052
  11   1.0000      -6.617147      -180.0617
  12   1.0000      -6.612836      -179.9444
  13   1.0000      -1.482380       -40.3376
  14   1.0000      -1.104697       -30.0603
  15   1.0000      -0.989872       -26.9358
  16   1.0000      -0.917309       -24.9613
  17   1.0000      -0.784573       -21.3493
  18   1.0000      -0.697525       -18.9806
  19   1.0000      -0.680757       -18.5243
  20   1.0000      -0.621493       -16.9117
  21   1.0000      -0.569370       -15.4934
  22   1.0000      -0.557201       -15.1622
  23   1.0000      -0.493029       -13.4160
  24   1.0000      -0.439827       -11.9683
  25   1.0000      -0.345351        -9.3975
  26   1.0000      -0.344313        -9.3692
  27   0.0000      -0.007419        -0.2019
  28   0.0000       0.023246         0.6326
  29   0.0000       0.041539         1.1303
  30   0.0000       0.041661         1.1336
  31   0.0000       0.046416         1.2630

MULLIKEN ATOMIC CHARGES AND SPIN POPULATIONS
--------------------------------------------
   0 S :    0.279145    0.994356
   1 C :   -0.133228   -0.176612
   2 S :   -0.014724    0.200879
   3 O :   -0.580865   -0.014023
   4 C :   -0.608202   -0.004950
   5 H :    0.464028    0.001894
   6 H :    0.296924   -0.000771
   7 H :    0.296923   -0.000771
Sum of atomic charges         :   -0.0000000

LOEWDIN ATOMIC CHARGES AND SPIN POPULATIONS
-------------------------------------------
   0 S :    0.937673    0.630072
   1 C :   -2.015113    0.197395
   2 S :    0.882261    0.162264
   3 O :    0.673391    0.004223
   4 C :    0.520532    0.003261
   5 H :   -0.321034   -0.000137
   6 H :   -0.338855    0.001460
   7 H :   -0.338854    0.001460

  Mayer bond orders larger than 0.100000
B(  0-S ,  1-C ) :   0.9634 B(  0-S ,  2-S ) :   0.1828 B(  1-C ,  2-S ) :   1.6018
B(  1-C ,  3-O ) :   1.0458 B(  3-O ,  4-C ) :   0.8123 B(  4-C ,  5-H ) :   0.7594
B(  4-C ,  6-H ) :   0.9161 B(  4-C ,  7-H ) :   0.9161

MP2 TOTAL ENERGY:     -948.432322823 Eh
FINAL SINGLE POINT ENERGY      -948.432322823007

DIPOLE MOMENT
-------------
                                X             Y             Z
Electronic contribution:     -6.60526       0.56598       0.00002
Nuclear contribution   :      7.43141      -1.27603      -0.00002
                        -----------------------------------------
Total Dipole Moment    :      0.82615      -0.71005      -0.00000
                        -----------------------------------------
Magnitude (a.u.)       :      1.08936
Magnitude (Debye)      :      2.76893

Rotational constants in cm-1:     0.153853     0.090919     0.057774
Rotational constants in MHz :  4612.407691  2725.685787  1732.035330

                             ****ORCA TERMINATED NORMALLY****
TOTAL RUN TIME: 0 days 0 hours 36 minutes 12 seconds 623 msec
