                         Program Version 5.0.4 -  RELEASE  -
|  1> ! ri-mp2 aug-cc-pvdz aug-cc-pvdz/c tightscf
|  2> %pal nprocs 16 end
|  3> %maxcore 3800
|  4> %base "DZ_B-Si_35_AB"
|  5> %scf
|  6> STABPerform true
|  7> STABRestartUHFifUnstable true
|  8> end
|  9>
| 10> *xyz 0 1
| 11> C         0.242792   -0.000002   -0.622312
| 12> C        -0.367495   -1.259964    0.002190
| 13> C        -1.890433   -1.257963   -0.080423
| 14> C        -2.480438    0.000003    0.544841
| 15> C        -1.890429    1.257967   -0.080423
| 16> C        -0.367491    1.259962    0.002191
| 17> B         2.844388    0.000003    1.371165
| 18> H        -0.071515   -1.320560    1.055907
| 19> H         0.030669   -2.154491   -0.482535
| 20> H        -2.293713   -2.148356    0.406671
| 21> H        -2.190617   -1.312619   -1.131885
| 22> H        -2.268427    0.000003    1.619302
| 23> H        -3.567375    0.000005    0.442161
| 24> H        -2.293707    2.148361    0.406671
| 25> H        -2.190613    1.312624   -1.131886
| 26> H         0.030676    2.154489   -0.482534
| 27> H        -0.071512    1.320556    1.055908
| 28> Si         2.120296   -0.000002   -0.501180
| 29> H        -0.006987   -0.000001   -1.690695
| 30> H         2.664741    1.196798   -1.199015
| 31> H         2.664739   -1.196825   -1.198978
| 32> H         4.022588    0.000057    1.550944
| 33> H         2.155937   -0.000055    2.344276
| 34> *
| 35>
| 36> $new_job
| 37> ! ri-mp2 aug-cc-pvtz aug-cc-pvtz/c tightscf
| 38> %pal nprocs 16 end
| 39> %maxcore 3800
| 40> %base "TZ_B-Si_35_AB"
| 41>
| 42> *xyz 0 1
| 43> C         0.242792   -0.000002   -0.622312
| 44> C        -0.367495   -1.259964    0.002190
| 45> C        -1.890433   -1.257963   -0.080423
| 46> C        -2.480438    0.000003    0.544841
| 47> C        -1.890429    1.257967   -0.080423
| 48> C        -0.367491    1.259962    0.002191
| 49> B         2.844388    0.000003    1.371165
| 50> H        -0.071515   -1.320560    1.055907
| 51> H         0.030669   -2.154491   -0.482535
| 52> H        -2.293713   -2.148356    0.406671
| 53> H        -2.190617   -1.312619   -1.131885
| 54> H        -2.268427    0.000003    1.619302
| 55> H        -3.567375    0.000005    0.442161
| 56> H        -2.293707    2.148361    0.406671
| 57> H        -2.190613    1.312624   -1.131886
| 58> H         0.030676    2.154489   -0.482534
| 59> H        -0.071512    1.320556    1.055908
| 60> Si         2.120296   -0.000002   -0.501180
| 61> H        -0.006987   -0.000001   -1.690695
| 62> H         2.664741    1.196798   -1.199015
| 63> H         2.664739   -1.196825   -1.198978
| 64> H         4.022588    0.000057    1.550944
| 65> H         2.155937   -0.000055    2.344276
| 66> *
| 67>
| 68> $new_job
| 69> ! ri-mp2 aug-cc-pvqz aug-cc-pvqz/c tightscf
| 70> %pal nprocs 16 end
| 71> %maxcore 3800
| 72> %base "QZ_B-Si_35_AB"
| 73>
| 74> *xyz 0 1
| 75> C         0.242792   -0.000002   -0.622312
| 76> C        -0.367495   -1.259964    0.002190
| 77> C        -1.890433   -1.257963   -0.080423
| 78> C        -2.480438    0.000003    0.544841
| 79> C        -1.890429    1.257967   -0.080423
| 80> C        -0.367491    1.259962    0.002191
| 81> B         2.844388    0.000003    1.371165
| 82> H        -0.071515   -1.320560    1.055907
| 83> H         0.030669   -2.154491   -0.482535
| 84> H        -2.293713   -2.148356    0.406671
| 85> H        -2.190617   -1.312619   -1.131885
| 86> H        -2.268427    0.000003    1.619302
| 87> H        -3.567375    0.000005    0.442161
| 88> H        -2.293707    2.148361    0.406671
| 89> H        -2.190613    1.312624   -1.131886
| 90> H         0.030676    2.154489   -0.482534
| 91> H        -0.071512    1.320556    1.055908
| 92> Si         2.120296   -0.000002   -0.501180
| 93> H        -0.006987   -0.000001   -1.690695
| 94> H         2.664741    1.196798   -1.199015
| 95> H         2.664739   -1.196825   -1.198978
| 96> H         4.022588    0.000057    1.550944
| 97> H         2.155937   -0.000055    2.344276
| 98> *
| 99>
|100>
|101>
|102>
|103>                          ****END OF INPUT****
 Total Charge           Charge          ....    0
 Multiplicity           Mult            ....    1
 Number of Electrons    NEL             ....   70
MP2 TOTAL ENERGY:     -550.632399264 Eh
FINAL SINGLE POINT ENERGY      -550.632399264104
MP2 TOTAL ENERGY:     -550.914934518 Eh
FINAL SINGLE POINT ENERGY      -550.914934517589

CARTESIAN COORDINATES (ANGSTROEM)
---------------------------------
  C      0.242792   -0.000002   -0.622312
  C     -0.367495   -1.259964    0.002190
  C     -1.890433   -1.257963   -0.080423
  C     -2.480438    0.000003    0.544841
  C     -1.890429    1.257967   -0.080423
  C     -0.367491    1.259962    0.002191
  B      2.844388    0.000003    1.371165
  H     -0.071515   -1.320560    1.055907
  H      0.030669   -2.154491   -0.482535
  H     -2.293713   -2.148356    0.406671
  H     -2.190617   -1.312619   -1.131885
  H     -2.268427    0.000003    1.619302
  H     -3.567375    0.000005    0.442161
  H     -2.293707    2.148361    0.406671
  H     -2.190613    1.312624   -1.131886
  H      0.030676    2.154489   -0.482534
  H     -0.071512    1.320556    1.055908
  Si     2.120296   -0.000002   -0.501180
  H     -0.006987   -0.000001   -1.690695
  H      2.664741    1.196798   -1.199015
  H      2.664739   -1.196825   -1.198978
  H      4.022588    0.000057    1.550944
  H      2.155937   -0.000055    2.344276

 Multiplicity           Mult            ....    1
 Number of Electrons    NEL             ....   70
 Basis Dimension        Dim             .... 1334

ORBITAL ENERGIES
----------------

  NO   OCC          E(Eh)            E(eV)
   0   2.0000     -68.741949     -1870.5635
   1   2.0000     -11.217741      -305.2502
   2   2.0000     -11.217735      -305.2501
   3   2.0000     -11.212791      -305.1156
   4   2.0000     -11.212508      -305.1078
   5   2.0000     -11.211825      -305.0893
   6   2.0000     -11.205775      -304.9247
   7   2.0000      -7.604948      -206.9411
   8   2.0000      -6.094123      -165.8295
   9   2.0000      -4.200540      -114.3025
  10   2.0000      -4.200226      -114.2939
  11   2.0000      -4.199619      -114.2774
  12   2.0000      -1.116832       -30.3905
  13   2.0000      -1.005217       -27.3533
  14   2.0000      -1.003145       -27.2970
  15   2.0000      -0.832122       -22.6432
  16   2.0000      -0.830072       -22.5874
  17   2.0000      -0.754312       -20.5259
  18   2.0000      -0.729032       -19.8380
  19   2.0000      -0.656973       -17.8771
  20   2.0000      -0.625243       -17.0137
  21   2.0000      -0.602405       -16.3923
  22   2.0000      -0.600528       -16.3412
  23   2.0000      -0.587032       -15.9739
  24   2.0000      -0.530734       -14.4420
  25   2.0000      -0.524118       -14.2620
  26   2.0000      -0.505525       -13.7560
  27   2.0000      -0.488060       -13.2808
  28   2.0000      -0.483645       -13.1607
  29   2.0000      -0.480237       -13.0679
  30   2.0000      -0.463582       -12.6147
  31   2.0000      -0.452051       -12.3009
  32   2.0000      -0.428211       -11.6522
  33   2.0000      -0.408679       -11.1207
  34   2.0000      -0.386258       -10.5106
  35   0.0000       0.022855         0.6219
  36   0.0000       0.026880         0.7314
  37   0.0000       0.026886         0.7316
  38   0.0000       0.028688         0.7806
  39   0.0000       0.035891         0.9766

MULLIKEN ATOMIC CHARGES
-----------------------
   0 C :    0.228613
   1 C :   -0.412382
   2 C :   -0.515452
   3 C :   -0.435136
   4 C :   -0.515452
   5 C :   -0.412366
   6 B :    0.415153
   7 H :    0.134797
   8 H :    0.248885
   9 H :    0.223842
  10 H :    0.131601
  11 H :    0.124539
  12 H :    0.257678
  13 H :    0.223838
  14 H :    0.131591
  15 H :    0.248892
  16 H :    0.134793
  17 Si:    0.685060
  18 H :    0.294088
  19 H :   -0.326119
  20 H :   -0.326113
  21 H :   -0.351476
  22 H :   -0.188873
Sum of atomic charges:   -0.0000000

LOEWDIN ATOMIC CHARGES
----------------------
   0 C :    0.102683
   1 C :    0.458312
   2 C :    0.539361
   3 C :    0.533469
   4 C :    0.539360
   5 C :    0.458312
   6 B :    0.387863
   7 H :   -0.279462
   8 H :   -0.267412
   9 H :   -0.256530
  10 H :   -0.261538
  11 H :   -0.261757
  12 H :   -0.258451
  13 H :   -0.256530
  14 H :   -0.261536
  15 H :   -0.267410
  16 H :   -0.279461
  17 Si:    0.873932
  18 H :   -0.320527
  19 H :   -0.215426
  20 H :   -0.215425
  21 H :   -0.254416
  22 H :   -0.237409

  Mayer bond orders larger than 0.100000
B(  0-C ,  1-C ) :   0.7344 B(  0-C ,  5-C ) :   0.7344 B(  0-C , 17-Si) :   0.6903
B(  0-C , 18-H ) :   0.8960 B(  0-C , 19-H ) :  -0.1155 B(  0-C , 20-H ) :  -0.1155
B(  1-C ,  2-C ) :   0.8125 B(  1-C ,  7-H ) :   0.9859 B(  1-C ,  8-H ) :   0.9487
B(  2-C ,  3-C ) :   0.8983 B(  2-C ,  9-H ) :   1.0012 B(  2-C , 10-H ) :   1.0470
B(  3-C ,  4-C ) :   0.8983 B(  3-C , 11-H ) :   1.0449 B(  3-C , 12-H ) :   0.9540
B(  4-C ,  5-C ) :   0.8125 B(  4-C , 13-H ) :   1.0012 B(  4-C , 14-H ) :   1.0470
B(  5-C , 15-H ) :   0.9486 B(  5-C , 16-H ) :   0.9859 B(  6-B , 17-Si) :   0.8294
B(  6-B , 21-H ) :   0.8592 B(  6-B , 22-H ) :   0.9019 B( 17-Si, 19-H ) :   0.7667
B( 17-Si, 20-H ) :   0.7668

MP2 TOTAL ENERGY:     -551.000898679 Eh
FINAL SINGLE POINT ENERGY      -551.000898678521

DIPOLE MOMENT
-------------
                                X             Y             Z
Electronic contribution:      5.71902       0.00002      -0.42026
Nuclear contribution   :     -6.05373      -0.00002       0.51076
                        -----------------------------------------
Total Dipole Moment    :     -0.33471       0.00001       0.09051
                        -----------------------------------------
Magnitude (a.u.)       :      0.34673
Magnitude (Debye)      :      0.88133

Rotational constants in cm-1:     0.103641     0.033136     0.030349
Rotational constants in MHz :  3107.073038   993.386372   909.827812

                             ****ORCA TERMINATED NORMALLY****
TOTAL RUN TIME: 0 days 6 hours 57 minutes 43 seconds 309 msec
