                         Program Version 5.0.4 -  RELEASE  -
|  1> ! ri-mp2 aug-cc-pvdz aug-cc-pvdz/c tightscf
|  2> %pal nprocs 16 end
|  3> %maxcore 3800
|  4> %base "DZ_B-Cl_30_AB"
|  5> %scf
|  6> STABPerform true
|  7> STABRestartUHFifUnstable true
|  8> end
|  9>
| 10> *xyz 0 1
| 11> Cl         0.827289    1.510234   -0.000000
| 12> Cl         0.827297   -1.510230   -0.000000
| 13> B        -0.011210   -0.000000    0.000000
| 14> C        -1.542429   -0.000004    0.000001
| 15> N        -2.688192   -0.000006   -0.000000
| 16> *
| 17>
| 18> $new_job
| 19> ! ri-mp2 aug-cc-pvtz aug-cc-pvtz/c tightscf
| 20> %pal nprocs 16 end
| 21> %maxcore 3800
| 22> %base "TZ_B-Cl_30_AB"
| 23>
| 24> *xyz 0 1
| 25> Cl         0.827289    1.510234   -0.000000
| 26> Cl         0.827297   -1.510230   -0.000000
| 27> B        -0.011210   -0.000000    0.000000
| 28> C        -1.542429   -0.000004    0.000001
| 29> N        -2.688192   -0.000006   -0.000000
| 30> *
| 31>
| 32> $new_job
| 33> ! ri-mp2 aug-cc-pvqz aug-cc-pvqz/c tightscf
| 34> %pal nprocs 16 end
| 35> %maxcore 3800
| 36> %base "QZ_B-Cl_30_AB"
| 37>
| 38> *xyz 0 1
| 39> Cl         0.827289    1.510234   -0.000000
| 40> Cl         0.827297   -1.510230   -0.000000
| 41> B        -0.011210   -0.000000    0.000000
| 42> C        -1.542429   -0.000004    0.000001
| 43> N        -2.688192   -0.000006   -0.000000
| 44> *
| 45>
| 46>
| 47>
| 48>
| 49>                          ****END OF INPUT****
 Total Charge           Charge          ....    0
 Multiplicity           Mult            ....    1
 Number of Electrons    NEL             ....   52
MP2 TOTAL ENERGY:    -1036.763436884 Eh
FINAL SINGLE POINT ENERGY     -1036.763436883945
MP2 TOTAL ENERGY:    -1036.976248316 Eh
FINAL SINGLE POINT ENERGY     -1036.976248316180

CARTESIAN COORDINATES (ANGSTROEM)
---------------------------------
  Cl     0.827289    1.510234   -0.000000
  Cl     0.827297   -1.510230   -0.000000
  B     -0.011210   -0.000000    0.000000
  C     -1.542429   -0.000004    0.000001
  N     -2.688192   -0.000006   -0.000000

 Multiplicity           Mult            ....    1
 Number of Electrons    NEL             ....   52
 Basis Dimension        Dim             ....  408

ORBITAL ENERGIES
----------------

  NO   OCC          E(Eh)            E(eV)
   0   2.0000    -104.877443     -2853.8603
   1   2.0000    -104.877443     -2853.8603
   2   2.0000     -15.609269      -424.7498
   3   2.0000     -11.278701      -306.9091
   4   2.0000     -10.605097      -288.5793
   5   2.0000     -10.605088      -288.5791
   6   2.0000      -8.071906      -219.6477
   7   2.0000      -8.071905      -219.6477
   8   2.0000      -8.070762      -219.6166
   9   2.0000      -8.070761      -219.6166
  10   2.0000      -8.070456      -219.6083
  11   2.0000      -8.070456      -219.6083
  12   2.0000      -7.769933      -211.4306
  13   2.0000      -1.251503       -34.0551
  14   2.0000      -1.181969       -32.1630
  15   2.0000      -1.138595       -30.9827
  16   2.0000      -0.833044       -22.6683
  17   2.0000      -0.668992       -18.2042
  18   2.0000      -0.622269       -16.9328
  19   2.0000      -0.593017       -16.1368
  20   2.0000      -0.563137       -15.3237
  21   2.0000      -0.509905       -13.8752
  22   2.0000      -0.509899       -13.8751
  23   2.0000      -0.499309       -13.5869
  24   2.0000      -0.499023       -13.5791
  25   2.0000      -0.482815       -13.1381
  26   0.0000       0.021098         0.5741
  27   0.0000       0.029460         0.8016
  28   0.0000       0.034296         0.9332
  29   0.0000       0.035210         0.9581
  30   0.0000       0.038997         1.0612

MULLIKEN ATOMIC CHARGES
-----------------------
   0 Cl:   -0.124252
   1 Cl:   -0.124253
   2 B :    0.568745
   3 C :    0.176317
   4 N :   -0.496557
Sum of atomic charges:    0.0000000

LOEWDIN ATOMIC CHARGES
----------------------
   0 Cl:    1.267309
   1 Cl:    1.267309
   2 B :   -2.494593
   3 C :   -0.422654
   4 N :    0.382629

  Mayer bond orders larger than 0.100000
B(  0-Cl,  2-B ) :   1.1904 B(  1-Cl,  2-B ) :   1.1904 B(  2-B ,  3-C ) :   0.9351
B(  3-C ,  4-N ) :   2.6010

MP2 TOTAL ENERGY:    -1037.048314906 Eh
FINAL SINGLE POINT ENERGY     -1037.048314906069

DIPOLE MOMENT
-------------
                                X             Y             Z
Electronic contribution:      3.12774       0.00001      -0.00000
Nuclear contribution   :     -2.15191      -0.00001       0.00000
                        -----------------------------------------
Total Dipole Moment    :      0.97583       0.00000       0.00000
                        -----------------------------------------
Magnitude (a.u.)       :      0.97583
Magnitude (Debye)      :      2.48037

Rotational constants in cm-1:     0.104238     0.094560     0.049582
Rotational constants in MHz :  3124.980281  2834.849972  1486.426607

                             ****ORCA TERMINATED NORMALLY****
TOTAL RUN TIME: 0 days 0 hours 6 minutes 47 seconds 209 msec
