                         Program Version 5.0.4 -  RELEASE  -
|  1> ! ri-mp2 aug-cc-pvdz aug-cc-pvdz/c tightscf
|  2> %pal nprocs 16 end
|  3> %maxcore 3800
|  4> %base "DZ_Si-Si_29_AB"
|  5> %scf
|  6> STABPerform true
|  7> STABRestartUHFifUnstable true
|  8> end
|  9>
| 10> *xyz 0 1
| 11> Si        -1.354308   -0.118499   -0.000002
| 12> Si         0.904576    0.429598   -0.000003
| 13> F         1.244708    1.297398    1.272513
| 14> F         1.244714    1.297368   -1.272537
| 15> F        -2.257457    1.170215   -0.000036
| 16> F        -1.714111   -0.969316   -1.274265
| 17> Cl         2.062511   -1.223121    0.000019
| 18> F        -1.714124   -0.969257    1.274296
| 19> *
| 20>
| 21> $new_job
| 22> ! ri-mp2 aug-cc-pvtz aug-cc-pvtz/c tightscf
| 23> %pal nprocs 16 end
| 24> %maxcore 3800
| 25> %base "TZ_Si-Si_29_AB"
| 26>
| 27> *xyz 0 1
| 28> Si        -1.354308   -0.118499   -0.000002
| 29> Si         0.904576    0.429598   -0.000003
| 30> F         1.244708    1.297398    1.272513
| 31> F         1.244714    1.297368   -1.272537
| 32> F        -2.257457    1.170215   -0.000036
| 33> F        -1.714111   -0.969316   -1.274265
| 34> Cl         2.062511   -1.223121    0.000019
| 35> F        -1.714124   -0.969257    1.274296
| 36> *
| 37>
| 38> $new_job
| 39> ! ri-mp2 aug-cc-pvqz aug-cc-pvqz/c tightscf
| 40> %pal nprocs 16 end
| 41> %maxcore 3800
| 42> %base "QZ_Si-Si_29_AB"
| 43>
| 44> *xyz 0 1
| 45> Si        -1.354308   -0.118499   -0.000002
| 46> Si         0.904576    0.429598   -0.000003
| 47> F         1.244708    1.297398    1.272513
| 48> F         1.244714    1.297368   -1.272537
| 49> F        -2.257457    1.170215   -0.000036
| 50> F        -1.714111   -0.969316   -1.274265
| 51> Cl         2.062511   -1.223121    0.000019
| 52> F        -1.714124   -0.969257    1.274296
| 53> *
| 54>
| 55>
| 56>
| 57>
| 58>                          ****END OF INPUT****
 Total Charge           Charge          ....    0
 Multiplicity           Mult            ....    1
 Number of Electrons    NEL             ....   90
MP2 TOTAL ENERGY:    -1536.342037858 Eh
FINAL SINGLE POINT ENERGY     -1536.342037857628
MP2 TOTAL ENERGY:    -1536.917668583 Eh
FINAL SINGLE POINT ENERGY     -1536.917668583310

CARTESIAN COORDINATES (ANGSTROEM)
---------------------------------
  Si    -1.354308   -0.118499   -0.000002
  Si     0.904576    0.429598   -0.000003
  F      1.244708    1.297398    1.272513
  F      1.244714    1.297368   -1.272537
  F     -2.257457    1.170215   -0.000036
  F     -1.714111   -0.969316   -1.274265
  Cl     2.062511   -1.223121    0.000019
  F     -1.714124   -0.969257    1.274296

 Multiplicity           Mult            ....    1
 Number of Electrons    NEL             ....   90
 Basis Dimension        Dim             ....  652

ORBITAL ENERGIES
----------------

  NO   OCC          E(Eh)            E(eV)
   0   2.0000    -104.869486     -2853.6438
   1   2.0000     -68.915374     -1875.2827
   2   2.0000     -68.908958     -1875.1081
   3   2.0000     -26.331331      -716.5119
   4   2.0000     -26.331323      -716.5117
   5   2.0000     -26.331283      -716.5106
   6   2.0000     -26.331274      -716.5104
   7   2.0000     -26.331271      -716.5103
   8   2.0000     -10.597169      -288.3636
   9   2.0000      -8.063928      -219.4306
  10   2.0000      -8.062745      -219.3985
  11   2.0000      -8.062735      -219.3982
  12   2.0000      -6.250517      -170.0852
  13   2.0000      -6.244080      -169.9101
  14   2.0000      -4.358639      -118.6046
  15   2.0000      -4.358621      -118.6041
  16   2.0000      -4.357355      -118.5697
  17   2.0000      -4.352633      -118.4412
  18   2.0000      -4.352630      -118.4411
  19   2.0000      -4.351226      -118.4029
  20   2.0000      -1.656824       -45.0845
  21   2.0000      -1.647522       -44.8313
  22   2.0000      -1.628779       -44.3213
  23   2.0000      -1.628606       -44.3166
  24   2.0000      -1.628047       -44.3014
  25   2.0000      -1.143230       -31.1089
  26   2.0000      -0.853218       -23.2172
  27   2.0000      -0.823152       -22.3991
  28   2.0000      -0.767740       -20.8913
  29   2.0000      -0.767267       -20.8784
  30   2.0000      -0.757712       -20.6184
  31   2.0000      -0.753680       -20.5087
  32   2.0000      -0.730542       -19.8791
  33   2.0000      -0.722940       -19.6722
  34   2.0000      -0.716117       -19.4865
  35   2.0000      -0.715840       -19.4790
  36   2.0000      -0.701325       -19.0840
  37   2.0000      -0.690274       -18.7833
  38   2.0000      -0.689766       -18.7695
  39   2.0000      -0.682848       -18.5812
  40   2.0000      -0.672828       -18.3086
  41   2.0000      -0.617919       -16.8144
  42   2.0000      -0.531379       -14.4596
  43   2.0000      -0.513233       -13.9658
  44   2.0000      -0.486222       -13.2308
  45   0.0000       0.031517         0.8576
  46   0.0000       0.034477         0.9382
  47   0.0000       0.038455         1.0464
  48   0.0000       0.039670         1.0795
  49   0.0000       0.054594         1.4856

MULLIKEN ATOMIC CHARGES
-----------------------
   0 Si:    2.122965
   1 Si:    1.923786
   2 F :   -0.716917
   3 F :   -0.716917
   4 F :   -0.698448
   5 F :   -0.694334
   6 Cl:   -0.525801
   7 F :   -0.694334
Sum of atomic charges:    0.0000000

LOEWDIN ATOMIC CHARGES
----------------------
   0 Si:   -1.317102
   1 Si:   -1.616363
   2 F :    0.378098
   3 F :    0.378098
   4 F :    0.412388
   5 F :    0.410884
   6 Cl:    0.943112
   7 F :    0.410885

  Mayer bond orders larger than 0.100000
B(  0-Si,  1-Si) :   1.0028 B(  0-Si,  4-F ) :   0.4480 B(  0-Si,  5-F ) :   0.4470
B(  0-Si,  7-F ) :   0.4470 B(  1-Si,  2-F ) :   0.4202 B(  1-Si,  3-F ) :   0.4202
B(  1-Si,  6-Cl) :   0.6325

MP2 TOTAL ENERGY:    -1537.111725443 Eh
FINAL SINGLE POINT ENERGY     -1537.111725443389

DIPOLE MOMENT
-------------
                                X             Y             Z
Electronic contribution:     -0.03773      -0.08561       0.00000
Nuclear contribution   :      0.21119      -0.06591       0.00000
                        -----------------------------------------
Total Dipole Moment    :      0.17346      -0.15152       0.00000
                        -----------------------------------------
Magnitude (a.u.)       :      0.23032
Magnitude (Debye)      :      0.58542

Rotational constants in cm-1:     0.054820     0.027373     0.024903
Rotational constants in MHz :  1643.456811   820.608755   746.588023

                             ****ORCA TERMINATED NORMALLY****
TOTAL RUN TIME: 0 days 0 hours 24 minutes 23 seconds 363 msec
