                         Program Version 5.0.4 -  RELEASE  -
|  1> ! ri-mp2 aug-cc-pvdz aug-cc-pvdz/c tightscf
|  2> %pal nprocs 16 end
|  3> %maxcore 3800
|  4> %base "DZ_B-Cl_22_A"
|  5> %scf
|  6> STABPerform true
|  7> STABRestartUHFifUnstable true
|  8> end
|  9>
| 10> *xyz 0 2
| 11> Cl         2.437044   -0.000006    0.044999
| 12> B         0.920414   -0.562442    0.546233
| 13> P        -0.812009   -0.088404   -0.078321
| 14> O        -1.234037   -1.009351   -1.135271
| 15> O        -1.803657   -0.057122    1.175974
| 16> H        -2.259884   -0.898323    1.297892
| 17> O        -0.716902    1.460441   -0.413511
| 18> H        -1.555024    1.884948   -0.636750
| 19> *
| 20>
| 21> $new_job
| 22> ! ri-mp2 aug-cc-pvtz aug-cc-pvtz/c tightscf
| 23> %pal nprocs 16 end
| 24> %maxcore 3800
| 25> %base "TZ_B-Cl_22_A"
| 26>
| 27> *xyz 0 2
| 28> Cl         2.437044   -0.000006    0.044999
| 29> B         0.920414   -0.562442    0.546233
| 30> P        -0.812009   -0.088404   -0.078321
| 31> O        -1.234037   -1.009351   -1.135271
| 32> O        -1.803657   -0.057122    1.175974
| 33> H        -2.259884   -0.898323    1.297892
| 34> O        -0.716902    1.460441   -0.413511
| 35> H        -1.555024    1.884948   -0.636750
| 36> *
| 37>
| 38> $new_job
| 39> ! ri-mp2 aug-cc-pvqz aug-cc-pvqz/c tightscf
| 40> %pal nprocs 16 end
| 41> %maxcore 3800
| 42> %base "QZ_B-Cl_22_A"
| 43>
| 44> *xyz 0 2
| 45> Cl         2.437044   -0.000006    0.044999
| 46> B         0.920414   -0.562442    0.546233
| 47> P        -0.812009   -0.088404   -0.078321
| 48> O        -1.234037   -1.009351   -1.135271
| 49> O        -1.803657   -0.057122    1.175974
| 50> H        -2.259884   -0.898323    1.297892
| 51> O        -0.716902    1.460441   -0.413511
| 52> H        -1.555024    1.884948   -0.636750
| 53> *
| 54>
| 55>
| 56>
| 57>
| 58>                          ****END OF INPUT****
 Total Charge           Charge          ....    0
 Multiplicity           Mult            ....    2
 Number of Electrons    NEL             ....   63
MP2 TOTAL ENERGY:    -1051.683088581 Eh
FINAL SINGLE POINT ENERGY     -1051.683088580562
MP2 TOTAL ENERGY:    -1052.026882805 Eh
FINAL SINGLE POINT ENERGY     -1052.026882805021

CARTESIAN COORDINATES (ANGSTROEM)
---------------------------------
  Cl     2.437044   -0.000006    0.044999
  B      0.920414   -0.562442    0.546233
  P     -0.812009   -0.088404   -0.078321
  O     -1.234037   -1.009351   -1.135271
  O     -1.803657   -0.057122    1.175974
  H     -2.259884   -0.898323    1.297892
  O     -0.716902    1.460441   -0.413511
  H     -1.555024    1.884948   -0.636750

 Multiplicity           Mult            ....    2
 Number of Electrons    NEL             ....   63
 Basis Dimension        Dim             ....  580

ORBITAL ENERGIES
----------------
                 SPIN UP ORBITALS
  NO   OCC          E(Eh)            E(eV)
   0   1.0000    -104.871416     -2853.6963
   1   1.0000     -80.074808     -2178.9463
   2   1.0000     -20.611044      -560.8550
   3   1.0000     -20.609572      -560.8150
   4   1.0000     -20.514971      -558.2407
   5   1.0000     -10.598801      -288.4080
   6   1.0000      -8.066323      -219.4958
   7   1.0000      -8.064521      -219.4468
   8   1.0000      -8.063969      -219.4318
   9   1.0000      -7.708768      -209.7662
  10   1.0000      -7.598289      -206.7600
  11   1.0000      -5.496494      -149.5672
  12   1.0000      -5.495633      -149.5438
  13   1.0000      -5.494814      -149.5215
  14   1.0000      -1.448476       -39.4150
  15   1.0000      -1.393908       -37.9302
  16   1.0000      -1.307562       -35.5806
  17   1.0000      -1.155790       -31.4507
  18   1.0000      -0.882477       -24.0134
  19   1.0000      -0.770069       -20.9546
  20   1.0000      -0.728889       -19.8341
  21   1.0000      -0.674580       -18.3562
  22   1.0000      -0.648897       -17.6574
  23   1.0000      -0.617473       -16.8023
  24   1.0000      -0.584390       -15.9021
  25   1.0000      -0.574192       -15.6246
  26   1.0000      -0.547468       -14.8974
  27   1.0000      -0.524450       -14.2710
  28   1.0000      -0.515285       -14.0216
  29   1.0000      -0.477057       -12.9814
  30   1.0000      -0.466031       -12.6813
  31   1.0000      -0.359348        -9.7783
  32   0.0000       0.021494         0.5849
  33   0.0000       0.030425         0.8279
  34   0.0000       0.031685         0.8622
  35   0.0000       0.034598         0.9415
  36   0.0000       0.047276         1.2865

                 SPIN DOWN ORBITALS
  NO   OCC          E(Eh)            E(eV)
   0   1.0000    -104.870763     -2853.6785
   1   1.0000     -80.074262     -2178.9314
   2   1.0000     -20.610241      -560.8332
   3   1.0000     -20.609994      -560.8265
   4   1.0000     -20.514757      -558.2349
   5   1.0000     -10.598053      -288.3877
   6   1.0000      -8.065298      -219.4679
   7   1.0000      -8.064425      -219.4442
   8   1.0000      -8.061804      -219.3728
   9   1.0000      -7.689093      -209.2309
  10   1.0000      -7.597403      -206.7358
  11   1.0000      -5.496076      -149.5558
  12   1.0000      -5.494842      -149.5223
  13   1.0000      -5.493577      -149.4878
  14   1.0000      -1.447443       -39.3869
  15   1.0000      -1.393279       -37.9131
  16   1.0000      -1.306972       -35.5645
  17   1.0000      -1.147981       -31.2381
  18   1.0000      -0.873831       -23.7782
  19   1.0000      -0.766137       -20.8476
  20   1.0000      -0.704482       -19.1699
  21   1.0000      -0.672480       -18.2991
  22   1.0000      -0.640777       -17.4364
  23   1.0000      -0.612129       -16.6569
  24   1.0000      -0.582631       -15.8542
  25   1.0000      -0.572922       -15.5900
  26   1.0000      -0.530726       -14.4418
  27   1.0000      -0.517769       -14.0892
  28   1.0000      -0.500687       -13.6244
  29   1.0000      -0.473635       -12.8883
  30   1.0000      -0.452918       -12.3245
  31   0.0000       0.020197         0.5496
  32   0.0000       0.027882         0.7587
  33   0.0000       0.033888         0.9221
  34   0.0000       0.040639         1.1059
  35   0.0000       0.050494         1.3740

MULLIKEN ATOMIC CHARGES AND SPIN POPULATIONS
--------------------------------------------
   0 Cl:   -0.157371    0.022312
   1 B :    0.074813    0.964580
   2 P :    2.174603    0.008526
   3 O :   -1.113627    0.003830
   4 O :   -0.841289   -0.009693
   5 H :    0.377928    0.000006
   6 O :   -0.879641    0.002456
   7 H :    0.364585    0.007983
Sum of atomic charges         :    0.0000000

LOEWDIN ATOMIC CHARGES AND SPIN POPULATIONS
-------------------------------------------
   0 Cl:    1.202241    0.184428
   1 B :   -1.142730    0.599882
   2 P :   -0.722184    0.169432
   3 O :    0.262419    0.012791
   4 O :    1.062733    0.004191
   5 H :   -0.872496    0.003288
   6 O :    1.052842    0.022450
   7 H :   -0.842826    0.003538

  Mayer bond orders larger than 0.100000
B(  0-Cl,  1-B ) :   1.2215 B(  1-B ,  2-P ) :   0.9228 B(  2-P ,  3-O ) :   1.4007
B(  2-P ,  4-O ) :   0.6894 B(  2-P ,  6-O ) :   0.6108 B(  4-O ,  5-H ) :   0.9090
B(  6-O ,  7-H ) :   0.8954

MP2 TOTAL ENERGY:    -1052.140768293 Eh
FINAL SINGLE POINT ENERGY     -1052.140768292529

DIPOLE MOMENT
-------------
                                X             Y             Z
Electronic contribution:      6.61042      -0.90461       0.62303
Nuclear contribution   :     -6.81459       1.42285       0.20951
                        -----------------------------------------
Total Dipole Moment    :     -0.20417       0.51823       0.83254
                        -----------------------------------------
Magnitude (a.u.)       :      1.00168
Magnitude (Debye)      :      2.54608

Rotational constants in cm-1:     0.153861     0.044075     0.043111
Rotational constants in MHz :  4612.647962  1321.346731  1292.425698

                             ****ORCA TERMINATED NORMALLY****
TOTAL RUN TIME: 0 days 0 hours 46 minutes 38 seconds 252 msec
