                         Program Version 5.0.4 -  RELEASE  -
|  1> ! ri-mp2 aug-cc-pvdz aug-cc-pvdz/c tightscf
|  2> %pal nprocs 16 end
|  3> %maxcore 3800
|  4> %base "DZ_B-B_26_AB"
|  5> %scf
|  6> STABPerform true
|  7> STABRestartUHFifUnstable true
|  8> end
|  9>
| 10> *xyz 0 1
| 11> B        -0.629915    0.438064   -0.000005
| 12> B        -2.209711   -0.105334   -0.000000
| 13> O         0.414846   -0.409291    0.000005
| 14> C         1.762922    0.026473    0.000001
| 15> H         2.260157   -0.366641   -0.886180
| 16> H         2.260158   -0.366623    0.886189
| 17> H         1.820475    1.116380   -0.000010
| 18> H        -2.819555   -0.278248   -1.012514
| 19> H        -2.819551   -0.278240    1.012517
| 20> H        -0.399850    1.625215   -0.000019
| 21> *
| 22>
| 23> $new_job
| 24> ! ri-mp2 aug-cc-pvtz aug-cc-pvtz/c tightscf
| 25> %pal nprocs 16 end
| 26> %maxcore 3800
| 27> %base "TZ_B-B_26_AB"
| 28>
| 29> *xyz 0 1
| 30> B        -0.629915    0.438064   -0.000005
| 31> B        -2.209711   -0.105334   -0.000000
| 32> O         0.414846   -0.409291    0.000005
| 33> C         1.762922    0.026473    0.000001
| 34> H         2.260157   -0.366641   -0.886180
| 35> H         2.260158   -0.366623    0.886189
| 36> H         1.820475    1.116380   -0.000010
| 37> H        -2.819555   -0.278248   -1.012514
| 38> H        -2.819551   -0.278240    1.012517
| 39> H        -0.399850    1.625215   -0.000019
| 40> *
| 41>
| 42> $new_job
| 43> ! ri-mp2 aug-cc-pvqz aug-cc-pvqz/c tightscf
| 44> %pal nprocs 16 end
| 45> %maxcore 3800
| 46> %base "QZ_B-B_26_AB"
| 47>
| 48> *xyz 0 1
| 49> B        -0.629915    0.438064   -0.000005
| 50> B        -2.209711   -0.105334   -0.000000
| 51> O         0.414846   -0.409291    0.000005
| 52> C         1.762922    0.026473    0.000001
| 53> H         2.260157   -0.366641   -0.886180
| 54> H         2.260158   -0.366623    0.886189
| 55> H         1.820475    1.116380   -0.000010
| 56> H        -2.819555   -0.278248   -1.012514
| 57> H        -2.819551   -0.278240    1.012517
| 58> H        -0.399850    1.625215   -0.000019
| 59> *
| 60>
| 61>
| 62>
| 63>
| 64>                          ****END OF INPUT****
 Total Charge           Charge          ....    0
 Multiplicity           Mult            ....    1
 Number of Electrons    NEL             ....   30
MP2 TOTAL ENERGY:     -166.111794289 Eh
FINAL SINGLE POINT ENERGY      -166.111794289114
MP2 TOTAL ENERGY:     -166.266503835 Eh
FINAL SINGLE POINT ENERGY      -166.266503834868

CARTESIAN COORDINATES (ANGSTROEM)
---------------------------------
  B     -0.629915    0.438064   -0.000005
  B     -2.209711   -0.105334   -0.000000
  O      0.414846   -0.409291    0.000005
  C      1.762922    0.026473    0.000001
  H      2.260157   -0.366641   -0.886180
  H      2.260158   -0.366623    0.886189
  H      1.820475    1.116380   -0.000010
  H     -2.819555   -0.278248   -1.012514
  H     -2.819551   -0.278240    1.012517
  H     -0.399850    1.625215   -0.000019

 Multiplicity           Mult            ....    1
 Number of Electrons    NEL             ....   30
 Basis Dimension        Dim             ....  596

ORBITAL ENERGIES
----------------

  NO   OCC          E(Eh)            E(eV)
   0   2.0000     -20.568847      -559.7068
   1   2.0000     -11.279893      -306.9415
   2   2.0000      -7.597381      -206.7353
   3   2.0000      -7.583643      -206.3614
   4   2.0000      -1.377339       -37.4793
   5   2.0000      -0.947307       -25.7775
   6   2.0000      -0.740737       -20.1565
   7   2.0000      -0.682464       -18.5708
   8   2.0000      -0.638310       -17.3693
   9   2.0000      -0.637030       -17.3345
  10   2.0000      -0.561136       -15.2693
  11   2.0000      -0.502091       -13.6626
  12   2.0000      -0.494826       -13.4649
  13   2.0000      -0.466754       -12.7010
  14   2.0000      -0.409009       -11.1297
  15   0.0000       0.025475         0.6932
  16   0.0000       0.031391         0.8542
  17   0.0000       0.033566         0.9134
  18   0.0000       0.033844         0.9209
  19   0.0000       0.045286         1.2323

MULLIKEN ATOMIC CHARGES
-----------------------
   0 B :    0.658929
   1 B :    0.446016
   2 O :   -0.836819
   3 C :   -0.642121
   4 H :    0.356509
   5 H :    0.356510
   6 H :    0.287204
   7 H :   -0.196756
   8 H :   -0.196757
   9 H :   -0.232715
Sum of atomic charges:    0.0000000

LOEWDIN ATOMIC CHARGES
----------------------
   0 B :   -0.394589
   1 B :    0.497624
   2 O :    0.905062
   3 C :    0.584623
   4 H :   -0.306490
   5 H :   -0.306490
   6 H :   -0.341172
   7 H :   -0.225096
   8 H :   -0.225097
   9 H :   -0.188375

  Mayer bond orders larger than 0.100000
B(  0-B ,  1-B ) :   1.0816 B(  0-B ,  2-O ) :   0.6045 B(  0-B ,  9-H ) :   0.8898
B(  1-B ,  2-O ) :  -0.1934 B(  1-B ,  7-H ) :   0.9747 B(  1-B ,  8-H ) :   0.9747
B(  2-O ,  3-C ) :   0.8885 B(  3-C ,  4-H ) :   0.8671 B(  3-C ,  5-H ) :   0.8671
B(  3-C ,  6-H ) :   0.9279

MP2 TOTAL ENERGY:     -166.314296694 Eh
FINAL SINGLE POINT ENERGY      -166.314296693731

DIPOLE MOMENT
-------------
                                X             Y             Z
Electronic contribution:     -2.07693      -0.95143       0.00001
Nuclear contribution   :      2.62752       1.19132      -0.00001
                        -----------------------------------------
Total Dipole Moment    :      0.55060       0.23989      -0.00000
                        -----------------------------------------
Magnitude (a.u.)       :      0.60059
Magnitude (Debye)      :      1.52657

Rotational constants in cm-1:     1.313092     0.129149     0.123893
Rotational constants in MHz : 39365.511408  3871.795562  3714.206690

                             ****ORCA TERMINATED NORMALLY****
TOTAL RUN TIME: 0 days 0 hours 18 minutes 29 seconds 318 msec
