                         Program Version 5.0.4 -  RELEASE  -
|  1> ! ri-mp2 aug-cc-pvdz aug-cc-pvdz/c tightscf
|  2> %pal nprocs 16 end
|  3> %maxcore 3800
|  4> %base "DZ_P-O_9_AB"
|  5> %scf
|  6> STABPerform true
|  7> STABRestartUHFifUnstable true
|  8> end
|  9>
| 10> *xyz 0 1
| 11> P        -0.552715   -0.139146   -0.000613
| 12> O         1.073956    0.153854    0.000671
| 13> H        -0.931918    0.768887   -1.020488
| 14> H        -0.931883    0.759853    1.027254
| 15> H         1.562877   -0.672380   -0.002931
| 16> *
| 17>
| 18> $new_job
| 19> ! ri-mp2 aug-cc-pvtz aug-cc-pvtz/c tightscf
| 20> %pal nprocs 16 end
| 21> %maxcore 3800
| 22> %base "TZ_P-O_9_AB"
| 23>
| 24> *xyz 0 1
| 25> P        -0.552715   -0.139146   -0.000613
| 26> O         1.073956    0.153854    0.000671
| 27> H        -0.931918    0.768887   -1.020488
| 28> H        -0.931883    0.759853    1.027254
| 29> H         1.562877   -0.672380   -0.002931
| 30> *
| 31>
| 32> $new_job
| 33> ! ri-mp2 aug-cc-pvqz aug-cc-pvqz/c tightscf
| 34> %pal nprocs 16 end
| 35> %maxcore 3800
| 36> %base "QZ_P-O_9_AB"
| 37>
| 38> *xyz 0 1
| 39> P        -0.552715   -0.139146   -0.000613
| 40> O         1.073956    0.153854    0.000671
| 41> H        -0.931918    0.768887   -1.020488
| 42> H        -0.931883    0.759853    1.027254
| 43> H         1.562877   -0.672380   -0.002931
| 44> *
| 45>
| 46>
| 47>
| 48>
| 49>                          ****END OF INPUT****
 Total Charge           Charge          ....    0
 Multiplicity           Mult            ....    1
 Number of Electrons    NEL             ....   26
MP2 TOTAL ENERGY:     -417.691948050 Eh
FINAL SINGLE POINT ENERGY      -417.691948050231
MP2 TOTAL ENERGY:     -417.808420319 Eh
FINAL SINGLE POINT ENERGY      -417.808420319065

CARTESIAN COORDINATES (ANGSTROEM)
---------------------------------
  P     -0.552715   -0.139146   -0.000613
  O      1.073956    0.153854    0.000671
  H     -0.931918    0.768887   -1.020488
  H     -0.931883    0.759853    1.027254
  H      1.562877   -0.672380   -0.002931

 Multiplicity           Mult            ....    1
 Number of Electrons    NEL             ....   26
 Basis Dimension        Dim             ....  302

ORBITAL ENERGIES
----------------

  NO   OCC          E(Eh)            E(eV)
   0   2.0000     -79.978773     -2176.3330
   1   2.0000     -20.577109      -559.9316
   2   2.0000      -7.515723      -204.5132
   3   2.0000      -5.409948      -147.2122
   4   2.0000      -5.409347      -147.1958
   5   2.0000      -5.408614      -147.1759
   6   2.0000      -1.367541       -37.2127
   7   2.0000      -0.850908       -23.1544
   8   2.0000      -0.667526       -18.1643
   9   2.0000      -0.593616       -16.1531
  10   2.0000      -0.588646       -16.0179
  11   2.0000      -0.471817       -12.8388
  12   2.0000      -0.373950       -10.1757
  13   0.0000       0.025460         0.6928
  14   0.0000       0.037346         1.0162
  15   0.0000       0.049721         1.3530
  16   0.0000       0.059888         1.6296
  17   0.0000       0.073236         1.9929

MULLIKEN ATOMIC CHARGES
-----------------------
   0 P :    0.650050
   1 O :   -0.791773
   2 H :   -0.085770
   3 H :   -0.085774
   4 H :    0.313267
Sum of atomic charges:    0.0000000

LOEWDIN ATOMIC CHARGES
----------------------
   0 P :    1.137338
   1 O :    0.866765
   2 H :   -0.515751
   3 H :   -0.515746
   4 H :   -0.972606

  Mayer bond orders larger than 0.100000
B(  0-P ,  1-O ) :   0.7076 B(  0-P ,  2-H ) :   0.9062 B(  0-P ,  3-H ) :   0.9062
B(  1-O ,  4-H ) :   0.9517

MP2 TOTAL ENERGY:     -417.846097861 Eh
FINAL SINGLE POINT ENERGY      -417.846097861230

DIPOLE MOMENT
-------------
                                X             Y             Z
Electronic contribution:     -0.20516      -1.23746      -0.00549
Nuclear contribution   :      0.23674       0.96816       0.00433
                        -----------------------------------------
Total Dipole Moment    :      0.03158      -0.26930      -0.00117
                        -----------------------------------------
Magnitude (a.u.)       :      0.27114
Magnitude (Debye)      :      0.68920

Rotational constants in cm-1:     3.753112     0.489267     0.485536
Rotational constants in MHz : 112515.478693 14667.844311 14555.988971

                             ****ORCA TERMINATED NORMALLY****
TOTAL RUN TIME: 0 days 0 hours 2 minutes 42 seconds 387 msec
