                         Program Version 5.0.4 -  RELEASE  -
|  1> ! ri-mp2 aug-cc-pvdz aug-cc-pvdz/c tightscf
|  2> %pal nprocs 16 end
|  3> %maxcore 3800
|  4> %base "DZ_B-P_15_AB"
|  5> %scf
|  6> STABPerform true
|  7> STABRestartUHFifUnstable true
|  8> end
|  9>
| 10> *xyz 0 1
| 11> P         0.487053   -0.007028   -0.576765
| 12> B        -1.144460   -0.797744   -0.019017
| 13> O        -2.233205   -0.015983    0.179525
| 14> C         1.733078   -0.944656    0.408889
| 15> H         1.672694   -2.000511    0.146457
| 16> H         1.591834   -0.842984    1.485013
| 17> C         0.466007    1.642262    0.241974
| 18> H         0.401774    1.572025    1.327843
| 19> H        -0.397108    2.199414   -0.119538
| 20> H         1.363229    2.200236   -0.023315
| 21> H         2.734027   -0.597632    0.155360
| 22> H        -3.040003   -0.503369    0.367600
| 23> H        -1.238804   -1.990813    0.065760
| 24> *
| 25>
| 26> $new_job
| 27> ! ri-mp2 aug-cc-pvtz aug-cc-pvtz/c tightscf
| 28> %pal nprocs 16 end
| 29> %maxcore 3800
| 30> %base "TZ_B-P_15_AB"
| 31>
| 32> *xyz 0 1
| 33> P         0.487053   -0.007028   -0.576765
| 34> B        -1.144460   -0.797744   -0.019017
| 35> O        -2.233205   -0.015983    0.179525
| 36> C         1.733078   -0.944656    0.408889
| 37> H         1.672694   -2.000511    0.146457
| 38> H         1.591834   -0.842984    1.485013
| 39> C         0.466007    1.642262    0.241974
| 40> H         0.401774    1.572025    1.327843
| 41> H        -0.397108    2.199414   -0.119538
| 42> H         1.363229    2.200236   -0.023315
| 43> H         2.734027   -0.597632    0.155360
| 44> H        -3.040003   -0.503369    0.367600
| 45> H        -1.238804   -1.990813    0.065760
| 46> *
| 47>
| 48> $new_job
| 49> ! ri-mp2 aug-cc-pvqz aug-cc-pvqz/c tightscf
| 50> %pal nprocs 16 end
| 51> %maxcore 3800
| 52> %base "QZ_B-P_15_AB"
| 53>
| 54> *xyz 0 1
| 55> P         0.487053   -0.007028   -0.576765
| 56> B        -1.144460   -0.797744   -0.019017
| 57> O        -2.233205   -0.015983    0.179525
| 58> C         1.733078   -0.944656    0.408889
| 59> H         1.672694   -2.000511    0.146457
| 60> H         1.591834   -0.842984    1.485013
| 61> C         0.466007    1.642262    0.241974
| 62> H         0.401774    1.572025    1.327843
| 63> H        -0.397108    2.199414   -0.119538
| 64> H         1.363229    2.200236   -0.023315
| 65> H         2.734027   -0.597632    0.155360
| 66> H        -3.040003   -0.503369    0.367600
| 67> H        -1.238804   -1.990813    0.065760
| 68> *
| 69>
| 70>
| 71>
| 72>
| 73>                          ****END OF INPUT****
 Total Charge           Charge          ....    0
 Multiplicity           Mult            ....    1
 Number of Electrons    NEL             ....   48
MP2 TOTAL ENERGY:     -521.468076569 Eh
FINAL SINGLE POINT ENERGY      -521.468076569272
MP2 TOTAL ENERGY:     -521.682874853 Eh
FINAL SINGLE POINT ENERGY      -521.682874852757

CARTESIAN COORDINATES (ANGSTROEM)
---------------------------------
  P      0.487053   -0.007028   -0.576765
  B     -1.144460   -0.797744   -0.019017
  O     -2.233205   -0.015983    0.179525
  C      1.733078   -0.944656    0.408889
  H      1.672694   -2.000511    0.146457
  H      1.591834   -0.842984    1.485013
  C      0.466007    1.642262    0.241974
  H      0.401774    1.572025    1.327843
  H     -0.397108    2.199414   -0.119538
  H      1.363229    2.200236   -0.023315
  H      2.734027   -0.597632    0.155360
  H     -3.040003   -0.503369    0.367600
  H     -1.238804   -1.990813    0.065760

 Multiplicity           Mult            ....    1
 Number of Electrons    NEL             ....   48
 Basis Dimension        Dim             ....  772

ORBITAL ENERGIES
----------------

  NO   OCC          E(Eh)            E(eV)
   0   2.0000     -79.906586     -2174.3687
   1   2.0000     -20.580303      -560.0185
   2   2.0000     -11.219834      -305.3072
   3   2.0000     -11.215304      -305.1839
   4   2.0000      -7.621861      -207.4014
   5   2.0000      -7.451425      -202.7636
   6   2.0000      -5.345928      -145.4701
   7   2.0000      -5.345724      -145.4646
   8   2.0000      -5.345103      -145.4476
   9   2.0000      -1.375444       -37.4277
  10   2.0000      -0.996063       -27.1043
  11   2.0000      -0.933819       -25.4105
  12   2.0000      -0.790237       -21.5034
  13   2.0000      -0.716295       -19.4914
  14   2.0000      -0.649239       -17.6667
  15   2.0000      -0.588077       -16.0024
  16   2.0000      -0.580917       -15.8076
  17   2.0000      -0.553030       -15.0487
  18   2.0000      -0.550747       -14.9866
  19   2.0000      -0.545626       -14.8472
  20   2.0000      -0.527056       -14.3419
  21   2.0000      -0.457701       -12.4547
  22   2.0000      -0.422671       -11.5015
  23   2.0000      -0.318211        -8.6590
  24   0.0000       0.019865         0.5405
  25   0.0000       0.031626         0.8606
  26   0.0000       0.033369         0.9080
  27   0.0000       0.036664         0.9977
  28   0.0000       0.047911         1.3037

MULLIKEN ATOMIC CHARGES
-----------------------
   0 P :    0.562290
   1 B :    0.752275
   2 O :   -0.994856
   3 C :   -1.153758
   4 H :    0.350990
   5 H :    0.281348
   6 C :   -1.166733
   7 H :    0.274804
   8 H :    0.359315
   9 H :    0.354620
  10 H :    0.331946
  11 H :    0.354581
  12 H :   -0.306823
Sum of atomic charges:    0.0000000

LOEWDIN ATOMIC CHARGES
----------------------
   0 P :    1.019439
   1 B :   -0.640936
   2 O :    1.281383
   3 C :    0.741824
   4 H :   -0.367696
   5 H :   -0.345572
   6 C :    0.749439
   7 H :   -0.345569
   8 H :   -0.366605
   9 H :   -0.358685
  10 H :   -0.360195
  11 H :   -0.793931
  12 H :   -0.212895

  Mayer bond orders larger than 0.100000
B(  0-P ,  1-B ) :   1.1346 B(  0-P ,  3-C ) :   0.8790 B(  0-P ,  6-C ) :   0.8932
B(  1-B ,  2-O ) :   0.5690 B(  1-B , 12-H ) :   0.8487 B(  2-O , 11-H ) :   0.9169
B(  3-C ,  4-H ) :   0.8767 B(  3-C ,  5-H ) :   0.9007 B(  3-C , 10-H ) :   0.8974
B(  6-C ,  7-H ) :   0.9078 B(  6-C ,  8-H ) :   0.8722 B(  6-C ,  9-H ) :   0.8879

MP2 TOTAL ENERGY:     -521.749679962 Eh
FINAL SINGLE POINT ENERGY      -521.749679962252

DIPOLE MOMENT
-------------
                                X             Y             Z
Electronic contribution:     -3.84753      -0.98919      -3.34406
Nuclear contribution   :      3.52167       0.68776       3.98494
                        -----------------------------------------
Total Dipole Moment    :     -0.32586      -0.30144       0.64088
                        -----------------------------------------
Magnitude (a.u.)       :      0.77960
Magnitude (Debye)      :      1.98158

Rotational constants in cm-1:     0.189177     0.091930     0.070990
Rotational constants in MHz :  5671.380127  2755.987596  2128.236285

                             ****ORCA TERMINATED NORMALLY****
TOTAL RUN TIME: 0 days 0 hours 46 minutes 4 seconds 760 msec
