                         Program Version 5.0.4 -  RELEASE  -
|  1> ! ri-mp2 aug-cc-pvdz aug-cc-pvdz/c tightscf
|  2> %pal nprocs 16 end
|  3> %maxcore 3800
|  4> %base "DZ_P-O_20_AB"
|  5> %scf
|  6> STABPerform true
|  7> STABRestartUHFifUnstable true
|  8> end
|  9>
| 10> *xyz 0 1
| 11> C         2.384133   -0.826284   -0.039331
| 12> C         1.176577    0.054755   -0.026235
| 13> O         0.033702   -0.659926   -0.141948
| 14> O         1.184326    1.253623    0.066653
| 15> P        -1.455472   -0.031233    0.110638
| 16> O        -1.848486   -0.105690    1.505815
| 17> C         3.688943   -0.056973    0.011470
| 18> H         2.312652   -1.455511   -0.929224
| 19> H         2.281614   -1.508624    0.808058
| 20> H         3.786511    0.607777   -0.845402
| 21> H         4.531492   -0.746790    0.007972
| 22> H         3.748347    0.553730    0.910636
| 23> O        -2.318114   -0.891934   -0.883614
| 24> H        -2.952046   -1.447619   -0.415605
| 25> O        -1.402793    1.356907   -0.606311
| 26> H        -0.563487    1.812697   -0.396193
| 27> *
| 28>
| 29> $new_job
| 30> ! ri-mp2 aug-cc-pvtz aug-cc-pvtz/c tightscf
| 31> %pal nprocs 16 end
| 32> %maxcore 3800
| 33> %base "TZ_P-O_20_AB"
| 34>
| 35> *xyz 0 1
| 36> C         2.384133   -0.826284   -0.039331
| 37> C         1.176577    0.054755   -0.026235
| 38> O         0.033702   -0.659926   -0.141948
| 39> O         1.184326    1.253623    0.066653
| 40> P        -1.455472   -0.031233    0.110638
| 41> O        -1.848486   -0.105690    1.505815
| 42> C         3.688943   -0.056973    0.011470
| 43> H         2.312652   -1.455511   -0.929224
| 44> H         2.281614   -1.508624    0.808058
| 45> H         3.786511    0.607777   -0.845402
| 46> H         4.531492   -0.746790    0.007972
| 47> H         3.748347    0.553730    0.910636
| 48> O        -2.318114   -0.891934   -0.883614
| 49> H        -2.952046   -1.447619   -0.415605
| 50> O        -1.402793    1.356907   -0.606311
| 51> H        -0.563487    1.812697   -0.396193
| 52> *
| 53>
| 54> $new_job
| 55> ! ri-mp2 aug-cc-pvqz aug-cc-pvqz/c tightscf
| 56> %pal nprocs 16 end
| 57> %maxcore 3800
| 58> %base "QZ_P-O_20_AB"
| 59>
| 60> *xyz 0 1
| 61> C         2.384133   -0.826284   -0.039331
| 62> C         1.176577    0.054755   -0.026235
| 63> O         0.033702   -0.659926   -0.141948
| 64> O         1.184326    1.253623    0.066653
| 65> P        -1.455472   -0.031233    0.110638
| 66> O        -1.848486   -0.105690    1.505815
| 67> C         3.688943   -0.056973    0.011470
| 68> H         2.312652   -1.455511   -0.929224
| 69> H         2.281614   -1.508624    0.808058
| 70> H         3.786511    0.607777   -0.845402
| 71> H         4.531492   -0.746790    0.007972
| 72> H         3.748347    0.553730    0.910636
| 73> O        -2.318114   -0.891934   -0.883614
| 74> H        -2.952046   -1.447619   -0.415605
| 75> O        -1.402793    1.356907   -0.606311
| 76> H        -0.563487    1.812697   -0.396193
| 77> *
| 78>
| 79>
| 80>
| 81>
| 82>                          ****END OF INPUT****
 Total Charge           Charge          ....    0
 Multiplicity           Mult            ....    1
 Number of Electrons    NEL             ....   80
MP2 TOTAL ENERGY:     -834.456205281 Eh
FINAL SINGLE POINT ENERGY      -834.456205280960
MP2 TOTAL ENERGY:     -834.966840287 Eh
FINAL SINGLE POINT ENERGY      -834.966840287487

CARTESIAN COORDINATES (ANGSTROEM)
---------------------------------
  C      2.384133   -0.826284   -0.039331
  C      1.176577    0.054755   -0.026235
  O      0.033702   -0.659926   -0.141948
  O      1.184326    1.253623    0.066653
  P     -1.455472   -0.031233    0.110638
  O     -1.848486   -0.105690    1.505815
  C      3.688943   -0.056973    0.011470
  H      2.312652   -1.455511   -0.929224
  H      2.281614   -1.508624    0.808058
  H      3.786511    0.607777   -0.845402
  H      4.531492   -0.746790    0.007972
  H      3.748347    0.553730    0.910636
  O     -2.318114   -0.891934   -0.883614
  H     -2.952046   -1.447619   -0.415605
  O     -1.402793    1.356907   -0.606311
  H     -0.563487    1.812697   -0.396193

 Multiplicity           Mult            ....    1
 Number of Electrons    NEL             ....   80
 Basis Dimension        Dim             .... 1046

ORBITAL ENERGIES
----------------

  NO   OCC          E(Eh)            E(eV)
   0   2.0000     -80.109468     -2179.8894
   1   2.0000     -20.631565      -561.4134
   2   2.0000     -20.615774      -560.9837
   3   2.0000     -20.601620      -560.5986
   4   2.0000     -20.583983      -560.1187
   5   2.0000     -20.517168      -558.3005
   6   2.0000     -11.422212      -310.8142
   7   2.0000     -11.266194      -306.5687
   8   2.0000     -11.236649      -305.7648
   9   2.0000      -7.627480      -207.5543
  10   2.0000      -5.526640      -150.3875
  11   2.0000      -5.526187      -150.3752
  12   2.0000      -5.524519      -150.3298
  13   2.0000      -1.512403       -41.1546
  14   2.0000      -1.449790       -39.4508
  15   2.0000      -1.400484       -38.1091
  16   2.0000      -1.396796       -38.0088
  17   2.0000      -1.313448       -35.7407
  18   2.0000      -1.090894       -29.6847
  19   2.0000      -0.953316       -25.9411
  20   2.0000      -0.877331       -23.8734
  21   2.0000      -0.821134       -22.3442
  22   2.0000      -0.747381       -20.3373
  23   2.0000      -0.735459       -20.0129
  24   2.0000      -0.730993       -19.8913
  25   2.0000      -0.698065       -18.9953
  26   2.0000      -0.675687       -18.3864
  27   2.0000      -0.658298       -17.9132
  28   2.0000      -0.629060       -17.1176
  29   2.0000      -0.608429       -16.5562
  30   2.0000      -0.587216       -15.9790
  31   2.0000      -0.577420       -15.7124
  32   2.0000      -0.567686       -15.4475
  33   2.0000      -0.546115       -14.8605
  34   2.0000      -0.541845       -14.7444
  35   2.0000      -0.532139       -14.4802
  36   2.0000      -0.520092       -14.1524
  37   2.0000      -0.489164       -13.3108
  38   2.0000      -0.479939       -13.0598
  39   2.0000      -0.476332       -12.9616
  40   0.0000       0.019999         0.5442
  41   0.0000       0.028459         0.7744
  42   0.0000       0.033696         0.9169
  43   0.0000       0.035379         0.9627
  44   0.0000       0.043292         1.1780

MULLIKEN ATOMIC CHARGES
-----------------------
   0 C :   -0.385000
   1 C :    1.014272
   2 O :   -0.781195
   3 O :   -0.763335
   4 P :    2.583137
   5 O :   -1.108456
   6 C :   -0.800650
   7 H :    0.305523
   8 H :    0.298896
   9 H :    0.229450
  10 H :    0.316418
  11 H :    0.231542
  12 O :   -0.947797
  13 H :    0.372832
  14 O :   -0.923173
  15 H :    0.357534
Sum of atomic charges:    0.0000000

LOEWDIN ATOMIC CHARGES
----------------------
   0 C :    0.451797
   1 C :   -1.060417
   2 O :    0.694245
   3 O :    0.815644
   4 P :   -0.947125
   5 O :    0.297823
   6 C :    0.907393
   7 H :   -0.287879
   8 H :   -0.283955
   9 H :   -0.285618
  10 H :   -0.280671
  11 H :   -0.287278
  12 O :    1.094966
  13 H :   -0.863781
  14 O :    1.105404
  15 H :   -1.070548

  Mayer bond orders larger than 0.100000
B(  0-C ,  1-C ) :   0.8421 B(  0-C ,  6-C ) :   1.0326 B(  0-C ,  7-H ) :   0.8504
B(  0-C ,  8-H ) :   0.8668 B(  1-C ,  2-O ) :   1.0955 B(  1-C ,  3-O ) :   1.3282
B(  1-C ,  6-C ) :  -0.1170 B(  2-O ,  4-P ) :   0.6887 B(  3-O , 15-H ) :   0.1011
B(  4-P ,  5-O ) :   1.4083 B(  4-P , 12-O ) :   0.5173 B(  4-P , 14-O ) :   0.7483
B(  6-C ,  9-H ) :   0.9507 B(  6-C , 10-H ) :   0.9579 B(  6-C , 11-H ) :   0.9554
B( 12-O , 13-H ) :   0.9282 B( 14-O , 15-H ) :   0.8244

MP2 TOTAL ENERGY:     -835.131741493 Eh
FINAL SINGLE POINT ENERGY      -835.131741493131

DIPOLE MOMENT
-------------
                                X             Y             Z
Electronic contribution:    -13.03358       1.12775       0.20378
Nuclear contribution   :     14.10476      -2.08663      -0.94216
                        -----------------------------------------
Total Dipole Moment    :      1.07118      -0.95888      -0.73838
                        -----------------------------------------
Magnitude (a.u.)       :      1.61620
Magnitude (Debye)      :      4.10804

Rotational constants in cm-1:     0.110403     0.026542     0.025156
Rotational constants in MHz :  3309.796332   795.698347   754.169139

                             ****ORCA TERMINATED NORMALLY****
TOTAL RUN TIME: 0 days 1 hours 38 minutes 3 seconds 380 msec
