                         Program Version 5.0.4 -  RELEASE  -
|  1> ! ri-mp2 aug-cc-pvdz aug-cc-pvdz/c tightscf
|  2> %pal nprocs 16 end
|  3> %maxcore 3800
|  4> %base "DZ_P-Si_38_AB"
|  5>
|  6> *xyz 0 1
|  7> Si        -1.647283   -0.793476    0.066675
|  8> P        -0.560830    1.159526   -0.234541
|  9> C         1.103784    0.720704    0.285099
| 10> S         1.869486   -0.650774   -0.076164
| 11> H         1.635425    1.513613    0.811938
| 12> H        -0.976235    1.847751    0.926967
| 13> H        -1.488670   -1.626742   -1.136954
| 14> H        -3.071886   -0.427445    0.226587
| 15> H        -1.158705   -1.503241    1.264140
| 16> *
| 17>
| 18> $new_job
| 19> ! ri-mp2 aug-cc-pvtz aug-cc-pvtz/c tightscf
| 20> %pal nprocs 16 end
| 21> %maxcore 3800
| 22> %base "TZ_P-Si_38_AB"
| 23>
| 24> *xyz 0 1
| 25> Si        -1.647283   -0.793476    0.066675
| 26> P        -0.560830    1.159526   -0.234541
| 27> C         1.103784    0.720704    0.285099
| 28> S         1.869486   -0.650774   -0.076164
| 29> H         1.635425    1.513613    0.811938
| 30> H        -0.976235    1.847751    0.926967
| 31> H        -1.488670   -1.626742   -1.136954
| 32> H        -3.071886   -0.427445    0.226587
| 33> H        -1.158705   -1.503241    1.264140
| 34> *
| 35>
| 36> $new_job
| 37> ! ri-mp2 aug-cc-pvqz aug-cc-pvqz/c tightscf
| 38> %pal nprocs 16 end
| 39> %maxcore 3800
| 40> %base "QZ_P-Si_38_AB"
| 41>
| 42> *xyz 0 1
| 43> Si        -1.647283   -0.793476    0.066675
| 44> P        -0.560830    1.159526   -0.234541
| 45> C         1.103784    0.720704    0.285099
| 46> S         1.869486   -0.650774   -0.076164
| 47> H         1.635425    1.513613    0.811938
| 48> H        -0.976235    1.847751    0.926967
| 49> H        -1.488670   -1.626742   -1.136954
| 50> H        -3.071886   -0.427445    0.226587
| 51> H        -1.158705   -1.503241    1.264140
| 52> *
| 53>
| 54>
| 55>
| 56>
| 57>                          ****END OF INPUT****
 Total Charge           Charge          ....    0
 Multiplicity           Mult            ....    1
 Number of Electrons    NEL             ....   56
MP2 TOTAL ENERGY:    -1068.469799888 Eh
FINAL SINGLE POINT ENERGY     -1068.469799887619
MP2 TOTAL ENERGY:    -1068.632608577 Eh
FINAL SINGLE POINT ENERGY     -1068.632608577129

CARTESIAN COORDINATES (ANGSTROEM)
---------------------------------
  Si    -1.647283   -0.793476    0.066675
  P     -0.560830    1.159526   -0.234541
  C      1.103784    0.720704    0.285099
  S      1.869486   -0.650774   -0.076164
  H      1.635425    1.513613    0.811938
  H     -0.976235    1.847751    0.926967
  H     -1.488670   -1.626742   -1.136954
  H     -3.071886   -0.427445    0.226587
  H     -1.158705   -1.503241    1.264140

 Multiplicity           Mult            ....    1
 Number of Electrons    NEL             ....   56
 Basis Dimension        Dim             ....  562

ORBITAL ENERGIES
----------------

  NO   OCC          E(Eh)            E(eV)
   0   2.0000     -91.946717     -2501.9974
   1   2.0000     -79.955529     -2175.7006
   2   2.0000     -68.790164     -1871.8755
   3   2.0000     -11.324533      -308.1562
   4   2.0000      -8.950405      -243.5529
   5   2.0000      -7.500612      -204.1020
   6   2.0000      -6.631421      -180.4502
   7   2.0000      -6.630916      -180.4364
   8   2.0000      -6.629347      -180.3937
   9   2.0000      -6.139425      -167.0623
  10   2.0000      -5.394609      -146.7948
  11   2.0000      -5.394305      -146.7865
  12   2.0000      -5.393845      -146.7740
  13   2.0000      -4.245851      -115.5355
  14   2.0000      -4.245406      -115.5234
  15   2.0000      -4.245187      -115.5174
  16   2.0000      -1.077597       -29.3229
  17   2.0000      -0.891166       -24.2499
  18   2.0000      -0.774537       -21.0762
  19   2.0000      -0.697874       -18.9901
  20   2.0000      -0.607920       -16.5423
  21   2.0000      -0.530821       -14.4444
  22   2.0000      -0.513353       -13.9690
  23   2.0000      -0.493362       -13.4251
  24   2.0000      -0.463814       -12.6210
  25   2.0000      -0.445643       -12.1266
  26   2.0000      -0.357334        -9.7236
  27   2.0000      -0.339571        -9.2402
  28   0.0000       0.022209         0.6043
  29   0.0000       0.028423         0.7734
  30   0.0000       0.032766         0.8916
  31   0.0000       0.038827         1.0565
  32   0.0000       0.041125         1.1191

MULLIKEN ATOMIC CHARGES
-----------------------
   0 Si:    0.550817
   1 P :    0.347281
   2 C :   -0.878893
   3 S :   -0.001043
   4 H :    0.467771
   5 H :   -0.052786
   6 H :   -0.121195
   7 H :   -0.191756
   8 H :   -0.120195
Sum of atomic charges:    0.0000000

LOEWDIN ATOMIC CHARGES
----------------------
   0 Si:    0.764824
   1 P :    0.952746
   2 C :   -0.763596
   3 S :    1.020922
   4 H :   -0.544745
   5 H :   -0.509962
   6 H :   -0.308415
   7 H :   -0.314902
   8 H :   -0.296872

  Mayer bond orders larger than 0.100000
B(  0-Si,  1-P ) :   0.8232 B(  0-Si,  6-H ) :   0.7861 B(  0-Si,  7-H ) :   0.7782
B(  0-Si,  8-H ) :   0.7712 B(  1-P ,  2-C ) :   0.8731 B(  1-P ,  5-H ) :   0.9034
B(  2-C ,  3-S ) :   1.6932 B(  2-C ,  4-H ) :   0.7014

MP2 TOTAL ENERGY:    -1068.686739523 Eh
FINAL SINGLE POINT ENERGY     -1068.686739523308

DIPOLE MOMENT
-------------
                                X             Y             Z
Electronic contribution:      3.78567       1.67544      -1.81870
Nuclear contribution   :     -4.35933      -1.19796       2.25019
                        -----------------------------------------
Total Dipole Moment    :     -0.57366       0.47748       0.43149
                        -----------------------------------------
Magnitude (a.u.)       :      0.86212
Magnitude (Debye)      :      2.19134

Rotational constants in cm-1:     0.173570     0.071170     0.052791
Rotational constants in MHz :  5203.505177  2133.626662  1582.627087

                             ****ORCA TERMINATED NORMALLY****
TOTAL RUN TIME: 0 days 0 hours 4 minutes 20 seconds 859 msec
