                         Program Version 5.0.4 -  RELEASE  -
|  1> ! ri-mp2 aug-cc-pvdz aug-cc-pvdz/c tightscf
|  2> %pal nprocs 16 end
|  3> %maxcore 3800
|  4> %base "DZ_B-Si_78_A"
|  5> %scf
|  6> STABPerform true
|  7> STABRestartUHFifUnstable true
|  8> end
|  9>
| 10> *xyz 0 2
| 11> B         0.000000    0.098365    0.000029
| 12> Si         1.955174    0.000176   -0.000002
| 13> Si        -1.955174    0.000176   -0.000002
| 14> H        -2.587167    0.604775    1.196273
| 15> H        -2.235724   -1.458000   -0.000048
| 16> H        -2.587131    0.604846   -1.196262
| 17> H         2.587167    0.604779    1.196271
| 18> H         2.587131    0.604842   -1.196263
| 19> H         2.235724   -1.458000   -0.000044
| 20> *
| 21>
| 22> $new_job
| 23> ! ri-mp2 aug-cc-pvtz aug-cc-pvtz/c tightscf
| 24> %pal nprocs 16 end
| 25> %maxcore 3800
| 26> %base "TZ_B-Si_78_A"
| 27>
| 28> *xyz 0 2
| 29> B         0.000000    0.098365    0.000029
| 30> Si         1.955174    0.000176   -0.000002
| 31> Si        -1.955174    0.000176   -0.000002
| 32> H        -2.587167    0.604775    1.196273
| 33> H        -2.235724   -1.458000   -0.000048
| 34> H        -2.587131    0.604846   -1.196262
| 35> H         2.587167    0.604779    1.196271
| 36> H         2.587131    0.604842   -1.196263
| 37> H         2.235724   -1.458000   -0.000044
| 38> *
| 39>
| 40> $new_job
| 41> ! ri-mp2 aug-cc-pvqz aug-cc-pvqz/c tightscf
| 42> %pal nprocs 16 end
| 43> %maxcore 3800
| 44> %base "QZ_B-Si_78_A"
| 45>
| 46> *xyz 0 2
| 47> B         0.000000    0.098365    0.000029
| 48> Si         1.955174    0.000176   -0.000002
| 49> Si        -1.955174    0.000176   -0.000002
| 50> H        -2.587167    0.604775    1.196273
| 51> H        -2.235724   -1.458000   -0.000048
| 52> H        -2.587131    0.604846   -1.196262
| 53> H         2.587167    0.604779    1.196271
| 54> H         2.587131    0.604842   -1.196263
| 55> H         2.235724   -1.458000   -0.000044
| 56> *
| 57>
| 58>
| 59>
| 60>
| 61>                          ****END OF INPUT****
 Total Charge           Charge          ....    0
 Multiplicity           Mult            ....    2
 Number of Electrons    NEL             ....   39
MP2 TOTAL ENERGY:     -606.219285328 Eh
FINAL SINGLE POINT ENERGY      -606.219285328431
MP2 TOTAL ENERGY:     -606.312387914 Eh
FINAL SINGLE POINT ENERGY      -606.312387914419

CARTESIAN COORDINATES (ANGSTROEM)
---------------------------------
  B      0.000000    0.098365    0.000029
  Si     1.955174    0.000176   -0.000002
  Si    -1.955174    0.000176   -0.000002
  H     -2.587167    0.604775    1.196273
  H     -2.235724   -1.458000   -0.000048
  H     -2.587131    0.604846   -1.196262
  H      2.587167    0.604779    1.196271
  H      2.587131    0.604842   -1.196263
  H      2.235724   -1.458000   -0.000044

 Multiplicity           Mult            ....    2
 Number of Electrons    NEL             ....   39
 Basis Dimension        Dim             ....  524

ORBITAL ENERGIES
----------------
                 SPIN UP ORBITALS
  NO   OCC          E(Eh)            E(eV)
   0   1.0000     -68.767039     -1871.2463
   1   1.0000     -68.767039     -1871.2463
   2   1.0000      -7.634523      -207.7459
   3   1.0000      -6.117371      -166.4621
   4   1.0000      -6.117366      -166.4620
   5   1.0000      -4.224144      -114.9448
   6   1.0000      -4.224141      -114.9447
   7   1.0000      -4.223584      -114.9296
   8   1.0000      -4.223582      -114.9295
   9   1.0000      -4.223167      -114.9182
  10   1.0000      -4.223156      -114.9179
  11   1.0000      -0.769649       -20.9432
  12   1.0000      -0.724828       -19.7236
  13   1.0000      -0.581552       -15.8248
  14   1.0000      -0.498328       -13.5602
  15   1.0000      -0.490102       -13.3363
  16   1.0000      -0.486232       -13.2311
  17   1.0000      -0.485570       -13.2130
  18   1.0000      -0.430061       -11.7026
  19   1.0000      -0.311412        -8.4740
  20   0.0000       0.015448         0.4204
  21   0.0000       0.024181         0.6580
  22   0.0000       0.029682         0.8077
  23   0.0000       0.040870         1.1121
  24   0.0000       0.041110         1.1187

                 SPIN DOWN ORBITALS
  NO   OCC          E(Eh)            E(eV)
   0   1.0000     -68.767751     -1871.2656
   1   1.0000     -68.767751     -1871.2656
   2   1.0000      -7.620889      -207.3749
   3   1.0000      -6.118418      -166.4906
   4   1.0000      -6.118413      -166.4905
   5   1.0000      -4.225274      -114.9755
   6   1.0000      -4.225264      -114.9753
   7   1.0000      -4.224522      -114.9551
   8   1.0000      -4.224518      -114.9550
   9   1.0000      -4.224263      -114.9480
  10   1.0000      -4.224261      -114.9480
  11   1.0000      -0.744816       -20.2675
  12   1.0000      -0.723118       -19.6770
  13   1.0000      -0.530372       -14.4321
  14   1.0000      -0.487753       -13.2724
  15   1.0000      -0.483664       -13.1612
  16   1.0000      -0.480305       -13.0698
  17   1.0000      -0.477226       -12.9860
  18   1.0000      -0.420118       -11.4320
  19   0.0000       0.022366         0.6086
  20   0.0000       0.027571         0.7502
  21   0.0000       0.029739         0.8092
  22   0.0000       0.036883         1.0036
  23   0.0000       0.042505         1.1566

MULLIKEN ATOMIC CHARGES AND SPIN POPULATIONS
--------------------------------------------
   0 B :    0.159190    1.090028
   1 Si:    0.252785   -0.098974
   2 Si:    0.252782   -0.098974
   3 H :   -0.118416    0.026195
   4 H :   -0.095545    0.001569
   5 H :   -0.118415    0.026196
   6 H :   -0.118419    0.026195
   7 H :   -0.118417    0.026196
   8 H :   -0.095545    0.001569
Sum of atomic charges         :   -0.0000000

LOEWDIN ATOMIC CHARGES AND SPIN POPULATIONS
-------------------------------------------
   0 B :   -0.258774    0.514724
   1 Si:    1.047018    0.208083
   2 Si:    1.047017    0.208083
   3 H :   -0.308134    0.016449
   4 H :   -0.301363    0.001656
   5 H :   -0.308133    0.016450
   6 H :   -0.308134    0.016449
   7 H :   -0.308134    0.016450
   8 H :   -0.301363    0.001656

  Mayer bond orders larger than 0.100000
B(  0-B ,  1-Si) :   0.5296 B(  0-B ,  2-Si) :   0.5296 B(  1-Si,  6-H ) :   0.6798
B(  1-Si,  7-H ) :   0.6798 B(  1-Si,  8-H ) :   0.6800 B(  2-Si,  3-H ) :   0.6798
B(  2-Si,  4-H ) :   0.6800 B(  2-Si,  5-H ) :   0.6798

MP2 TOTAL ENERGY:     -606.342952462 Eh
FINAL SINGLE POINT ENERGY      -606.342952462483

DIPOLE MOMENT
-------------
                                X             Y             Z
Electronic contribution:      0.00000       0.69992       0.00010
Nuclear contribution   :      0.00000      -0.57774      -0.00010
                        -----------------------------------------
Total Dipole Moment    :      0.00000       0.12219       0.00000
                        -----------------------------------------
Magnitude (a.u.)       :      0.12219
Magnitude (Debye)      :      0.31058

Rotational constants in cm-1:     1.449428     0.065450     0.065427
Rotational constants in MHz : 43452.751381  1962.155137  1961.465773

                             ****ORCA TERMINATED NORMALLY****
TOTAL RUN TIME: 0 days 0 hours 25 minutes 20 seconds 71 msec
