                         Program Version 5.0.4 -  RELEASE  -
|  1> ! ri-mp2 aug-cc-pvdz aug-cc-pvdz/c tightscf
|  2> %pal nprocs 16 end
|  3> %maxcore 3800
|  4> %base "DZ_B-Cl_1_AB"
|  5>
|  6> *xyz 0 1
|  7> Cl         1.506671    0.896373   -0.000000
|  8> Cl        -1.513797    0.885578   -0.000000
|  9> S         0.084846   -1.772095    0.000000
| 10> B         0.000000    0.010824   -0.000000
| 11> H        -1.236391   -1.993755    0.000000
| 12> *
| 13>
| 14> $new_job
| 15> ! ri-mp2 aug-cc-pvtz aug-cc-pvtz/c tightscf
| 16> %pal nprocs 16 end
| 17> %maxcore 3800
| 18> %base "TZ_B-Cl_1_AB"
| 19>
| 20> *xyz 0 1
| 21> Cl         1.506671    0.896373   -0.000000
| 22> Cl        -1.513797    0.885578   -0.000000
| 23> S         0.084846   -1.772095    0.000000
| 24> B         0.000000    0.010824   -0.000000
| 25> H        -1.236391   -1.993755    0.000000
| 26> *
| 27>
| 28> $new_job
| 29> ! ri-mp2 aug-cc-pvqz aug-cc-pvqz/c tightscf
| 30> %pal nprocs 16 end
| 31> %maxcore 3800
| 32> %base "QZ_B-Cl_1_AB"
| 33>
| 34> *xyz 0 1
| 35> Cl         1.506671    0.896373   -0.000000
| 36> Cl        -1.513797    0.885578   -0.000000
| 37> S         0.084846   -1.772095    0.000000
| 38> B         0.000000    0.010824   -0.000000
| 39> H        -1.236391   -1.993755    0.000000
| 40> *
| 41>
| 42>
| 43>
| 44>
| 45>                          ****END OF INPUT****
 Total Charge           Charge          ....    0
 Multiplicity           Mult            ....    1
 Number of Electrons    NEL             ....   56
MP2 TOTAL ENERGY:    -1342.449953771 Eh
FINAL SINGLE POINT ENERGY     -1342.449953771393
MP2 TOTAL ENERGY:    -1342.641353129 Eh
FINAL SINGLE POINT ENERGY     -1342.641353128967

CARTESIAN COORDINATES (ANGSTROEM)
---------------------------------
  Cl     1.506671    0.896373   -0.000000
  Cl    -1.513797    0.885578   -0.000000
  S      0.084846   -1.772095    0.000000
  B      0.000000    0.010824   -0.000000
  H     -1.236391   -1.993755    0.000000

 Multiplicity           Mult            ....    1
 Number of Electrons    NEL             ....   56
 Basis Dimension        Dim             ....  378

ORBITAL ENERGIES
----------------

  NO   OCC          E(Eh)            E(eV)
   0   2.0000    -104.852345     -2853.1774
   1   2.0000    -104.849642     -2853.1038
   2   2.0000     -91.980098     -2502.9057
   3   2.0000     -10.580007      -287.8966
   4   2.0000     -10.577336      -287.8240
   5   2.0000      -8.985212      -244.5000
   6   2.0000      -8.046855      -218.9661
   7   2.0000      -8.045691      -218.9344
   8   2.0000      -8.045495      -218.9290
   9   2.0000      -8.044190      -218.8935
  10   2.0000      -8.043024      -218.8618
  11   2.0000      -8.042826      -218.8564
  12   2.0000      -7.741041      -210.6444
  13   2.0000      -6.666654      -181.4089
  14   2.0000      -6.665732      -181.3838
  15   2.0000      -6.665225      -181.3700
  16   2.0000      -1.157073       -31.4856
  17   2.0000      -1.110756       -30.2252
  18   2.0000      -1.006698       -27.3936
  19   2.0000      -0.691424       -18.8146
  20   2.0000      -0.617053       -16.7909
  21   2.0000      -0.578039       -15.7292
  22   2.0000      -0.535674       -14.5764
  23   2.0000      -0.524203       -14.2643
  24   2.0000      -0.477559       -12.9950
  25   2.0000      -0.466209       -12.6862
  26   2.0000      -0.457260       -12.4427
  27   2.0000      -0.410096       -11.1593
  28   0.0000       0.027171         0.7394
  29   0.0000       0.040254         1.0954
  30   0.0000       0.040888         1.1126
  31   0.0000       0.041280         1.1233
  32   0.0000       0.061602         1.6763

MULLIKEN ATOMIC CHARGES
-----------------------
   0 Cl:   -0.131319
   1 Cl:   -0.151992
   2 S :   -0.084355
   3 B :    0.284884
   4 H :    0.082781
Sum of atomic charges:    0.0000000

LOEWDIN ATOMIC CHARGES
----------------------
   0 Cl:    1.137008
   1 Cl:    1.166564
   2 S :    1.492727
   3 B :   -2.954450
   4 H :   -0.841850

  Mayer bond orders larger than 0.100000
B(  0-Cl,  3-B ) :   1.1355 B(  1-Cl,  3-B ) :   1.1460 B(  2-S ,  3-B ) :   1.2632
B(  2-S ,  4-H ) :   1.0250

MP2 TOTAL ENERGY:    -1342.706687022 Eh
FINAL SINGLE POINT ENERGY     -1342.706687022054

DIPOLE MOMENT
-------------
                                X             Y             Z
Electronic contribution:      0.78376       3.77959       0.00000
Nuclear contribution   :     -1.12591      -4.12057       0.00000
                        -----------------------------------------
Total Dipole Moment    :     -0.34216      -0.34098       0.00000
                        -----------------------------------------
Magnitude (a.u.)       :      0.48305
Magnitude (Debye)      :      1.22782

Rotational constants in cm-1:     0.105552     0.102431     0.051984
Rotational constants in MHz :  3164.356683  3070.813273  1558.441642

                             ****ORCA TERMINATED NORMALLY****
TOTAL RUN TIME: 0 days 0 hours 1 minutes 48 seconds 421 msec
