                         Program Version 5.0.4 -  RELEASE  -
|  1> ! ri-mp2 aug-cc-pvdz aug-cc-pvdz/c tightscf
|  2> %pal nprocs 16 end
|  3> %maxcore 3800
|  4> %base "DZ_S-F_32_AB"
|  5> %scf
|  6> STABPerform true
|  7> STABRestartUHFifUnstable true
|  8> end
|  9>
| 10> *xyz 0 1
| 11> F         1.623292    0.565865    0.000001
| 12> S         0.494063   -0.585677   -0.000001
| 13> C        -0.927793    0.448453    0.000000
| 14> O        -2.035849    0.008320    0.000001
| 15> H        -0.661086    1.520776    0.000001
| 16> *
| 17>
| 18> $new_job
| 19> ! ri-mp2 aug-cc-pvtz aug-cc-pvtz/c tightscf
| 20> %pal nprocs 16 end
| 21> %maxcore 3800
| 22> %base "TZ_S-F_32_AB"
| 23>
| 24> *xyz 0 1
| 25> F         1.623292    0.565865    0.000001
| 26> S         0.494063   -0.585677   -0.000001
| 27> C        -0.927793    0.448453    0.000000
| 28> O        -2.035849    0.008320    0.000001
| 29> H        -0.661086    1.520776    0.000001
| 30> *
| 31>
| 32> $new_job
| 33> ! ri-mp2 aug-cc-pvqz aug-cc-pvqz/c tightscf
| 34> %pal nprocs 16 end
| 35> %maxcore 3800
| 36> %base "QZ_S-F_32_AB"
| 37>
| 38> *xyz 0 1
| 39> F         1.623292    0.565865    0.000001
| 40> S         0.494063   -0.585677   -0.000001
| 41> C        -0.927793    0.448453    0.000000
| 42> O        -2.035849    0.008320    0.000001
| 43> H        -0.661086    1.520776    0.000001
| 44> *
| 45>
| 46>
| 47>
| 48>
| 49>                          ****END OF INPUT****
 Total Charge           Charge          ....    0
 Multiplicity           Mult            ....    1
 Number of Electrons    NEL             ....   40
MP2 TOTAL ENERGY:     -610.934028759 Eh
FINAL SINGLE POINT ENERGY      -610.934028758600
MP2 TOTAL ENERGY:     -611.164364247 Eh
FINAL SINGLE POINT ENERGY      -611.164364247464

CARTESIAN COORDINATES (ANGSTROEM)
---------------------------------
  F      1.623292    0.565865    0.000001
  S      0.494063   -0.585677   -0.000001
  C     -0.927793    0.448453    0.000000
  O     -2.035849    0.008320    0.000001
  H     -0.661086    1.520776    0.000001

 Multiplicity           Mult            ....    1
 Number of Electrons    NEL             ....   40
 Basis Dimension        Dim             ....  370

ORBITAL ENERGIES
----------------

  NO   OCC          E(Eh)            E(eV)
   0   2.0000     -92.068278     -2505.3052
   1   2.0000     -26.342046      -716.8035
   2   2.0000     -20.592424      -560.3483
   3   2.0000     -11.389543      -309.9252
   4   2.0000      -9.063623      -246.6337
   5   2.0000      -6.744971      -183.5400
   6   2.0000      -6.743074      -183.4884
   7   2.0000      -6.741894      -183.4563
   8   2.0000      -1.643574       -44.7239
   9   2.0000      -1.441709       -39.2309
  10   2.0000      -1.048699       -28.5365
  11   2.0000      -0.848555       -23.0903
  12   2.0000      -0.741757       -20.1842
  13   2.0000      -0.724618       -19.7179
  14   2.0000      -0.721333       -19.6285
  15   2.0000      -0.671992       -18.2858
  16   2.0000      -0.593290       -16.1443
  17   2.0000      -0.588487       -16.0135
  18   2.0000      -0.448302       -12.1989
  19   2.0000      -0.411166       -11.1884
  20   0.0000       0.028325         0.7708
  21   0.0000       0.044502         1.2110
  22   0.0000       0.051759         1.4084
  23   0.0000       0.067564         1.8385
  24   0.0000       0.078428         2.1341

MULLIKEN ATOMIC CHARGES
-----------------------
   0 F :   -0.591616
   1 S :    0.774005
   2 C :   -0.073829
   3 O :   -0.568295
   4 H :    0.459734
Sum of atomic charges:   -0.0000000

LOEWDIN ATOMIC CHARGES
----------------------
   0 F :    0.073220
   1 S :    0.647716
   2 C :   -0.799682
   3 O :    0.554464
   4 H :   -0.475717

  Mayer bond orders larger than 0.100000
B(  0-F ,  1-S ) :   0.5964 B(  1-S ,  2-C ) :   1.1294 B(  2-C ,  3-O ) :   1.8045
B(  2-C ,  4-H ) :   0.7219

MP2 TOTAL ENERGY:     -611.241822131 Eh
FINAL SINGLE POINT ENERGY      -611.241822131065

DIPOLE MOMENT
-------------
                                X             Y             Z
Electronic contribution:      2.64070      -0.67050      -0.00000
Nuclear contribution   :     -2.16859       0.91951       0.00000
                        -----------------------------------------
Total Dipole Moment    :      0.47211       0.24901      -0.00000
                        -----------------------------------------
Magnitude (a.u.)       :      0.53375
Magnitude (Debye)      :      1.35669

Rotational constants in cm-1:     0.773861     0.124923     0.107560
Rotational constants in MHz : 23199.755358  3745.104864  3224.567354

                             ****ORCA TERMINATED NORMALLY****
TOTAL RUN TIME: 0 days 0 hours 3 minutes 12 seconds 777 msec
