                         Program Version 5.0.4 -  RELEASE  -
|  1> ! ri-mp2 aug-cc-pvdz aug-cc-pvdz/c tightscf
|  2> %pal nprocs 16 end
|  3> %maxcore 3800
|  4> %base "DZ_S-Cl_47_A"
|  5> %scf
|  6> STABPerform true
|  7> STABRestartUHFifUnstable true
|  8> end
|  9>
| 10> *xyz 0 2
| 11> S         1.641052   -0.420606   -0.011667
| 12> S         0.119101    0.780764    0.022926
| 13> S        -1.654889   -0.318410   -0.086761
| 14> H        -1.684233   -0.667965    1.208032
| 15> *
| 16>
| 17> $new_job
| 18> ! ri-mp2 aug-cc-pvtz aug-cc-pvtz/c tightscf
| 19> %pal nprocs 16 end
| 20> %maxcore 3800
| 21> %base "TZ_S-Cl_47_A"
| 22>
| 23> *xyz 0 2
| 24> S         1.641052   -0.420606   -0.011667
| 25> S         0.119101    0.780764    0.022926
| 26> S        -1.654889   -0.318410   -0.086761
| 27> H        -1.684233   -0.667965    1.208032
| 28> *
| 29>
| 30> $new_job
| 31> ! ri-mp2 aug-cc-pvqz aug-cc-pvqz/c tightscf
| 32> %pal nprocs 16 end
| 33> %maxcore 3800
| 34> %base "QZ_S-Cl_47_A"
| 35>
| 36> *xyz 0 2
| 37> S         1.641052   -0.420606   -0.011667
| 38> S         0.119101    0.780764    0.022926
| 39> S        -1.654889   -0.318410   -0.086761
| 40> H        -1.684233   -0.667965    1.208032
| 41> *
| 42>
| 43>
| 44>
| 45>
| 46>                          ****END OF INPUT****
 Total Charge           Charge          ....    0
 Multiplicity           Mult            ....    2
 Number of Electrons    NEL             ....   49
MP2 TOTAL ENERGY:    -1193.574317136 Eh
FINAL SINGLE POINT ENERGY     -1193.574317135722
MP2 TOTAL ENERGY:    -1193.732292742 Eh
FINAL SINGLE POINT ENERGY     -1193.732292742260

CARTESIAN COORDINATES (ANGSTROEM)
---------------------------------
  S      1.641052   -0.420606   -0.011667
  S      0.119101    0.780764    0.022926
  S     -1.654889   -0.318410   -0.086761
  H     -1.684233   -0.667965    1.208032

 Multiplicity           Mult            ....    2
 Number of Electrons    NEL             ....   49
 Basis Dimension        Dim             ....  298

ORBITAL ENERGIES
----------------
                 SPIN UP ORBITALS
  NO   OCC          E(Eh)            E(eV)
   0   1.0000     -92.035397     -2504.4105
   1   1.0000     -91.997848     -2503.3887
   2   1.0000     -91.996940     -2503.3640
   3   1.0000      -9.032780      -245.7944
   4   1.0000      -8.999426      -244.8868
   5   1.0000      -8.998038      -244.8491
   6   1.0000      -6.716325      -182.7605
   7   1.0000      -6.713008      -182.6702
   8   1.0000      -6.711219      -182.6216
   9   1.0000      -6.692612      -182.1152
  10   1.0000      -6.678963      -181.7438
  11   1.0000      -6.678161      -181.7220
  12   1.0000      -6.677446      -181.7025
  13   1.0000      -6.677174      -181.6951
  14   1.0000      -6.675637      -181.6533
  15   1.0000      -1.119552       -30.4645
  16   1.0000      -0.990216       -26.9451
  17   1.0000      -0.829305       -22.5665
  18   1.0000      -0.600322       -16.3356
  19   1.0000      -0.547113       -14.8877
  20   1.0000      -0.524706       -14.2780
  21   1.0000      -0.504504       -13.7282
  22   1.0000      -0.398149       -10.8342
  23   1.0000      -0.383253       -10.4288
  24   1.0000      -0.371659       -10.1134
  25   0.0000       0.027682         0.7533
  26   0.0000       0.044852         1.2205
  27   0.0000       0.047767         1.2998
  28   0.0000       0.067762         1.8439
  29   0.0000       0.076184         2.0731

                 SPIN DOWN ORBITALS
  NO   OCC          E(Eh)            E(eV)
   0   1.0000     -92.032824     -2504.3405
   1   1.0000     -91.997148     -2503.3697
   2   1.0000     -91.989694     -2503.1668
   3   1.0000      -9.029884      -245.7156
   4   1.0000      -8.998243      -244.8546
   5   1.0000      -8.990476      -244.6433
   6   1.0000      -6.711564      -182.6309
   7   1.0000      -6.710513      -182.6023
   8   1.0000      -6.704656      -182.4430
   9   1.0000      -6.679577      -181.7605
  10   1.0000      -6.678536      -181.7322
  11   1.0000      -6.677358      -181.7001
  12   1.0000      -6.673049      -181.5829
  13   1.0000      -6.670671      -181.5182
  14   1.0000      -6.656306      -181.1273
  15   1.0000      -1.097074       -29.8529
  16   1.0000      -0.968003       -26.3407
  17   1.0000      -0.774953       -21.0876
  18   1.0000      -0.588219       -16.0062
  19   1.0000      -0.523870       -14.2552
  20   1.0000      -0.515427       -14.0255
  21   1.0000      -0.421616       -11.4727
  22   1.0000      -0.389644       -10.6028
  23   1.0000      -0.368862       -10.0372
  24   0.0000       0.002243         0.0610
  25   0.0000       0.028201         0.7674
  26   0.0000       0.046062         1.2534
  27   0.0000       0.048922         1.3312
  28   0.0000       0.069164         1.8820

MULLIKEN ATOMIC CHARGES AND SPIN POPULATIONS
--------------------------------------------
   0 S :   -0.069875    0.856176
   1 S :    0.072021    0.160118
   2 S :   -0.116777   -0.028839
   3 H :    0.114631    0.012545
Sum of atomic charges         :    0.0000000

LOEWDIN ATOMIC CHARGES AND SPIN POPULATIONS
-------------------------------------------
   0 S :    0.226933    0.672897
   1 S :   -0.210774    0.295922
   2 S :    0.921105    0.027431
   3 H :   -0.937264    0.003750

  Mayer bond orders larger than 0.100000
B(  0-S ,  1-S ) :   1.3893 B(  1-S ,  2-S ) :   1.0392 B(  2-S ,  3-H ) :   0.9769

MP2 TOTAL ENERGY:    -1193.784194852 Eh
FINAL SINGLE POINT ENERGY     -1193.784194851559

DIPOLE MOMENT
-------------
                                X             Y             Z
Electronic contribution:      1.36287       0.53168      -0.82857
Nuclear contribution   :     -1.59785      -0.63370       1.14607
                        -----------------------------------------
Total Dipole Moment    :     -0.23497      -0.10203       0.31750
                        -----------------------------------------
Magnitude (a.u.)       :      0.40795
Magnitude (Debye)      :      1.03694

Rotational constants in cm-1:     0.550954     0.094110     0.081680
Rotational constants in MHz : 16517.180132  2821.332584  2448.716820

                             ****ORCA TERMINATED NORMALLY****
TOTAL RUN TIME: 0 days 0 hours 5 minutes 9 seconds 745 msec
