                         Program Version 5.0.4 -  RELEASE  -
|  1> ! ri-mp2 aug-cc-pvdz aug-cc-pvdz/c tightscf
|  2> %pal nprocs 16 end
|  3> %maxcore 3800
|  4> %base "DZ_B-F_5_A"
|  5> %scf
|  6> STABPerform true
|  7> STABRestartUHFifUnstable true
|  8> end
|  9>
| 10> *xyz 0 2
| 11> F        -1.551394   -0.446094    0.000000
| 12> N         0.548188    0.667854    0.000000
| 13> B        -0.832720    0.670235    0.000000
| 14> C         1.401063   -0.513031   -0.000000
| 15> H         1.032572    1.549043    0.000000
| 16> H         0.776452   -1.402803   -0.000001
| 17> H         2.036714   -0.539680    0.886165
| 18> H         2.036714   -0.539679   -0.886166
| 19> *
| 20>
| 21> $new_job
| 22> ! ri-mp2 aug-cc-pvtz aug-cc-pvtz/c tightscf
| 23> %pal nprocs 16 end
| 24> %maxcore 3800
| 25> %base "TZ_B-F_5_A"
| 26>
| 27> *xyz 0 2
| 28> F        -1.551394   -0.446094    0.000000
| 29> N         0.548188    0.667854    0.000000
| 30> B        -0.832720    0.670235    0.000000
| 31> C         1.401063   -0.513031   -0.000000
| 32> H         1.032572    1.549043    0.000000
| 33> H         0.776452   -1.402803   -0.000001
| 34> H         2.036714   -0.539680    0.886165
| 35> H         2.036714   -0.539679   -0.886166
| 36> *
| 37>
| 38> $new_job
| 39> ! ri-mp2 aug-cc-pvqz aug-cc-pvqz/c tightscf
| 40> %pal nprocs 16 end
| 41> %maxcore 3800
| 42> %base "QZ_B-F_5_A"
| 43>
| 44> *xyz 0 2
| 45> F        -1.551394   -0.446094    0.000000
| 46> N         0.548188    0.667854    0.000000
| 47> B        -0.832720    0.670235    0.000000
| 48> C         1.401063   -0.513031   -0.000000
| 49> H         1.032572    1.549043    0.000000
| 50> H         0.776452   -1.402803   -0.000001
| 51> H         2.036714   -0.539680    0.886165
| 52> H         2.036714   -0.539679   -0.886166
| 53> *
| 54>
| 55>
| 56>
| 57>
| 58>                          ****END OF INPUT****
 Total Charge           Charge          ....    0
 Multiplicity           Mult            ....    2
 Number of Electrons    NEL             ....   31
MP2 TOTAL ENERGY:     -219.419514178 Eh
FINAL SINGLE POINT ENERGY      -219.419514178065
MP2 TOTAL ENERGY:     -219.615782284 Eh
FINAL SINGLE POINT ENERGY      -219.615782283746

CARTESIAN COORDINATES (ANGSTROEM)
---------------------------------
  F     -1.551394   -0.446094    0.000000
  N      0.548188    0.667854    0.000000
  B     -0.832720    0.670235    0.000000
  C      1.401063   -0.513031   -0.000000
  H      1.032572    1.549043    0.000000
  H      0.776452   -1.402803   -0.000001
  H      2.036714   -0.539680    0.886165
  H      2.036714   -0.539679   -0.886166

 Multiplicity           Mult            ....    2
 Number of Electrons    NEL             ....   31
 Basis Dimension        Dim             ....  504

ORBITAL ENERGIES
----------------
                 SPIN UP ORBITALS
  NO   OCC          E(Eh)            E(eV)
   0   1.0000     -26.289973      -715.3865
   1   1.0000     -15.564541      -423.5327
   2   1.0000     -11.263159      -306.4861
   3   1.0000      -7.661853      -208.4896
   4   1.0000      -1.606801       -43.7233
   5   1.0000      -1.205973       -32.8162
   6   1.0000      -0.933325       -25.3971
   7   1.0000      -0.781995       -21.2792
   8   1.0000      -0.724003       -19.7011
   9   1.0000      -0.670209       -18.2373
  10   1.0000      -0.651976       -17.7412
  11   1.0000      -0.633785       -17.2462
  12   1.0000      -0.604470       -16.4485
  13   1.0000      -0.546925       -14.8826
  14   1.0000      -0.413025       -11.2390
  15   1.0000      -0.353207        -9.6113
  16   0.0000       0.022512         0.6126
  17   0.0000       0.034840         0.9481
  18   0.0000       0.036220         0.9856
  19   0.0000       0.040320         1.0972
  20   0.0000       0.055637         1.5139

                 SPIN DOWN ORBITALS
  NO   OCC          E(Eh)            E(eV)
   0   1.0000     -26.286470      -715.2912
   1   1.0000     -15.564229      -423.5242
   2   1.0000     -11.261946      -306.4531
   3   1.0000      -7.640899      -207.9194
   4   1.0000      -1.596669       -43.4476
   5   1.0000      -1.202198       -32.7135
   6   1.0000      -0.926102       -25.2005
   7   1.0000      -0.771393       -20.9907
   8   1.0000      -0.703149       -19.1337
   9   1.0000      -0.667051       -18.1514
  10   1.0000      -0.632518       -17.2117
  11   1.0000      -0.621051       -16.8997
  12   1.0000      -0.606420       -16.5015
  13   1.0000      -0.544247       -14.8097
  14   1.0000      -0.418540       -11.3891
  15   0.0000       0.021387         0.5820
  16   0.0000       0.034056         0.9267
  17   0.0000       0.035229         0.9586
  18   0.0000       0.038918         1.0590
  19   0.0000       0.055731         1.5165

MULLIKEN ATOMIC CHARGES AND SPIN POPULATIONS
--------------------------------------------
   0 F :   -0.722986   -0.008139
   1 N :   -0.479404   -0.067331
   2 B :    0.761726    1.055373
   3 C :   -0.653581    0.036407
   4 H :    0.237848   -0.009264
   5 H :    0.314809    0.000065
   6 H :    0.270794   -0.003556
   7 H :    0.270793   -0.003556
Sum of atomic charges         :    0.0000000

LOEWDIN ATOMIC CHARGES AND SPIN POPULATIONS
-------------------------------------------
   0 F :    0.718394    0.151883
   1 N :    0.831386    0.161473
   2 B :   -0.831138    0.595900
   3 C :    0.748080    0.029574
   4 H :   -0.564027    0.047650
   5 H :   -0.328034    0.006426
   6 H :   -0.287330    0.003547
   7 H :   -0.287329    0.003547

  Mayer bond orders larger than 0.100000
B(  0-F ,  1-N ) :  -0.1001 B(  0-F ,  2-B ) :   0.4706 B(  1-N ,  2-B ) :   1.2494
B(  1-N ,  3-C ) :   0.8745 B(  1-N ,  4-H ) :   1.0196 B(  3-C ,  5-H ) :   0.9129
B(  3-C ,  6-H ) :   0.9360 B(  3-C ,  7-H ) :   0.9360

MP2 TOTAL ENERGY:     -219.677769950 Eh
FINAL SINGLE POINT ENERGY      -219.677769949843

DIPOLE MOMENT
-------------
                                X             Y             Z
Electronic contribution:     -6.85221       1.14654       0.00000
Nuclear contribution   :      7.86751      -1.00057      -0.00000
                        -----------------------------------------
Total Dipole Moment    :      1.01529       0.14597       0.00000
                        -----------------------------------------
Magnitude (a.u.)       :      1.02573
Magnitude (Debye)      :      2.60720

Rotational constants in cm-1:     0.686996     0.183998     0.149195
Rotational constants in MHz : 20595.608481  5516.133274  4472.766315

                             ****ORCA TERMINATED NORMALLY****
TOTAL RUN TIME: 0 days 0 hours 22 minutes 1 seconds 504 msec
