                         Program Version 5.0.4 -  RELEASE  -
|  1> ! ri-mp2 aug-cc-pvdz aug-cc-pvdz/c tightscf
|  2> %pal nprocs 16 end
|  3> %maxcore 3800
|  4> %base "DZ_P-C_5_AB"
|  5> %scf
|  6> STABPerform true
|  7> STABRestartUHFifUnstable true
|  8> end
|  9>
| 10> *xyz 0 1
| 11> C        -0.723412    0.478525   -0.005089
| 12> P         1.035714   -0.011898   -0.043264
| 13> O         1.950541    1.107924   -0.230412
| 14> C        -1.070464    1.210138   -1.290391
| 15> H        -0.880645    0.593706   -2.166491
| 16> H        -0.463330    2.112149   -1.364364
| 17> C        -1.018330    1.317146    1.224542
| 18> Cl        -1.713751   -1.047712    0.078378
| 19> H        -0.390285    2.208516    1.209455
| 20> H        -0.821506    0.762817    2.138940
| 21> H        -2.063019    1.625731    1.217972
| 22> H        -2.123206    1.489378   -1.279976
| 23> O         1.229346   -0.806023    1.325204
| 24> H         2.048183   -0.555838    1.769100
| 25> O         1.148254   -1.106051   -1.183184
| 26> H         0.539966   -1.848543   -1.075324
| 27> *
| 28>
| 29> $new_job
| 30> ! ri-mp2 aug-cc-pvtz aug-cc-pvtz/c tightscf
| 31> %pal nprocs 16 end
| 32> %maxcore 3800
| 33> %base "TZ_P-C_5_AB"
| 34>
| 35> *xyz 0 1
| 36> C        -0.723412    0.478525   -0.005089
| 37> P         1.035714   -0.011898   -0.043264
| 38> O         1.950541    1.107924   -0.230412
| 39> C        -1.070464    1.210138   -1.290391
| 40> H        -0.880645    0.593706   -2.166491
| 41> H        -0.463330    2.112149   -1.364364
| 42> C        -1.018330    1.317146    1.224542
| 43> Cl        -1.713751   -1.047712    0.078378
| 44> H        -0.390285    2.208516    1.209455
| 45> H        -0.821506    0.762817    2.138940
| 46> H        -2.063019    1.625731    1.217972
| 47> H        -2.123206    1.489378   -1.279976
| 48> O         1.229346   -0.806023    1.325204
| 49> H         2.048183   -0.555838    1.769100
| 50> O         1.148254   -1.106051   -1.183184
| 51> H         0.539966   -1.848543   -1.075324
| 52> *
| 53>
| 54> $new_job
| 55> ! ri-mp2 aug-cc-pvqz aug-cc-pvqz/c tightscf
| 56> %pal nprocs 16 end
| 57> %maxcore 3800
| 58> %base "QZ_P-C_5_AB"
| 59>
| 60> *xyz 0 1
| 61> C        -0.723412    0.478525   -0.005089
| 62> P         1.035714   -0.011898   -0.043264
| 63> O         1.950541    1.107924   -0.230412
| 64> C        -1.070464    1.210138   -1.290391
| 65> H        -0.880645    0.593706   -2.166491
| 66> H        -0.463330    2.112149   -1.364364
| 67> C        -1.018330    1.317146    1.224542
| 68> Cl        -1.713751   -1.047712    0.078378
| 69> H        -0.390285    2.208516    1.209455
| 70> H        -0.821506    0.762817    2.138940
| 71> H        -2.063019    1.625731    1.217972
| 72> H        -2.123206    1.489378   -1.279976
| 73> O         1.229346   -0.806023    1.325204
| 74> H         2.048183   -0.555838    1.769100
| 75> O         1.148254   -1.106051   -1.183184
| 76> H         0.539966   -1.848543   -1.075324
| 77> *
| 78>
| 79>
| 80>
| 81>
| 82>                          ****END OF INPUT****
 Total Charge           Charge          ....    0
 Multiplicity           Mult            ....    1
 Number of Electrons    NEL             ....   82
MP2 TOTAL ENERGY:    -1144.552682381 Eh
FINAL SINGLE POINT ENERGY     -1144.552682380724
MP2 TOTAL ENERGY:    -1144.992375731 Eh
FINAL SINGLE POINT ENERGY     -1144.992375731309

CARTESIAN COORDINATES (ANGSTROEM)
---------------------------------
  C     -0.723412    0.478525   -0.005089
  P      1.035714   -0.011898   -0.043264
  O      1.950541    1.107924   -0.230412
  C     -1.070464    1.210138   -1.290391
  H     -0.880645    0.593706   -2.166491
  H     -0.463330    2.112149   -1.364364
  C     -1.018330    1.317146    1.224542
  Cl    -1.713751   -1.047712    0.078378
  H     -0.390285    2.208516    1.209455
  H     -0.821506    0.762817    2.138940
  H     -2.063019    1.625731    1.217972
  H     -2.123206    1.489378   -1.279976
  O      1.229346   -0.806023    1.325204
  H      2.048183   -0.555838    1.769100
  O      1.148254   -1.106051   -1.183184
  H      0.539966   -1.848543   -1.075324

 Multiplicity           Mult            ....    1
 Number of Electrons    NEL             ....   82
 Basis Dimension        Dim             .... 1016

ORBITAL ENERGIES
----------------

  NO   OCC          E(Eh)            E(eV)
   0   2.0000    -104.842103     -2852.8987
   1   2.0000     -80.075731     -2178.9714
   2   2.0000     -20.606967      -560.7441
   3   2.0000     -20.604388      -560.6739
   4   2.0000     -20.510845      -558.1285
   5   2.0000     -11.322940      -308.1129
   6   2.0000     -11.243326      -305.9465
   7   2.0000     -11.241978      -305.9098
   8   2.0000     -10.568203      -287.5754
   9   2.0000      -8.035146      -218.6474
  10   2.0000      -8.033592      -218.6052
  11   2.0000      -8.033529      -218.6034
  12   2.0000      -7.598954      -206.7781
  13   2.0000      -5.497226      -149.5871
  14   2.0000      -5.496557      -149.5689
  15   2.0000      -5.495692      -149.5454
  16   2.0000      -1.446236       -39.3541
  17   2.0000      -1.393642       -37.9229
  18   2.0000      -1.307017       -35.5657
  19   2.0000      -1.172364       -31.9016
  20   2.0000      -1.042639       -28.3716
  21   2.0000      -0.969569       -26.3833
  22   2.0000      -0.881267       -23.9805
  23   2.0000      -0.792271       -21.5588
  24   2.0000      -0.769585       -20.9415
  25   2.0000      -0.687448       -18.7064
  26   2.0000      -0.665422       -18.1071
  27   2.0000      -0.642736       -17.4897
  28   2.0000      -0.636489       -17.3198
  29   2.0000      -0.606992       -16.5171
  30   2.0000      -0.592119       -16.1124
  31   2.0000      -0.576384       -15.6842
  32   2.0000      -0.570108       -15.5134
  33   2.0000      -0.542700       -14.7676
  34   2.0000      -0.528519       -14.3817
  35   2.0000      -0.523646       -14.2491
  36   2.0000      -0.507515       -13.8102
  37   2.0000      -0.485014       -13.1979
  38   2.0000      -0.476688       -12.9713
  39   2.0000      -0.454966       -12.3802
  40   2.0000      -0.433357       -11.7922
  41   0.0000       0.023693         0.6447
  42   0.0000       0.029472         0.8020
  43   0.0000       0.032390         0.8814
  44   0.0000       0.041838         1.1385
  45   0.0000       0.048108         1.3091

MULLIKEN ATOMIC CHARGES
-----------------------
   0 C :    0.829265
   1 P :    2.621964
   2 O :   -1.290527
   3 C :   -1.048636
   4 H :    0.263103
   5 H :    0.306130
   6 C :   -1.047860
   7 Cl:   -0.592689
   8 H :    0.296314
   9 H :    0.294604
  10 H :    0.330795
  11 H :    0.337773
  12 O :   -1.001741
  13 H :    0.365374
  14 O :   -1.048243
  15 H :    0.384374
Sum of atomic charges:    0.0000000

LOEWDIN ATOMIC CHARGES
----------------------
   0 C :   -0.959541
   1 P :   -0.795533
   2 O :    0.340164
   3 C :    0.758665
   4 H :   -0.307916
   5 H :   -0.290677
   6 C :    0.760514
   7 Cl:    1.239686
   8 H :   -0.286535
   9 H :   -0.316064
  10 H :   -0.296671
  11 H :   -0.297903
  12 O :    1.112749
  13 H :   -0.849112
  14 O :    1.106338
  15 H :   -0.918165

  Mayer bond orders larger than 0.100000
B(  0-C ,  1-P ) :   0.7484 B(  0-C ,  2-O ) :  -0.1490 B(  0-C ,  3-C ) :   0.6514
B(  0-C ,  6-C ) :   0.6232 B(  0-C ,  7-Cl) :   0.2820 B(  0-C , 12-O ) :  -0.2005
B(  0-C , 14-O ) :  -0.2206 B(  1-P ,  2-O ) :   1.2575 B(  1-P , 12-O ) :   0.5769
B(  1-P , 14-O ) :   0.5024 B(  3-C ,  4-H ) :   1.0021 B(  3-C ,  5-H ) :   0.9010
B(  3-C , 11-H ) :   0.9361 B(  6-C ,  8-H ) :   0.9264 B(  6-C ,  9-H ) :   0.9825
B(  6-C , 10-H ) :   0.9574 B( 12-O , 13-H ) :   0.9465 B( 14-O , 15-H ) :   0.8255

MP2 TOTAL ENERGY:    -1145.134126272 Eh
FINAL SINGLE POINT ENERGY     -1145.134126271848

DIPOLE MOMENT
-------------
                                X             Y             Z
Electronic contribution:      1.79735      -7.90786       0.14141
Nuclear contribution   :     -2.54552       7.66069       0.36624
                        -----------------------------------------
Total Dipole Moment    :     -0.74817      -0.24717       0.50766
                        -----------------------------------------
Magnitude (a.u.)       :      0.93732
Magnitude (Debye)      :      2.38248

Rotational constants in cm-1:     0.065689     0.041902     0.038350
Rotational constants in MHz :  1969.302600  1256.179874  1149.693480

                             ****ORCA TERMINATED NORMALLY****
TOTAL RUN TIME: 0 days 2 hours 24 minutes 49 seconds 590 msec
