                         Program Version 5.0.4 -  RELEASE  -
|  1> ! ri-mp2 aug-cc-pvdz aug-cc-pvdz/c tightscf
|  2> %pal nprocs 16 end
|  3> %maxcore 3800
|  4> %base "DZ_B-Si_24_AB"
|  5>
|  6> *xyz 0 1
|  7> Si        -0.108299    0.240168    0.811787
|  8> N        -1.212744   -1.099854    0.052099
|  9> B         1.726907   -0.159373    0.048785
| 10> O        -2.410293   -0.924641    0.020297
| 11> O        -0.674884   -2.123186   -0.367330
| 12> O         2.000239   -1.317951   -0.583076
| 13> O         2.682834    0.792173    0.200475
| 14> C        -0.903261    1.856370    0.362959
| 15> C        -0.911438    2.144907   -1.138543
| 16> H        -0.354013    2.637102    0.897913
| 17> H        -1.918263    1.861378    0.763926
| 18> H         0.099278    2.158180   -1.549090
| 19> H        -1.362773    3.114443   -1.347901
| 20> H        -1.485689    1.394911   -1.683535
| 21> H         3.534572    0.535251   -0.174576
| 22> H         1.221626   -1.898457   -0.634086
| 23> H        -0.258857   -0.088146    2.244295
| 24> *
| 25>
| 26> $new_job
| 27> ! ri-mp2 aug-cc-pvtz aug-cc-pvtz/c tightscf
| 28> %pal nprocs 16 end
| 29> %maxcore 3800
| 30> %base "TZ_B-Si_24_AB"
| 31>
| 32> *xyz 0 1
| 33> Si        -0.108299    0.240168    0.811787
| 34> N        -1.212744   -1.099854    0.052099
| 35> B         1.726907   -0.159373    0.048785
| 36> O        -2.410293   -0.924641    0.020297
| 37> O        -0.674884   -2.123186   -0.367330
| 38> O         2.000239   -1.317951   -0.583076
| 39> O         2.682834    0.792173    0.200475
| 40> C        -0.903261    1.856370    0.362959
| 41> C        -0.911438    2.144907   -1.138543
| 42> H        -0.354013    2.637102    0.897913
| 43> H        -1.918263    1.861378    0.763926
| 44> H         0.099278    2.158180   -1.549090
| 45> H        -1.362773    3.114443   -1.347901
| 46> H        -1.485689    1.394911   -1.683535
| 47> H         3.534572    0.535251   -0.174576
| 48> H         1.221626   -1.898457   -0.634086
| 49> H        -0.258857   -0.088146    2.244295
| 50> *
| 51>
| 52> $new_job
| 53> ! ri-mp2 aug-cc-pvqz aug-cc-pvqz/c tightscf
| 54> %pal nprocs 16 end
| 55> %maxcore 3800
| 56> %base "QZ_B-Si_24_AB"
| 57>
| 58> *xyz 0 1
| 59> Si        -0.108299    0.240168    0.811787
| 60> N        -1.212744   -1.099854    0.052099
| 61> B         1.726907   -0.159373    0.048785
| 62> O        -2.410293   -0.924641    0.020297
| 63> O        -0.674884   -2.123186   -0.367330
| 64> O         2.000239   -1.317951   -0.583076
| 65> O         2.682834    0.792173    0.200475
| 66> C        -0.903261    1.856370    0.362959
| 67> C        -0.911438    2.144907   -1.138543
| 68> H        -0.354013    2.637102    0.897913
| 69> H        -1.918263    1.861378    0.763926
| 70> H         0.099278    2.158180   -1.549090
| 71> H        -1.362773    3.114443   -1.347901
| 72> H        -1.485689    1.394911   -1.683535
| 73> H         3.534572    0.535251   -0.174576
| 74> H         1.221626   -1.898457   -0.634086
| 75> H        -0.258857   -0.088146    2.244295
| 76> *
| 77>
| 78>
| 79>
| 80>
| 81>                          ****END OF INPUT****
 Total Charge           Charge          ....    0
 Multiplicity           Mult            ....    1
 Number of Electrons    NEL             ....   78
MP2 TOTAL ENERGY:     -749.463082957 Eh
FINAL SINGLE POINT ENERGY      -749.463082956881
MP2 TOTAL ENERGY:     -749.895587469 Eh
FINAL SINGLE POINT ENERGY      -749.895587468805

CARTESIAN COORDINATES (ANGSTROEM)
---------------------------------
  Si    -0.108299    0.240168    0.811787
  N     -1.212744   -1.099854    0.052099
  B      1.726907   -0.159373    0.048785
  O     -2.410293   -0.924641    0.020297
  O     -0.674884   -2.123186   -0.367330
  O      2.000239   -1.317951   -0.583076
  O      2.682834    0.792173    0.200475
  C     -0.903261    1.856370    0.362959
  C     -0.911438    2.144907   -1.138543
  H     -0.354013    2.637102    0.897913
  H     -1.918263    1.861378    0.763926
  H      0.099278    2.158180   -1.549090
  H     -1.362773    3.114443   -1.347901
  H     -1.485689    1.394911   -1.683535
  H      3.534572    0.535251   -0.174576
  H      1.221626   -1.898457   -0.634086
  H     -0.258857   -0.088146    2.244295

 Multiplicity           Mult            ....    1
 Number of Electrons    NEL             ....   78
 Basis Dimension        Dim             .... 1092

ORBITAL ENERGIES
----------------

  NO   OCC          E(Eh)            E(eV)
   0   2.0000     -68.811066     -1872.4443
   1   2.0000     -20.607970      -560.7714
   2   2.0000     -20.600005      -560.5546
   3   2.0000     -20.586127      -560.1770
   4   2.0000     -20.574900      -559.8715
   5   2.0000     -15.814907      -430.3455
   6   2.0000     -11.236475      -305.7600
   7   2.0000     -11.235631      -305.7371
   8   2.0000      -7.657596      -208.3738
   9   2.0000      -6.161163      -167.6538
  10   2.0000      -4.267969      -116.1373
  11   2.0000      -4.266411      -116.0949
  12   2.0000      -4.265926      -116.0817
  13   2.0000      -1.599524       -43.5253
  14   2.0000      -1.402243       -38.1570
  15   2.0000      -1.395567       -37.9753
  16   2.0000      -1.360700       -37.0265
  17   2.0000      -1.049002       -28.5448
  18   2.0000      -0.952423       -25.9168
  19   2.0000      -0.870229       -23.6801
  20   2.0000      -0.799321       -21.7506
  21   2.0000      -0.787975       -21.4419
  22   2.0000      -0.744858       -20.2686
  23   2.0000      -0.724527       -19.7154
  24   2.0000      -0.707989       -19.2654
  25   2.0000      -0.665204       -18.1011
  26   2.0000      -0.627293       -17.0695
  27   2.0000      -0.622633       -16.9427
  28   2.0000      -0.598474       -16.2853
  29   2.0000      -0.585648       -15.9363
  30   2.0000      -0.584572       -15.9070
  31   2.0000      -0.537213       -14.6183
  32   2.0000      -0.519052       -14.1241
  33   2.0000      -0.515357       -14.0236
  34   2.0000      -0.501524       -13.6472
  35   2.0000      -0.477707       -12.9991
  36   2.0000      -0.458847       -12.4859
  37   2.0000      -0.458218       -12.4687
  38   2.0000      -0.434911       -11.8345
  39   0.0000       0.018852         0.5130
  40   0.0000       0.026772         0.7285
  41   0.0000       0.030797         0.8380
  42   0.0000       0.036036         0.9806
  43   0.0000       0.044278         1.2049

MULLIKEN ATOMIC CHARGES
-----------------------
   0 Si:    1.124551
   1 N :    0.750975
   2 B :    1.380842
   3 O :   -0.631614
   4 O :   -0.706533
   5 O :   -1.227939
   6 O :   -1.033050
   7 C :   -0.521820
   8 C :   -0.926320
   9 H :    0.269338
  10 H :    0.270521
  11 H :    0.269700
  12 H :    0.343252
  13 H :    0.249798
  14 H :    0.326394
  15 H :    0.376170
  16 H :   -0.314264
Sum of atomic charges:   -0.0000000

LOEWDIN ATOMIC CHARGES
----------------------
   0 Si:    0.508284
   1 N :   -0.821735
   2 B :   -1.167569
   3 O :    0.474055
   4 O :    0.533593
   5 O :    1.323595
   6 O :    1.292869
   7 C :    0.522186
   8 C :    0.872448
   9 H :   -0.328560
  10 H :   -0.337562
  11 H :   -0.291444
  12 H :   -0.275649
  13 H :   -0.294046
  14 H :   -0.791994
  15 H :   -1.030318
  16 H :   -0.188153

  Mayer bond orders larger than 0.100000
B(  0-Si,  1-N ) :   0.3598 B(  0-Si,  2-B ) :   0.9327 B(  0-Si,  5-O ) :  -0.1060
B(  0-Si,  6-O ) :  -0.1215 B(  0-Si,  7-C ) :   0.8599 B(  0-Si, 16-H ) :   0.8318
B(  1-N ,  3-O ) :   1.2718 B(  1-N ,  4-O ) :   1.1169 B(  2-B ,  5-O ) :   0.4990
B(  2-B ,  6-O ) :   0.3647 B(  3-O ,  4-O ) :   0.1383 B(  5-O ,  6-O ) :  -0.1316
B(  5-O , 15-H ) :   0.8728 B(  6-O , 14-H ) :   0.9536 B(  7-C ,  8-C ) :   0.9553
B(  7-C ,  9-H ) :   0.8719 B(  7-C , 10-H ) :   0.8866 B(  8-C , 11-H ) :   0.9232
B(  8-C , 12-H ) :   0.9104 B(  8-C , 13-H ) :   0.9252

MP2 TOTAL ENERGY:     -750.037400711 Eh
FINAL SINGLE POINT ENERGY      -750.037400711015

DIPOLE MOMENT
-------------
                                X             Y             Z
Electronic contribution:      2.62863      -8.38860       1.89329
Nuclear contribution   :     -1.85935       9.60215      -1.55633
                        -----------------------------------------
Total Dipole Moment    :      0.76928       1.21355       0.33695
                        -----------------------------------------
Magnitude (a.u.)       :      1.47582
Magnitude (Debye)      :      3.75124

Rotational constants in cm-1:     0.051674     0.038899     0.026180
Rotational constants in MHz :  1549.136867  1166.162885   784.859097

                             ****ORCA TERMINATED NORMALLY****
TOTAL RUN TIME: 0 days 0 hours 32 minutes 20 seconds 342 msec
