                         Program Version 5.0.4 -  RELEASE  -
|  1> ! ri-mp2 aug-cc-pvdz aug-cc-pvdz/c tightscf
|  2> %pal nprocs 16 end
|  3> %maxcore 3800
|  4> %base "DZ_Si-S_42_AB"
|  5> %scf
|  6> STABPerform true
|  7> STABRestartUHFifUnstable true
|  8> end
|  9>
| 10> *xyz 0 1
| 11> Si         1.159091    1.231663   -0.094393
| 12> C        -0.511808    0.919204    0.683223
| 13> C        -3.829388   -0.807108   -0.437067
| 14> C        -2.849364   -0.067718    0.459719
| 15> H        -3.433283   -1.780625   -0.732063
| 16> H        -4.783304   -0.974108    0.063990
| 17> C        -1.504363    0.178767   -0.208939
| 18> H        -2.690853   -0.636649    1.380657
| 19> H        -3.279428    0.890409    0.765668
| 20> H        -1.662400    0.745672   -1.131850
| 21> H        -1.074939   -0.777957   -0.518976
| 22> H        -0.919881    1.892149    0.977985
| 23> H        -0.363613    0.368778    1.617680
| 24> S         2.134458   -0.562048   -0.708608
| 25> C         2.315066   -1.389304    0.901288
| 26> H         1.347841   -1.659233    1.319053
| 27> H         2.858371   -0.762447    1.605430
| 28> H         2.886272   -2.298376    0.730578
| 29> H        -4.027899   -0.242900   -1.350282
| 30> H         2.015687    1.954379    0.876327
| 31> H         1.027986    2.027342   -1.334321
| 32> *
| 33>
| 34> $new_job
| 35> ! ri-mp2 aug-cc-pvtz aug-cc-pvtz/c tightscf
| 36> %pal nprocs 16 end
| 37> %maxcore 3800
| 38> %base "TZ_Si-S_42_AB"
| 39>
| 40> *xyz 0 1
| 41> Si         1.159091    1.231663   -0.094393
| 42> C        -0.511808    0.919204    0.683223
| 43> C        -3.829388   -0.807108   -0.437067
| 44> C        -2.849364   -0.067718    0.459719
| 45> H        -3.433283   -1.780625   -0.732063
| 46> H        -4.783304   -0.974108    0.063990
| 47> C        -1.504363    0.178767   -0.208939
| 48> H        -2.690853   -0.636649    1.380657
| 49> H        -3.279428    0.890409    0.765668
| 50> H        -1.662400    0.745672   -1.131850
| 51> H        -1.074939   -0.777957   -0.518976
| 52> H        -0.919881    1.892149    0.977985
| 53> H        -0.363613    0.368778    1.617680
| 54> S         2.134458   -0.562048   -0.708608
| 55> C         2.315066   -1.389304    0.901288
| 56> H         1.347841   -1.659233    1.319053
| 57> H         2.858371   -0.762447    1.605430
| 58> H         2.886272   -2.298376    0.730578
| 59> H        -4.027899   -0.242900   -1.350282
| 60> H         2.015687    1.954379    0.876327
| 61> H         1.027986    2.027342   -1.334321
| 62> *
| 63>
| 64> $new_job
| 65> ! ri-mp2 aug-cc-pvqz aug-cc-pvqz/c tightscf
| 66> %pal nprocs 16 end
| 67> %maxcore 3800
| 68> %base "QZ_Si-S_42_AB"
| 69>
| 70> *xyz 0 1
| 71> Si         1.159091    1.231663   -0.094393
| 72> C        -0.511808    0.919204    0.683223
| 73> C        -3.829388   -0.807108   -0.437067
| 74> C        -2.849364   -0.067718    0.459719
| 75> H        -3.433283   -1.780625   -0.732063
| 76> H        -4.783304   -0.974108    0.063990
| 77> C        -1.504363    0.178767   -0.208939
| 78> H        -2.690853   -0.636649    1.380657
| 79> H        -3.279428    0.890409    0.765668
| 80> H        -1.662400    0.745672   -1.131850
| 81> H        -1.074939   -0.777957   -0.518976
| 82> H        -0.919881    1.892149    0.977985
| 83> H        -0.363613    0.368778    1.617680
| 84> S         2.134458   -0.562048   -0.708608
| 85> C         2.315066   -1.389304    0.901288
| 86> H         1.347841   -1.659233    1.319053
| 87> H         2.858371   -0.762447    1.605430
| 88> H         2.886272   -2.298376    0.730578
| 89> H        -4.027899   -0.242900   -1.350282
| 90> H         2.015687    1.954379    0.876327
| 91> H         1.027986    2.027342   -1.334321
| 92> *
| 93>
| 94>
| 95>
| 96>
| 97>                          ****END OF INPUT****
 Total Charge           Charge          ....    0
 Multiplicity           Mult            ....    1
 Number of Electrons    NEL             ....   74
MP2 TOTAL ENERGY:     -885.014015011 Eh
FINAL SINGLE POINT ENERGY      -885.014015010776
MP2 TOTAL ENERGY:     -885.300688750 Eh
FINAL SINGLE POINT ENERGY      -885.300688749570

CARTESIAN COORDINATES (ANGSTROEM)
---------------------------------
  Si     1.159091    1.231663   -0.094393
  C     -0.511808    0.919204    0.683223
  C     -3.829388   -0.807108   -0.437067
  C     -2.849364   -0.067718    0.459719
  H     -3.433283   -1.780625   -0.732063
  H     -4.783304   -0.974108    0.063990
  C     -1.504363    0.178767   -0.208939
  H     -2.690853   -0.636649    1.380657
  H     -3.279428    0.890409    0.765668
  H     -1.662400    0.745672   -1.131850
  H     -1.074939   -0.777957   -0.518976
  H     -0.919881    1.892149    0.977985
  H     -0.363613    0.368778    1.617680
  S      2.134458   -0.562048   -0.708608
  C      2.315066   -1.389304    0.901288
  H      1.347841   -1.659233    1.319053
  H      2.858371   -0.762447    1.605430
  H      2.886272   -2.298376    0.730578
  H     -4.027899   -0.242900   -1.350282
  H      2.015687    1.954379    0.876327
  H      1.027986    2.027342   -1.334321

 Multiplicity           Mult            ....    1
 Number of Electrons    NEL             ....   74
 Basis Dimension        Dim             .... 1212

ORBITAL ENERGIES
----------------

  NO   OCC          E(Eh)            E(eV)
   0   2.0000     -91.931914     -2501.5946
   1   2.0000     -68.778384     -1871.5550
   2   2.0000     -11.256953      -306.3173
   3   2.0000     -11.220903      -305.3363
   4   2.0000     -11.216762      -305.2236
   5   2.0000     -11.210772      -305.0606
   6   2.0000     -11.209823      -305.0348
   7   2.0000      -8.936088      -243.1633
   8   2.0000      -6.617601      -180.0741
   9   2.0000      -6.616852      -180.0537
  10   2.0000      -6.616112      -180.0336
  11   2.0000      -6.126361      -166.7068
  12   2.0000      -4.233062      -115.1875
  13   2.0000      -4.232578      -115.1743
  14   2.0000      -4.231967      -115.1577
  15   2.0000      -1.077990       -29.3336
  16   2.0000      -1.032452       -28.0945
  17   2.0000      -0.986385       -26.8409
  18   2.0000      -0.873051       -23.7569
  19   2.0000      -0.853657       -23.2292
  20   2.0000      -0.795307       -21.6414
  21   2.0000      -0.678497       -18.4628
  22   2.0000      -0.647188       -17.6109
  23   2.0000      -0.596558       -16.2332
  24   2.0000      -0.594444       -16.1756
  25   2.0000      -0.588730       -16.0201
  26   2.0000      -0.572115       -15.5681
  27   2.0000      -0.549119       -14.9423
  28   2.0000      -0.515240       -14.0204
  29   2.0000      -0.503767       -13.7082
  30   2.0000      -0.501302       -13.6411
  31   2.0000      -0.476070       -12.9545
  32   2.0000      -0.467165       -12.7122
  33   2.0000      -0.461720       -12.5640
  34   2.0000      -0.434264       -11.8169
  35   2.0000      -0.409000       -11.1295
  36   2.0000      -0.350072        -9.5259
  37   0.0000       0.022205         0.6042
  38   0.0000       0.029264         0.7963
  39   0.0000       0.029706         0.8083
  40   0.0000       0.032155         0.8750
  41   0.0000       0.042954         1.1688

MULLIKEN ATOMIC CHARGES
-----------------------
   0 Si:    1.056894
   1 C :   -0.680543
   2 C :   -0.886131
   3 C :   -0.445221
   4 H :    0.221579
   5 H :    0.274774
   6 C :   -0.191324
   7 H :    0.215748
   8 H :    0.231973
   9 H :    0.271762
  10 H :    0.241846
  11 H :    0.264181
  12 H :    0.238774
  13 S :   -0.351450
  14 C :   -1.020703
  15 H :    0.295332
  16 H :    0.277369
  17 H :    0.439646
  18 H :    0.227782
  19 H :   -0.327179
  20 H :   -0.355111
Sum of atomic charges:    0.0000000

LOEWDIN ATOMIC CHARGES
----------------------
   0 Si:    0.331324
   1 C :    0.476429
   2 C :    0.926979
   3 C :    0.500215
   4 H :   -0.283269
   5 H :   -0.282740
   6 C :    0.419212
   7 H :   -0.272838
   8 H :   -0.272163
   9 H :   -0.279626
  10 H :   -0.297684
  11 H :   -0.331989
  12 H :   -0.341291
  13 S :    1.162510
  14 C :    0.468682
  15 H :   -0.378202
  16 H :   -0.377622
  17 H :   -0.390516
  18 H :   -0.283376
  19 H :   -0.240778
  20 H :   -0.253257

  Mayer bond orders larger than 0.100000
B(  0-Si,  1-C ) :   0.9022 B(  0-Si,  6-C ) :  -0.1154 B(  0-Si, 13-S ) :   0.7555
B(  0-Si, 19-H ) :   0.7916 B(  0-Si, 20-H ) :   0.7515 B(  1-C ,  6-C ) :   0.8412
B(  1-C , 11-H ) :   0.9236 B(  1-C , 12-H ) :   0.9281 B(  2-C ,  3-C ) :   0.9999
B(  2-C ,  4-H ) :   0.9516 B(  2-C ,  5-H ) :   1.0171 B(  2-C , 18-H ) :   0.9553
B(  3-C ,  5-H ) :  -0.1004 B(  3-C ,  6-C ) :   0.8922 B(  3-C ,  7-H ) :   0.8991
B(  3-C ,  8-H ) :   0.8802 B(  6-C ,  9-H ) :   0.8576 B(  6-C , 10-H ) :   0.8860
B( 13-S , 14-C ) :   0.9636 B( 14-C , 15-H ) :   0.8947 B( 14-C , 16-H ) :   0.9096
B( 14-C , 17-H ) :   0.7908

MP2 TOTAL ENERGY:     -885.388056263 Eh
FINAL SINGLE POINT ENERGY      -885.388056263158

DIPOLE MOMENT
-------------
                                X             Y             Z
Electronic contribution:     12.27497       1.28716      -3.74020
Nuclear contribution   :    -12.66059      -1.35652       4.44672
                        -----------------------------------------
Total Dipole Moment    :     -0.38562      -0.06936       0.70651
                        -----------------------------------------
Magnitude (a.u.)       :      0.80788
Magnitude (Debye)      :      2.05348

Rotational constants in cm-1:     0.096020     0.023966     0.021874
Rotational constants in MHz :  2878.606439   718.471459   655.758712

                             ****ORCA TERMINATED NORMALLY****
TOTAL RUN TIME: 0 days 4 hours 13 minutes 23 seconds 655 msec
