                         Program Version 5.0.4 -  RELEASE  -
|  1> ! ri-mp2 aug-cc-pvdz aug-cc-pvdz/c tightscf
|  2> %pal nprocs 16 end
|  3> %maxcore 3800
|  4> %base "DZ_B-Cl_14_A"
|  5> %scf
|  6> STABPerform true
|  7> STABRestartUHFifUnstable true
|  8> end
|  9>
| 10> *xyz 0 2
| 11> Cl        -1.495168   -0.165095   -0.000009
| 12> B        -0.172105    0.911030   -0.000003
| 13> C         1.339108    0.567845    0.000010
| 14> F         1.623228   -0.798305    0.000008
| 15> H         1.817328    1.014571    0.877912
| 16> H         1.817344    1.014577   -0.877881
| 17> *
| 18>
| 19> $new_job
| 20> ! ri-mp2 aug-cc-pvtz aug-cc-pvtz/c tightscf
| 21> %pal nprocs 16 end
| 22> %maxcore 3800
| 23> %base "TZ_B-Cl_14_A"
| 24>
| 25> *xyz 0 2
| 26> Cl        -1.495168   -0.165095   -0.000009
| 27> B        -0.172105    0.911030   -0.000003
| 28> C         1.339108    0.567845    0.000010
| 29> F         1.623228   -0.798305    0.000008
| 30> H         1.817328    1.014571    0.877912
| 31> H         1.817344    1.014577   -0.877881
| 32> *
| 33>
| 34> $new_job
| 35> ! ri-mp2 aug-cc-pvqz aug-cc-pvqz/c tightscf
| 36> %pal nprocs 16 end
| 37> %maxcore 3800
| 38> %base "QZ_B-Cl_14_A"
| 39>
| 40> *xyz 0 2
| 41> Cl        -1.495168   -0.165095   -0.000009
| 42> B        -0.172105    0.911030   -0.000003
| 43> C         1.339108    0.567845    0.000010
| 44> F         1.623228   -0.798305    0.000008
| 45> H         1.817328    1.014571    0.877912
| 46> H         1.817344    1.014577   -0.877881
| 47> *
| 48>
| 49>
| 50>
| 51>
| 52>                          ****END OF INPUT****
 Total Charge           Charge          ....    0
 Multiplicity           Mult            ....    2
 Number of Electrons    NEL             ....   39
MP2 TOTAL ENERGY:     -623.200880789 Eh
FINAL SINGLE POINT ENERGY      -623.200880789221
MP2 TOTAL ENERGY:     -623.397251235 Eh
FINAL SINGLE POINT ENERGY      -623.397251234557

CARTESIAN COORDINATES (ANGSTROEM)
---------------------------------
  Cl    -1.495168   -0.165095   -0.000009
  B     -0.172105    0.911030   -0.000003
  C      1.339108    0.567845    0.000010
  F      1.623228   -0.798305    0.000008
  H      1.817328    1.014571    0.877912
  H      1.817344    1.014577   -0.877881

 Multiplicity           Mult            ....    2
 Number of Electrons    NEL             ....   39
 Basis Dimension        Dim             ....  416

ORBITAL ENERGIES
----------------
                 SPIN UP ORBITALS
  NO   OCC          E(Eh)            E(eV)
   0   1.0000    -104.854703     -2853.2415
   1   1.0000     -26.282755      -715.1901
   2   1.0000     -11.310038      -307.7618
   3   1.0000     -10.582320      -287.9596
   4   1.0000      -8.049982      -219.0512
   5   1.0000      -8.047939      -218.9956
   6   1.0000      -8.047560      -218.9852
   7   1.0000      -7.688029      -209.2019
   8   1.0000      -1.593200       -43.3532
   9   1.0000      -1.139946       -31.0195
  10   1.0000      -0.976654       -26.5761
  11   1.0000      -0.722682       -19.6652
  12   1.0000      -0.704158       -19.1611
  13   1.0000      -0.697632       -18.9835
  14   1.0000      -0.637607       -17.3502
  15   1.0000      -0.547908       -14.9093
  16   1.0000      -0.536775       -14.6064
  17   1.0000      -0.510305       -13.8861
  18   1.0000      -0.498221       -13.5573
  19   1.0000      -0.356287        -9.6951
  20   0.0000       0.023623         0.6428
  21   0.0000       0.032155         0.8750
  22   0.0000       0.037425         1.0184
  23   0.0000       0.040314         1.0970
  24   0.0000       0.056913         1.5487

                 SPIN DOWN ORBITALS
  NO   OCC          E(Eh)            E(eV)
   0   1.0000    -104.853983     -2853.2219
   1   1.0000     -26.280605      -715.1316
   2   1.0000     -11.308432      -307.7181
   3   1.0000     -10.581482      -287.9368
   4   1.0000      -8.048594      -219.0134
   5   1.0000      -8.047844      -218.9930
   6   1.0000      -8.045500      -218.9292
   7   1.0000      -7.668232      -208.6632
   8   1.0000      -1.586668       -43.1754
   9   1.0000      -1.131352       -30.7857
  10   1.0000      -0.967635       -26.3307
  11   1.0000      -0.708644       -19.2832
  12   1.0000      -0.702428       -19.1140
  13   1.0000      -0.680034       -18.5047
  14   1.0000      -0.618680       -16.8351
  15   1.0000      -0.545753       -14.8507
  16   1.0000      -0.519776       -14.1438
  17   1.0000      -0.499487       -13.5917
  18   1.0000      -0.481029       -13.0895
  19   0.0000       0.019706         0.5362
  20   0.0000       0.032983         0.8975
  21   0.0000       0.037130         1.0104
  22   0.0000       0.040034         1.0894
  23   0.0000       0.058659         1.5962

MULLIKEN ATOMIC CHARGES AND SPIN POPULATIONS
--------------------------------------------
   0 Cl:   -0.199355    0.023048
   1 B :    0.306936    0.981601
   2 C :   -0.032997   -0.011531
   3 F :   -0.658310    0.028899
   4 H :    0.291862   -0.011009
   5 H :    0.291862   -0.011009
Sum of atomic charges         :    0.0000000

LOEWDIN ATOMIC CHARGES AND SPIN POPULATIONS
-------------------------------------------
   0 Cl:    1.222341    0.172150
   1 B :   -1.033696    0.575369
   2 C :   -0.091392    0.163944
   3 F :    0.706984    0.034290
   4 H :   -0.402119    0.027123
   5 H :   -0.402118    0.027123

  Mayer bond orders larger than 0.100000
B(  0-Cl,  1-B ) :   1.1969 B(  1-B ,  2-C ) :   1.0193 B(  2-C ,  3-F ) :   0.5341
B(  2-C ,  4-H ) :   0.8665 B(  2-C ,  5-H ) :   0.8665

MP2 TOTAL ENERGY:     -623.462443070 Eh
FINAL SINGLE POINT ENERGY      -623.462443069805

DIPOLE MOMENT
-------------
                                X             Y             Z
Electronic contribution:     -3.79639      -1.44674      -0.00003
Nuclear contribution   :      3.98089       2.14283       0.00004
                        -----------------------------------------
Total Dipole Moment    :      0.18450       0.69609       0.00000
                        -----------------------------------------
Magnitude (a.u.)       :      0.72013
Magnitude (Debye)      :      1.83042

Rotational constants in cm-1:     0.575340     0.105802     0.090864
Rotational constants in MHz : 17248.249460  3171.852445  2724.043838

                             ****ORCA TERMINATED NORMALLY****
TOTAL RUN TIME: 0 days 0 hours 14 minutes 21 seconds 760 msec
