                         Program Version 5.0.4 -  RELEASE  -
|  1> ! ri-mp2 aug-cc-pvdz aug-cc-pvdz/c tightscf
|  2> %pal nprocs 16 end
|  3> %maxcore 3800
|  4> %base "DZ_B-Cl_37_AB"
|  5> %scf
|  6> STABPerform true
|  7> STABRestartUHFifUnstable true
|  8> end
|  9>
| 10> *xyz 0 1
| 11> Cl         1.767748   -1.335981    0.000005
| 12> Cl         1.388395    1.670834   -0.000011
| 13> B         0.770206    0.057907   -0.000001
| 14> S        -1.092692   -0.259790    0.000003
| 15> O        -1.396889   -0.907675    1.249654
| 16> C        -1.903970    1.314636   -0.000009
| 17> O        -1.396893   -0.907695   -1.249636
| 18> H        -1.640625    1.865694    0.898661
| 19> H        -2.967078    1.078387   -0.000008
| 20> H        -1.640624    1.865681   -0.898687
| 21> *
| 22>
| 23> $new_job
| 24> ! ri-mp2 aug-cc-pvtz aug-cc-pvtz/c tightscf
| 25> %pal nprocs 16 end
| 26> %maxcore 3800
| 27> %base "TZ_B-Cl_37_AB"
| 28>
| 29> *xyz 0 1
| 30> Cl         1.767748   -1.335981    0.000005
| 31> Cl         1.388395    1.670834   -0.000011
| 32> B         0.770206    0.057907   -0.000001
| 33> S        -1.092692   -0.259790    0.000003
| 34> O        -1.396889   -0.907675    1.249654
| 35> C        -1.903970    1.314636   -0.000009
| 36> O        -1.396893   -0.907695   -1.249636
| 37> H        -1.640625    1.865694    0.898661
| 38> H        -2.967078    1.078387   -0.000008
| 39> H        -1.640624    1.865681   -0.898687
| 40> *
| 41>
| 42> $new_job
| 43> ! ri-mp2 aug-cc-pvqz aug-cc-pvqz/c tightscf
| 44> %pal nprocs 16 end
| 45> %maxcore 3800
| 46> %base "QZ_B-Cl_37_AB"
| 47>
| 48> *xyz 0 1
| 49> Cl         1.767748   -1.335981    0.000005
| 50> Cl         1.388395    1.670834   -0.000011
| 51> B         0.770206    0.057907   -0.000001
| 52> S        -1.092692   -0.259790    0.000003
| 53> O        -1.396889   -0.907675    1.249654
| 54> C        -1.903970    1.314636   -0.000009
| 55> O        -1.396893   -0.907695   -1.249636
| 56> H        -1.640625    1.865694    0.898661
| 57> H        -2.967078    1.078387   -0.000008
| 58> H        -1.640624    1.865681   -0.898687
| 59> *
| 60>
| 61>
| 62>
| 63>
| 64>                          ****END OF INPUT****
 Total Charge           Charge          ....    0
 Multiplicity           Mult            ....    1
 Number of Electrons    NEL             ....   80
MP2 TOTAL ENERGY:    -1531.660384620 Eh
FINAL SINGLE POINT ENERGY     -1531.660384620362
MP2 TOTAL ENERGY:    -1532.056943564 Eh
FINAL SINGLE POINT ENERGY     -1532.056943563541

CARTESIAN COORDINATES (ANGSTROEM)
---------------------------------
  Cl     1.767748   -1.335981    0.000005
  Cl     1.388395    1.670834   -0.000011
  B      0.770206    0.057907   -0.000001
  S     -1.092692   -0.259790    0.000003
  O     -1.396889   -0.907675    1.249654
  C     -1.903970    1.314636   -0.000009
  O     -1.396893   -0.907695   -1.249636
  H     -1.640625    1.865694    0.898661
  H     -2.967078    1.078387   -0.000008
  H     -1.640624    1.865681   -0.898687

 Multiplicity           Mult            ....    1
 Number of Electrons    NEL             ....   80
 Basis Dimension        Dim             ....  710

ORBITAL ENERGIES
----------------

  NO   OCC          E(Eh)            E(eV)
   0   2.0000    -104.886601     -2854.1095
   1   2.0000    -104.876248     -2853.8278
   2   2.0000     -92.170503     -2508.0869
   3   2.0000     -20.551435      -559.2330
   4   2.0000     -20.551416      -559.2325
   5   2.0000     -11.279953      -306.9431
   6   2.0000     -10.614274      -288.8291
   7   2.0000     -10.603825      -288.5448
   8   2.0000      -9.143411      -248.8049
   9   2.0000      -8.081082      -219.8974
  10   2.0000      -8.079944      -219.8664
  11   2.0000      -8.079657      -219.8586
  12   2.0000      -8.070657      -219.6137
  13   2.0000      -8.069454      -219.5810
  14   2.0000      -8.069161      -219.5730
  15   2.0000      -7.766586      -211.3395
  16   2.0000      -6.828551      -185.8143
  17   2.0000      -6.827967      -185.7984
  18   2.0000      -6.827789      -185.7936
  19   2.0000      -1.463198       -39.8156
  20   2.0000      -1.351087       -36.7649
  21   2.0000      -1.187135       -32.3036
  22   2.0000      -1.143447       -31.1148
  23   2.0000      -1.055383       -28.7184
  24   2.0000      -0.880864       -23.9695
  25   2.0000      -0.744118       -20.2485
  26   2.0000      -0.682817       -18.5804
  27   2.0000      -0.674793       -18.3621
  28   2.0000      -0.664216       -18.0742
  29   2.0000      -0.620432       -16.8828
  30   2.0000      -0.612536       -16.6679
  31   2.0000      -0.599087       -16.3020
  32   2.0000      -0.560675       -15.2568
  33   2.0000      -0.547169       -14.8892
  34   2.0000      -0.514134       -13.9903
  35   2.0000      -0.498999       -13.5784
  36   2.0000      -0.498609       -13.5678
  37   2.0000      -0.490200       -13.3390
  38   2.0000      -0.482905       -13.1405
  39   2.0000      -0.432500       -11.7689
  40   0.0000       0.020128         0.5477
  41   0.0000       0.031554         0.8586
  42   0.0000       0.035389         0.9630
  43   0.0000       0.039480         1.0743
  44   0.0000       0.040053         1.0899

MULLIKEN ATOMIC CHARGES
-----------------------
   0 Cl:   -0.091743
   1 Cl:   -0.164926
   2 B :    0.324987
   3 S :    2.371432
   4 O :   -1.229530
   5 C :   -1.041061
   6 O :   -1.229530
   7 H :    0.347630
   8 H :    0.365113
   9 H :    0.347629
Sum of atomic charges:   -0.0000000

LOEWDIN ATOMIC CHARGES
----------------------
   0 Cl:    1.298405
   1 Cl:    1.296843
   2 B :   -2.560489
   3 S :   -0.332002
   4 O :    0.284314
   5 C :    0.747169
   6 O :    0.284314
   7 H :   -0.342265
   8 H :   -0.334026
   9 H :   -0.342265

  Mayer bond orders larger than 0.100000
B(  0-Cl,  2-B ) :   1.1266 B(  1-Cl,  2-B ) :   1.0926 B(  2-B ,  3-S ) :   0.8993
B(  3-S ,  4-O ) :   0.9869 B(  3-S ,  5-C ) :   0.9803 B(  3-S ,  6-O ) :   0.9869
B(  5-C ,  7-H ) :   0.8855 B(  5-C ,  8-H ) :   0.8351 B(  5-C ,  9-H ) :   0.8855

MP2 TOTAL ENERGY:    -1532.188939089 Eh
FINAL SINGLE POINT ENERGY     -1532.188939088920

DIPOLE MOMENT
-------------
                                X             Y             Z
Electronic contribution:     11.16523      -2.30433       0.00001
Nuclear contribution   :    -10.64615       3.98338      -0.00002
                        -----------------------------------------
Total Dipole Moment    :      0.51908       1.67906      -0.00002
                        -----------------------------------------
Magnitude (a.u.)       :      1.75747
Magnitude (Debye)      :      4.46712

Rotational constants in cm-1:     0.062316     0.042610     0.029945
Rotational constants in MHz :  1868.173530  1277.418446   897.729443

                             ****ORCA TERMINATED NORMALLY****
TOTAL RUN TIME: 0 days 0 hours 56 minutes 36 seconds 894 msec
